<event>
 8    1  0.1117354E+005  0.1043930E+01  0.7957747E-01            NaN
         13   -1    0    0    0    0  0.00000000000E+00  0.00000000000E+00  0.74505805969E-08  0.10566000000E+00  0.10566000000E+00 0. -1.
     999900   -1    0    0    0    0 -0.00000000000E+00 -0.00000000000E+00 -0.74505805969E-08  0.93827000000E+00  0.93827000000E+00 0.  1.
     999902    2    1    2    0    0  0.23558283204E-02  0.13704276665E-01 -0.19439811615E-01  0.10200288828E+01  0.10197488212E+01 0.  0.
     999903    2    3    3    0    0 -0.53902264203E-01  0.28646038846E-01 -0.11644499197E+00  0.13278695740E+00  0.18624990540E-01 0.  0.
         14    1    1    2    0    0 -0.23558283204E-02 -0.13704276665E-01  0.19439811615E-01  0.23901117163E-01  0.00000000000E+00 0.  1.
     999901    1    3    3    0    0  0.56258092524E-01 -0.14941762181E-01  0.97005180360E-01  0.88724192543E+00  0.88000000000E+00 0. -1.
        -11    1    4    4    0    0 -0.35638861945E-01  0.10147111136E-01 -0.78254439299E-01  0.86585857599E-01  0.51100000000E-03 0. -1.
         11    1    4    4    0    0 -0.18263402258E-01  0.18498927709E-01 -0.38190552676E-01  0.46201099804E-01  0.51100000000E-03 0.  1.
</event>
<event>
 8    1  0.1117354E+005  0.1043930E+01  0.7957747E-01            NaN
         13   -1    0    0    0    0  0.00000000000E+00  0.00000000000E+00  0.74505805969E-08  0.10566000000E+00  0.10566000000E+00 0. -1.
     999900   -1    0    0    0    0 -0.00000000000E+00 -0.00000000000E+00 -0.74505805969E-08  0.93827000000E+00  0.93827000000E+00 0.  1.
     999902    2    1    2    0    0  0.22123022133E-01  0.75127824538E-02  0.43957967878E-02  0.10201562111E+01  0.10198791605E+01 0.  0.
     999903    2    3    3    0    0  0.13155830505E-01  0.85458873193E-02 -0.12773232567E+00  0.13024648616E+00  0.20062205020E-01 0.  0.
         14    1    1    2    0    0 -0.22123022133E-01 -0.75127824538E-02 -0.43957967878E-02  0.23773788883E-01  0.00000000000E+00 0. -1.
     999901    1    3    3    0    0  0.89671916274E-02 -0.10331048654E-02  0.13212812245E+00  0.88990972496E+00  0.88000000000E+00 0. -1.
        -11    1    4    4    0    0  0.32611037966E-02 -0.59290415691E-02 -0.55570941601E-01  0.55983738740E-01  0.51100000000E-03 0.  1.
         11    1    4    4    0    0  0.98947267086E-02  0.14474928888E-01 -0.72161384065E-01  0.74262747419E-01  0.51100000000E-03 0. -1.
</event>
<event>
 8    1  0.1117354E+005  0.1043930E+01  0.7957747E-01            NaN
         13   -1    0    0    0    0  0.00000000000E+00  0.00000000000E+00  0.74505805969E-08  0.10566000000E+00  0.10566000000E+00 0. -1.
     999900   -1    0    0    0    0 -0.00000000000E+00 -0.00000000000E+00 -0.74505805969E-08  0.93827000000E+00  0.93827000000E+00 0.  1.
     999902    2    1    2    0    0  0.20714948753E-01 -0.36415622166E-02  0.11370453452E-01  0.10200206443E+01  0.10197403873E+01 0.  0.
     999903    2    3    3    0    0 -0.10493360893E+00  0.34826638796E-02  0.71578592001E-01  0.12903055763E+00  0.22409791097E-01 0.  0.
         14    1    1    2    0    0 -0.20714948753E-01  0.36415622166E-02 -0.11370453452E-01  0.23909355677E-01  0.00000000000E+00 0.  1.
     999901    1    3    3    0    0  0.12564855769E+00 -0.71242260962E-02 -0.60208138549E-01  0.89099008670E+00  0.88000000000E+00 0.  1.
        -11    1    4    4    0    0 -0.30520147178E-01 -0.26190234149E-02  0.32849661242E-01  0.44918816014E-01  0.51100000000E-03 0.  1.
         11    1    4    4    0    0 -0.74413461755E-01  0.61016872944E-02  0.38728930759E-01  0.84111741611E-01  0.51100000000E-03 0. -1.
</event>
<event>
 8    1  0.1117354E+005  0.1043930E+01  0.7957747E-01            NaN
         13   -1    0    0    0    0  0.00000000000E+00  0.00000000000E+00  0.74505805969E-08  0.10566000000E+00  0.10566000000E+00 0. -1.
     999900   -1    0    0    0    0 -0.00000000000E+00 -0.00000000000E+00 -0.74505805969E-08  0.93827000000E+00  0.93827000000E+00 0. -1.
     999902    2    1    2    0    0 -0.19140875957E-01  0.54277828074E-02  0.13390430827E-01  0.10199479735E+01  0.10196659899E+01 0.  0.
     999903    2    3    3    0    0 -0.10636472953E+00  0.16228020877E-01  0.76385088161E-01  0.13332913055E+00  0.19109448183E-01 0.  0.
         14    1    1    2    0    0  0.19140875957E-01 -0.54277828074E-02 -0.13390430827E-01  0.23982026527E-01  0.00000000000E+00 0.  1.
     999901    1    3    3    0    0  0.87223853574E-01 -0.10800238070E-01 -0.62994657335E-01  0.88661884292E+00  0.88000000000E+00 0. -1.
        -11    1    4    4    0    0 -0.64376407224E-01  0.47253902262E-02  0.35831039729E-01  0.73829368471E-01  0.51100000000E-03 0. -1.
         11    1    4    4    0    0 -0.41988322307E-01  0.11502630651E-01  0.40554048433E-01  0.59499762078E-01  0.51100000000E-03 0.  1.
</event>
<event>
 8    1  0.1117354E+005  0.1043930E+01  0.7957747E-01            NaN
         13   -1    0    0    0    0  0.00000000000E+00  0.00000000000E+00  0.74505805969E-08  0.10566000000E+00  0.10566000000E+00 0.  1.
     999900   -1    0    0    0    0 -0.00000000000E+00 -0.00000000000E+00 -0.74505805969E-08  0.93827000000E+00  0.93827000000E+00 0. -1.
     999902    2    1    2    0    0  0.33915239830E-02  0.58366839268E-02  0.22846408320E-01  0.10201071604E+01  0.10198289518E+01 0.  0.
     999903    2    3    3    0    0 -0.77669341180E-01  0.99493459419E-01  0.30787058911E-01  0.13139713491E+00  0.19644058606E-01 0.  0.
         14    1    1    2    0    0 -0.33915239830E-02 -0.58366839268E-02 -0.22846408320E-01  0.23822839614E-01  0.00000000000E+00 0. -1.
     999901    1    3    3    0    0  0.81060865163E-01 -0.93656775493E-01 -0.79406505915E-02  0.88871002548E+00  0.88000000000E+00 0.  1.
        -11    1    4    4    0    0 -0.15499544327E-01  0.15875632105E-01 -0.16832702370E-02  0.22256821174E-01  0.51100000000E-03 0. -1.
         11    1    4    4    0    0 -0.62169796853E-01  0.83617827315E-01  0.32470329148E-01  0.10914031373E+00  0.51100000000E-03 0.  1.
</event>
<event>
 8    1  0.1117354E+005  0.1043930E+01  0.7957747E-01            NaN
         13   -1    0    0    0    0  0.00000000000E+00  0.00000000000E+00  0.74505805969E-08  0.10566000000E+00  0.10566000000E+00 0.  1.
     999900   -1    0    0    0    0 -0.00000000000E+00 -0.00000000000E+00 -0.74505805969E-08  0.93827000000E+00  0.93827000000E+00 0.  1.
     999902    2    1    2    0    0 -0.16373303851E-01  0.15735224631E-01  0.57096383384E-02  0.10205145704E+01  0.10202459047E+01 0.  0.
     999903    2    3    3    0    0 -0.10658494433E+00  0.56621799375E-01 -0.52326626191E-01  0.13305862216E+00  0.20003564702E-01 0.  0.
         14    1    1    2    0    0  0.16373303851E-01 -0.15735224631E-01 -0.57096383384E-02  0.23415429596E-01  0.00000000000E+00 0. -1.
     999901    1    3    3    0    0  0.90211640478E-01 -0.40886574744E-01  0.58036264529E-01  0.88745594824E+00  0.88000000000E+00 0.  1.
        -11    1    4    4    0    0 -0.33797246261E-01  0.28730489491E-01 -0.17665908055E-01  0.47749767640E-01  0.51100000000E-03 0. -1.
         11    1    4    4    0    0 -0.72787698067E-01  0.27891309884E-01 -0.34660718136E-01  0.85308854521E-01  0.51100000000E-03 0.  1.
</event>
<event>
 8    1  0.1117354E+005  0.1043930E+01  0.7957747E-01            NaN
         13   -1    0    0    0    0  0.00000000000E+00  0.00000000000E+00  0.74505805969E-08  0.10566000000E+00  0.10566000000E+00 0.  1.
     999900   -1    0    0    0    0 -0.00000000000E+00 -0.00000000000E+00 -0.74505805969E-08  0.93827000000E+00  0.93827000000E+00 0.  1.
     999902    2    1    2    0    0 -0.21197631537E-01 -0.74895508548E-02 -0.93191714514E-02  0.10195931984E+01  0.10193027079E+01 0.  0.
     999903    2    3    3    0    0 -0.11287685498E-01 -0.12244787570E+00  0.39602659152E-01  0.13071358396E+00  0.19919244818E-01 0.  0.
         14    1    1    2    0    0  0.21197631537E-01  0.74895508548E-02  0.93191714514E-02  0.24336801584E-01  0.00000000000E+00 0.  1.
     999901    1    3    3    0    0 -0.99099460391E-02  0.11495832484E+00 -0.48921830603E-01  0.88887961445E+00  0.88000000000E+00 0.  1.
        -11    1    4    4    0    0  0.53716007858E-02 -0.31418367593E-01  0.12959262541E-01  0.34411793383E-01  0.51100000000E-03 0.  1.
         11    1    4    4    0    0 -0.16659286283E-01 -0.91029508104E-01  0.26643396611E-01  0.96301790581E-01  0.51100000000E-03 0. -1.
</event>
<event>
 8    1  0.1117354E+005  0.1043930E+01  0.7957747E-01            NaN
         13   -1    0    0    0    0  0.00000000000E+00  0.00000000000E+00  0.74505805969E-08  0.10566000000E+00  0.10566000000E+00 0. -1.
     999900   -1    0    0    0    0 -0.00000000000E+00 -0.00000000000E+00 -0.74505805969E-08  0.93827000000E+00  0.93827000000E+00 0. -1.
     999902    2    1    2    0    0  0.11245558456E-01  0.14637361273E-01 -0.15124516021E-01  0.10200665150E+01  0.10197873451E+01 0.  0.
     999903    2    3    3    0    0  0.28211059137E-01 -0.54328261878E-01 -0.11462564003E+00  0.13161586414E+00  0.20887183714E-01 0.  0.
         14    1    1    2    0    0 -0.11245558456E-01 -0.14637361273E-01  0.15124516021E-01  0.23863484969E-01  0.00000000000E+00 0. -1.
     999901    1    3    3    0    0 -0.16965500682E-01  0.68965623150E-01  0.99501124014E-01  0.88845065089E+00  0.88000000000E+00 0.  1.
        -11    1    4    4    0    0  0.14124239210E-01 -0.45937349974E-01 -0.89942151988E-01  0.10197836085E+00  0.51100000000E-03 0. -1.
         11    1    4    4    0    0  0.14086819927E-01 -0.83909119038E-02 -0.24683488046E-01  0.29637503292E-01  0.51100000000E-03 0.  1.
</event>
<event>
 8    1  0.1117354E+005  0.1043930E+01  0.7957747E-01            NaN
         13   -1    0    0    0    0  0.00000000000E+00  0.00000000000E+00  0.74505805969E-08  0.10566000000E+00  0.10566000000E+00 0. -1.
     999900   -1    0    0    0    0 -0.00000000000E+00 -0.00000000000E+00 -0.74505805969E-08  0.93827000000E+00  0.93827000000E+00 0. -1.
     999902    2    1    2    0    0  0.85654705223E-02  0.18332333256E-01 -0.10973101564E-01  0.10209115143E+01  0.10206519824E+01 0.  0.
     999903    2    3    3    0    0  0.30610114611E-01  0.85594791787E-02  0.12454693533E+00  0.13021114073E+00  0.20802842794E-01 0.  0.
         14    1    1    2    0    0 -0.85654705223E-02 -0.18332333256E-01  0.10973101564E-01  0.23018485741E-01  0.00000000000E+00 0. -1.
     999901    1    3    3    0    0 -0.22044644089E-01  0.97728540768E-02 -0.13552003690E+00  0.89070037353E+00  0.88000000000E+00 0. -1.
        -11    1    4    4    0    0  0.24736194298E-01 -0.30741233210E-02  0.83357951126E-01  0.87006543889E-01  0.51100000000E-03 0.  1.
         11    1    4    4    0    0  0.58739203129E-02  0.11633602500E-01  0.41188984207E-01  0.43204596838E-01  0.51100000000E-03 0. -1.
</event>
<event>
 8    1  0.1117354E+005  0.1043930E+01  0.7957747E-01            NaN
         13   -1    0    0    0    0  0.00000000000E+00  0.00000000000E+00  0.74505805969E-08  0.10566000000E+00  0.10566000000E+00 0.  1.
     999900   -1    0    0    0    0 -0.00000000000E+00 -0.00000000000E+00 -0.74505805969E-08  0.93827000000E+00  0.93827000000E+00 0.  1.
     999902    2    1    2    0    0 -0.12980548209E-01  0.19386107150E-01 -0.31853145498E-02  0.10203829830E+01  0.10201112537E+01 0.  0.
     999903    2    3    3    0    0 -0.49431057616E-01  0.86464586049E-01 -0.86131595100E-01  0.13319177053E+00  0.20045996254E-01 0.  0.
         14    1    1    2    0    0  0.12980548209E-01 -0.19386107150E-01  0.31853145498E-02  0.23547017030E-01  0.00000000000E+00 0. -1.
     999901    1    3    3    0    0  0.36450509407E-01 -0.67078478899E-01  0.82946280550E-01  0.88719121244E+00  0.88000000000E+00 0.  1.
        -11    1    4    4    0    0 -0.13977195821E-01  0.40582505850E-01 -0.44348041592E-01  0.61719621662E-01  0.51100000000E-03 0.  1.
         11    1    4    4    0    0 -0.35453861795E-01  0.45882080198E-01 -0.41783553508E-01  0.71472148871E-01  0.51100000000E-03 0. -1.
</event>
<event>
 8    1  0.1117354E+005  0.1043930E+01  0.7957747E-01            NaN
         13   -1    0    0    0    0  0.00000000000E+00  0.00000000000E+00  0.74505805969E-08  0.10566000000E+00  0.10566000000E+00 0. -1.
     999900   -1    0    0    0    0 -0.00000000000E+00 -0.00000000000E+00 -0.74505805969E-08  0.93827000000E+00  0.93827000000E+00 0.  1.
     999902    2    1    2    0    0  0.46834933965E-02  0.77304981940E-02 -0.22035082538E-01  0.10201131871E+01  0.10198351210E+01 0.  0.
     999903    2    3    3    0    0  0.39240271700E-02 -0.80016863265E-01  0.97427578705E-01  0.12771669248E+00  0.20033073909E-01 0.  0.
         14    1    1    2    0    0 -0.46834933965E-02 -0.77304981940E-02  0.22035082538E-01  0.23816812868E-01  0.00000000000E+00 0. -1.
     999901    1    3    3    0    0  0.75946622652E-03  0.87747361458E-01 -0.11946266124E+00  0.89239649465E+00  0.88000000000E+00 0.  1.
        -11    1    4    4    0    0  0.35295670242E-02 -0.19689167526E-01  0.38462236000E-01  0.43355805613E-01  0.51100000000E-03 0. -1.
         11    1    4    4    0    0  0.39446014581E-03 -0.60327695739E-01  0.58965342705E-01  0.84360886869E-01  0.51100000000E-03 0.  1.
</event>
<event>
 8    1  0.1117354E+005  0.1043930E+01  0.7957747E-01            NaN
         13   -1    0    0    0    0  0.00000000000E+00  0.00000000000E+00  0.74505805969E-08  0.10566000000E+00  0.10566000000E+00 0. -1.
     999900   -1    0    0    0    0 -0.00000000000E+00 -0.00000000000E+00 -0.74505805969E-08  0.93827000000E+00  0.93827000000E+00 0. -1.
     999902    2    1    2    0    0  0.61735848429E-02 -0.78609608783E-02  0.21131126151E-01  0.10205541075E+01  0.10202863589E+01 0.  0.
     999903    2    3    3    0    0  0.26369097376E-01  0.10954302745E+00 -0.59357957018E-01  0.12888710260E+00  0.19837187159E-01 0.  0.
         14    1    1    2    0    0 -0.61735848429E-02  0.78609608783E-02 -0.21131126151E-01  0.23375892457E-01  0.00000000000E+00 0.  1.
     999901    1    3    3    0    0 -0.20195512533E-01 -0.11740398833E+00  0.80489083169E-01  0.89166700495E+00  0.88000000000E+00 0.  1.
        -11    1    4    4    0    0 -0.31971745702E-02  0.11174074595E-01 -0.72580212006E-02  0.13712106367E-01  0.51100000000E-03 0. -1.
         11    1    4    4    0    0  0.29566271946E-01  0.98368952857E-01 -0.52099935817E-01  0.11517499623E+00  0.51100000000E-03 0.  1.
</event>
<event>
 8    1  0.1117354E+005  0.1043930E+01  0.7957747E-01            NaN
         13   -1    0    0    0    0  0.00000000000E+00  0.00000000000E+00  0.74505805969E-08  0.10566000000E+00  0.10566000000E+00 0. -1.
     999900   -1    0    0    0    0 -0.00000000000E+00 -0.00000000000E+00 -0.74505805969E-08  0.93827000000E+00  0.93827000000E+00 0.  1.
     999902    2    1    2    0    0  0.12478858008E-01 -0.88931271515E-02  0.17991231960E-01  0.10202975216E+01  0.10200237931E+01 0.  0.
     999903    2    3    3    0    0 -0.55537486490E-01  0.11519162813E+00 -0.39110923991E-02  0.12872421479E+00  0.14181087117E-01 0.  0.
         14    1    1    2    0    0 -0.12478858008E-01  0.88931271515E-02 -0.17991231960E-01  0.23632478396E-01  0.00000000000E+00 0.  1.
     999901    1    3    3    0    0  0.68016344498E-01 -0.12408475528E+00  0.21902324359E-01  0.89157330681E+00  0.88000000000E+00 0. -1.
        -11    1    4    4    0    0 -0.36614757717E-01  0.65598866333E-01  0.30373106071E-02  0.75188683481E-01  0.51100000000E-03 0. -1.
         11    1    4    4    0    0 -0.18922728773E-01  0.49592761799E-01 -0.69484030062E-02  0.53535531307E-01  0.51100000000E-03 0.  1.
</event>
<event>
 8    1  0.1117354E+005  0.1043930E+01  0.7957747E-01            NaN
         13   -1    0    0    0    0  0.00000000000E+00  0.00000000000E+00  0.74505805969E-08  0.10566000000E+00  0.10566000000E+00 0. -1.
     999900   -1    0    0    0    0 -0.00000000000E+00 -0.00000000000E+00 -0.74505805969E-08  0.93827000000E+00  0.93827000000E+00 0. -1.
     999902    2    1    2    0    0  0.25864186648E-01  0.64067657135E-02 -0.49725248557E-02  0.10168241187E+01  0.10164627684E+01 0.  0.
     999903    2    3    3    0    0  0.10918251941E+00 -0.19835468132E-02 -0.68623113736E-01  0.13056019673E+00  0.20299660802E-01 0.  0.
         14    1    1    2    0    0 -0.25864186648E-01 -0.64067657135E-02  0.49725248557E-02  0.27105881305E-01  0.00000000000E+00 0.  1.
     999901    1    3    3    0    0 -0.83318332759E-01  0.83903125266E-02  0.63650588880E-01  0.88626392197E+00  0.88000000000E+00 0.  1.
        -11    1    4    4    0    0  0.34160034093E-01  0.13001523713E-02 -0.32719888198E-01  0.47322833074E-01  0.51100000000E-03 0.  1.
         11    1    4    4    0    0  0.75022485314E-01 -0.32836991845E-02 -0.35903225538E-01  0.83237363654E-01  0.51100000000E-03 0. -1.
</event>
<event>
 8    1  0.1117354E+005  0.1043930E+01  0.7957747E-01            NaN
         13   -1    0    0    0    0  0.00000000000E+00  0.00000000000E+00  0.74505805969E-08  0.10566000000E+00  0.10566000000E+00 0. -1.
     999900   -1    0    0    0    0 -0.00000000000E+00 -0.00000000000E+00 -0.74505805969E-08  0.93827000000E+00  0.93827000000E+00 0. -1.
     999902    2    1    2    0    0  0.20645657761E-01 -0.96776738988E-02 -0.64974242192E-02  0.10202209916E+01  0.10199454665E+01 0.  0.
     999903    2    3    3    0    0 -0.84459817492E-01  0.35277996334E-01 -0.88767678053E-01  0.12902148092E+00  0.19719129720E-01 0.  0.
         14    1    1    2    0    0 -0.20645657761E-01  0.96776738988E-02  0.64974242192E-02  0.23709008371E-01  0.00000000000E+00 0. -1.
     999901    1    3    3    0    0  0.10510547525E+00 -0.44955670233E-01  0.82270253833E-01  0.89119951070E+00  0.88000000000E+00 0.  1.
        -11    1    4    4    0    0 -0.40267817036E-01  0.71148038324E-02 -0.33568379724E-01  0.52907605887E-01  0.51100000000E-03 0. -1.
         11    1    4    4    0    0 -0.44192000456E-01  0.28163192502E-01 -0.55199298329E-01  0.76113875037E-01  0.51100000000E-03 0.  1.
</event>
<event>
 8    1  0.1117354E+005  0.1043930E+01  0.7957747E-01            NaN
         13   -1    0    0    0    0  0.00000000000E+00  0.00000000000E+00  0.74505805969E-08  0.10566000000E+00  0.10566000000E+00 0. -1.
     999900   -1    0    0    0    0 -0.00000000000E+00 -0.00000000000E+00 -0.74505805969E-08  0.93827000000E+00  0.93827000000E+00 0.  1.
     999902    2    1    2    0    0 -0.15182131888E-01 -0.24863010386E-02  0.17387242871E-01  0.10207137334E+01  0.10204496707E+01 0.  0.
     999903    2    3    3    0    0 -0.76335363188E-01  0.24266973703E-01  0.10526997749E+00  0.13382093802E+00  0.20255902976E-01 0.  0.
         14    1    1    2    0    0  0.15182131888E-01  0.24863010386E-02 -0.17387242871E-01  0.23216266629E-01  0.00000000000E+00 0.  1.
     999901    1    3    3    0    0  0.61153231301E-01 -0.26753274742E-01 -0.87882734618E-01  0.88689279535E+00  0.88000000000E+00 0. -1.
        -11    1    4    4    0    0 -0.61188535938E-01  0.22109166686E-01  0.71085015172E-01  0.96364893425E-01  0.51100000000E-03 0.  1.
         11    1    4    4    0    0 -0.15146827250E-01  0.21578070177E-02  0.34184962317E-01  0.37456044592E-01  0.51100000000E-03 0. -1.
</event>
<event>
 8    1  0.1117354E+005  0.1043930E+01  0.7957747E-01            NaN
         13   -1    0    0    0    0  0.00000000000E+00  0.00000000000E+00  0.74505805969E-08  0.10566000000E+00  0.10566000000E+00 0. -1.
     999900   -1    0    0    0    0 -0.00000000000E+00 -0.00000000000E+00 -0.74505805969E-08  0.93827000000E+00  0.93827000000E+00 0.  1.
     999902    2    1    2    0    0  0.18154053429E-01 -0.14553838667E-01 -0.49348659560E-03  0.10206571101E+01  0.10203917429E+01 0.  0.
     999903    2    3    3    0    0 -0.81266046221E-01 -0.90412916116E-01 -0.43581534415E-01  0.13077198508E+00  0.20574165126E-01 0.  0.
         14    1    1    2    0    0 -0.18154053429E-01  0.14553838667E-01  0.49348659560E-03  0.23272889912E-01  0.00000000000E+00 0. -1.
     999901    1    3    3    0    0  0.99420099650E-01  0.75859077449E-01  0.43088047819E-01  0.88988512501E+00  0.88000000000E+00 0. -1.
        -11    1    4    4    0    0 -0.29970738306E-01 -0.45377732551E-01 -0.26016019649E-01  0.60286633389E-01  0.51100000000E-03 0. -1.
         11    1    4    4    0    0 -0.51295307915E-01 -0.45035183565E-01 -0.17565514766E-01  0.70485351690E-01  0.51100000000E-03 0.  1.
</event>
<event>
 8    1  0.1117354E+005  0.1043930E+01  0.7957747E-01            NaN
         13   -1    0    0    0    0  0.00000000000E+00  0.00000000000E+00  0.74505805969E-08  0.10566000000E+00  0.10566000000E+00 0.  1.
     999900   -1    0    0    0    0 -0.00000000000E+00 -0.00000000000E+00 -0.74505805969E-08  0.93827000000E+00  0.93827000000E+00 0. -1.
     999902    2    1    2    0    0  0.11191029757E-01 -0.17757373642E-01 -0.93894044458E-02  0.10209359925E+01  0.10206770186E+01 0.  0.
     999903    2    3    3    0    0 -0.10922345429E-03  0.67457243608E-01  0.10763939579E+00  0.12903635307E+00  0.22663831139E-01 0.  0.
         14    1    1    2    0    0 -0.11191029757E-01  0.17757373642E-01  0.93894044458E-02  0.22994007513E-01  0.00000000000E+00 0. -1.
     999901    1    3    3    0    0  0.11300253212E-01 -0.85214617249E-01 -0.11702880023E+00  0.89189963942E+00  0.88000000000E+00 0. -1.
        -11    1    4    4    0    0 -0.10618279866E-01  0.23184845555E-01  0.34688029696E-01  0.43055841135E-01  0.51100000000E-03 0.  1.
         11    1    4    4    0    0  0.10509056411E-01  0.44272398053E-01  0.72951366092E-01  0.85980511930E-01  0.51100000000E-03 0. -1.
</event>
<event>
 8    1  0.1117354E+005  0.1043930E+01  0.7957747E-01            NaN
         13   -1    0    0    0    0  0.00000000000E+00  0.00000000000E+00  0.74505805969E-08  0.10566000000E+00  0.10566000000E+00 0. -1.
     999900   -1    0    0    0    0 -0.00000000000E+00 -0.00000000000E+00 -0.74505805969E-08  0.93827000000E+00  0.93827000000E+00 0. -1.
     999902    2    1    2    0    0 -0.18932406248E-01  0.23112517345E-02  0.15359488460E-01  0.10194413950E+01  0.10191472249E+01 0.  0.
     999903    2    3    3    0    0 -0.13026253758E+00 -0.84500471495E-02  0.10107751399E-01  0.13234625664E+00  0.19329589081E-01 0.  0.
         14    1    1    2    0    0  0.18932406248E-01 -0.23112517345E-02 -0.15359488460E-01  0.24488605037E-01  0.00000000000E+00 0.  1.
     999901    1    3    3    0    0  0.11133013133E+00  0.10761298884E-01  0.52517370605E-02  0.88709513832E+00  0.88000000000E+00 0. -1.
        -11    1    4    4    0    0 -0.59459329998E-01 -0.48126036865E-02 -0.49688258059E-02  0.59862537776E-01  0.51100000000E-03 0. -1.
         11    1    4    4    0    0 -0.70803207583E-01 -0.36374434630E-02  0.15076577205E-01  0.72483718862E-01  0.51100000000E-03 0.  1.
</event>
<event>
 8    1  0.1117354E+005  0.1043930E+01  0.7957747E-01            NaN
         13   -1    0    0    0    0  0.00000000000E+00  0.00000000000E+00  0.74505805969E-08  0.10566000000E+00  0.10566000000E+00 0.  1.
     999900   -1    0    0    0    0 -0.00000000000E+00 -0.00000000000E+00 -0.74505805969E-08  0.93827000000E+00  0.93827000000E+00 0.  1.
     999902    2    1    2    0    0  0.12797829879E-01 -0.15212798355E-01  0.13718729272E-01  0.10197759689E+01  0.10194898772E+01 0.  0.
     999903    2    3    3    0    0  0.53742999782E-02  0.10351686871E+00 -0.71553322333E-01  0.12768675512E+00  0.20961972406E-01 0.  0.
         14    1    1    2    0    0 -0.12797829879E-01  0.15212798355E-01 -0.13718729272E-01  0.24154031056E-01  0.00000000000E+00 0. -1.
     999901    1    3    3    0    0  0.74235299011E-02 -0.11872966707E+00  0.85272051605E-01  0.89208921383E+00  0.88000000000E+00 0.  1.
        -11    1    4    4    0    0 -0.77830347070E-02  0.27121998324E-01 -0.19951463679E-01  0.34561545774E-01  0.51100000000E-03 0.  1.
         11    1    4    4    0    0  0.13157334685E-01  0.76394870390E-01 -0.51601858654E-01  0.93125209345E-01  0.51100000000E-03 0. -1.
</event>
<event>
 8    1  0.1117354E+005  0.1043930E+01  0.7957747E-01            NaN
         13   -1    0    0    0    0  0.00000000000E+00  0.00000000000E+00  0.74505805969E-08  0.10566000000E+00  0.10566000000E+00 0.  1.
     999900   -1    0    0    0    0 -0.00000000000E+00 -0.00000000000E+00 -0.74505805969E-08  0.93827000000E+00  0.93827000000E+00 0.  1.
     999902    2    1    2    0    0  0.10890992976E-01  0.57846813565E-02 -0.93086889241E-02  0.10284791762E+01  0.10283631109E+01 0.  0.
     999903    2    3    3    0    0 -0.59102848539E-01 -0.99292133280E-01  0.69191457209E-01  0.13600926200E+00  0.18946956540E-01 0.  0.
         14    1    1    2    0    0 -0.10890992976E-01 -0.57846813565E-02  0.93086889241E-02  0.15450823793E-01  0.00000000000E+00 0.  1.
     999901    1    3    3    0    0  0.69993841515E-01  0.10507681464E+00 -0.78500146133E-01  0.89246991421E+00  0.88000000000E+00 0.  1.
        -11    1    4    4    0    0 -0.33979114453E-01 -0.43343436017E-01  0.40088617306E-01  0.68121890925E-01  0.51100000000E-03 0.  1.
         11    1    4    4    0    0 -0.25123734086E-01 -0.55948697263E-01  0.29102839903E-01  0.67887371073E-01  0.51100000000E-03 0. -1.
</event>
<event>
 8    1  0.1117354E+005  0.1043930E+01  0.7957747E-01            NaN
         13   -1    0    0    0    0  0.00000000000E+00  0.00000000000E+00  0.74505805969E-08  0.10566000000E+00  0.10566000000E+00 0. -1.
     999900   -1    0    0    0    0 -0.00000000000E+00 -0.00000000000E+00 -0.74505805969E-08  0.93827000000E+00  0.93827000000E+00 0.  1.
     999902    2    1    2    0    0 -0.32741684632E-03  0.66081285409E-02 -0.22799858245E-01  0.10201895682E+01  0.10199133037E+01 0.  0.
     999903    2    3    3    0    0 -0.49295262032E-01  0.11584900841E+00 -0.34325025895E-01  0.13200926605E+00  0.19930461921E-01 0.  0.
         14    1    1    2    0    0  0.32741684632E-03 -0.66081285409E-02  0.22799858245E-01  0.23740431769E-01  0.00000000000E+00 0. -1.
     999901    1    3    3    0    0  0.48967845186E-01 -0.10924087987E+00  0.11525167650E-01  0.88818030218E+00  0.88000000000E+00 0. -1.
        -11    1    4    4    0    0 -0.11900879024E-01  0.38177312336E-01 -0.23405860602E-02  0.40060923140E-01  0.51100000000E-03 0.  1.
         11    1    4    4    0    0 -0.37394383008E-01  0.77671696070E-01 -0.31984439835E-01  0.91948342908E-01  0.51100000000E-03 0. -1.
</event>
<event>
 8    1  0.1117354E+005  0.1043930E+01  0.7957747E-01            NaN
         13   -1    0    0    0    0  0.00000000000E+00  0.00000000000E+00  0.74505805969E-08  0.10566000000E+00  0.10566000000E+00 0.  1.
     999900   -1    0    0    0    0 -0.00000000000E+00 -0.00000000000E+00 -0.74505805969E-08  0.93827000000E+00  0.93827000000E+00 0.  1.
     999902    2    1    2    0    0  0.11968571609E-01  0.14920235959E-01 -0.16962346300E-01  0.10183647631E+01  0.10180438150E+01 0.  0.
     999903    2    3    3    0    0 -0.90718910283E-01  0.78843636765E-01 -0.44233364715E-01  0.12967211172E+00  0.20298430070E-01 0.  0.
         14    1    1    2    0    0 -0.11968571609E-01 -0.14920235959E-01  0.16962346300E-01  0.25565236933E-01  0.00000000000E+00 0.  1.
     999901    1    3    3    0    0  0.10268748189E+00 -0.63923400806E-01  0.27271018415E-01  0.88869265134E+00  0.88000000000E+00 0. -1.
        -11    1    4    4    0    0 -0.33774362856E-01  0.41130987224E-01 -0.24391066008E-01  0.58546143497E-01  0.51100000000E-03 0.  1.
         11    1    4    4    0    0 -0.56944547427E-01  0.37712649541E-01 -0.19842298707E-01  0.71125968226E-01  0.51100000000E-03 0. -1.
</event>
<event>
 8    1  0.1117354E+005  0.1043930E+01  0.7957747E-01            NaN
         13   -1    0    0    0    0  0.00000000000E+00  0.00000000000E+00  0.74505805969E-08  0.10566000000E+00  0.10566000000E+00 0. -1.
     999900   -1    0    0    0    0 -0.00000000000E+00 -0.00000000000E+00 -0.74505805969E-08  0.93827000000E+00  0.93827000000E+00 0.  1.
     999902    2    1    2    0    0  0.92291725129E-02 -0.21221369208E-01  0.26719987056E-02  0.10206348564E+01  0.10203689757E+01 0.  0.
     999903    2    3    3    0    0 -0.43180574521E-01  0.12211507248E-01  0.12108991801E+00  0.13052961411E+00  0.19013915737E-01 0.  0.
         14    1    1    2    0    0 -0.92291725129E-02  0.21221369208E-01 -0.26719987056E-02  0.23295143559E-01  0.00000000000E+00 0.  1.
     999901    1    3    3    0    0  0.52409747033E-01 -0.33432876456E-01 -0.11841791930E+00  0.89010524233E+00  0.88000000000E+00 0.  1.
        -11    1    4    4    0    0 -0.59189591465E-02  0.90513769155E-02  0.35777109480E-01  0.37379462077E-01  0.51100000000E-03 0. -1.
         11    1    4    4    0    0 -0.37261615374E-01  0.31601303326E-02  0.85312808528E-01  0.93150152034E-01  0.51100000000E-03 0.  1.
</event>
<event>
 8    1  0.1117354E+005  0.1043930E+01  0.7957747E-01            NaN
         13   -1    0    0    0    0  0.00000000000E+00  0.00000000000E+00  0.74505805969E-08  0.10566000000E+00  0.10566000000E+00 0.  1.
     999900   -1    0    0    0    0 -0.00000000000E+00 -0.00000000000E+00 -0.74505805969E-08  0.93827000000E+00  0.93827000000E+00 0. -1.
     999902    2    1    2    0    0 -0.16415591289E-01 -0.37071878100E-02  0.14330970598E-01  0.10218258919E+01  0.10215867862E+01 0.  0.
     999903    2    3    3    0    0 -0.73349794071E-01  0.10856023183E+00  0.10067877132E-01  0.13285814726E+00  0.19606348890E-01 0.  0.
         14    1    1    2    0    0  0.16415591289E-01  0.37071878100E-02 -0.14330970598E-01  0.22104108150E-01  0.00000000000E+00 0. -1.
     999901    1    3    3    0    0  0.56934202782E-01 -0.11226741964E+00  0.42630934662E-02  0.88896774459E+00  0.88000000000E+00 0. -1.
        -11    1    4    4    0    0 -0.28761832101E-01  0.58173493157E-01  0.51662037996E-03  0.64899355232E-01  0.51100000000E-03 0. -1.
         11    1    4    4    0    0 -0.44587961970E-01  0.50386738677E-01  0.95512567515E-02  0.67958792026E-01  0.51100000000E-03 0.  1.
</event>
<event>
 8    1  0.1117354E+005  0.1043930E+01  0.7957747E-01            NaN
         13   -1    0    0    0    0  0.00000000000E+00  0.00000000000E+00  0.74505805969E-08  0.10566000000E+00  0.10566000000E+00 0.  1.
     999900   -1    0    0    0    0 -0.00000000000E+00 -0.00000000000E+00 -0.74505805969E-08  0.93827000000E+00  0.93827000000E+00 0.  1.
     999902    2    1    2    0    0  0.18026090929E-01 -0.13197547033E-01 -0.73766408035E-02  0.10204027811E+01  0.10201315138E+01 0.  0.
     999903    2    3    3    0    0 -0.30810944892E-01 -0.11728653900E+00  0.46244799440E-01  0.13130501749E+00  0.19924346563E-01 0.  0.
         14    1    1    2    0    0 -0.18026090929E-01  0.13197547033E-01  0.73766408035E-02  0.23527218948E-01  0.00000000000E+00 0. -1.
     999901    1    3    3    0    0  0.48837035821E-01  0.10408899197E+00 -0.53621440243E-01  0.88909776356E+00  0.88000000000E+00 0.  1.
        -11    1    4    4    0    0 -0.16307594511E-01 -0.70563069023E-01  0.37664106798E-01  0.81632900295E-01  0.51100000000E-03 0. -1.
         11    1    4    4    0    0 -0.14503350382E-01 -0.46723469981E-01  0.85806926413E-02  0.49672117195E-01  0.51100000000E-03 0.  1.
</event>
<event>
 8    1  0.1117354E+005  0.1043930E+01  0.7957747E-01            NaN
         13   -1    0    0    0    0  0.00000000000E+00  0.00000000000E+00  0.74505805969E-08  0.10566000000E+00  0.10566000000E+00 0. -1.
     999900   -1    0    0    0    0 -0.00000000000E+00 -0.00000000000E+00 -0.74505805969E-08  0.93827000000E+00  0.93827000000E+00 0. -1.
     999902    2    1    2    0    0 -0.22300744238E-02 -0.11545534151E-01 -0.20950401261E-01  0.10199051815E+01  0.10196221787E+01 0.  0.
     999903    2    3    3    0    0  0.92539566775E-01 -0.75403386057E-01  0.47126761412E-01  0.12990877127E+00  0.20152299252E-01 0.  0.
         14    1    1    2    0    0  0.22300744238E-02  0.11545534151E-01  0.20950401261E-01  0.24024818496E-01  0.00000000000E+00 0. -1.
     999901    1    3    3    0    0 -0.94769641199E-01  0.63857851906E-01 -0.68077162673E-01  0.88999641023E+00  0.88000000000E+00 0. -1.
        -11    1    4    4    0    0  0.40831573525E-01 -0.33371710729E-01  0.31622045318E-01  0.61490676892E-01  0.51100000000E-03 0. -1.
         11    1    4    4    0    0  0.51707993250E-01 -0.42031675328E-01  0.15504716094E-01  0.68418094383E-01  0.51100000000E-03 0.  1.
</event>
<event>
 8    1  0.1117354E+005  0.1043930E+01  0.7957747E-01            NaN
         13   -1    0    0    0    0  0.00000000000E+00  0.00000000000E+00  0.74505805969E-08  0.10566000000E+00  0.10566000000E+00 0. -1.
     999900   -1    0    0    0    0 -0.00000000000E+00 -0.00000000000E+00 -0.74505805969E-08  0.93827000000E+00  0.93827000000E+00 0.  1.
     999902    2    1    2    0    0  0.27213853038E-02 -0.14507633592E-02  0.23307259969E-01  0.10204195976E+01  0.10201487226E+01 0.  0.
     999903    2    3    3    0    0 -0.73644585204E-02  0.12385654140E+00  0.38429379863E-01  0.13135698826E+00  0.19574550619E-01 0.  0.
         14    1    1    2    0    0 -0.27213853038E-02  0.14507633592E-02 -0.23307259969E-01  0.23510402370E-01  0.00000000000E+00 0.  1.
     999901    1    3    3    0    0  0.10085843824E-01 -0.12530730476E+00 -0.15122119893E-01  0.88906260937E+00  0.88000000000E+00 0. -1.
        -11    1    4    4    0    0  0.31603074980E-02  0.86686027194E-01  0.30226906668E-01  0.91860665477E-01  0.51100000000E-03 0.  1.
         11    1    4    4    0    0 -0.10524766018E-01  0.37170514203E-01  0.82024731953E-02  0.39496322783E-01  0.51100000000E-03 0. -1.
</event>
<event>
 8    1  0.1117354E+005  0.1043930E+01  0.7957747E-01            NaN
         13   -1    0    0    0    0  0.00000000000E+00  0.00000000000E+00  0.74505805969E-08  0.10566000000E+00  0.10566000000E+00 0. -1.
     999900   -1    0    0    0    0 -0.00000000000E+00 -0.00000000000E+00 -0.74505805969E-08  0.93827000000E+00  0.93827000000E+00 0.  1.
     999902    2    1    2    0    0  0.35096169358E-02  0.23427453871E-01  0.23244306052E-02  0.10201273534E+01  0.10198496219E+01 0.  0.
     999903    2    3    3    0    0 -0.34545346106E-01 -0.92379707811E-01 -0.78864048875E-01  0.12802251200E+00  0.21043621863E-01 0.  0.
         14    1    1    2    0    0 -0.35096169358E-02 -0.23427453871E-01 -0.23244306052E-02  0.23802646566E-01  0.00000000000E+00 0.  1.
     999901    1    3    3    0    0  0.38054963042E-01  0.11580716168E+00  0.81188479480E-01  0.89210484143E+00  0.88000000000E+00 0. -1.
        -11    1    4    4    0    0 -0.27038207502E-01 -0.44287694345E-01 -0.45440773661E-01  0.68975282291E-01  0.51100000000E-03 0.  1.
         11    1    4    4    0    0 -0.75071386035E-02 -0.48092013466E-01 -0.33423275214E-01  0.59047229709E-01  0.51100000000E-03 0. -1.
</event>
<event>
 8    1  0.1117354E+005  0.1043930E+01  0.7957747E-01            NaN
         13   -1    0    0    0    0  0.00000000000E+00  0.00000000000E+00  0.74505805969E-08  0.10566000000E+00  0.10566000000E+00 0.  1.
     999900   -1    0    0    0    0 -0.00000000000E+00 -0.00000000000E+00 -0.74505805969E-08  0.93827000000E+00  0.93827000000E+00 0.  1.
     999902    2    1    2    0    0 -0.26929935850E-01 -0.61465850909E-04  0.32663795742E-02  0.10168026253E+01  0.10164406940E+01 0.  0.
     999903    2    3    3    0    0  0.68450055467E-01  0.86149196956E-01  0.57427141387E-01  0.12581272117E+00  0.20588103639E-01 0.  0.
         14    1    1    2    0    0  0.26929935850E-01  0.61465850909E-04 -0.32663795742E-02  0.27127374707E-01  0.00000000000E+00 0.  1.
     999901    1    3    3    0    0 -0.95379991317E-01 -0.86210662807E-01 -0.54160761813E-01  0.89098990412E+00  0.88000000000E+00 0.  1.
        -11    1    4    4    0    0  0.29602642260E-01  0.39116095962E-01  0.37116102553E-01  0.61516270870E-01  0.51100000000E-03 0.  1.
         11    1    4    4    0    0  0.38847413207E-01  0.47033100994E-01  0.20311038834E-01  0.64296450302E-01  0.51100000000E-03 0. -1.
</event>
<event>
 8    1  0.1117354E+005  0.1043930E+01  0.7957747E-01            NaN
         13   -1    0    0    0    0  0.00000000000E+00  0.00000000000E+00  0.74505805969E-08  0.10566000000E+00  0.10566000000E+00 0. -1.
     999900   -1    0    0    0    0 -0.00000000000E+00 -0.00000000000E+00 -0.74505805969E-08  0.93827000000E+00  0.93827000000E+00 0. -1.
     999902    2    1    2    0    0  0.21211020514E-01 -0.80449468272E-02  0.15279541301E-01  0.10165787122E+01  0.10162106992E+01 0.  0.
     999903    2    3    3    0    0 -0.57432512090E-01 -0.82125163735E-01  0.76555157473E-01  0.12785637938E+00  0.21060048641E-01 0.  0.
         14    1    1    2    0    0 -0.21211020514E-01  0.80449468272E-02 -0.15279541301E-01  0.27351287777E-01  0.00000000000E+00 0. -1.
     999901    1    3    3    0    0  0.78643532604E-01  0.74080216908E-01 -0.61275616172E-01  0.88872233284E+00  0.88000000000E+00 0.  1.
        -11    1    4    4    0    0 -0.24280755926E-01 -0.34317719335E-01  0.19409993148E-01  0.46306262251E-01  0.51100000000E-03 0.  1.
         11    1    4    4    0    0 -0.33151756164E-01 -0.47807444400E-01  0.57145164325E-01  0.81550117128E-01  0.51100000000E-03 0. -1.
</event>
<event>
 8    1  0.1117354E+005  0.1043930E+01  0.7957747E-01            NaN
         13   -1    0    0    0    0  0.00000000000E+00  0.00000000000E+00  0.74505805969E-08  0.10566000000E+00  0.10566000000E+00 0. -1.
     999900   -1    0    0    0    0 -0.00000000000E+00 -0.00000000000E+00 -0.74505805969E-08  0.93827000000E+00  0.93827000000E+00 0.  1.
     999902    2    1    2    0    0 -0.13433148263E-01  0.73653380603E-02 -0.18878627802E-01  0.10196174464E+01  0.10193275414E+01 0.  0.
     999903    2    3    3    0    0  0.75133899319E-01  0.10151988472E+00  0.17592893417E-01  0.12942680810E+00  0.22144952855E-01 0.  0.
         14    1    1    2    0    0  0.13433148263E-01 -0.73653380603E-02  0.18878627802E-01  0.24312553643E-01  0.00000000000E+00 0. -1.
     999901    1    3    3    0    0 -0.88567047582E-01 -0.94154546658E-01 -0.36471521218E-01  0.89019063825E+00  0.88000000000E+00 0. -1.
        -11    1    4    4    0    0  0.25808658528E-01  0.49914994996E-01  0.13356237860E-02  0.56210662622E-01  0.51100000000E-03 0. -1.
         11    1    4    4    0    0  0.49325240791E-01  0.51604889722E-01  0.16257269631E-01  0.73216145482E-01  0.51100000000E-03 0.  1.
</event>
<event>
 8    1  0.1117354E+005  0.1043930E+01  0.7957747E-01            NaN
         13   -1    0    0    0    0  0.00000000000E+00  0.00000000000E+00  0.74505805969E-08  0.10566000000E+00  0.10566000000E+00 0.  1.
     999900   -1    0    0    0    0 -0.00000000000E+00 -0.00000000000E+00 -0.74505805969E-08  0.93827000000E+00  0.93827000000E+00 0. -1.
     999902    2    1    2    0    0 -0.11376115728E-01 -0.16849385064E-01 -0.13178102906E-01  0.10197023261E+01  0.10194144661E+01 0.  0.
     999903    2    3    3    0    0 -0.86273309622E-01  0.51200356619E-01  0.78197112140E-01  0.12920258612E+00  0.22670673594E-01 0.  0.
         14    1    1    2    0    0  0.11376115728E-01  0.16849385064E-01  0.13178102906E-01  0.24227673894E-01  0.00000000000E+00 0.  1.
     999901    1    3    3    0    0  0.74897193894E-01 -0.68049741682E-01 -0.91375215046E-01  0.89049973999E+00  0.88000000000E+00 0. -1.
        -11    1    4    4    0    0 -0.25479070533E-01  0.40642844418E-02  0.22360724738E-01  0.34146223438E-01  0.51100000000E-03 0. -1.
         11    1    4    4    0    0 -0.60794239089E-01  0.47136072177E-01  0.55836387402E-01  0.95056362679E-01  0.51100000000E-03 0.  1.
</event>
<event>
 8    1  0.1117354E+005  0.1043930E+01  0.7957747E-01            NaN
         13   -1    0    0    0    0  0.00000000000E+00  0.00000000000E+00  0.74505805969E-08  0.10566000000E+00  0.10566000000E+00 0. -1.
     999900   -1    0    0    0    0 -0.00000000000E+00 -0.00000000000E+00 -0.74505805969E-08  0.93827000000E+00  0.93827000000E+00 0.  1.
     999902    2    1    2    0    0  0.15075115329E-01 -0.69238576704E-02  0.28015230405E-02  0.10271059863E+01  0.10269681882E+01 0.  0.
     999903    2    3    3    0    0  0.54241279016E-01  0.94329020999E-01  0.80775111708E-01  0.13701272465E+00  0.20193748866E-01 0.  0.
         14    1    1    2    0    0 -0.15075115329E-01  0.69238576704E-02 -0.28015230405E-02  0.16824013748E-01  0.00000000000E+00 0. -1.
     999901    1    3    3    0    0 -0.39166163687E-01 -0.10125287867E+00 -0.77973588667E-01  0.89009326160E+00  0.88000000000E+00 0.  1.
        -11    1    4    4    0    0  0.30922570930E-01  0.67075912155E-01  0.62486910615E-01  0.96748428946E-01  0.51100000000E-03 0. -1.
         11    1    4    4    0    0  0.23318708087E-01  0.27253108844E-01  0.18288201093E-01  0.40264295706E-01  0.51100000000E-03 0.  1.
</event>
<event>
 8    1  0.1117354E+005  0.1043930E+01  0.7957747E-01            NaN
         13   -1    0    0    0    0  0.00000000000E+00  0.00000000000E+00  0.74505805969E-08  0.10566000000E+00  0.10566000000E+00 0. -1.
     999900   -1    0    0    0    0 -0.00000000000E+00 -0.00000000000E+00 -0.74505805969E-08  0.93827000000E+00  0.93827000000E+00 0. -1.
     999902    2    1    2    0    0  0.12946983857E-01  0.38364254927E-02  0.16292271521E-01  0.10227691715E+01  0.10225502420E+01 0.  0.
     999903    2    3    3    0    0  0.78113846047E-01  0.24601894259E-01 -0.10195173954E+00  0.13223024996E+00  0.19587130067E-01 0.  0.
         14    1    1    2    0    0 -0.12946983857E-01 -0.38364254927E-02 -0.16292271521E-01  0.21160828502E-01  0.00000000000E+00 0.  1.
     999901    1    3    3    0    0 -0.65166862190E-01 -0.20765468766E-01  0.11824401106E+00  0.89053892154E+00  0.88000000000E+00 0.  1.
        -11    1    4    4    0    0  0.53697790239E-01  0.81335451020E-02 -0.59509121067E-01  0.80568007569E-01  0.51100000000E-03 0.  1.
         11    1    4    4    0    0  0.24416055808E-01  0.16468349157E-01 -0.42442618473E-01  0.51662242392E-01  0.51100000000E-03 0. -1.
</event>
<event>
 8    1  0.1117354E+005  0.1043930E+01  0.7957747E-01            NaN
         13   -1    0    0    0    0  0.00000000000E+00  0.00000000000E+00  0.74505805969E-08  0.10566000000E+00  0.10566000000E+00 0.  1.
     999900   -1    0    0    0    0 -0.00000000000E+00 -0.00000000000E+00 -0.74505805969E-08  0.93827000000E+00  0.93827000000E+00 0.  1.
     999902    2    1    2    0    0 -0.21760605839E-01 -0.86128100421E-02  0.97741541677E-02  0.10185678520E+01  0.10182520466E+01 0.  0.
     999903    2    3    3    0    0  0.11878601512E+00  0.19057320802E-01 -0.31673187978E-01  0.12602268729E+00  0.20130276015E-01 0.  0.
         14    1    1    2    0    0  0.21760605839E-01  0.86128100421E-02 -0.97741541677E-02  0.25362148036E-01  0.00000000000E+00 0. -1.
     999901    1    3    3    0    0 -0.14054662096E+00 -0.27670130844E-01  0.41447342146E-01  0.89254516467E+00  0.88000000000E+00 0.  1.
        -11    1    4    4    0    0  0.45755779647E-01 -0.64582969161E-03 -0.17880657962E-01  0.49132346954E-01  0.51100000000E-03 0.  1.
         11    1    4    4    0    0  0.73030235471E-01  0.19703150494E-01 -0.13792530015E-01  0.76890340340E-01  0.51100000000E-03 0. -1.
</event>
<event>
 8    1  0.1117354E+005  0.1043930E+01  0.7957747E-01            NaN
         13   -1    0    0    0    0  0.00000000000E+00  0.00000000000E+00  0.74505805969E-08  0.10566000000E+00  0.10566000000E+00 0.  1.
     999900   -1    0    0    0    0 -0.00000000000E+00 -0.00000000000E+00 -0.74505805969E-08  0.93827000000E+00  0.93827000000E+00 0.  1.
     999902    2    1    2    0    0 -0.16151917896E-01  0.68106812015E-02  0.16714697478E-01  0.10197091218E+01  0.10194214252E+01 0.  0.
     999903    2    3    3    0    0 -0.30537585175E-01  0.11316980009E+00 -0.53652364744E-01  0.13039998934E+00  0.19637546058E-01 0.  0.
         14    1    1    2    0    0  0.16151917896E-01 -0.68106812015E-02 -0.16714697478E-01  0.24220878223E-01  0.00000000000E+00 0. -1.
     999901    1    3    3    0    0  0.14385667280E-01 -0.10635911889E+00  0.70367062222E-01  0.88930913244E+00  0.88000000000E+00 0.  1.
        -11    1    4    4    0    0 -0.13111171618E-01  0.64926663628E-01 -0.39757847327E-01  0.77254915806E-01  0.51100000000E-03 0.  1.
         11    1    4    4    0    0 -0.17426413558E-01  0.48243136465E-01 -0.13894517417E-01  0.53145073531E-01  0.51100000000E-03 0. -1.
</event>
<event>
 8    1  0.1117354E+005  0.1043930E+01  0.7957747E-01            NaN
         13   -1    0    0    0    0  0.00000000000E+00  0.00000000000E+00  0.74505805969E-08  0.10566000000E+00  0.10566000000E+00 0.  1.
     999900   -1    0    0    0    0 -0.00000000000E+00 -0.00000000000E+00 -0.74505805969E-08  0.93827000000E+00  0.93827000000E+00 0. -1.
     999902    2    1    2    0    0  0.66170738938E-02 -0.22925815544E-01 -0.23945125752E-01  0.10101254480E+01  0.10095596431E+01 0.  0.
     999903    2    3    3    0    0  0.10812968552E+00 -0.49357489098E-01  0.27555670770E-01  0.12240039167E+00  0.97134065606E-02 0.  0.
         14    1    1    2    0    0 -0.66170738938E-02  0.22925815544E-01  0.23945125752E-01  0.33804551950E-01  0.00000000000E+00 0.  1.
     999901    1    3    3    0    0 -0.10151261163E+00  0.26431673554E-01 -0.51500796522E-01  0.88772505638E+00  0.88000000000E+00 0.  1.
        -11    1    4    4    0    0  0.78402697253E-02 -0.13158385754E-02  0.30393701736E-02  0.85264384461E-02  0.51100000000E-03 0. -1.
         11    1    4    4    0    0  0.10028941580E+00 -0.48041650523E-01  0.24516300597E-01  0.11387395322E+00  0.51100000000E-03 0.  1.
</event>
<event>
 8    1  0.1117354E+005  0.1043930E+01  0.7957747E-01            NaN
         13   -1    0    0    0    0  0.00000000000E+00  0.00000000000E+00  0.74505805969E-08  0.10566000000E+00  0.10566000000E+00 0.  1.
     999900   -1    0    0    0    0 -0.00000000000E+00 -0.00000000000E+00 -0.74505805969E-08  0.93827000000E+00  0.93827000000E+00 0.  1.
     999902    2    1    2    0    0  0.85050315171E-03  0.18802800016E-01 -0.93423574488E-02  0.10229169496E+01  0.10227010988E+01 0.  0.
     999903    2    3    3    0    0 -0.61229622254E-02 -0.24482809119E-01 -0.12971375815E+00  0.13364109405E+00  0.19934501681E-01 0.  0.
         14    1    1    2    0    0 -0.85050315171E-03 -0.18802800016E-01  0.93423574488E-02  0.21013050391E-01  0.00000000000E+00 0. -1.
     999901    1    3    3    0    0  0.69734653771E-02  0.43285609135E-01  0.12037140070E+00  0.88927585556E+00  0.88000000000E+00 0. -1.
        -11    1    4    4    0    0  0.63324842473E-02 -0.11734151453E-01 -0.72345339788E-01  0.73565616813E-01  0.51100000000E-03 0.  1.
         11    1    4    4    0    0 -0.12455446473E-01 -0.12748657667E-01 -0.57368418358E-01  0.60075477235E-01  0.51100000000E-03 0. -1.
</event>
<event>
 7    1  0.1117354E+005  0.1043930E+01  0.7957747E-01            NaN
         13   -1    0    0    0    0  0.00000000000E+00  0.00000000000E+00  0.74505805969E-08  0.10566000000E+00  0.10566000000E+00 0.  1.
     999900   -1    0    0    0    0 -0.00000000000E+00 -0.00000000000E+00 -0.74505805969E-08  0.93827000000E+00  0.93827000000E+00 0. -1.
     999903    2    1    2    0    0 -0.36105313743E-01 -0.48086607060E-01  0.12925638463E+00  0.14390065218E+00  0.19602787319E-01 0.  0.
         14    1    1    2    0    0 -0.27281711484E-02 -0.75873800118E-02 -0.56749793022E-03  0.80829021496E-02  0.00000000000E+00 0. -1.
     999901    1    1    2    0    0  0.38833484891E-01  0.55673987072E-01 -0.12868888670E+00  0.89194644567E+00  0.88000000000E+00 0. -1.
        -11    1    3    3    0    0 -0.20326636022E-01 -0.13204063663E-01  0.39926128590E-01  0.46710558703E-01  0.51100000000E-03 0.  1.
         11    1    3    3    0    0 -0.15778677720E-01 -0.34882543396E-01  0.89330256041E-01  0.97190093476E-01  0.51100000000E-03 0. -1.
</event>
<event>
 8    1  0.1117354E+005  0.1043930E+01  0.7957747E-01            NaN
         13   -1    0    0    0    0  0.00000000000E+00  0.00000000000E+00  0.74505805969E-08  0.10566000000E+00  0.10566000000E+00 0.  1.
     999900   -1    0    0    0    0 -0.00000000000E+00 -0.00000000000E+00 -0.74505805969E-08  0.93827000000E+00  0.93827000000E+00 0.  1.
     999902    2    1    2    0    0  0.20163441888E-02 -0.51916915718E-02  0.23067748380E-01  0.10201994222E+01  0.10199233897E+01 0.  0.
     999903    2    3    3    0    0 -0.66131348189E-01  0.44657649970E-01  0.10378600706E+00  0.13248071561E+00  0.20296399508E-01 0.  0.
         14    1    1    2    0    0 -0.20163441888E-02  0.51916915718E-02 -0.23067748380E-01  0.23730577755E-01  0.00000000000E+00 0. -1.
     999901    1    3    3    0    0  0.68147692378E-01 -0.49849341542E-01 -0.80718258677E-01  0.88771870664E+00  0.88000000000E+00 0.  1.
        -11    1    4    4    0    0 -0.66256616356E-01  0.39483620613E-01  0.97638864055E-01  0.12442871213E+00  0.51100000000E-03 0. -1.
         11    1    4    4    0    0  0.12526816685E-03  0.51740293574E-02  0.61471430021E-02  0.80520034770E-02  0.51100000000E-03 0.  1.
</event>
<event>
 8    1  0.1117354E+005  0.1043930E+01  0.7957747E-01            NaN
         13   -1    0    0    0    0  0.00000000000E+00  0.00000000000E+00  0.74505805969E-08  0.10566000000E+00  0.10566000000E+00 0.  1.
     999900   -1    0    0    0    0 -0.00000000000E+00 -0.00000000000E+00 -0.74505805969E-08  0.93827000000E+00  0.93827000000E+00 0. -1.
     999902    2    1    2    0    0 -0.16706162789E-01  0.14782881908E-01  0.77669280038E-02  0.10203089364E+01  0.10200354754E+01 0.  0.
     999903    2    3    3    0    0 -0.34492822774E-01 -0.75111569919E-01  0.99672614757E-01  0.13078994677E+00  0.18435761042E-01 0.  0.
         14    1    1    2    0    0  0.16706162789E-01 -0.14782881908E-01 -0.77669280038E-02  0.23621063550E-01  0.00000000000E+00 0. -1.
     999901    1    3    3    0    0  0.17786659985E-01  0.89894451826E-01 -0.91905686753E-01  0.88951898968E+00  0.88000000000E+00 0. -1.
        -11    1    4    4    0    0 -0.31316577734E-01 -0.63985839667E-01  0.93852876258E-01  0.11782843130E+00  0.51100000000E-03 0.  1.
         11    1    4    4    0    0 -0.31762450407E-02 -0.11125730252E-01  0.58197384990E-02  0.12961515475E-01  0.51100000000E-03 0. -1.
</event>
<event>
 8    1  0.1117354E+005  0.1043930E+01  0.7957747E-01            NaN
         13   -1    0    0    0    0  0.00000000000E+00  0.00000000000E+00  0.74505805969E-08  0.10566000000E+00  0.10566000000E+00 0.  1.
     999900   -1    0    0    0    0 -0.00000000000E+00 -0.00000000000E+00 -0.74505805969E-08  0.93827000000E+00  0.93827000000E+00 0.  1.
     999902    2    1    2    0    0  0.10300614696E-01 -0.13947350168E-02  0.21842623125E-01  0.10197401647E+01  0.10194532139E+01 0.  0.
     999903    2    3    3    0    0 -0.12260526369E+00  0.11464341935E-01  0.34890661604E-01  0.12957187738E+00  0.20199785122E-01 0.  0.
         14    1    1    2    0    0 -0.10300614696E-01  0.13947350168E-02 -0.21842623125E-01  0.24189835341E-01  0.00000000000E+00 0.  1.
     999901    1    3    3    0    0  0.13290587839E+00 -0.12859076952E-01 -0.13048038479E-01  0.89016828728E+00  0.88000000000E+00 0.  1.
        -11    1    4    4    0    0 -0.45848831453E-01  0.91133257243E-02  0.44330446631E-02  0.46958290614E-01  0.51100000000E-03 0. -1.
         11    1    4    4    0    0 -0.76756432241E-01  0.23510162105E-02  0.30457616941E-01  0.82613586765E-01  0.51100000000E-03 0.  1.
</event>
<event>
 8    1  0.1117354E+005  0.1043930E+01  0.7957747E-01            NaN
         13   -1    0    0    0    0  0.00000000000E+00  0.00000000000E+00  0.74505805969E-08  0.10566000000E+00  0.10566000000E+00 0. -1.
     999900   -1    0    0    0    0 -0.00000000000E+00 -0.00000000000E+00 -0.74505805969E-08  0.93827000000E+00  0.93827000000E+00 0. -1.
     999902    2    1    2    0    0  0.17248339449E-01  0.18397009609E-01  0.16852822795E-01  0.10135989464E+01  0.10131450298E+01 0.  0.
     999903    2    3    3    0    0  0.41605728479E-01  0.78335717964E-01  0.90099046045E-01  0.12818890558E+00  0.21143227410E-01 0.  0.
         14    1    1    2    0    0 -0.17248339449E-01 -0.18397009609E-01 -0.16852822795E-01  0.30331053599E-01  0.00000000000E+00 0.  1.
     999901    1    3    3    0    0 -0.24357389031E-01 -0.59938708355E-01 -0.73246223249E-01  0.88541004082E+00  0.88000000000E+00 0.  1.
        -11    1    4    4    0    0  0.35047103722E-01  0.52859936861E-01  0.52703314454E-01  0.82464373397E-01  0.51100000000E-03 0.  1.
         11    1    4    4    0    0  0.65586247569E-02  0.25475781102E-01  0.37395731590E-01  0.45724532186E-01  0.51100000000E-03 0. -1.
</event>
<event>
 8    1  0.1117354E+005  0.1043930E+01  0.7957747E-01            NaN
         13   -1    0    0    0    0  0.00000000000E+00  0.00000000000E+00  0.74505805969E-08  0.10566000000E+00  0.10566000000E+00 0.  1.
     999900   -1    0    0    0    0 -0.00000000000E+00 -0.00000000000E+00 -0.74505805969E-08  0.93827000000E+00  0.93827000000E+00 0.  1.
     999902    2    1    2    0    0 -0.20964356743E-02  0.15486899206E-01  0.19834600883E-01  0.10186782578E+01  0.10183652304E+01 0.  0.
     999903    2    3    3    0    0  0.77695463760E-01  0.87945607203E-02 -0.98264867602E-01  0.12718567848E+00  0.20156468403E-01 0.  0.
         14    1    1    2    0    0  0.20964356743E-02 -0.15486899206E-01 -0.19834600883E-01  0.25251742153E-01  0.00000000000E+00 0. -1.
     999901    1    3    3    0    0 -0.79791899435E-01  0.66923384853E-02  0.11809946849E+00  0.89149257937E+00  0.88000000000E+00 0. -1.
        -11    1    4    4    0    0  0.36283467520E-01  0.52454643710E-02 -0.61966064639E-01  0.72000411107E-01  0.51100000000E-03 0.  1.
         11    1    4    4    0    0  0.41411996241E-01  0.35490963493E-02 -0.36298802963E-01  0.55185267373E-01  0.51100000000E-03 0. -1.
</event>
<event>
 8    1  0.1117354E+005  0.1043930E+01  0.7957747E-01            NaN
         13   -1    0    0    0    0  0.00000000000E+00  0.00000000000E+00  0.74505805969E-08  0.10566000000E+00  0.10566000000E+00 0. -1.
     999900   -1    0    0    0    0 -0.00000000000E+00 -0.00000000000E+00 -0.74505805969E-08  0.93827000000E+00  0.93827000000E+00 0.  1.
     999902    2    1    2    0    0  0.13564065598E-01 -0.12580885920E-01  0.14353211339E-01  0.10205146793E+01  0.10202460162E+01 0.  0.
     999903    2    3    3    0    0 -0.21054611092E-01 -0.12766835768E+00  0.19467123047E-01  0.13233129116E+00  0.19750836413E-01 0.  0.
         14    1    1    2    0    0 -0.13564065598E-01  0.12580885920E-01 -0.14353211339E-01  0.23415320665E-01  0.00000000000E+00 0.  1.
     999901    1    3    3    0    0  0.34618676689E-01  0.11508747176E+00 -0.51139117077E-02  0.88818338817E+00  0.88000000000E+00 0. -1.
        -11    1    4    4    0    0 -0.11960689616E-02 -0.67587172134E-01  0.91677852095E-02  0.68218515263E-01  0.51100000000E-03 0.  1.
         11    1    4    4    0    0 -0.19858542130E-01 -0.60081185550E-01  0.10299337838E-01  0.64112775899E-01  0.51100000000E-03 0. -1.
</event>
<event>
 8    1  0.1117354E+005  0.1043930E+01  0.7957747E-01            NaN
         13   -1    0    0    0    0  0.00000000000E+00  0.00000000000E+00  0.74505805969E-08  0.10566000000E+00  0.10566000000E+00 0. -1.
     999900   -1    0    0    0    0 -0.00000000000E+00 -0.00000000000E+00 -0.74505805969E-08  0.93827000000E+00  0.93827000000E+00 0. -1.
     999902    2    1    2    0    0  0.10111987926E-01 -0.10194522685E-01 -0.19431787289E-01  0.10197685648E+01  0.10194822955E+01 0.  0.
     999903    2    3    3    0    0  0.34261601451E-01  0.11168823357E+00  0.49468119997E-01  0.12837313779E+00  0.19607364921E-01 0.  0.
         14    1    1    2    0    0 -0.10111987926E-01  0.10194522685E-01  0.19431787289E-01  0.24161435177E-01  0.00000000000E+00 0. -1.
     999901    1    3    3    0    0 -0.24149613525E-01 -0.12188275625E+00 -0.68899907286E-01  0.89139542703E+00  0.88000000000E+00 0. -1.
        -11    1    4    4    0    0  0.90057445434E-02  0.20430628148E-01  0.17700134573E-01  0.28496839934E-01  0.51100000000E-03 0. -1.
         11    1    4    4    0    0  0.25255856907E-01  0.91257605420E-01  0.31767985425E-01  0.99876297860E-01  0.51100000000E-03 0.  1.
</event>
<event>
 8    1  0.1117354E+005  0.1043930E+01  0.7957747E-01            NaN
         13   -1    0    0    0    0  0.00000000000E+00  0.00000000000E+00  0.74505805969E-08  0.10566000000E+00  0.10566000000E+00 0.  1.
     999900   -1    0    0    0    0 -0.00000000000E+00 -0.00000000000E+00 -0.74505805969E-08  0.93827000000E+00  0.93827000000E+00 0. -1.
     999902    2    1    2    0    0 -0.19725432800E-01 -0.12332000180E-01  0.69662629155E-02  0.10196462658E+01  0.10193570560E+01 0.  0.
     999903    2    3    3    0    0  0.54296182792E-01  0.60813920561E-01  0.97672122077E-01  0.12888418860E+00  0.20612671835E-01 0.  0.
         14    1    1    2    0    0  0.19725432800E-01  0.12332000180E-01 -0.69662629155E-02  0.24283734198E-01  0.00000000000E+00 0. -1.
     999901    1    3    3    0    0 -0.74021615592E-01 -0.73145920741E-01 -0.90705859161E-01  0.89076207720E+00  0.88000000000E+00 0. -1.
        -11    1    4    4    0    0  0.40370145737E-01  0.37623529162E-01  0.77479858318E-01  0.95124487801E-01  0.51100000000E-03 0. -1.
         11    1    4    4    0    0  0.13926037056E-01  0.23190391399E-01  0.20192263759E-01  0.33759700799E-01  0.51100000000E-03 0.  1.
</event>
<event>
 8    1  0.1117354E+005  0.1043930E+01  0.7957747E-01            NaN
         13   -1    0    0    0    0  0.00000000000E+00  0.00000000000E+00  0.74505805969E-08  0.10566000000E+00  0.10566000000E+00 0. -1.
     999900   -1    0    0    0    0 -0.00000000000E+00 -0.00000000000E+00 -0.74505805969E-08  0.93827000000E+00  0.93827000000E+00 0.  1.
     999902    2    1    2    0    0  0.19594816084E-01 -0.42472737929E-02  0.13153528785E-01  0.10199506032E+01  0.10196686822E+01 0.  0.
     999903    2    3    3    0    0 -0.21251290579E-01  0.11269414380E+00  0.58117050084E-01  0.13013859055E+00  0.20171114076E-01 0.  0.
         14    1    1    2    0    0 -0.19594816084E-01  0.42472737929E-02 -0.13153528785E-01  0.23979396813E-01  0.00000000000E+00 0.  1.
     999901    1    3    3    0    0  0.40846106662E-01 -0.11694141759E+00 -0.44963521299E-01  0.88981201263E+00  0.88000000000E+00 0.  1.
        -11    1    4    4    0    0 -0.16097014153E-01  0.35711207774E-01  0.16927647645E-01  0.42675644121E-01  0.51100000000E-03 0. -1.
         11    1    4    4    0    0 -0.51542764253E-02  0.76982936025E-01  0.41189402439E-01  0.87462946434E-01  0.51100000000E-03 0.  1.
</event>
<event>
 8    1  0.1117354E+005  0.1043930E+01  0.7957747E-01            NaN
         13   -1    0    0    0    0  0.00000000000E+00  0.00000000000E+00  0.74505805969E-08  0.10566000000E+00  0.10566000000E+00 0. -1.
     999900   -1    0    0    0    0 -0.00000000000E+00 -0.00000000000E+00 -0.74505805969E-08  0.93827000000E+00  0.93827000000E+00 0. -1.
     999902    2    1    2    0    0 -0.13280984033E-01 -0.19481868916E-01 -0.51536304972E-02  0.10197952189E+01  0.10195095884E+01 0.  0.
     999903    2    3    3    0    0 -0.69367726325E-01 -0.58446585568E-01 -0.94671564387E-01  0.13262137327E+00  0.19945894953E-01 0.  0.
         14    1    1    2    0    0  0.13280984033E-01  0.19481868916E-01  0.51536304972E-02  0.24134781140E-01  0.00000000000E+00 0. -1.
     999901    1    3    3    0    0  0.56086742292E-01  0.38964716652E-01  0.89517933890E-01  0.88717384559E+00  0.88000000000E+00 0.  1.
        -11    1    4    4    0    0 -0.57613898834E-01 -0.37202090913E-01 -0.70639321685E-01  0.98455735213E-01  0.51100000000E-03 0. -1.
         11    1    4    4    0    0 -0.11753827491E-01 -0.21244494655E-01 -0.24032242702E-01  0.34165638061E-01  0.51100000000E-03 0.  1.
</event>
<event>
 8    1  0.1117354E+005  0.1043930E+01  0.7957747E-01            NaN
         13   -1    0    0    0    0  0.00000000000E+00  0.00000000000E+00  0.74505805969E-08  0.10566000000E+00  0.10566000000E+00 0. -1.
     999900   -1    0    0    0    0 -0.00000000000E+00 -0.00000000000E+00 -0.74505805969E-08  0.93827000000E+00  0.93827000000E+00 0. -1.
     999902    2    1    2    0    0  0.10262803205E-01 -0.23708796284E-01 -0.16352287950E-01  0.10133550189E+01  0.10128936592E+01 0.  0.
     999903    2    3    3    0    0 -0.29177640149E-01 -0.90489251476E-01  0.78483543627E-01  0.12486809564E+00  0.19817552112E-01 0.  0.
         14    1    1    2    0    0 -0.10262803205E-01  0.23708796284E-01  0.16352287950E-01  0.30574981146E-01  0.00000000000E+00 0. -1.
     999901    1    3    3    0    0  0.39440443354E-01  0.66780455192E-01 -0.94835831578E-01  0.88848692321E+00  0.88000000000E+00 0. -1.
        -11    1    4    4    0    0 -0.30805922765E-01 -0.72100282347E-01  0.66886848852E-01  0.10306098807E+00  0.51100000000E-03 0. -1.
         11    1    4    4    0    0  0.16282826155E-02 -0.18388969129E-01  0.11596694776E-01  0.21807107571E-01  0.51100000000E-03 0.  1.
</event>
<event>
 8    1  0.1117354E+005  0.1043930E+01  0.7957747E-01            NaN
         13   -1    0    0    0    0  0.00000000000E+00  0.00000000000E+00  0.74505805969E-08  0.10566000000E+00  0.10566000000E+00 0. -1.
     999900   -1    0    0    0    0 -0.00000000000E+00 -0.00000000000E+00 -0.74505805969E-08  0.93827000000E+00  0.93827000000E+00 0.  1.
     999902    2    1    2    0    0  0.25905295123E-01 -0.28843625219E-02 -0.12978337021E-01  0.10148122890E+01  0.10143944700E+01 0.  0.
     999903    2    3    3    0    0  0.29960518118E-01  0.21041854930E-01 -0.12066798184E+00  0.12791546956E+00  0.21475874988E-01 0.  0.
         14    1    1    2    0    0 -0.25905295123E-01  0.28843625219E-02  0.12978337021E-01  0.29117711009E-01  0.00000000000E+00 0.  1.
     999901    1    3    3    0    0 -0.40552229949E-02 -0.23926217452E-01  0.10768964482E+00  0.88689681943E+00  0.88000000000E+00 0. -1.
        -11    1    4    4    0    0  0.25796201680E-01  0.10005233041E-01 -0.59529685621E-01  0.65647492720E-01  0.51100000000E-03 0. -1.
         11    1    4    4    0    0  0.41643164385E-02  0.11036621889E-01 -0.61138296220E-01  0.62267976840E-01  0.51100000000E-03 0.  1.
</event>
<event>
 8    1  0.1117354E+005  0.1043930E+01  0.7957747E-01            NaN
         13   -1    0    0    0    0  0.00000000000E+00  0.00000000000E+00  0.74505805969E-08  0.10566000000E+00  0.10566000000E+00 0.  1.
     999900   -1    0    0    0    0 -0.00000000000E+00 -0.00000000000E+00 -0.74505805969E-08  0.93827000000E+00  0.93827000000E+00 0.  1.
     999902    2    1    2    0    0  0.23186459770E-01  0.42480228184E-02  0.63418073118E-02  0.10195194258E+01  0.10192271500E+01 0.  0.
     999903    2    3    3    0    0  0.75084792752E-01 -0.22038449827E-01 -0.10304116738E+00  0.13084116522E+00  0.19455306901E-01 0.  0.
         14    1    1    2    0    0 -0.23186459770E-01 -0.42480228184E-02 -0.63418073118E-02  0.24410574236E-01  0.00000000000E+00 0. -1.
     999901    1    3    3    0    0 -0.51898332982E-01  0.26286472646E-01  0.10938297470E+00  0.88867826054E+00  0.88000000000E+00 0. -1.
        -11    1    4    4    0    0  0.74390910810E-01 -0.18272704799E-01 -0.96082195916E-01  0.12288184913E+00  0.51100000000E-03 0.  1.
         11    1    4    4    0    0  0.69388194280E-03 -0.37657450282E-02 -0.69589714686E-02  0.79593160930E-02  0.51100000000E-03 0. -1.
</event>
<event>
 8    1  0.1117354E+005  0.1043930E+01  0.7957747E-01            NaN
         13   -1    0    0    0    0  0.00000000000E+00  0.00000000000E+00  0.74505805969E-08  0.10566000000E+00  0.10566000000E+00 0. -1.
     999900   -1    0    0    0    0 -0.00000000000E+00 -0.00000000000E+00 -0.74505805969E-08  0.93827000000E+00  0.93827000000E+00 0.  1.
     999902    2    1    2    0    0  0.20848876989E-01 -0.96193223907E-02 -0.34679884210E-02  0.10207085879E+01  0.10204444069E+01 0.  0.
     999903    2    3    3    0    0  0.12568420843E+00  0.37197242166E-01  0.10462089493E-01  0.13314096543E+00  0.20902303367E-01 0.  0.
         14    1    1    2    0    0 -0.20848876989E-01  0.96193223907E-02  0.34679884210E-02  0.23221412073E-01  0.00000000000E+00 0. -1.
     999901    1    3    3    0    0 -0.10483533144E+00 -0.46816564556E-01 -0.13930077914E-01  0.88756762250E+00  0.88000000000E+00 0. -1.
        -11    1    4    4    0    0  0.44769290011E-01  0.22860078781E-01 -0.23222968730E-03  0.50271140644E-01  0.51100000000E-03 0. -1.
         11    1    4    4    0    0  0.80914918417E-01  0.14337163384E-01  0.10694319181E-01  0.82869824786E-01  0.51100000000E-03 0.  1.
</event>
<event>
 8    1  0.1117354E+005  0.1043930E+01  0.7957747E-01            NaN
         13   -1    0    0    0    0  0.00000000000E+00  0.00000000000E+00  0.74505805969E-08  0.10566000000E+00  0.10566000000E+00 0.  1.
     999900   -1    0    0    0    0 -0.00000000000E+00 -0.00000000000E+00 -0.74505805969E-08  0.93827000000E+00  0.93827000000E+00 0.  1.
     999902    2    1    2    0    0  0.17946237060E-01  0.15925378569E-01  0.17013846870E-01  0.10145164641E+01  0.10140899861E+01 0.  0.
     999903    2    3    3    0    0  0.90690089586E-01  0.64633392984E-01  0.61464821091E-01  0.12905611614E+00  0.21803418167E-01 0.  0.
         14    1    1    2    0    0 -0.17946237060E-01 -0.15925378569E-01 -0.17013846870E-01  0.29413535873E-01  0.00000000000E+00 0. -1.
     999901    1    3    3    0    0 -0.72743852526E-01 -0.48708014415E-01 -0.44450974220E-01  0.88546034799E+00  0.88000000000E+00 0.  1.
        -11    1    4    4    0    0  0.44378203980E-01  0.25175406830E-01  0.17317013557E-01  0.53882893177E-01  0.51100000000E-03 0. -1.
         11    1    4    4    0    0  0.46311885606E-01  0.39457986154E-01  0.44147807534E-01  0.75173222963E-01  0.51100000000E-03 0.  1.
</event>
<event>
 8    1  0.1117354E+005  0.1043930E+01  0.7957747E-01            NaN
         13   -1    0    0    0    0  0.00000000000E+00  0.00000000000E+00  0.74505805969E-08  0.10566000000E+00  0.10566000000E+00 0.  1.
     999900   -1    0    0    0    0 -0.00000000000E+00 -0.00000000000E+00 -0.74505805969E-08  0.93827000000E+00  0.93827000000E+00 0.  1.
     999902    2    1    2    0    0  0.20583859531E-01  0.28254919437E-02 -0.10621560810E-01  0.10205955570E+01  0.10203287679E+01 0.  0.
     999903    2    3    3    0    0 -0.69354305068E-02  0.77994236052E-01  0.10165519628E+00  0.12985781688E+00  0.19951757352E-01 0.  0.
         14    1    1    2    0    0 -0.20583859531E-01 -0.28254919437E-02  0.10621560810E-01  0.23334443039E-01  0.00000000000E+00 0.  1.
     999901    1    3    3    0    0  0.27519290038E-01 -0.75168744109E-01 -0.11227675709E+00  0.89073774008E+00  0.88000000000E+00 0.  1.
        -11    1    4    4    0    0 -0.51844409060E-02  0.61134841279E-01  0.64532044189E-01  0.89044893699E-01  0.51100000000E-03 0. -1.
         11    1    4    4    0    0 -0.17509896008E-02  0.16859394773E-01  0.37123152091E-01  0.40812923184E-01  0.51100000000E-03 0.  1.
</event>
<event>
 8    1  0.1117354E+005  0.1043930E+01  0.7957747E-01            NaN
         13   -1    0    0    0    0  0.00000000000E+00  0.00000000000E+00  0.74505805969E-08  0.10566000000E+00  0.10566000000E+00 0. -1.
     999900   -1    0    0    0    0 -0.00000000000E+00 -0.00000000000E+00 -0.74505805969E-08  0.93827000000E+00  0.93827000000E+00 0. -1.
     999902    2    1    2    0    0 -0.35558576199E-02  0.77960485978E-02 -0.16485983624E-01  0.10253501681E+01  0.10251818166E+01 0.  0.
     999903    2    3    3    0    0 -0.48275489211E-01 -0.43509312412E-01 -0.11890494787E+00  0.13679981514E+00  0.18767516363E-01 0.  0.
         14    1    1    2    0    0  0.35558576199E-02 -0.77960485978E-02  0.16485983624E-01  0.18579831894E-01  0.00000000000E+00 0. -1.
     999901    1    3    3    0    0  0.44719631591E-01  0.51305361009E-01  0.10241896424E+00  0.88855035297E+00  0.88000000000E+00 0.  1.
        -11    1    4    4    0    0 -0.12046558674E-01 -0.21713461324E-01 -0.52455989647E-01  0.58038659094E-01  0.51100000000E-03 0. -1.
         11    1    4    4    0    0 -0.36228930536E-01 -0.21795851087E-01 -0.66448958220E-01  0.78761156047E-01  0.51100000000E-03 0.  1.
</event>
<event>
 8    1  0.1117354E+005  0.1043930E+01  0.7957747E-01            NaN
         13   -1    0    0    0    0  0.00000000000E+00  0.00000000000E+00  0.74505805969E-08  0.10566000000E+00  0.10566000000E+00 0.  1.
     999900   -1    0    0    0    0 -0.00000000000E+00 -0.00000000000E+00 -0.74505805969E-08  0.93827000000E+00  0.93827000000E+00 0.  1.
     999902    2    1    2    0    0  0.10500933674E-01  0.60514777336E-02  0.14640486379E-01  0.10249238475E+01  0.10247476076E+01 0.  0.
     999903    2    3    3    0    0 -0.68885571209E-01  0.43345293296E-01  0.10681179458E+00  0.13577335638E+00  0.20040171362E-01 0.  0.
         14    1    1    2    0    0 -0.10500933674E-01 -0.60514777336E-02 -0.14640486379E-01  0.19006152482E-01  0.00000000000E+00 0. -1.
     999901    1    3    3    0    0  0.79386504883E-01 -0.37293815562E-01 -0.92171308206E-01  0.88915049114E+00  0.88000000000E+00 0. -1.
        -11    1    4    4    0    0 -0.55122296538E-01  0.26171859916E-01  0.69833862681E-01  0.92738683002E-01  0.51100000000E-03 0.  1.
         11    1    4    4    0    0 -0.13763274672E-01  0.17173433380E-01  0.36977931903E-01  0.43034673376E-01  0.51100000000E-03 0. -1.
</event>
<event>
 8    1  0.1117354E+005  0.1043930E+01  0.7957747E-01            NaN
         13   -1    0    0    0    0  0.00000000000E+00  0.00000000000E+00  0.74505805969E-08  0.10566000000E+00  0.10566000000E+00 0.  1.
     999900   -1    0    0    0    0 -0.00000000000E+00 -0.00000000000E+00 -0.74505805969E-08  0.93827000000E+00  0.93827000000E+00 0. -1.
     999902    2    1    2    0    0  0.72000933227E-02 -0.21456692196E-01 -0.64275254510E-02  0.10204024828E+01  0.10201312086E+01 0.  0.
     999903    2    3    3    0    0 -0.12596946365E+00  0.11941822171E-01 -0.19813125558E-01  0.12965629784E+00  0.20181247120E-01 0.  0.
         14    1    1    2    0    0 -0.72000933227E-02  0.21456692196E-01  0.64275254510E-02  0.23527517236E-01  0.00000000000E+00 0. -1.
     999901    1    3    3    0    0  0.13316955698E+00 -0.33398514367E-01  0.13385600107E-01  0.89074618492E+00  0.88000000000E+00 0.  1.
        -11    1    4    4    0    0 -0.30322409627E-01  0.91401365177E-02 -0.11133981612E-01  0.33574056780E-01  0.51100000000E-03 0. -1.
         11    1    4    4    0    0 -0.95647054026E-01  0.28016856530E-02 -0.86791439457E-02  0.96082241060E-01  0.51100000000E-03 0.  1.
</event>
<event>
 8    1  0.1117354E+005  0.1043930E+01  0.7957747E-01            NaN
         13   -1    0    0    0    0  0.00000000000E+00  0.00000000000E+00  0.74505805969E-08  0.10566000000E+00  0.10566000000E+00 0. -1.
     999900   -1    0    0    0    0 -0.00000000000E+00 -0.00000000000E+00 -0.74505805969E-08  0.93827000000E+00  0.93827000000E+00 0.  1.
     999902    2    1    2    0    0 -0.76973941408E-02 -0.19993352757E-01 -0.73505345452E-02  0.10212801790E+01  0.10210289857E+01 0.  0.
     999903    2    3    3    0    0 -0.18788896485E-01  0.12065905519E+00  0.36426687408E-01  0.12896713619E+00  0.19849141849E-01 0.  0.
         14    1    1    2    0    0  0.76973941408E-02  0.19993352757E-01  0.73505345452E-02  0.22649820951E-01  0.00000000000E+00 0. -1.
     999901    1    3    3    0    0  0.11091502344E-01 -0.14065240795E+00 -0.43777221953E-01  0.89231304285E+00  0.88000000000E+00 0.  1.
        -11    1    4    4    0    0 -0.10803632123E-02  0.36863695611E-01  0.19286503717E-01  0.41621263621E-01  0.51100000000E-03 0.  1.
         11    1    4    4    0    0 -0.17708533272E-01  0.83795359579E-01  0.17140183691E-01  0.87345872573E-01  0.51100000000E-03 0. -1.
</event>
<event>
 8    1  0.1117354E+005  0.1043930E+01  0.7957747E-01            NaN
         13   -1    0    0    0    0  0.00000000000E+00  0.00000000000E+00  0.74505805969E-08  0.10566000000E+00  0.10566000000E+00 0. -1.
     999900   -1    0    0    0    0 -0.00000000000E+00 -0.00000000000E+00 -0.74505805969E-08  0.93827000000E+00  0.93827000000E+00 0. -1.
     999902    2    1    2    0    0  0.82718355292E-02  0.66027673318E-02  0.22244770318E-01  0.10192956824E+01  0.10189979580E+01 0.  0.
     999903    2    3    3    0    0  0.11040641807E+00  0.67351562438E-01  0.99241678714E-02  0.13122266379E+00  0.19876827472E-01 0.  0.
         14    1    1    2    0    0 -0.82718355292E-02 -0.66027673318E-02 -0.22244770318E-01  0.24634317648E-01  0.00000000000E+00 0.  1.
     999901    1    3    3    0    0 -0.10213458254E+00 -0.60748795106E-01  0.12320602447E-01  0.88807301856E+00  0.88000000000E+00 0.  1.
        -11    1    4    4    0    0  0.29664963073E-01  0.22839472041E-01  0.10973572177E-01  0.39017072219E-01  0.51100000000E-03 0. -1.
         11    1    4    4    0    0  0.80741454995E-01  0.44512090397E-01 -0.10494043058E-02  0.92205591569E-01  0.51100000000E-03 0.  1.
</event>
<event>
 8    1  0.1117354E+005  0.1043930E+01  0.7957747E-01            NaN
         13   -1    0    0    0    0  0.00000000000E+00  0.00000000000E+00  0.74505805969E-08  0.10566000000E+00  0.10566000000E+00 0.  1.
     999900   -1    0    0    0    0 -0.00000000000E+00 -0.00000000000E+00 -0.74505805969E-08  0.93827000000E+00  0.93827000000E+00 0. -1.
     999902    2    1    2    0    0  0.61775011535E-02 -0.17014030941E-01 -0.10509082319E-01  0.10229996493E+01  0.10227855117E+01 0.  0.
     999903    2    3    3    0    0  0.11532721071E+00  0.31067154899E-01  0.54065227175E-01  0.13260911646E+00  0.19914701452E-01 0.  0.
         14    1    1    2    0    0 -0.61775011535E-02  0.17014030941E-01  0.10509082319E-01  0.20930350703E-01  0.00000000000E+00 0.  1.
     999901    1    3    3    0    0 -0.10914970956E+00 -0.48081185839E-01 -0.64574309494E-01  0.89039053284E+00  0.88000000000E+00 0. -1.
        -11    1    4    4    0    0  0.75783038158E-01  0.29872383533E-01  0.38371500724E-01  0.90044774191E-01  0.51100000000E-03 0. -1.
         11    1    4    4    0    0  0.39544172552E-01  0.11947713659E-02  0.15693726451E-01  0.42564342264E-01  0.51100000000E-03 0.  1.
</event>
<event>
 7    1  0.1117354E+005  0.1043930E+01  0.7957747E-01            NaN
         13   -1    0    0    0    0  0.00000000000E+00  0.00000000000E+00  0.74505805969E-08  0.10566000000E+00  0.10566000000E+00 0. -1.
     999900   -1    0    0    0    0 -0.00000000000E+00 -0.00000000000E+00 -0.74505805969E-08  0.93827000000E+00  0.93827000000E+00 0.  1.
     999902    2    1    2    0    0  0.75201701190E-02  0.20682224987E-01  0.82518809478E-02  0.10204267890E+01  0.10201560816E+01 0.  0.
         14    1    1    2    0    0 -0.75201701190E-02 -0.20682224987E-01 -0.82518809478E-02  0.23503211019E-01  0.00000000000E+00 0.  1.
     999901    1    3    3    0    0  0.32446974635E-01  0.93485873510E-01  0.10369831107E+00  0.89159730508E+00  0.88000000000E+00 0. -1.
        -11    1    3    3    0    0 -0.38731319677E-02 -0.58253272906E-01 -0.50920277181E-01  0.77469869657E-01  0.51100000000E-03 0.  1.
         11    1    3    3    0    0 -0.21053672548E-01 -0.14550375617E-01 -0.44526152942E-01  0.51359614243E-01  0.51100000000E-03 0. -1.
</event>
<event>
 8    1  0.1208412E+005  0.1043930E+01  0.7957747E-01            NaN
         13   -1    0    0    0    0  0.00000000000E+00  0.00000000000E+00  0.74505805969E-08  0.10566000000E+00  0.10566000000E+00 0.  1.
     999900   -1    0    0    0    0 -0.00000000000E+00 -0.00000000000E+00 -0.74505805969E-08  0.93827000000E+00  0.93827000000E+00 0. -1.
     999902    2    1    2    0    0  0.12916587283E-01  0.17943271085E-01  0.80076848422E-02  0.10204157018E+01  0.10201447359E+01 0.  0.
     999903    2    3    3    0    0 -0.26285628982E-01 -0.31707818661E-01  0.12260793792E+00  0.13073302662E+00  0.19028866320E-01 0.  0.
         14    1    1    2    0    0 -0.12916587283E-01 -0.17943271085E-01 -0.80076848422E-02  0.23514298220E-01  0.00000000000E+00 0.  1.
     999901    1    3    3    0    0  0.39202216265E-01  0.49651089746E-01 -0.11460025308E+00  0.88968267516E+00  0.88000000000E+00 0. -1.
        -11    1    4    4    0    0 -0.16663230103E-01 -0.62825641452E-02  0.56826561226E-01  0.59553782680E-01  0.51100000000E-03 0.  1.
         11    1    4    4    0    0 -0.96223988797E-02 -0.25425254515E-01  0.65781376693E-01  0.71179243941E-01  0.51100000000E-03 0. -1.
</event>
<event>
 8    1  0.1117354E+005  0.1043930E+01  0.7957747E-01            NaN
         13   -1    0    0    0    0  0.00000000000E+00  0.00000000000E+00  0.74505805969E-08  0.10566000000E+00  0.10566000000E+00 0.  1.
     999900   -1    0    0    0    0 -0.00000000000E+00 -0.00000000000E+00 -0.74505805969E-08  0.93827000000E+00  0.93827000000E+00 0. -1.
     999902    2    1    2    0    0  0.16281891233E-01 -0.39192729111E-02  0.13763390503E-01  0.10222530168E+01  0.10220231596E+01 0.  0.
     999903    2    3    3    0    0  0.69682695120E-01  0.10511600646E+00  0.39204952248E-01  0.13355306121E+00  0.19857972330E-01 0.  0.
         14    1    1    2    0    0 -0.16281891233E-01  0.39192729111E-02 -0.13763390503E-01  0.21676983195E-01  0.00000000000E+00 0. -1.
     999901    1    3    3    0    0 -0.53400803887E-01 -0.10903527937E+00 -0.25441561745E-01  0.88869995559E+00  0.88000000000E+00 0. -1.
        -11    1    4    4    0    0  0.48393231179E-01  0.81925697844E-01  0.36643033365E-01  0.10196419865E+00  0.51100000000E-03 0. -1.
         11    1    4    4    0    0  0.21289463941E-01  0.23190308618E-01  0.25619188829E-02  0.31588862564E-01  0.51100000000E-03 0.  1.
</event>
<event>
 8    1  0.1117354E+005  0.1043930E+01  0.7957747E-01            NaN
         13   -1    0    0    0    0  0.00000000000E+00  0.00000000000E+00  0.74505805969E-08  0.10566000000E+00  0.10566000000E+00 0. -1.
     999900   -1    0    0    0    0 -0.00000000000E+00 -0.00000000000E+00 -0.74505805969E-08  0.93827000000E+00  0.93827000000E+00 0.  1.
     999902    2    1    2    0    0 -0.22207560625E-01  0.54421979162E-02 -0.48491861577E-02  0.10205567702E+01  0.10202890832E+01 0.  0.
     999903    2    3    3    0    0  0.54199006063E-02 -0.11777898138E+00 -0.51655030883E-01  0.13031100479E+00  0.20284279036E-01 0.  0.
         14    1    1    2    0    0  0.22207560625E-01 -0.54421979162E-02  0.48491861577E-02  0.23373229847E-01  0.00000000000E+00 0. -1.
     999901    1    3    3    0    0 -0.27627461232E-01  0.12322117930E+00  0.46805844726E-01  0.89024576536E+00  0.88000000000E+00 0. -1.
        -11    1    4    4    0    0  0.47194996237E-02 -0.51947647712E-01 -0.12252538569E-01  0.53583743821E-01  0.51100000000E-03 0. -1.
         11    1    4    4    0    0  0.70040098259E-03 -0.65831333672E-01 -0.39402492314E-01  0.76727260971E-01  0.51100000000E-03 0.  1.
</event>
<event>
 8    1  0.1117354E+005  0.1043930E+01  0.7957747E-01            NaN
         13   -1    0    0    0    0  0.00000000000E+00  0.00000000000E+00  0.74505805969E-08  0.10566000000E+00  0.10566000000E+00 0. -1.
     999900   -1    0    0    0    0 -0.00000000000E+00 -0.00000000000E+00 -0.74505805969E-08  0.93827000000E+00  0.93827000000E+00 0.  1.
     999902    2    1    2    0    0  0.87545698943E-02  0.13342462221E-01  0.20004151890E-01  0.10183403559E+01  0.10180187869E+01 0.  0.
     999903    2    3    3    0    0 -0.77861407479E-01 -0.66248142096E-01 -0.70643351856E-01  0.12589766207E+00  0.20211953114E-01 0.  0.
         14    1    1    2    0    0 -0.87545698943E-02 -0.13342462221E-01 -0.20004151890E-01  0.25589644097E-01  0.00000000000E+00 0.  1.
     999901    1    3    3    0    0  0.86615977373E-01  0.79590604317E-01  0.90647503747E-01  0.89244269383E+00  0.88000000000E+00 0. -1.
        -11    1    4    4    0    0 -0.17551876041E-01 -0.26923893940E-01 -0.23906113965E-01  0.40059054199E-01  0.51100000000E-03 0.  1.
         11    1    4    4    0    0 -0.60309531439E-01 -0.39324248156E-01 -0.46737237892E-01  0.85838607876E-01  0.51100000000E-03 0. -1.
</event>
<event>
 8    1  0.1117354E+005  0.1043930E+01  0.7957747E-01            NaN
         13   -1    0    0    0    0  0.00000000000E+00  0.00000000000E+00  0.74505805969E-08  0.10566000000E+00  0.10566000000E+00 0. -1.
     999900   -1    0    0    0    0 -0.00000000000E+00 -0.00000000000E+00 -0.74505805969E-08  0.93827000000E+00  0.93827000000E+00 0. -1.
     999902    2    1    2    0    0 -0.14772598325E-01  0.79737270363E-02  0.16423656357E-01  0.10204449734E+01  0.10201746896E+01 0.  0.
     999903    2    3    3    0    0 -0.11425835664E-02 -0.11356378367E+00 -0.57828618925E-01  0.12888984661E+00  0.19245906941E-01 0.  0.
         14    1    1    2    0    0  0.14772598325E-01 -0.79737270363E-02 -0.16423656357E-01  0.23485026554E-01  0.00000000000E+00 0.  1.
     999901    1    3    3    0    0 -0.13630014758E-01  0.12153751070E+00  0.74252275281E-01  0.89155512684E+00  0.88000000000E+00 0.  1.
        -11    1    4    4    0    0  0.83893388318E-02 -0.40288403075E-01 -0.17677864907E-01  0.44791790063E-01  0.51100000000E-03 0. -1.
         11    1    4    4    0    0 -0.95319223982E-02 -0.73275380590E-01 -0.40150754018E-01  0.84098056544E-01  0.51100000000E-03 0.  1.
</event>
<event>
 8    1  0.1117354E+005  0.1043930E+01  0.7957747E-01            NaN
         13   -1    0    0    0    0  0.00000000000E+00  0.00000000000E+00  0.74505805969E-08  0.10566000000E+00  0.10566000000E+00 0.  1.
     999900   -1    0    0    0    0 -0.00000000000E+00 -0.00000000000E+00 -0.74505805969E-08  0.93827000000E+00  0.93827000000E+00 0. -1.
     999902    2    1    2    0    0  0.99726511102E-02  0.14200583167E-01 -0.21552984683E-01  0.10162597727E+01  0.10158830071E+01 0.  0.
     999903    2    3    3    0    0 -0.12091984104E+00  0.21000595267E-01  0.18510619969E-01  0.12565089269E+00  0.19567085176E-01 0.  0.
         14    1    1    2    0    0 -0.99726511102E-02 -0.14200583167E-01  0.21552984683E-01  0.27670227343E-01  0.00000000000E+00 0.  1.
     999901    1    3    3    0    0  0.13089249215E+00 -0.68000120999E-02 -0.40063604652E-01  0.89060887997E+00  0.88000000000E+00 0. -1.
        -11    1    4    4    0    0 -0.40936027400E-01  0.14030715260E-01  0.12937144484E-01  0.45169128156E-01  0.51100000000E-03 0. -1.
         11    1    4    4    0    0 -0.79983813641E-01  0.69698800070E-02  0.55734754844E-02  0.80481764529E-01  0.51100000000E-03 0.  1.
</event>
<event>
 8    1  0.1117354E+005  0.1043930E+01  0.7957747E-01            NaN
         13   -1    0    0    0    0  0.00000000000E+00  0.00000000000E+00  0.74505805969E-08  0.10566000000E+00  0.10566000000E+00 0. -1.
     999900   -1    0    0    0    0 -0.00000000000E+00 -0.00000000000E+00 -0.74505805969E-08  0.93827000000E+00  0.93827000000E+00 0.  1.
     999902    2    1    2    0    0  0.10099802667E-03  0.75490416181E-02  0.23644032657E-01  0.10191098769E+01  0.10188075887E+01 0.  0.
     999903    2    3    3    0    0 -0.12061902271E+00 -0.41102747465E-01  0.11005253853E-01  0.12944698642E+00  0.19925415724E-01 0.  0.
         14    1    1    2    0    0 -0.10099802667E-03 -0.75490416181E-02 -0.23644032657E-01  0.24820123091E-01  0.00000000000E+00 0.  1.
     999901    1    3    3    0    0  0.12072002074E+00  0.48651789084E-01  0.12638778804E-01  0.88966289049E+00  0.88000000000E+00 0. -1.
        -11    1    4    4    0    0 -0.14421821969E-01 -0.11676846420E-01  0.42294840442E-02  0.19039100491E-01  0.51100000000E-03 0. -1.
         11    1    4    4    0    0 -0.10619720074E+00 -0.29425901045E-01  0.67757698089E-02  0.11040788593E+00  0.51100000000E-03 0.  1.
</event>
<event>
 8    1  0.1117354E+005  0.1043930E+01  0.7957747E-01            NaN
         13   -1    0    0    0    0  0.00000000000E+00  0.00000000000E+00  0.74505805969E-08  0.10566000000E+00  0.10566000000E+00 0. -1.
     999900   -1    0    0    0    0 -0.00000000000E+00 -0.00000000000E+00 -0.74505805969E-08  0.93827000000E+00  0.93827000000E+00 0. -1.
     999902    2    1    2    0    0  0.11068708040E-01  0.36440680499E-02  0.20073899750E-01  0.10207188608E+01  0.10204549162E+01 0.  0.
     999903    2    3    3    0    0  0.40789356887E-01 -0.11746448674E+00  0.38617136828E-01  0.13173379311E+00  0.20020781948E-01 0.  0.
         14    1    1    2    0    0 -0.11068708040E-01 -0.36440680499E-02 -0.20073899750E-01  0.23211139153E-01  0.00000000000E+00 0.  1.
     999901    1    3    3    0    0 -0.29720648847E-01  0.12110855479E+00 -0.18543237078E-01  0.88898506773E+00  0.88000000000E+00 0.  1.
        -11    1    4    4    0    0  0.29529052835E-01 -0.10283698732E+00  0.28716452809E-01  0.11078044370E+00  0.51100000000E-03 0. -1.
         11    1    4    4    0    0  0.11260304052E-01 -0.14627499421E-01  0.99006840194E-02  0.20953349415E-01  0.51100000000E-03 0.  1.
</event>
<event>
 8    1  0.1117354E+005  0.1043930E+01  0.7957747E-01            NaN
         13   -1    0    0    0    0  0.00000000000E+00  0.00000000000E+00  0.74505805969E-08  0.10566000000E+00  0.10566000000E+00 0. -1.
     999900   -1    0    0    0    0 -0.00000000000E+00 -0.00000000000E+00 -0.74505805969E-08  0.93827000000E+00  0.93827000000E+00 0.  1.
     999902    2    1    2    0    0 -0.16886072038E-01  0.12904591042E-01  0.92467405617E-02  0.10207530694E+01  0.10204899111E+01 0.  0.
     999903    2    3    3    0    0 -0.65723689570E-01 -0.67729649755E-01 -0.88319221916E-01  0.13035646640E+00  0.16900134529E-01 0.  0.
         14    1    1    2    0    0  0.16886072038E-01 -0.12904591042E-01 -0.92467405617E-02  0.23176930553E-01  0.00000000000E+00 0. -1.
     999901    1    3    3    0    0  0.48837617532E-01  0.80634240796E-01  0.97565962478E-01  0.89039660304E+00  0.88000000000E+00 0. -1.
        -11    1    4    4    0    0 -0.38763153186E-01 -0.35464196562E-01 -0.59505682592E-01  0.79381853496E-01  0.51100000000E-03 0. -1.
         11    1    4    4    0    0 -0.26960536384E-01 -0.32265453192E-01 -0.28813539324E-01  0.50974612909E-01  0.51100000000E-03 0.  1.
</event>
<event>
 8    1  0.1117354E+005  0.1043930E+01  0.7957747E-01            NaN
         13   -1    0    0    0    0  0.00000000000E+00  0.00000000000E+00  0.74505805969E-08  0.10566000000E+00  0.10566000000E+00 0. -1.
     999900   -1    0    0    0    0 -0.00000000000E+00 -0.00000000000E+00 -0.74505805969E-08  0.93827000000E+00  0.93827000000E+00 0.  1.
     999902    2    1    2    0    0  0.21255834660E-01  0.72522041870E-02 -0.73096738354E-02  0.10203114415E+01  0.10200380392E+01 0.  0.
     999903    2    3    3    0    0  0.92827475944E-01 -0.43402027433E-01  0.80112604447E-01  0.13164333377E+00  0.20279587227E-01 0.  0.
         14    1    1    2    0    0 -0.21255834660E-01 -0.72522041870E-02  0.73096738354E-02  0.23618558471E-01  0.00000000000E+00 0. -1.
     999901    1    3    3    0    0 -0.71571641284E-01  0.50654231620E-01 -0.87422278283E-01  0.88866810776E+00  0.88000000000E+00 0.  1.
        -11    1    4    4    0    0  0.38647230485E-01 -0.11265849782E-01  0.41168902336E-01  0.57581832517E-01  0.51100000000E-03 0. -1.
         11    1    4    4    0    0  0.54180245459E-01 -0.32136177651E-01  0.38943702111E-01  0.74061501248E-01  0.51100000000E-03 0.  1.
</event>
<event>
 8    1  0.1117354E+005  0.1043930E+01  0.7957747E-01            NaN
         13   -1    0    0    0    0  0.00000000000E+00  0.00000000000E+00  0.74505805969E-08  0.10566000000E+00  0.10566000000E+00 0. -1.
     999900   -1    0    0    0    0 -0.00000000000E+00 -0.00000000000E+00 -0.74505805969E-08  0.93827000000E+00  0.93827000000E+00 0. -1.
     999902    2    1    2    0    0  0.71468154149E-02 -0.14103095522E-01 -0.18878443031E-01  0.10193054211E+01  0.10190079350E+01 0.  0.
     999903    2    3    3    0    0 -0.11412716853E+00  0.54168288951E-01  0.45170683066E-02  0.12806150890E+00  0.20497122508E-01 0.  0.
         14    1    1    2    0    0 -0.71468154149E-02  0.14103095522E-01  0.18878443031E-01  0.24624578883E-01  0.00000000000E+00 0. -1.
     999901    1    3    3    0    0  0.12127398394E+00 -0.68271384474E-01 -0.23395511337E-01  0.89124391222E+00  0.88000000000E+00 0. -1.
        -11    1    4    4    0    0 -0.29809686425E-02  0.12762233372E-05 -0.29069648335E-02  0.41949661763E-02  0.51100000000E-03 0. -1.
         11    1    4    4    0    0 -0.11114619988E+00  0.54167012728E-01  0.74240331401E-02  0.12386654272E+00  0.51100000000E-03 0.  1.
</event>
<event>
 7    1  0.1117354E+005  0.1043930E+01  0.7957747E-01            NaN
         13   -1    0    0    0    0  0.00000000000E+00  0.00000000000E+00  0.74505805969E-08  0.10566000000E+00  0.10566000000E+00 0.  1.
     999900   -1    0    0    0    0 -0.00000000000E+00 -0.00000000000E+00 -0.74505805969E-08  0.93827000000E+00  0.93827000000E+00 0. -1.
     999902    2    1    2    0    0  0.11145099165E-01 -0.10116666287E-01  0.18857989053E-01  0.10198015122E+01  0.10195160324E+01 0.  0.
         14    1    1    2    0    0 -0.11145099165E-01  0.10116666287E-01 -0.18857989053E-01  0.24128487796E-01  0.00000000000E+00 0. -1.
     999901    1    3    3    0    0 -0.37364371499E-01 -0.90618987041E-01 -0.42652625030E-01  0.88646891851E+00  0.88000000000E+00 0. -1.
        -11    1    3    3    0    0  0.46742451586E-01  0.63868190444E-01  0.10737109708E-01  0.79872080083E-01  0.51100000000E-03 0.  1.
         11    1    3    3    0    0  0.17670190790E-02  0.16634130309E-01  0.50773504376E-01  0.53460513607E-01  0.51100000000E-03 0. -1.
</event>
<event>
 8    1  0.1117354E+005  0.1043930E+01  0.7957747E-01            NaN
         13   -1    0    0    0    0  0.00000000000E+00  0.00000000000E+00  0.74505805969E-08  0.10566000000E+00  0.10566000000E+00 0. -1.
     999900   -1    0    0    0    0 -0.00000000000E+00 -0.00000000000E+00 -0.74505805969E-08  0.93827000000E+00  0.93827000000E+00 0. -1.
     999902    2    1    2    0    0 -0.17785521000E-01  0.14757909115E-01  0.23526225452E-02  0.10206995142E+01  0.10204351242E+01 0.  0.
     999903    2    3    3    0    0  0.11448139680E+00 -0.54141093081E-01  0.27441961134E-02  0.12815160881E+00  0.19443663636E-01 0.  0.
         14    1    1    2    0    0  0.17785521000E-01 -0.14757909115E-01 -0.23526225452E-02  0.23230485822E-01  0.00000000000E+00 0.  1.
     999901    1    3    3    0    0 -0.13226691780E+00  0.68899002196E-01 -0.39157356829E-03  0.89254790537E+00  0.88000000000E+00 0.  1.
        -11    1    4    4    0    0  0.95511655841E-01 -0.36630257395E-01  0.17516112544E-02  0.10231119890E+00  0.51100000000E-03 0.  1.
         11    1    4    4    0    0  0.18969740956E-01 -0.17510835686E-01  0.99258485905E-03  0.25840409905E-01  0.51100000000E-03 0. -1.
</event>
<event>
 8    1  0.1117354E+005  0.1043930E+01  0.7957747E-01            NaN
         13   -1    0    0    0    0  0.00000000000E+00  0.00000000000E+00  0.74505805969E-08  0.10566000000E+00  0.10566000000E+00 0. -1.
     999900   -1    0    0    0    0 -0.00000000000E+00 -0.00000000000E+00 -0.74505805969E-08  0.93827000000E+00  0.93827000000E+00 0. -1.
     999902    2    1    2    0    0 -0.89054224226E-02 -0.17213637396E-01  0.14648028055E-01  0.10196363674E+01  0.10193469189E+01 0.  0.
     999903    2    3    3    0    0 -0.23936520557E-01 -0.26796601403E-01  0.12597569566E+00  0.13244325609E+00  0.19501931287E-01 0.  0.
         14    1    1    2    0    0  0.89054224226E-02  0.17213637396E-01 -0.14648028055E-01  0.24293632640E-01  0.00000000000E+00 0.  1.
     999901    1    3    3    0    0  0.15031098135E-01  0.95829640071E-02 -0.11132766760E+00  0.88719311127E+00  0.88000000000E+00 0. -1.
        -11    1    4    4    0    0 -0.52045210353E-03 -0.87308795041E-02  0.52687197548E-01  0.53410682769E-01  0.51100000000E-03 0. -1.
         11    1    4    4    0    0 -0.23416068454E-01 -0.18065721899E-01  0.73288498111E-01  0.79032573322E-01  0.51100000000E-03 0.  1.
</event>
<event>
 8    1  0.1117354E+005  0.1043930E+01  0.7957747E-01            NaN
         13   -1    0    0    0    0  0.00000000000E+00  0.00000000000E+00  0.74505805969E-08  0.10566000000E+00  0.10566000000E+00 0. -1.
     999900   -1    0    0    0    0 -0.00000000000E+00 -0.00000000000E+00 -0.74505805969E-08  0.93827000000E+00  0.93827000000E+00 0. -1.
     999902    2    1    2    0    0  0.37815297508E-02 -0.22599518944E-01  0.53413709435E-02  0.10204019642E+01  0.10201306780E+01 0.  0.
     999903    2    3    3    0    0 -0.43675684363E-01 -0.48323891778E-01  0.11328230662E+00  0.13216484717E+00  0.19796512639E-01 0.  0.
         14    1    1    2    0    0 -0.37815297508E-02  0.22599518944E-01 -0.53413709435E-02  0.23528035772E-01  0.00000000000E+00 0. -1.
     999901    1    3    3    0    0  0.47457214114E-01  0.25724372834E-01 -0.10794093568E+00  0.88823711706E+00  0.88000000000E+00 0. -1.
        -11    1    4    4    0    0 -0.21113069247E-01 -0.94864607591E-02  0.37586471045E-01  0.44144745524E-01  0.51100000000E-03 0.  1.
         11    1    4    4    0    0 -0.22562615116E-01 -0.38837431019E-01  0.75695835574E-01  0.88020101643E-01  0.51100000000E-03 0. -1.
</event>
<event>
 8    1  0.1117354E+005  0.1043930E+01  0.7957747E-01            NaN
         13   -1    0    0    0    0  0.00000000000E+00  0.00000000000E+00  0.74505805969E-08  0.10566000000E+00  0.10566000000E+00 0. -1.
     999900   -1    0    0    0    0 -0.00000000000E+00 -0.00000000000E+00 -0.74505805969E-08  0.93827000000E+00  0.93827000000E+00 0.  1.
     999902    2    1    2    0    0 -0.17033786019E-01 -0.14494831309E-01 -0.44783357003E-02  0.10211197941E+01  0.10208649903E+01 0.  0.
     999903    2    3    3    0    0  0.10191195949E+00  0.54786049801E-01 -0.53493479520E-01  0.12907135645E+00  0.20255961185E-01 0.  0.
         14    1    1    2    0    0  0.17033786019E-01  0.14494831309E-01  0.44783357003E-02  0.22810205862E-01  0.00000000000E+00 0. -1.
     999901    1    3    3    0    0 -0.11894574551E+00 -0.69280881110E-01  0.49015143820E-01  0.89204843769E+00  0.88000000000E+00 0. -1.
        -11    1    4    4    0    0  0.37819322697E-01  0.96474505917E-02 -0.16271011695E-01  0.42289258858E-01  0.51100000000E-03 0. -1.
         11    1    4    4    0    0  0.64092636796E-01  0.45138599209E-01 -0.37222467826E-01  0.86782097590E-01  0.51100000000E-03 0.  1.
</event>
<event>
 8    1  0.1117354E+005  0.1043930E+01  0.7957747E-01            NaN
         13   -1    0    0    0    0  0.00000000000E+00  0.00000000000E+00  0.74505805969E-08  0.10566000000E+00  0.10566000000E+00 0.  1.
     999900   -1    0    0    0    0 -0.00000000000E+00 -0.00000000000E+00 -0.74505805969E-08  0.93827000000E+00  0.93827000000E+00 0.  1.
     999902    2    1    2    0    0  0.23164857395E-01 -0.69011901861E-02  0.55014183180E-02  0.10191408361E+01  0.10188393107E+01 0.  0.
     999903    2    3    3    0    0 -0.50151788616E-01  0.10483372670E+00 -0.48372282692E-01  0.12742204751E+00  0.19778480832E-01 0.  0.
         14    1    1    2    0    0 -0.23164857395E-01  0.69011901861E-02 -0.55014183180E-02  0.24789163916E-01  0.00000000000E+00 0.  1.
     999901    1    3    3    0    0  0.73316646011E-01 -0.11173491689E+00  0.53873701010E-01  0.89171878857E+00  0.88000000000E+00 0. -1.
        -11    1    4    4    0    0 -0.49443736437E-01  0.96297537031E-01 -0.39917426245E-01  0.11537573727E+00  0.51100000000E-03 0.  1.
         11    1    4    4    0    0 -0.70805217867E-03  0.85361896691E-02 -0.84548564463E-02  0.12046310243E-01  0.51100000000E-03 0. -1.
</event>
<event>
 8    1  0.1117354E+005  0.1043930E+01  0.7957747E-01            NaN
         13   -1    0    0    0    0  0.00000000000E+00  0.00000000000E+00  0.74505805969E-08  0.10566000000E+00  0.10566000000E+00 0.  1.
     999900   -1    0    0    0    0 -0.00000000000E+00 -0.00000000000E+00 -0.74505805969E-08  0.93827000000E+00  0.93827000000E+00 0. -1.
     999902    2    1    2    0    0 -0.42514716950E-02  0.21946767555E-01  0.70656079743E-02  0.10204852045E+01  0.10202158567E+01 0.  0.
     999903    2    3    3    0    0  0.16333574655E-01  0.12472839373E+00  0.40481649838E-01  0.13363434975E+00  0.19885109855E-01 0.  0.
         14    1    1    2    0    0  0.42514716950E-02 -0.21946767555E-01 -0.70656079743E-02  0.23444795451E-01  0.00000000000E+00 0. -1.
     999901    1    3    3    0    0 -0.20585046350E-01 -0.10278162618E+00 -0.33416041863E-01  0.88685085480E+00  0.88000000000E+00 0. -1.
        -11    1    4    4    0    0  0.35196543633E-02  0.93836402591E-01  0.30283195539E-01  0.98666060381E-01  0.51100000000E-03 0. -1.
         11    1    4    4    0    0  0.12813920292E-01  0.30891991142E-01  0.10198454299E-01  0.34968289364E-01  0.51100000000E-03 0.  1.
</event>
<event>
 8    1  0.1117354E+005  0.1043930E+01  0.7957747E-01            NaN
         13   -1    0    0    0    0  0.00000000000E+00  0.00000000000E+00  0.74505805969E-08  0.10566000000E+00  0.10566000000E+00 0. -1.
     999900   -1    0    0    0    0 -0.00000000000E+00 -0.00000000000E+00 -0.74505805969E-08  0.93827000000E+00  0.93827000000E+00 0. -1.
     999902    2    1    2    0    0 -0.21295055792E-01  0.11730908806E-02 -0.96024015662E-02  0.10205406507E+01  0.10202725901E+01 0.  0.
     999903    2    3    3    0    0  0.91223939968E-01  0.86709518208E-01 -0.20553679301E-01  0.12919507505E+00  0.20701833555E-01 0.  0.
         14    1    1    2    0    0  0.21295055792E-01 -0.11730908806E-02  0.96024015662E-02  0.23389349270E-01  0.00000000000E+00 0. -1.
     999901    1    3    3    0    0 -0.11251899576E+00 -0.85536427327E-01  0.10951277735E-01  0.89134557568E+00  0.88000000000E+00 0.  1.
        -11    1    4    4    0    0  0.12749645744E-01  0.23163990973E-01 -0.66070807707E-02  0.27258734044E-01  0.51100000000E-03 0. -1.
         11    1    4    4    0    0  0.78474294223E-01  0.63545527235E-01 -0.13946598530E-01  0.10193634100E+00  0.51100000000E-03 0.  1.
</event>
<event>
 8    1  0.1117354E+005  0.1043930E+01  0.7957747E-01            NaN
         13   -1    0    0    0    0  0.00000000000E+00  0.00000000000E+00  0.74505805969E-08  0.10566000000E+00  0.10566000000E+00 0. -1.
     999900   -1    0    0    0    0 -0.00000000000E+00 -0.00000000000E+00 -0.74505805969E-08  0.93827000000E+00  0.93827000000E+00 0. -1.
     999902    2    1    2    0    0 -0.10396019619E-01 -0.20134412275E-01  0.58478411096E-02  0.10205276705E+01  0.10202593088E+01 0.  0.
     999903    2    3    3    0    0 -0.83313701757E-01  0.82575989937E-01 -0.52856455233E-01  0.12962217072E+00  0.15752309891E-01 0.  0.
         14    1    1    2    0    0  0.10396019619E-01  0.20134412275E-01 -0.58478411096E-02  0.23402329525E-01  0.00000000000E+00 0.  1.
     999901    1    3    3    0    0  0.72917682138E-01 -0.10271040221E+00  0.58704296343E-01  0.89090549976E+00  0.88000000000E+00 0.  1.
        -11    1    4    4    0    0 -0.26177190590E-01  0.23597556743E-01 -0.23736041475E-01  0.42494126386E-01  0.51100000000E-03 0.  1.
         11    1    4    4    0    0 -0.57136511167E-01  0.58978433194E-01 -0.29120413758E-01  0.87128044330E-01  0.51100000000E-03 0. -1.
</event>
<event>
 8    1  0.1117354E+005  0.1043930E+01  0.7957747E-01            NaN
         13   -1    0    0    0    0  0.00000000000E+00  0.00000000000E+00  0.74505805969E-08  0.10566000000E+00  0.10566000000E+00 0. -1.
     999900   -1    0    0    0    0 -0.00000000000E+00 -0.00000000000E+00 -0.74505805969E-08  0.93827000000E+00  0.93827000000E+00 0. -1.
     999902    2    1    2    0    0  0.37978690075E-02 -0.16939527323E-01 -0.20167593095E-01  0.10173197913E+01  0.10169717079E+01 0.  0.
     999903    2    3    3    0    0 -0.10274733527E+00 -0.65975366572E-01 -0.37492417367E-01  0.12936903614E+00  0.20515902392E-01 0.  0.
         14    1    1    2    0    0 -0.37978690075E-02  0.16939527323E-01  0.20167593095E-01  0.26610208683E-01  0.00000000000E+00 0. -1.
     999901    1    3    3    0    0  0.10654520428E+00  0.49035839249E-01  0.17324824273E-01  0.88795075518E+00  0.88000000000E+00 0. -1.
        -11    1    4    4    0    0 -0.73154638861E-01 -0.36403750130E-01 -0.28774568709E-01  0.86631813648E-01  0.51100000000E-03 0. -1.
         11    1    4    4    0    0 -0.29592696413E-01 -0.29571616442E-01 -0.87178486584E-02  0.42737222491E-01  0.51100000000E-03 0.  1.
</event>
<event>
 8    1  0.1117354E+005  0.1043930E+01  0.7957747E-01            NaN
         13   -1    0    0    0    0  0.00000000000E+00  0.00000000000E+00  0.74505805969E-08  0.10566000000E+00  0.10566000000E+00 0.  1.
     999900   -1    0    0    0    0 -0.00000000000E+00 -0.00000000000E+00 -0.74505805969E-08  0.93827000000E+00  0.93827000000E+00 0.  1.
     999902    2    1    2    0    0 -0.12490292699E-01  0.22717242591E-01 -0.98004882946E-03  0.10179869659E+01  0.10176563377E+01 0.  0.
     999903    2    3    3    0    0  0.15999003415E-01  0.12590116297E+00 -0.26354341422E-01  0.13113725138E+00  0.19883572121E-01 0.  0.
         14    1    1    2    0    0  0.12490292699E-01 -0.22717242591E-01  0.98004882946E-03  0.25943034100E-01  0.00000000000E+00 0. -1.
     999901    1    3    3    0    0 -0.28489296114E-01 -0.10318392038E+00  0.25374292593E-01  0.88684971452E+00  0.88000000000E+00 0. -1.
        -11    1    4    4    0    0  0.47160704387E-02  0.57650968545E-01 -0.21771333789E-01  0.61807180736E-01  0.51100000000E-03 0. -1.
         11    1    4    4    0    0  0.11282932976E-01  0.68250194425E-01 -0.45830076334E-02  0.69330070645E-01  0.51100000000E-03 0.  1.
</event>
<event>
 8    1  0.1117354E+005  0.1043930E+01  0.7957747E-01            NaN
         13   -1    0    0    0    0  0.00000000000E+00  0.00000000000E+00  0.74505805969E-08  0.10566000000E+00  0.10566000000E+00 0. -1.
     999900   -1    0    0    0    0 -0.00000000000E+00 -0.00000000000E+00 -0.74505805969E-08  0.93827000000E+00  0.93827000000E+00 0.  1.
     999902    2    1    2    0    0 -0.19346846157E-01 -0.36878180460E-02 -0.12818895570E-01  0.10204305417E+01  0.10201599217E+01 0.  0.
     999903    2    3    3    0    0 -0.68284130786E-01  0.68669489662E-01 -0.88883998434E-01  0.13284035601E+00  0.19182640062E-01 0.  0.
         14    1    1    2    0    0  0.19346846157E-01  0.36878180460E-02  0.12818895570E-01  0.23499458330E-01  0.00000000000E+00 0.  1.
     999901    1    3    3    0    0  0.48937284629E-01 -0.72357307708E-01  0.76065102864E-01  0.88759018566E+00  0.88000000000E+00 0.  1.
        -11    1    4    4    0    0 -0.26998026214E-01  0.16357173533E-01 -0.35027345940E-01  0.47155345721E-01  0.51100000000E-03 0. -1.
         11    1    4    4    0    0 -0.41286104572E-01  0.52312316129E-01 -0.53856652494E-01  0.85685010289E-01  0.51100000000E-03 0.  1.
</event>
<event>
 8    1  0.1193302E+005  0.1043930E+01  0.7957747E-01            NaN
         13   -1    0    0    0    0  0.00000000000E+00  0.00000000000E+00  0.74505805969E-08  0.10566000000E+00  0.10566000000E+00 0. -1.
     999900   -1    0    0    0    0 -0.00000000000E+00 -0.00000000000E+00 -0.74505805969E-08  0.93827000000E+00  0.93827000000E+00 0.  1.
     999902    2    1    2    0    0 -0.18877183078E-01  0.10309989407E-01  0.11746955337E-01  0.10194221465E+01  0.10191275082E+01 0.  0.
     999903    2    3    3    0    0 -0.39328639544E-01 -0.78068135677E-02 -0.12120089349E+00  0.12901683930E+00  0.18654758450E-01 0.  0.
         14    1    1    2    0    0  0.18877183078E-01 -0.10309989407E-01 -0.11746955337E-01  0.24507853480E-01  0.00000000000E+00 0.  1.
     999901    1    3    3    0    0  0.20451456466E-01  0.18116802975E-01  0.13294784883E+00  0.89040530722E+00  0.88000000000E+00 0. -1.
        -11    1    4    4    0    0 -0.22734818932E-01  0.11838560414E-02 -0.44028459158E-01  0.49568536833E-01  0.51100000000E-03 0.  1.
         11    1    4    4    0    0 -0.16593820612E-01 -0.89906696090E-02 -0.77172434333E-01  0.79448302464E-01  0.51100000000E-03 0. -1.
</event>
<event>
 8    1  0.1117354E+005  0.1043930E+01  0.7957747E-01            NaN
         13   -1    0    0    0    0  0.00000000000E+00  0.00000000000E+00  0.74505805969E-08  0.10566000000E+00  0.10566000000E+00 0. -1.
     999900   -1    0    0    0    0 -0.00000000000E+00 -0.00000000000E+00 -0.74505805969E-08  0.93827000000E+00  0.93827000000E+00 0.  1.
     999902    2    1    2    0    0  0.96416380285E-02 -0.15874310836E-01 -0.12674421629E-01  0.10214445404E+01  0.10211970198E+01 0.  0.
     999903    2    3    3    0    0 -0.33536840251E-01  0.12249910000E+00  0.12216407870E-01  0.12923877089E+00  0.20558942667E-01 0.  0.
         14    1    1    2    0    0 -0.96416380285E-02  0.15874310836E-01  0.12674421629E-01  0.22485459568E-01  0.00000000000E+00 0. -1.
     999901    1    3    3    0    0  0.43178478280E-01 -0.13837341084E+00 -0.24890829498E-01  0.89220576954E+00  0.88000000000E+00 0.  1.
        -11    1    4    4    0    0 -0.16669866776E-01  0.88504173412E-01  0.26587695098E-02  0.90101072946E-01  0.51100000000E-03 0.  1.
         11    1    4    4    0    0 -0.16866973475E-01  0.33994926592E-01  0.95576383599E-02  0.39137697942E-01  0.51100000000E-03 0. -1.
</event>
<event>
 8    1  0.1117354E+005  0.1043930E+01  0.7957747E-01            NaN
         13   -1    0    0    0    0  0.00000000000E+00  0.00000000000E+00  0.74505805969E-08  0.10566000000E+00  0.10566000000E+00 0.  1.
     999900   -1    0    0    0    0 -0.00000000000E+00 -0.00000000000E+00 -0.74505805969E-08  0.93827000000E+00  0.93827000000E+00 0. -1.
     999902    2    1    2    0    0  0.13430001619E-01  0.17774372388E-01 -0.10323949413E-01  0.10193764424E+01  0.10190806907E+01 0.  0.
     999903    2    3    3    0    0 -0.77565715682E-01 -0.98429659342E-01 -0.63719635230E-02  0.12707648405E+00  0.20074680353E-01 0.  0.
         14    1    1    2    0    0 -0.13430001619E-01 -0.17774372388E-01  0.10323949413E-01  0.24553557558E-01  0.00000000000E+00 0. -1.
     999901    1    3    3    0    0  0.90995717302E-01  0.11620403173E+00 -0.39519858900E-02  0.89229995839E+00  0.88000000000E+00 0. -1.
        -11    1    4    4    0    0 -0.27577961770E-01 -0.50610272771E-01 -0.39669177670E-03  0.57639935555E-01  0.51100000000E-03 0.  1.
         11    1    4    4    0    0 -0.49987753912E-01 -0.47819386571E-01 -0.59752717463E-02  0.69436548493E-01  0.51100000000E-03 0. -1.
</event>
<event>
 8    1  0.1117354E+005  0.1043930E+01  0.7957747E-01            NaN
         13   -1    0    0    0    0  0.00000000000E+00  0.00000000000E+00  0.74505805969E-08  0.10566000000E+00  0.10566000000E+00 0. -1.
     999900   -1    0    0    0    0 -0.00000000000E+00 -0.00000000000E+00 -0.74505805969E-08  0.93827000000E+00  0.93827000000E+00 0. -1.
     999902    2    1    2    0    0  0.17937176497E-01  0.38084579635E-02 -0.13179684471E-01  0.10213479112E+01  0.10210982347E+01 0.  0.
     999903    2    3    3    0    0  0.75817304392E-01 -0.41053886260E-01 -0.10047805312E+00  0.13400144880E+00  0.20660684843E-01 0.  0.
         14    1    1    2    0    0 -0.17937176497E-01 -0.38084579635E-02  0.13179684471E-01  0.22582088821E-01  0.00000000000E+00 0. -1.
     999901    1    3    3    0    0 -0.57880127895E-01  0.44862344224E-01  0.87298368650E-01  0.88734646238E+00  0.88000000000E+00 0.  1.
        -11    1    4    4    0    0  0.29351017567E-01 -0.10913272329E-01 -0.50361724767E-01  0.59305532521E-01  0.51100000000E-03 0.  1.
         11    1    4    4    0    0  0.46466286825E-01 -0.30140613931E-01 -0.50116328355E-01  0.74695916276E-01  0.51100000000E-03 0. -1.
</event>
<event>
 8    1  0.1117354E+005  0.1043930E+01  0.7957747E-01            NaN
         13   -1    0    0    0    0  0.00000000000E+00  0.00000000000E+00  0.74505805969E-08  0.10566000000E+00  0.10566000000E+00 0. -1.
     999900   -1    0    0    0    0 -0.00000000000E+00 -0.00000000000E+00 -0.74505805969E-08  0.93827000000E+00  0.93827000000E+00 0. -1.
     999902    2    1    2    0    0  0.20508767407E-01 -0.90307796480E-02  0.81918926348E-02  0.10200705862E+01  0.10197915126E+01 0.  0.
     999903    2    3    3    0    0  0.10564744703E+00 -0.73974416085E-01 -0.25677028322E-01  0.13293284353E+00  0.19448233993E-01 0.  0.
         14    1    1    2    0    0 -0.20508767407E-01  0.90307796480E-02 -0.81918926348E-02  0.23859413793E-01  0.00000000000E+00 0.  1.
     999901    1    3    3    0    0 -0.85138679624E-01  0.64943636437E-01  0.33868920957E-01  0.88713774268E+00  0.88000000000E+00 0.  1.
        -11    1    4    4    0    0  0.49865362363E-01 -0.45048432639E-01 -0.81407994311E-02  0.67693791320E-01  0.51100000000E-03 0. -1.
         11    1    4    4    0    0  0.55782084667E-01 -0.28925983446E-01 -0.17536228891E-01  0.65239052207E-01  0.51100000000E-03 0.  1.
</event>
<event>
 8    1  0.1117354E+005  0.1043930E+01  0.7957747E-01            NaN
         13   -1    0    0    0    0  0.00000000000E+00  0.00000000000E+00  0.74505805969E-08  0.10566000000E+00  0.10566000000E+00 0. -1.
     999900   -1    0    0    0    0 -0.00000000000E+00 -0.00000000000E+00 -0.74505805969E-08  0.93827000000E+00  0.93827000000E+00 0. -1.
     999902    2    1    2    0    0 -0.78428000423E-02 -0.61857361467E-02  0.22466817648E-01  0.10193427932E+01  0.10190462204E+01 0.  0.
     999903    2    3    3    0    0 -0.77602112146E-01 -0.10354514398E+00 -0.15480373267E-02  0.13090487797E+00  0.19748569683E-01 0.  0.
         14    1    1    2    0    0  0.78428000423E-02  0.61857361467E-02 -0.22466817648E-01  0.24587206824E-01  0.00000000000E+00 0.  1.
     999901    1    3    3    0    0  0.69759312104E-01  0.97359407835E-01  0.24014854974E-01  0.88843791521E+00  0.88000000000E+00 0. -1.
        -11    1    4    4    0    0 -0.59050919038E-01 -0.67847327564E-01  0.52524241238E-02  0.90100610303E-01  0.51100000000E-03 0.  1.
         11    1    4    4    0    0 -0.18551193108E-01 -0.35697816419E-01 -0.68004614505E-02  0.40804267666E-01  0.51100000000E-03 0. -1.
</event>
<event>
 8    1  0.1117354E+005  0.1043930E+01  0.7957747E-01            NaN
         13   -1    0    0    0    0  0.00000000000E+00  0.00000000000E+00  0.74505805969E-08  0.10566000000E+00  0.10566000000E+00 0.  1.
     999900   -1    0    0    0    0 -0.00000000000E+00 -0.00000000000E+00 -0.74505805969E-08  0.93827000000E+00  0.93827000000E+00 0. -1.
     999902    2    1    2    0    0 -0.40899909720E-02  0.48730092267E-02 -0.24413895170E-01  0.10187008002E+01  0.10183883384E+01 0.  0.
     999903    2    3    3    0    0  0.39200152139E-01  0.38900181004E-01  0.11196360348E+00  0.12649527060E+00  0.20379621472E-01 0.  0.
         14    1    1    2    0    0  0.40899909720E-02 -0.48730092267E-02  0.24413895170E-01  0.25229199798E-01  0.00000000000E+00 0.  1.
     999901    1    3    3    0    0 -0.43290143111E-01 -0.34027171777E-01 -0.13637749865E+00  0.89220552960E+00  0.88000000000E+00 0. -1.
        -11    1    4    4    0    0  0.39666608701E-01  0.30133238615E-01  0.90607966883E-01  0.10339979061E+00  0.51100000000E-03 0. -1.
         11    1    4    4    0    0 -0.46645656186E-03  0.87669423890E-02  0.21355636595E-01  0.23095479989E-01  0.51100000000E-03 0.  1.
</event>
<event>
 8    1  0.1117354E+005  0.1043930E+01  0.7957747E-01            NaN
         13   -1    0    0    0    0  0.00000000000E+00  0.00000000000E+00  0.74505805969E-08  0.10566000000E+00  0.10566000000E+00 0.  1.
     999900   -1    0    0    0    0 -0.00000000000E+00 -0.00000000000E+00 -0.74505805969E-08  0.93827000000E+00  0.93827000000E+00 0.  1.
     999902    2    1    2    0    0  0.10015419881E-01 -0.22315778673E-01  0.13345246272E-01  0.10160660769E+01  0.10156839441E+01 0.  0.
     999903    2    3    3    0    0 -0.17822430903E-01 -0.12188919338E+00  0.37177468662E-01  0.12969268735E+00  0.16230048338E-01 0.  0.
         14    1    1    2    0    0 -0.10015419881E-01  0.22315778673E-01 -0.13345246272E-01  0.27863923112E-01  0.00000000000E+00 0. -1.
     999901    1    3    3    0    0  0.27837850784E-01  0.99573414712E-01 -0.23832222390E-01  0.88637338954E+00  0.88000000000E+00 0.  1.
        -11    1    4    4    0    0 -0.96668385069E-02 -0.99384449172E-01  0.34282601892E-01  0.10557591779E+00  0.51100000000E-03 0. -1.
         11    1    4    4    0    0 -0.81555923964E-02 -0.22504744212E-01  0.28948667701E-02  0.24116769560E-01  0.51100000000E-03 0.  1.
</event>
<event>
 8    1  0.1117354E+005  0.1043930E+01  0.7957747E-01            NaN
         13   -1    0    0    0    0  0.00000000000E+00  0.00000000000E+00  0.74505805969E-08  0.10566000000E+00  0.10566000000E+00 0.  1.
     999900   -1    0    0    0    0 -0.00000000000E+00 -0.00000000000E+00 -0.74505805969E-08  0.93827000000E+00  0.93827000000E+00 0.  1.
     999902    2    1    2    0    0  0.94788427743E-02 -0.15552107979E-01  0.17024234564E-01  0.10189992743E+01  0.10186942524E+01 0.  0.
     999903    2    3    3    0    0 -0.99123444188E-01  0.30327625366E-01  0.74771345677E-01  0.12926103439E+00  0.19298674280E-01 0.  0.
         14    1    1    2    0    0 -0.94788427743E-02  0.15552107979E-01 -0.17024234564E-01  0.24930725729E-01  0.00000000000E+00 0. -1.
     999901    1    3    3    0    0  0.10860228696E+00 -0.45879733345E-01 -0.57747111113E-01  0.88973823988E+00  0.88000000000E+00 0.  1.
        -11    1    4    4    0    0 -0.71832408812E-01  0.19649541035E-01  0.42834450432E-01  0.85913041405E-01  0.51100000000E-03 0. -1.
         11    1    4    4    0    0 -0.27291035376E-01  0.10678084331E-01  0.31936895245E-01  0.43347992984E-01  0.51100000000E-03 0.  1.
</event>
<event>
 8    1  0.1117354E+005  0.1043930E+01  0.7957747E-01            NaN
         13   -1    0    0    0    0  0.00000000000E+00  0.00000000000E+00  0.74505805969E-08  0.10566000000E+00  0.10566000000E+00 0.  1.
     999900   -1    0    0    0    0 -0.00000000000E+00 -0.00000000000E+00 -0.74505805969E-08  0.93827000000E+00  0.93827000000E+00 0.  1.
     999902    2    1    2    0    0 -0.99971880362E-02  0.16179572806E-01  0.14964991884E-01  0.10197293114E+01  0.10194421000E+01 0.  0.
     999903    2    3    3    0    0 -0.27580988674E-01  0.53468080782E-01 -0.11304845832E+00  0.12951188502E+00  0.19334627809E-01 0.  0.
         14    1    1    2    0    0  0.99971880362E-02 -0.16179572806E-01 -0.14964991884E-01  0.24200688562E-01  0.00000000000E+00 0. -1.
     999901    1    3    3    0    0  0.17583800638E-01 -0.37288507977E-01  0.12801345021E+00  0.89021742642E+00  0.88000000000E+00 0. -1.
        -11    1    4    4    0    0 -0.10721593058E-01  0.73240997784E-02 -0.34476794787E-01  0.36844341425E-01  0.51100000000E-03 0.  1.
         11    1    4    4    0    0 -0.16859395617E-01  0.46143981004E-01 -0.78571663536E-01  0.92667543591E-01  0.51100000000E-03 0. -1.
</event>
<event>
 8    1  0.1117354E+005  0.1043930E+01  0.7957747E-01            NaN
         13   -1    0    0    0    0  0.00000000000E+00  0.00000000000E+00  0.74505805969E-08  0.10566000000E+00  0.10566000000E+00 0.  1.
     999900   -1    0    0    0    0 -0.00000000000E+00 -0.00000000000E+00 -0.74505805969E-08  0.93827000000E+00  0.93827000000E+00 0.  1.
     999902    2    1    2    0    0  0.95755746264E-02  0.12496366041E-01  0.12587487302E-01  0.10237732237E+01  0.10235747740E+01 0.  0.
     999903    2    3    3    0    0 -0.39731231036E-01  0.65899888017E-01  0.10980113307E+00  0.13544130930E+00  0.19149242339E-01 0.  0.
         14    1    1    2    0    0 -0.95755746264E-02 -0.12496366041E-01 -0.12587487302E-01  0.20156776286E-01  0.00000000000E+00 0. -1.
     999901    1    3    3    0    0  0.49306805663E-01 -0.53403521976E-01 -0.97213645764E-01  0.88833191441E+00  0.88000000000E+00 0.  1.
        -11    1    4    4    0    0 -0.29205673373E-01  0.58055983222E-01  0.81501072249E-01  0.10424084825E+00  0.51100000000E-03 0. -1.
         11    1    4    4    0    0 -0.10525557664E-01  0.78439047950E-02  0.28300060817E-01  0.31200461051E-01  0.51100000000E-03 0.  1.
</event>
<event>
 8    1  0.1117354E+005  0.1043930E+01  0.7957747E-01            NaN
         13   -1    0    0    0    0  0.00000000000E+00  0.00000000000E+00  0.74505805969E-08  0.10566000000E+00  0.10566000000E+00 0. -1.
     999900   -1    0    0    0    0 -0.00000000000E+00 -0.00000000000E+00 -0.74505805969E-08  0.93827000000E+00  0.93827000000E+00 0. -1.
     999902    2    1    2    0    0  0.10926866131E-01  0.49899621685E-02 -0.20144882875E-01  0.10204755243E+01  0.10202059514E+01 0.  0.
     999903    2    3    3    0    0 -0.11284569188E+00 -0.52192739707E-01 -0.34810217244E-01  0.12985519015E+00  0.13870361602E-01 0.  0.
         14    1    1    2    0    0 -0.10926866131E-01 -0.49899621685E-02  0.20144882875E-01  0.23454475733E-01  0.00000000000E+00 0. -1.
     999901    1    3    3    0    0  0.12377255801E+00  0.57182701876E-01  0.14665334369E-01  0.89062033412E+00  0.88000000000E+00 0. -1.
        -11    1    4    4    0    0 -0.33739864968E-01 -0.89767079004E-02 -0.81992658301E-02  0.35867099882E-01  0.51100000000E-03 0. -1.
         11    1    4    4    0    0 -0.79105826909E-01 -0.43216031807E-01 -0.26610951414E-01  0.93988090268E-01  0.51100000000E-03 0.  1.
</event>
<event>
 8    1  0.1117354E+005  0.1043930E+01  0.7957747E-01            NaN
         13   -1    0    0    0    0  0.00000000000E+00  0.00000000000E+00  0.74505805969E-08  0.10566000000E+00  0.10566000000E+00 0.  1.
     999900   -1    0    0    0    0 -0.00000000000E+00 -0.00000000000E+00 -0.74505805969E-08  0.93827000000E+00  0.93827000000E+00 0.  1.
     999902    2    1    2    0    0 -0.17554898936E-01  0.75933426315E-02 -0.93454463917E-02  0.10226421937E+01  0.10224206011E+01 0.  0.
     999903    2    3    3    0    0 -0.11492860572E+00  0.43062475199E-01  0.51359696431E-01  0.13448409262E+00  0.19626297875E-01 0.  0.
         14    1    1    2    0    0  0.17554898936E-01 -0.75933426315E-02  0.93454463917E-02  0.21287806304E-01  0.00000000000E+00 0.  1.
     999901    1    3    3    0    0  0.97373706783E-01 -0.35469132567E-01 -0.60705142822E-01  0.88815810107E+00  0.88000000000E+00 0.  1.
        -11    1    4    4    0    0 -0.88608945556E-01  0.37229413657E-01  0.32037933273E-01  0.10131270781E+00  0.51100000000E-03 0. -1.
         11    1    4    4    0    0 -0.26319660163E-01  0.58330615418E-02  0.19321763158E-01  0.33171384816E-01  0.51100000000E-03 0.  1.
</event>
<event>
 8    1  0.1117354E+005  0.1043930E+01  0.7957747E-01            NaN
         13   -1    0    0    0    0  0.00000000000E+00  0.00000000000E+00  0.74505805969E-08  0.10566000000E+00  0.10566000000E+00 0.  1.
     999900   -1    0    0    0    0 -0.00000000000E+00 -0.00000000000E+00 -0.74505805969E-08  0.93827000000E+00  0.93827000000E+00 0.  1.
     999902    2    1    2    0    0 -0.57491657822E-02 -0.16613271585E-01 -0.14291178577E-01  0.10212740629E+01  0.10210227324E+01 0.  0.
     999903    2    3    3    0    0 -0.97450667588E-01  0.38557224534E-01  0.75755692530E-01  0.13022895291E+00  0.15406591051E-01 0.  0.
         14    1    1    2    0    0  0.57491657822E-02  0.16613271585E-01  0.14291178577E-01  0.22655937082E-01  0.00000000000E+00 0.  1.
     999901    1    3    3    0    0  0.91701501806E-01 -0.55170496119E-01 -0.90046871107E-01  0.89104511001E+00  0.88000000000E+00 0.  1.
        -11    1    4    4    0    0 -0.33747710792E-01  0.21353076981E-01  0.28238676455E-01  0.48913657082E-01  0.51100000000E-03 0. -1.
         11    1    4    4    0    0 -0.63702956797E-01  0.17204147554E-01  0.47517016075E-01  0.81315295827E-01  0.51100000000E-03 0.  1.
</event>
<event>
 8    1  0.1117354E+005  0.1043930E+01  0.7957747E-01            NaN
         13   -1    0    0    0    0  0.00000000000E+00  0.00000000000E+00  0.74505805969E-08  0.10566000000E+00  0.10566000000E+00 0. -1.
     999900   -1    0    0    0    0 -0.00000000000E+00 -0.00000000000E+00 -0.74505805969E-08  0.93827000000E+00  0.93827000000E+00 0. -1.
     999902    2    1    2    0    0 -0.19991977746E-01 -0.13400932968E-01 -0.28883655100E-02  0.10196893970E+01  0.10194012260E+01 0.  0.
     999903    2    3    3    0    0 -0.38043822131E-01  0.15640004695E-02  0.12286527010E+00  0.13044039071E+00  0.21657387440E-01 0.  0.
         14    1    1    2    0    0  0.19991977746E-01  0.13400932968E-01  0.28883655100E-02  0.24240603003E-01  0.00000000000E+00 0.  1.
     999901    1    3    3    0    0  0.18051844384E-01 -0.14964933438E-01 -0.12575363561E+00  0.88924900629E+00  0.88000000000E+00 0. -1.
        -11    1    4    4    0    0 -0.96129342323E-02  0.87727844743E-02  0.23893319207E-01  0.27212535268E-01  0.51100000000E-03 0.  1.
         11    1    4    4    0    0 -0.28430887898E-01 -0.72087840049E-02  0.98971950895E-01  0.10322785544E+00  0.51100000000E-03 0. -1.
</event>
<event>
 8    1  0.1117354E+005  0.1043930E+01  0.7957747E-01            NaN
         13   -1    0    0    0    0  0.00000000000E+00  0.00000000000E+00  0.74505805969E-08  0.10566000000E+00  0.10566000000E+00 0.  1.
     999900   -1    0    0    0    0 -0.00000000000E+00 -0.00000000000E+00 -0.74505805969E-08  0.93827000000E+00  0.93827000000E+00 0. -1.
     999902    2    1    2    0    0 -0.21243201060E-01  0.97058305365E-02 -0.10864495224E-02  0.10205493005E+01  0.10202814404E+01 0.  0.
     999903    2    3    3    0    0 -0.20514438832E-01  0.21662533054E-01  0.12630968733E+00  0.13129496705E+00  0.19852549477E-01 0.  0.
         14    1    1    2    0    0  0.21243201060E-01 -0.97058305365E-02  0.10864495224E-02  0.23380699524E-01  0.00000000000E+00 0. -1.
     999901    1    3    3    0    0 -0.72876222800E-03 -0.11956702517E-01 -0.12739613685E+00  0.88925433342E+00  0.88000000000E+00 0. -1.
        -11    1    4    4    0    0  0.27798237704E-03  0.11277248117E-01  0.26352122823E-01  0.28669654647E-01  0.51100000000E-03 0.  1.
         11    1    4    4    0    0 -0.20792421209E-01  0.10385284937E-01  0.99957564507E-01  0.10262531240E+00  0.51100000000E-03 0. -1.
</event>
<event>
 8    1  0.1117354E+005  0.1043930E+01  0.7957747E-01            NaN
         13   -1    0    0    0    0  0.00000000000E+00  0.00000000000E+00  0.74505805969E-08  0.10566000000E+00  0.10566000000E+00 0. -1.
     999900   -1    0    0    0    0 -0.00000000000E+00 -0.00000000000E+00 -0.74505805969E-08  0.93827000000E+00  0.93827000000E+00 0.  1.
     999902    2    1    2    0    0 -0.13833583131E-01 -0.10705894346E-01  0.16715934730E-01  0.10197348214E+01  0.10194477423E+01 0.  0.
     999903    2    3    3    0    0 -0.12398692809E+00  0.21408315518E-01 -0.30387855804E-01  0.13103698240E+00  0.20400849606E-01 0.  0.
         14    1    1    2    0    0  0.13833583131E-01  0.10705894346E-01 -0.16715934730E-01  0.24195178649E-01  0.00000000000E+00 0.  1.
     999901    1    3    3    0    0  0.11015334496E+00 -0.32114209864E-01  0.47103790533E-01  0.88869783896E+00  0.88000000000E+00 0. -1.
        -11    1    4    4    0    0 -0.28831554385E-01 -0.33042788580E-02 -0.44922244366E-02  0.29370359010E-01  0.51100000000E-03 0. -1.
         11    1    4    4    0    0 -0.95155373705E-01  0.24712594376E-01 -0.25895631367E-01  0.10166662339E+00  0.51100000000E-03 0.  1.
</event>
<event>
 8    1  0.1117354E+005  0.1043930E+01  0.7957747E-01            NaN
         13   -1    0    0    0    0  0.00000000000E+00  0.00000000000E+00  0.74505805969E-08  0.10566000000E+00  0.10566000000E+00 0.  1.
     999900   -1    0    0    0    0 -0.00000000000E+00 -0.00000000000E+00 -0.74505805969E-08  0.93827000000E+00  0.93827000000E+00 0. -1.
     999902    2    1    2    0    0  0.55803064804E-02  0.11926966634E-01 -0.19565042568E-01  0.10203464624E+01  0.10200738798E+01 0.  0.
     999903    2    3    3    0    0 -0.10667451361E+00  0.52958178707E-01 -0.52407821117E-01  0.13166015495E+00  0.20094679456E-01 0.  0.
         14    1    1    2    0    0 -0.55803064804E-02 -0.11926966634E-01  0.19565042568E-01  0.23583537568E-01  0.00000000000E+00 0.  1.
     999901    1    3    3    0    0  0.11225482009E+00 -0.41031212072E-01  0.32842778548E-01  0.88868630748E+00  0.88000000000E+00 0.  1.
        -11    1    4    4    0    0 -0.49658511631E-01  0.16370683016E-01 -0.30099847787E-01  0.60334310285E-01  0.51100000000E-03 0.  1.
         11    1    4    4    0    0 -0.57016001979E-01  0.36587495691E-01 -0.22307973329E-01  0.71325844668E-01  0.51100000000E-03 0. -1.
</event>
<event>
 8    1  0.1117354E+005  0.1043930E+01  0.7957747E-01            NaN
         13   -1    0    0    0    0  0.00000000000E+00  0.00000000000E+00  0.74505805969E-08  0.10566000000E+00  0.10566000000E+00 0. -1.
     999900   -1    0    0    0    0 -0.00000000000E+00 -0.00000000000E+00 -0.74505805969E-08  0.93827000000E+00  0.93827000000E+00 0.  1.
     999902    2    1    2    0    0  0.57401976108E-02  0.18415482871E-01 -0.12681795387E-01  0.10208452039E+01  0.10205841575E+01 0.  0.
     999903    2    3    3    0    0 -0.71732614498E-01  0.10899300804E+00  0.10775034612E-01  0.13250036793E+00  0.20376514571E-01 0.  0.
         14    1    1    2    0    0 -0.57401976108E-02 -0.18415482871E-01  0.12681795387E-01  0.23084796126E-01  0.00000000000E+00 0. -1.
     999901    1    3    3    0    0  0.77472812109E-01 -0.90577525166E-01 -0.23456829998E-01  0.88834483595E+00  0.88000000000E+00 0.  1.
        -11    1    4    4    0    0 -0.70439475731E-01  0.10321124216E+00  0.13992496059E-01  0.12573913996E+00  0.51100000000E-03 0.  1.
         11    1    4    4    0    0 -0.12931387668E-02  0.57817658734E-02 -0.32174614472E-02  0.67612279691E-02  0.51100000000E-03 0. -1.
</event>
<event>
 8    1  0.1117354E+005  0.1043930E+01  0.7957747E-01            NaN
         13   -1    0    0    0    0  0.00000000000E+00  0.00000000000E+00  0.74505805969E-08  0.10566000000E+00  0.10566000000E+00 0.  1.
     999900   -1    0    0    0    0 -0.00000000000E+00 -0.00000000000E+00 -0.74505805969E-08  0.93827000000E+00  0.93827000000E+00 0. -1.
     999902    2    1    2    0    0  0.16929244809E-01 -0.88333169261E-02 -0.17581812933E-01  0.10179733638E+01  0.10176423843E+01 0.  0.
     999903    2    3    3    0    0 -0.42051844240E-01 -0.77205000989E-01  0.89276270881E-01  0.12692223948E+00  0.20249260480E-01 0.  0.
         14    1    1    2    0    0 -0.16929244809E-01  0.88333169261E-02  0.17581812933E-01  0.25956636218E-01  0.00000000000E+00 0.  1.
     999901    1    3    3    0    0  0.58981089049E-01  0.68371684063E-01 -0.10685808381E+00  0.89105112430E+00  0.88000000000E+00 0. -1.
        -11    1    4    4    0    0 -0.50343400236E-02 -0.24369768845E-01  0.17575040965E-01  0.30469220518E-01  0.51100000000E-03 0. -1.
         11    1    4    4    0    0 -0.37017504216E-01 -0.52835232144E-01  0.71701229916E-01  0.96453018960E-01  0.51100000000E-03 0.  1.
</event>
<event>
 8    1  0.1117354E+005  0.1043930E+01  0.7957747E-01            NaN
         13   -1    0    0    0    0  0.00000000000E+00  0.00000000000E+00  0.74505805969E-08  0.10566000000E+00  0.10566000000E+00 0. -1.
     999900   -1    0    0    0    0 -0.00000000000E+00 -0.00000000000E+00 -0.74505805969E-08  0.93827000000E+00  0.93827000000E+00 0. -1.
     999902    2    1    2    0    0 -0.20745721838E-02  0.20018568008E-01 -0.16610081014E-01  0.10178351402E+01  0.10175005803E+01 0.  0.
     999903    2    3    3    0    0  0.29761569369E-01  0.94482768341E-01  0.79864654180E-01  0.12886616914E+00  0.20380923357E-01 0.  0.
         14    1    1    2    0    0  0.20745721838E-02 -0.20018568008E-01  0.16610081014E-01  0.26094859765E-01  0.00000000000E+00 0. -1.
     999901    1    3    3    0    0 -0.31836141553E-01 -0.74464200332E-01 -0.96474735193E-01  0.88896897110E+00  0.88000000000E+00 0. -1.
        -11    1    4    4    0    0  0.25682014790E-01  0.56827908100E-01  0.41231078912E-01  0.74761219974E-01  0.51100000000E-03 0. -1.
         11    1    4    4    0    0  0.40795545790E-02  0.37654860241E-01  0.38633575267E-01  0.54104949166E-01  0.51100000000E-03 0.  1.
</event>
<event>
 8    1  0.1117354E+005  0.1043930E+01  0.7957747E-01            NaN
         13   -1    0    0    0    0  0.00000000000E+00  0.00000000000E+00  0.74505805969E-08  0.10566000000E+00  0.10566000000E+00 0. -1.
     999900   -1    0    0    0    0 -0.00000000000E+00 -0.00000000000E+00 -0.74505805969E-08  0.93827000000E+00  0.93827000000E+00 0.  1.
     999902    2    1    2    0    0  0.44385726228E-02 -0.83046373333E-02  0.18552747607E-01  0.10231244149E+01  0.10229128487E+01 0.  0.
     999903    2    3    3    0    0  0.93376587644E-01 -0.80127084440E-02 -0.90673738486E-01  0.13192270876E+00  0.19962054475E-01 0.  0.
         14    1    1    2    0    0 -0.44385726228E-02  0.83046373333E-02 -0.18552747607E-01  0.20805585114E-01  0.00000000000E+00 0. -1.
     999901    1    3    3    0    0 -0.88938015021E-01 -0.29192888930E-03  0.10922648609E+00  0.89120170613E+00  0.88000000000E+00 0. -1.
        -11    1    4    4    0    0  0.32962439595E-01 -0.11518713338E-01 -0.38954282095E-01  0.52315393486E-01  0.51100000000E-03 0. -1.
         11    1    4    4    0    0  0.60414148048E-01  0.35060048939E-02 -0.51719456391E-01  0.79607315274E-01  0.51100000000E-03 0.  1.
</event>
<event>
 8    1  0.1117354E+005  0.1043930E+01  0.7957747E-01            NaN
         13   -1    0    0    0    0  0.00000000000E+00  0.00000000000E+00  0.74505805969E-08  0.10566000000E+00  0.10566000000E+00 0.  1.
     999900   -1    0    0    0    0 -0.00000000000E+00 -0.00000000000E+00 -0.74505805969E-08  0.93827000000E+00  0.93827000000E+00 0. -1.
     999902    2    1    2    0    0 -0.12149953237E-01  0.20850778958E-01 -0.92986769945E-03  0.10197796170E+01  0.10194936126E+01 0.  0.
     999903    2    3    3    0    0  0.69757581858E-01  0.10336368743E+00  0.36220788766E-01  0.13135550898E+00  0.19802830478E-01 0.  0.
         14    1    1    2    0    0  0.12149953237E-01 -0.20850778958E-01  0.92986769945E-03  0.24150383035E-01  0.00000000000E+00 0. -1.
     999901    1    3    3    0    0 -0.81907535095E-01 -0.82512908474E-01 -0.37150656465E-01  0.88842410798E+00  0.88000000000E+00 0. -1.
        -11    1    4    4    0    0  0.53498017712E-01  0.68917305745E-01  0.17810143406E-01  0.89045467371E-01  0.51100000000E-03 0. -1.
         11    1    4    4    0    0  0.16259564147E-01  0.34446381687E-01  0.18410645360E-01  0.42310041611E-01  0.51100000000E-03 0.  1.
</event>
<event>
 8    1  0.1117354E+005  0.1043930E+01  0.7957747E-01            NaN
         13   -1    0    0    0    0  0.00000000000E+00  0.00000000000E+00  0.74505805969E-08  0.10566000000E+00  0.10566000000E+00 0. -1.
     999900   -1    0    0    0    0 -0.00000000000E+00 -0.00000000000E+00 -0.74505805969E-08  0.93827000000E+00  0.93827000000E+00 0. -1.
     999902    2    1    2    0    0 -0.42470673123E-03 -0.24658442753E-01  0.52471131940E-02  0.10187158894E+01  0.10184038060E+01 0.  0.
     999903    2    3    3    0    0  0.10120479796E+00  0.73386194163E-01 -0.13547860631E-01  0.12725946420E+00  0.19582698369E-01 0.  0.
         14    1    1    2    0    0  0.42470673123E-03  0.24658442753E-01 -0.52471131940E-02  0.25214110567E-01  0.00000000000E+00 0.  1.
     999901    1    3    3    0    0 -0.10162950470E+00 -0.98044636916E-01  0.18794973825E-01  0.89145642524E+00  0.88000000000E+00 0. -1.
        -11    1    4    4    0    0  0.59727543881E-01  0.50940182306E-01 -0.15658121555E-01  0.80048232729E-01  0.51100000000E-03 0.  1.
         11    1    4    4    0    0  0.41477254084E-01  0.22446011857E-01  0.21102609238E-02  0.47211231469E-01  0.51100000000E-03 0. -1.
</event>
<event>
 8    1  0.1117354E+005  0.1043930E+01  0.7957747E-01            NaN
         13   -1    0    0    0    0  0.00000000000E+00  0.00000000000E+00  0.74505805969E-08  0.10566000000E+00  0.10566000000E+00 0.  1.
     999900   -1    0    0    0    0 -0.00000000000E+00 -0.00000000000E+00 -0.74505805969E-08  0.93827000000E+00  0.93827000000E+00 0.  1.
     999902    2    1    2    0    0 -0.80832906593E-02 -0.14491774920E-01  0.17401346703E-01  0.10198850838E+01  0.10196016017E+01 0.  0.
     999903    2    3    3    0    0  0.10971431621E+00  0.33558228448E-01  0.57493360721E-01  0.12983314790E+00  0.19691975208E-01 0.  0.
         14    1    1    2    0    0  0.80832906593E-02  0.14491774920E-01 -0.17401346703E-01  0.24044916205E-01  0.00000000000E+00 0. -1.
     999901    1    3    3    0    0 -0.11779760687E+00 -0.48050003368E-01 -0.40092014018E-01  0.89005193590E+00  0.88000000000E+00 0.  1.
        -11    1    4    4    0    0  0.53305758426E-01  0.23883931492E-01  0.21626133843E-01  0.62288818025E-01  0.51100000000E-03 0.  1.
         11    1    4    4    0    0  0.56408557785E-01  0.96742969557E-02  0.35867226878E-01  0.67544329872E-01  0.51100000000E-03 0. -1.
</event>
<event>
 8    1  0.1117354E+005  0.1043930E+01  0.7957747E-01            NaN
         13   -1    0    0    0    0  0.00000000000E+00  0.00000000000E+00  0.74505805969E-08  0.10566000000E+00  0.10566000000E+00 0.  1.
     999900   -1    0    0    0    0 -0.00000000000E+00 -0.00000000000E+00 -0.74505805969E-08  0.93827000000E+00  0.93827000000E+00 0.  1.
     999902    2    1    2    0    0  0.84427845743E-02 -0.14311175302E-01  0.92693437497E-02  0.10249034111E+01  0.10247267885E+01 0.  0.
     999903    2    3    3    0    0 -0.40675462455E-01  0.42250202966E-01  0.11980425927E+00  0.13483051567E+00  0.19663024180E-01 0.  0.
         14    1    1    2    0    0 -0.84427845743E-02  0.14311175302E-01 -0.92693437497E-02  0.19026588855E-01  0.00000000000E+00 0. -1.
     999901    1    3    3    0    0  0.49118247030E-01 -0.56561378268E-01 -0.11053491553E+00  0.89007289547E+00  0.88000000000E+00 0. -1.
        -11    1    4    4    0    0 -0.16086071154E-01  0.19005556508E-01  0.30794541723E-01  0.39604769716E-01  0.51100000000E-03 0.  1.
         11    1    4    4    0    0 -0.24589391301E-01  0.23244646457E-01  0.89009717552E-01  0.95225745957E-01  0.51100000000E-03 0. -1.
</event>
<event>
 8    1  0.1117354E+005  0.1043930E+01  0.7957747E-01            NaN
         13   -1    0    0    0    0  0.00000000000E+00  0.00000000000E+00  0.74505805969E-08  0.10566000000E+00  0.10566000000E+00 0. -1.
     999900   -1    0    0    0    0 -0.00000000000E+00 -0.00000000000E+00 -0.74505805969E-08  0.93827000000E+00  0.93827000000E+00 0. -1.
     999902    2    1    2    0    0 -0.12187447197E-01  0.17209599094E-01 -0.10210994169E-01  0.10204999216E+01  0.10202309158E+01 0.  0.
     999903    2    3    3    0    0  0.36088063256E-01 -0.12353807258E-01 -0.12401923532E+00  0.13136729055E+00  0.20533617185E-01 0.  0.
         14    1    1    2    0    0  0.12187447197E-01 -0.17209599094E-01  0.10210994169E-01  0.23430078363E-01  0.00000000000E+00 0. -1.
     999901    1    3    3    0    0 -0.48275510453E-01  0.29563406352E-01  0.11380824115E+00  0.88913263108E+00  0.88000000000E+00 0.  1.
        -11    1    4    4    0    0  0.13133044755E-01 -0.61532761884E-02 -0.20284959486E-01  0.24941539141E-01  0.51100000000E-03 0.  1.
         11    1    4    4    0    0  0.22955018501E-01 -0.62005310697E-02 -0.10373427583E+00  0.10642575141E+00  0.51100000000E-03 0. -1.
</event>
<event>
 8    1  0.1117354E+005  0.1043930E+01  0.7957747E-01            NaN
         13   -1    0    0    0    0  0.00000000000E+00  0.00000000000E+00  0.74505805969E-08  0.10566000000E+00  0.10566000000E+00 0.  1.
     999900   -1    0    0    0    0 -0.00000000000E+00 -0.00000000000E+00 -0.74505805969E-08  0.93827000000E+00  0.93827000000E+00 0. -1.
     999902    2    1    2    0    0 -0.10651073653E-01 -0.14498701214E-01 -0.15145700375E-01  0.10204129860E+01  0.10201419568E+01 0.  0.
     999903    2    3    3    0    0 -0.12415825730E+00  0.37887955020E-01 -0.88486237588E-02  0.13155535081E+00  0.19435590920E-01 0.  0.
         14    1    1    2    0    0  0.10651073653E-01  0.14498701214E-01  0.15145700375E-01  0.23517013983E-01  0.00000000000E+00 0.  1.
     999901    1    3    3    0    0  0.11350718364E+00 -0.52386656234E-01 -0.62970766157E-02  0.88885763521E+00  0.88000000000E+00 0. -1.
        -11    1    4    4    0    0 -0.11017742675E+00  0.32874833691E-01 -0.13997361103E-01  0.11582748937E+00  0.51100000000E-03 0.  1.
         11    1    4    4    0    0 -0.13980830549E-01  0.50131213293E-02  0.51487373447E-02  0.15727861442E-01  0.51100000000E-03 0. -1.
</event>
<event>
 8    1  0.1117354E+005  0.1043930E+01  0.7957747E-01            NaN
         13   -1    0    0    0    0  0.00000000000E+00  0.00000000000E+00  0.74505805969E-08  0.10566000000E+00  0.10566000000E+00 0.  1.
     999900   -1    0    0    0    0 -0.00000000000E+00 -0.00000000000E+00 -0.74505805969E-08  0.93827000000E+00  0.93827000000E+00 0. -1.
     999902    2    1    2    0    0 -0.34102820881E-02  0.16604966440E-01 -0.18704790566E-01  0.10186867014E+01  0.10183738859E+01 0.  0.
     999903    2    3    3    0    0  0.12109377832E+00  0.18495983656E-01 -0.26926969079E-01  0.12988276282E+00  0.33744123266E-01 0.  0.
         14    1    1    2    0    0  0.34102820881E-02 -0.16604966440E-01  0.18704790566E-01  0.25243298606E-01  0.00000000000E+00 0.  1.
     999901    1    3    3    0    0 -0.12450406041E+00 -0.18910172165E-02  0.82221785128E-02  0.88880393857E+00  0.88000000000E+00 0. -1.
        -11    1    4    4    0    0  0.57228273021E-01 -0.14282862889E-02 -0.26241270451E-01  0.62976032191E-01  0.51100000000E-03 0.  1.
         11    1    4    4    0    0  0.63865505299E-01  0.19924269945E-01 -0.68569862805E-03  0.66906730630E-01  0.51100000000E-03 0. -1.
</event>
<event>
 8    1  0.1117354E+005  0.1043930E+01  0.7957747E-01            NaN
         13   -1    0    0    0    0  0.00000000000E+00  0.00000000000E+00  0.74505805969E-08  0.10566000000E+00  0.10566000000E+00 0.  1.
     999900   -1    0    0    0    0 -0.00000000000E+00 -0.00000000000E+00 -0.74505805969E-08  0.93827000000E+00  0.93827000000E+00 0.  1.
     999902    2    1    2    0    0 -0.81077899222E-02  0.22072350275E-01 -0.19051215103E-02  0.10203385950E+01  0.10200658282E+01 0.  0.
     999903    2    3    3    0    0 -0.37939598818E-01  0.47345105278E-01 -0.11568145990E+00  0.13215297013E+00  0.20030856093E-01 0.  0.
         14    1    1    2    0    0  0.81077899222E-02 -0.22072350275E-01  0.19051215103E-02  0.23591405047E-01  0.00000000000E+00 0.  1.
     999901    1    3    3    0    0  0.29831808896E-01 -0.25272755003E-01  0.11377633839E+00  0.88818562483E+00  0.88000000000E+00 0. -1.
        -11    1    4    4    0    0 -0.85294671942E-02  0.24256794793E-01 -0.57524251645E-01  0.63011463659E-01  0.51100000000E-03 0. -1.
         11    1    4    4    0    0 -0.29410131624E-01  0.23088310486E-01 -0.58157208260E-01  0.69141506469E-01  0.51100000000E-03 0.  1.
</event>
<event>
 8    1  0.1117354E+005  0.1043930E+01  0.7957747E-01            NaN
         13   -1    0    0    0    0  0.00000000000E+00  0.00000000000E+00  0.74505805969E-08  0.10566000000E+00  0.10566000000E+00 0. -1.
     999900   -1    0    0    0    0 -0.00000000000E+00 -0.00000000000E+00 -0.74505805969E-08  0.93827000000E+00  0.93827000000E+00 0.  1.
     999902    2    1    2    0    0 -0.21418122815E-01 -0.85711328214E-02 -0.40252857214E-02  0.10205119892E+01  0.10202432636E+01 0.  0.
     999903    2    3    3    0    0 -0.59237759014E-01  0.10219780064E+00 -0.54328796334E-01  0.13133792041E+00  0.18561483746E-01 0.  0.
         14    1    1    2    0    0  0.21418122815E-01  0.85711328214E-02  0.40252857214E-02  0.23418010758E-01  0.00000000000E+00 0.  1.
     999901    1    3    3    0    0  0.37819636199E-01 -0.11076893346E+00  0.50303510613E-01  0.88917406883E+00  0.88000000000E+00 0. -1.
        -11    1    4    4    0    0 -0.23272520996E-01  0.23731485271E-01 -0.14193774057E-01  0.36145787717E-01  0.51100000000E-03 0. -1.
         11    1    4    4    0    0 -0.35965238018E-01  0.78466315365E-01 -0.40135022277E-01  0.95192132694E-01  0.51100000000E-03 0.  1.
</event>
<event>
 8    1  0.1117354E+005  0.1043930E+01  0.7957747E-01            NaN
         13   -1    0    0    0    0  0.00000000000E+00  0.00000000000E+00  0.74505805969E-08  0.10566000000E+00  0.10566000000E+00 0. -1.
     999900   -1    0    0    0    0 -0.00000000000E+00 -0.00000000000E+00 -0.74505805969E-08  0.93827000000E+00  0.93827000000E+00 0.  1.
     999902    2    1    2    0    0 -0.23098279187E-01 -0.50933351770E-02  0.18344446558E-02  0.10202057982E+01  0.10199299157E+01 0.  0.
     999903    2    3    3    0    0 -0.10560105748E+00 -0.75637941145E-01 -0.21892088223E-01  0.13321865159E+00  0.19881250567E-01 0.  0.
         14    1    1    2    0    0  0.23098279187E-01  0.50933351770E-02 -0.18344446558E-02  0.23724201816E-01  0.00000000000E+00 0. -1.
     999901    1    3    3    0    0  0.82502778291E-01  0.70544605968E-01  0.23726532879E-01  0.88698714659E+00  0.88000000000E+00 0. -1.
        -11    1    4    4    0    0 -0.49946518227E-01 -0.40469198765E-01 -0.20108214135E-01  0.67357346507E-01  0.51100000000E-03 0.  1.
         11    1    4    4    0    0 -0.55654539251E-01 -0.35168742380E-01 -0.17838740878E-02  0.65861305086E-01  0.51100000000E-03 0. -1.
</event>
<event>
 8    1  0.1117354E+005  0.1043930E+01  0.7957747E-01            NaN
         13   -1    0    0    0    0  0.00000000000E+00  0.00000000000E+00  0.74505805969E-08  0.10566000000E+00  0.10566000000E+00 0.  1.
     999900   -1    0    0    0    0 -0.00000000000E+00 -0.00000000000E+00 -0.74505805969E-08  0.93827000000E+00  0.93827000000E+00 0. -1.
     999902    2    1    2    0    0 -0.10201200816E-01  0.53719966077E-02 -0.19650233334E-01  0.10211472320E+01  0.10208930478E+01 0.  0.
     999903    2    3    3    0    0 -0.12585074411E+00 -0.30039417653E-01 -0.22240167786E-01  0.13287053366E+00  0.20473818578E-01 0.  0.
         14    1    1    2    0    0  0.10201200816E-01 -0.53719966077E-02  0.19650233334E-01  0.22782767956E-01  0.00000000000E+00 0.  1.
     999901    1    3    3    0    0  0.11564954329E+00  0.35411414261E-01  0.25899344523E-02  0.88827669838E+00  0.88000000000E+00 0.  1.
        -11    1    4    4    0    0 -0.97150969420E-02 -0.83366662000E-02 -0.12430227965E-02  0.12872037080E-01  0.51100000000E-03 0. -1.
         11    1    4    4    0    0 -0.11613564717E+00 -0.21702751453E-01 -0.20997144990E-01  0.11999849658E+00  0.51100000000E-03 0.  1.
</event>
<event>
 8    1  0.1117354E+005  0.1043930E+01  0.7957747E-01            NaN
         13   -1    0    0    0    0  0.00000000000E+00  0.00000000000E+00  0.74505805969E-08  0.10566000000E+00  0.10566000000E+00 0.  1.
     999900   -1    0    0    0    0 -0.00000000000E+00 -0.00000000000E+00 -0.74505805969E-08  0.93827000000E+00  0.93827000000E+00 0.  1.
     999902    2    1    2    0    0 -0.10015705126E-01 -0.18155276101E-01 -0.12202495218E-01  0.10198711287E+01  0.10195873135E+01 0.  0.
     999903    2    3    3    0    0 -0.22589992789E-01  0.11460841040E+00  0.47722491503E-01  0.12780873558E+00  0.20303723457E-01 0.  0.
         14    1    1    2    0    0  0.10015705126E-01  0.18155276101E-01  0.12202495218E-01  0.24058871317E-01  0.00000000000E+00 0.  1.
     999901    1    3    3    0    0  0.12574287663E-01 -0.13276368650E+00 -0.59924986722E-01  0.89206239311E+00  0.88000000000E+00 0.  1.
        -11    1    4    4    0    0  0.23510064951E-02  0.25211860225E-01  0.58756380459E-02  0.25999026347E-01  0.51100000000E-03 0.  1.
         11    1    4    4    0    0 -0.24940999284E-01  0.89396550173E-01  0.41846853457E-01  0.10180970923E+00  0.51100000000E-03 0. -1.
</event>
<event>
 8    1  0.1117354E+005  0.1043930E+01  0.7957747E-01            NaN
         13   -1    0    0    0    0  0.00000000000E+00  0.00000000000E+00  0.74505805969E-08  0.10566000000E+00  0.10566000000E+00 0. -1.
     999900   -1    0    0    0    0 -0.00000000000E+00 -0.00000000000E+00 -0.74505805969E-08  0.93827000000E+00  0.93827000000E+00 0. -1.
     999902    2    1    2    0    0 -0.22908237706E-02  0.22597285466E-01 -0.13143265949E-02  0.10211788981E+01  0.10209254279E+01 0.  0.
     999903    2    3    3    0    0  0.39298640818E-01 -0.23133431891E-01  0.12075751032E+00  0.13060463647E+00  0.19891101724E-01 0.  0.
         14    1    1    2    0    0  0.22908237706E-02 -0.22597285466E-01  0.13143265949E-02  0.22751101915E-01  0.00000000000E+00 0.  1.
     999901    1    3    3    0    0 -0.41589464589E-01  0.45730717357E-01 -0.12207183692E+00  0.89057426161E+00  0.88000000000E+00 0. -1.
        -11    1    4    4    0    0  0.24905729318E-01 -0.31468219488E-02  0.62081659042E-01  0.66967091557E-01  0.51100000000E-03 0.  1.
         11    1    4    4    0    0  0.14392911501E-01 -0.19986609942E-01  0.58675851282E-01  0.63637544917E-01  0.51100000000E-03 0. -1.
</event>
<event>
 8    1  0.1117354E+005  0.1043930E+01  0.7957747E-01            NaN
         13   -1    0    0    0    0  0.00000000000E+00  0.00000000000E+00  0.74505805969E-08  0.10566000000E+00  0.10566000000E+00 0. -1.
     999900   -1    0    0    0    0 -0.00000000000E+00 -0.00000000000E+00 -0.74505805969E-08  0.93827000000E+00  0.93827000000E+00 0.  1.
     999902    2    1    2    0    0 -0.63644581115E-02  0.22754337195E-01 -0.14979828335E-02  0.10202549046E+01  0.10199801764E+01 0.  0.
     999903    2    3    3    0    0  0.11086550333E+00  0.66913539141E-01 -0.89565511567E-02  0.13135191261E+00  0.20112771772E-01 0.  0.
         14    1    1    2    0    0  0.63644581115E-02 -0.22754337195E-01  0.14979828335E-02  0.23675095370E-01  0.00000000000E+00 0. -1.
     999901    1    3    3    0    0 -0.11722996144E+00 -0.44159201946E-01  0.74585683232E-02  0.88890299202E+00  0.88000000000E+00 0. -1.
        -11    1    4    4    0    0  0.43110734807E-01  0.23301600572E-01 -0.12897943694E-01  0.50676603254E-01  0.51100000000E-03 0.  1.
         11    1    4    4    0    0  0.67754768527E-01  0.43611938569E-01  0.39413925378E-02  0.80675309358E-01  0.51100000000E-03 0. -1.
</event>
<event>
 8    1  0.1117354E+005  0.1043930E+01  0.7957747E-01            NaN
         13   -1    0    0    0    0  0.00000000000E+00  0.00000000000E+00  0.74505805969E-08  0.10566000000E+00  0.10566000000E+00 0. -1.
     999900   -1    0    0    0    0 -0.00000000000E+00 -0.00000000000E+00 -0.74505805969E-08  0.93827000000E+00  0.93827000000E+00 0. -1.
     999902    2    1    2    0    0 -0.29089167707E-02  0.10226955273E-01  0.22623975662E-01  0.10189320664E+01  0.10186253773E+01 0.  0.
     999903    2    3    3    0    0  0.78939873182E-01  0.90147754109E-01 -0.44409787375E-01  0.12899943752E+00  0.17621138379E-01 0.  0.
         14    1    1    2    0    0  0.29089167707E-02 -0.10226955273E-01 -0.22623975662E-01  0.24997933628E-01  0.00000000000E+00 0.  1.
     999901    1    3    3    0    0 -0.81848789952E-01 -0.79920798836E-01  0.67033763037E-01  0.88993262885E+00  0.88000000000E+00 0.  1.
        -11    1    4    4    0    0  0.49434288146E-01  0.46873340069E-01 -0.31486630757E-01  0.75050169162E-01  0.51100000000E-03 0. -1.
         11    1    4    4    0    0  0.29505585036E-01  0.43274414039E-01 -0.12923156618E-01  0.53949268361E-01  0.51100000000E-03 0.  1.
</event>
<event>
 8    1  0.1117354E+005  0.1043930E+01  0.7957747E-01            NaN
         13   -1    0    0    0    0  0.00000000000E+00  0.00000000000E+00  0.74505805969E-08  0.10566000000E+00  0.10566000000E+00 0.  1.
     999900   -1    0    0    0    0 -0.00000000000E+00 -0.00000000000E+00 -0.74505805969E-08  0.93827000000E+00  0.93827000000E+00 0.  1.
     999902    2    1    2    0    0 -0.71182434120E-02  0.25016512351E-01  0.21704101276E-02  0.10178300774E+01  0.10174953860E+01 0.  0.
     999903    2    3    3    0    0 -0.37932027580E-01 -0.28986938512E-01 -0.11654612581E+00  0.12768431523E+00  0.21004846912E-01 0.  0.
         14    1    1    2    0    0  0.71182434120E-02 -0.25016512351E-01 -0.21704101276E-02  0.26099922598E-01  0.00000000000E+00 0. -1.
     999901    1    3    3    0    0  0.30813784168E-01  0.54003450864E-01  0.11871653594E+00  0.89014576217E+00  0.88000000000E+00 0. -1.
        -11    1    4    4    0    0 -0.19459781141E-01 -0.26606597395E-01 -0.65172792737E-01  0.73036621918E-01  0.51100000000E-03 0.  1.
         11    1    4    4    0    0 -0.18472246439E-01 -0.23803411177E-02 -0.51373333077E-01  0.54647693316E-01  0.51100000000E-03 0. -1.
</event>
<event>
 8    1  0.1117354E+005  0.1043930E+01  0.7957747E-01            NaN
         13   -1    0    0    0    0  0.00000000000E+00  0.00000000000E+00  0.74505805969E-08  0.10566000000E+00  0.10566000000E+00 0.  1.
     999900   -1    0    0    0    0 -0.00000000000E+00 -0.00000000000E+00 -0.74505805969E-08  0.93827000000E+00  0.93827000000E+00 0. -1.
     999902    2    1    2    0    0 -0.83601763300E-02  0.22098197616E-01  0.80158550637E-02  0.10189805147E+01  0.10186750279E+01 0.  0.
     999903    2    3    3    0    0 -0.74431050813E-01  0.10486117952E+00  0.24883555692E-01  0.13247073415E+00  0.19835719471E-01 0.  0.
         14    1    1    2    0    0  0.83601763300E-02 -0.22098197616E-01 -0.80158550637E-02  0.24949485337E-01  0.00000000000E+00 0. -1.
     999901    1    3    3    0    0  0.66070874483E-01 -0.82762981899E-01 -0.16867700629E-01  0.88650978052E+00  0.88000000000E+00 0. -1.
        -11    1    4    4    0    0 -0.57767680006E-01  0.93014099986E-01  0.18503137440E-01  0.11104663374E+00  0.51100000000E-03 0.  1.
         11    1    4    4    0    0 -0.16663370807E-01  0.11847079529E-01  0.63804182524E-02  0.21424100403E-01  0.51100000000E-03 0. -1.
</event>
<event>
 8    1  0.1117354E+005  0.1043930E+01  0.7957747E-01            NaN
         13   -1    0    0    0    0  0.00000000000E+00  0.00000000000E+00  0.74505805969E-08  0.10566000000E+00  0.10566000000E+00 0.  1.
     999900   -1    0    0    0    0 -0.00000000000E+00 -0.00000000000E+00 -0.74505805969E-08  0.93827000000E+00  0.93827000000E+00 0.  1.
     999902    2    1    2    0    0 -0.19562193659E-01 -0.44748970764E-02  0.12828482701E-01  0.10201124835E+01  0.10198344007E+01 0.  0.
     999903    2    3    3    0    0 -0.12299865004E+00 -0.33912084661E-01  0.32737535320E-01  0.13334192753E+00  0.20727421964E-01 0.  0.
         14    1    1    2    0    0  0.19562193659E-01  0.44748970764E-02 -0.12828482701E-01  0.23817516516E-01  0.00000000000E+00 0. -1.
     999901    1    3    3    0    0  0.10343645638E+00  0.29437187584E-01 -0.19909052619E-01  0.88677055595E+00  0.88000000000E+00 0. -1.
        -11    1    4    4    0    0 -0.97008761594E-01 -0.30210965209E-01  0.17860949532E-01  0.10316335049E+00  0.51100000000E-03 0.  1.
         11    1    4    4    0    0 -0.25989888449E-01 -0.37011194514E-02  0.14876585788E-01  0.30178577046E-01  0.51100000000E-03 0. -1.
</event>
<event>
 8    1  0.1117354E+005  0.1043930E+01  0.7957747E-01            NaN
         13   -1    0    0    0    0  0.00000000000E+00  0.00000000000E+00  0.74505805969E-08  0.10566000000E+00  0.10566000000E+00 0.  1.
     999900   -1    0    0    0    0 -0.00000000000E+00 -0.00000000000E+00 -0.74505805969E-08  0.93827000000E+00  0.93827000000E+00 0.  1.
     999902    2    1    2    0    0 -0.62319905824E-02 -0.15485434408E-02 -0.23045178533E-01  0.10200068742E+01  0.10197262905E+01 0.  0.
     999903    2    3    3    0    0 -0.12753720562E+00  0.67906968984E-02  0.20057791388E-01  0.13060125014E+00  0.18507273184E-01 0.  0.
         14    1    1    2    0    0  0.62319905824E-02  0.15485434408E-02  0.23045178533E-01  0.23923125778E-01  0.00000000000E+00 0.  1.
     999901    1    3    3    0    0  0.12130521504E+00 -0.83392403392E-02 -0.43102969921E-01  0.88940562408E+00  0.88000000000E+00 0. -1.
        -11    1    4    4    0    0 -0.95234916565E-01 -0.29013472172E-02  0.13337686199E-01  0.96209470132E-01  0.51100000000E-03 0. -1.
         11    1    4    4    0    0 -0.32302289060E-01  0.96920441156E-02  0.67201051891E-02  0.34391780012E-01  0.51100000000E-03 0.  1.
</event>
<event>
 8    1  0.1117354E+005  0.1043930E+01  0.7957747E-01            NaN
         13   -1    0    0    0    0  0.00000000000E+00  0.00000000000E+00  0.74505805969E-08  0.10566000000E+00  0.10566000000E+00 0.  1.
     999900   -1    0    0    0    0 -0.00000000000E+00 -0.00000000000E+00 -0.74505805969E-08  0.93827000000E+00  0.93827000000E+00 0. -1.
     999902    2    1    2    0    0  0.16682905233E-01 -0.75515005093E-02  0.17400980082E-01  0.10186685948E+01  0.10183553247E+01 0.  0.
     999903    2    3    3    0    0 -0.85123748720E-01  0.20883043272E-01 -0.88197514431E-01  0.12607453242E+00  0.20828636103E-01 0.  0.
         14    1    1    2    0    0 -0.16682905233E-01  0.75515005093E-02 -0.17400980082E-01  0.25261405242E-01  0.00000000000E+00 0. -1.
     999901    1    3    3    0    0  0.10180665395E+00 -0.28434543781E-01  0.10559849451E+00  0.89259406233E+00  0.88000000000E+00 0.  1.
        -11    1    4    4    0    0 -0.15968221110E-01  0.10711555721E-01 -0.27118714876E-01  0.33247666518E-01  0.51100000000E-03 0.  1.
         11    1    4    4    0    0 -0.69155527610E-01  0.10171487551E-01 -0.61078799555E-01  0.92826865907E-01  0.51100000000E-03 0. -1.
</event>
<event>
 8    1  0.1117354E+005  0.1043930E+01  0.7957747E-01            NaN
         13   -1    0    0    0    0  0.00000000000E+00  0.00000000000E+00  0.74505805969E-08  0.10566000000E+00  0.10566000000E+00 0.  1.
     999900   -1    0    0    0    0 -0.00000000000E+00 -0.00000000000E+00 -0.74505805969E-08  0.93827000000E+00  0.93827000000E+00 0.  1.
     999902    2    1    2    0    0 -0.13798121950E-01  0.18439074242E-01 -0.18590102866E-02  0.10208249454E+01  0.10205634354E+01 0.  0.
     999903    2    3    3    0    0  0.80459679070E-01  0.98055150223E-01 -0.30551006485E-01  0.13175437271E+00  0.18365137855E-01 0.  0.
         14    1    1    2    0    0  0.13798121950E-01 -0.18439074242E-01  0.18590102866E-02  0.23105054588E-01  0.00000000000E+00 0.  1.
     999901    1    3    3    0    0 -0.94257801020E-01 -0.79616075981E-01  0.28691996199E-01  0.88907057271E+00  0.88000000000E+00 0.  1.
        -11    1    4    4    0    0  0.58442984246E-01  0.67812394534E-01 -0.13112417752E-01  0.90478173502E-01  0.51100000000E-03 0. -1.
         11    1    4    4    0    0  0.22016694823E-01  0.30242755689E-01 -0.17438588733E-01  0.41276199203E-01  0.51100000000E-03 0.  1.
</event>
<event>
 8    1  0.1117354E+005  0.1043930E+01  0.7957747E-01            NaN
         13   -1    0    0    0    0  0.00000000000E+00  0.00000000000E+00  0.74505805969E-08  0.10566000000E+00  0.10566000000E+00 0.  1.
     999900   -1    0    0    0    0 -0.00000000000E+00 -0.00000000000E+00 -0.74505805969E-08  0.93827000000E+00  0.93827000000E+00 0. -1.
     999902    2    1    2    0    0 -0.93788986822E-02 -0.19299141205E-01 -0.99092091512E-02  0.10202950044E+01  0.10200212169E+01 0.  0.
     999903    2    3    3    0    0  0.73859895548E-01 -0.70090147911E-01 -0.81674630417E-01  0.13200524371E+00  0.19665353012E-01 0.  0.
         14    1    1    2    0    0  0.93788986822E-02  0.19299141205E-01  0.99092091512E-02  0.23634995616E-01  0.00000000000E+00 0. -1.
     999901    1    3    3    0    0 -0.83238794230E-01  0.50791006705E-01  0.71765421265E-01  0.88828976067E+00  0.88000000000E+00 0. -1.
        -11    1    4    4    0    0  0.64091567089E-01 -0.59180866512E-01 -0.60139744067E-01  0.10595826476E+00  0.51100000000E-03 0. -1.
         11    1    4    4    0    0  0.97683284589E-02 -0.10909281399E-01 -0.21534886349E-01  0.26046978953E-01  0.51100000000E-03 0.  1.
</event>
<event>
 8    1  0.1117354E+005  0.1043930E+01  0.7957747E-01            NaN
         13   -1    0    0    0    0  0.00000000000E+00  0.00000000000E+00  0.74505805969E-08  0.10566000000E+00  0.10566000000E+00 0.  1.
     999900   -1    0    0    0    0 -0.00000000000E+00 -0.00000000000E+00 -0.74505805969E-08  0.93827000000E+00  0.93827000000E+00 0.  1.
     999902    2    1    2    0    0 -0.51872844363E-02 -0.23762118836E-01 -0.36168938748E-02  0.10193408127E+01  0.10190441915E+01 0.  0.
     999903    2    3    3    0    0  0.10991465444E+00  0.31168283372E-01  0.54808747559E-01  0.12822950595E+00  0.19649789739E-01 0.  0.
         14    1    1    2    0    0  0.51872844363E-02  0.23762118836E-01  0.36168938748E-02  0.24589187313E-01  0.00000000000E+00 0.  1.
     999901    1    3    3    0    0 -0.11510193888E+00 -0.54930402208E-01 -0.58425641434E-01  0.89111130674E+00  0.88000000000E+00 0.  1.
        -11    1    4    4    0    0  0.25598785996E-01  0.90282856953E-02  0.22495044284E-01  0.35257565506E-01  0.51100000000E-03 0.  1.
         11    1    4    4    0    0  0.84315868448E-01  0.22139997676E-01  0.32313703275E-01  0.92971940442E-01  0.51100000000E-03 0. -1.
</event>
<event>
 8    1  0.1117354E+005  0.1043930E+01  0.7957747E-01            NaN
         13   -1    0    0    0    0  0.00000000000E+00  0.00000000000E+00  0.74505805969E-08  0.10566000000E+00  0.10566000000E+00 0. -1.
     999900   -1    0    0    0    0 -0.00000000000E+00 -0.00000000000E+00 -0.74505805969E-08  0.93827000000E+00  0.93827000000E+00 0. -1.
     999902    2    1    2    0    0  0.23828335015E-01  0.34112678044E-02 -0.57626452592E-03  0.10198518278E+01  0.10195675516E+01 0.  0.
     999903    2    3    3    0    0 -0.19707816331E-01  0.11534494271E+00  0.53472087767E-01  0.13005085651E+00  0.19002822854E-01 0.  0.
         14    1    1    2    0    0 -0.23828335015E-01 -0.34112678044E-02  0.57626452592E-03  0.24078172240E-01  0.00000000000E+00 0.  1.
     999901    1    3    3    0    0  0.43536151346E-01 -0.11193367490E+00 -0.54048352292E-01  0.88980097125E+00  0.88000000000E+00 0. -1.
        -11    1    4    4    0    0 -0.12031906750E-01  0.97897772221E-01  0.38804886203E-01  0.10599443806E+00  0.51100000000E-03 0.  1.
         11    1    4    4    0    0 -0.76759095808E-02  0.17447170485E-01  0.14667201563E-01  0.24056418448E-01  0.51100000000E-03 0. -1.
</event>
<event>
 8    1  0.1117354E+005  0.1043930E+01  0.7957747E-01            NaN
         13   -1    0    0    0    0  0.00000000000E+00  0.00000000000E+00  0.74505805969E-08  0.10566000000E+00  0.10566000000E+00 0.  1.
     999900   -1    0    0    0    0 -0.00000000000E+00 -0.00000000000E+00 -0.74505805969E-08  0.93827000000E+00  0.93827000000E+00 0.  1.
     999902    2    1    2    0    0  0.19994706695E-01  0.55744695927E-02  0.13222459701E-01  0.10193190990E+01  0.10190219473E+01 0.  0.
     999903    2    3    3    0    0 -0.26062848642E-02  0.10665033006E+00 -0.69609755128E-01  0.12938184830E+00  0.22650806538E-01 0.  0.
         14    1    1    2    0    0 -0.19994706695E-01 -0.55744695927E-02 -0.13222459701E-01  0.24610900991E-01  0.00000000000E+00 0.  1.
     999901    1    3    3    0    0  0.22600991559E-01 -0.10107586047E+00  0.82832214830E-01  0.88993725071E+00  0.88000000000E+00 0.  1.
        -11    1    4    4    0    0 -0.31917253471E-02  0.35569303315E-01 -0.36142027432E-01  0.50812102071E-01  0.51100000000E-03 0.  1.
         11    1    4    4    0    0  0.58544048285E-03  0.71081026747E-01 -0.33467727697E-01  0.78569746227E-01  0.51100000000E-03 0. -1.
</event>
<event>
 8    1  0.1117354E+005  0.1043930E+01  0.7957747E-01            NaN
         13   -1    0    0    0    0  0.00000000000E+00  0.00000000000E+00  0.74505805969E-08  0.10566000000E+00  0.10566000000E+00 0. -1.
     999900   -1    0    0    0    0 -0.00000000000E+00 -0.00000000000E+00 -0.74505805969E-08  0.93827000000E+00  0.93827000000E+00 0. -1.
     999902    2    1    2    0    0  0.16025749414E-02 -0.17563084469E-01  0.13041924182E-01  0.10219955073E+01  0.10217600966E+01 0.  0.
     999903    2    3    3    0    0 -0.18617530436E-01 -0.42240962434E-01 -0.11979043840E+00  0.13145506082E+00  0.28280249914E-01 0.  0.
         14    1    1    2    0    0 -0.16025749414E-02  0.17563084469E-01 -0.13041924182E-01  0.21934492674E-01  0.00000000000E+00 0.  1.
     999901    1    3    3    0    0  0.20220105378E-01  0.24677877965E-01  0.13283236258E+00  0.89054044651E+00  0.88000000000E+00 0.  1.
        -11    1    4    4    0    0 -0.72122836762E-03 -0.34687725983E-01 -0.77653018500E-01  0.85052988821E-01  0.51100000000E-03 0.  1.
         11    1    4    4    0    0 -0.17896302068E-01 -0.75532364513E-02 -0.42137419899E-01  0.46402071994E-01  0.51100000000E-03 0. -1.
</event>
<event>
 8    1  0.1117354E+005  0.1043930E+01  0.7957747E-01            NaN
         13   -1    0    0    0    0  0.00000000000E+00  0.00000000000E+00  0.74505805969E-08  0.10566000000E+00  0.10566000000E+00 0. -1.
     999900   -1    0    0    0    0 -0.00000000000E+00 -0.00000000000E+00 -0.74505805969E-08  0.93827000000E+00  0.93827000000E+00 0.  1.
     999902    2    1    2    0    0 -0.16933438618E-01  0.14268578383E-01  0.12722969971E-01  0.10183916438E+01  0.10180713789E+01 0.  0.
     999903    2    3    3    0    0 -0.68934201469E-01 -0.10024747621E+00  0.38384025341E-01  0.12907927131E+00  0.19663271897E-01 0.  0.
         14    1    1    2    0    0  0.16933438618E-01 -0.14268578383E-01 -0.12722969971E-01  0.25538356200E-01  0.00000000000E+00 0.  1.
     999901    1    3    3    0    0  0.52000762852E-01  0.11451605460E+00 -0.25661055370E-01  0.88931237249E+00  0.88000000000E+00 0. -1.
        -11    1    4    4    0    0 -0.42988903094E-01 -0.45189676426E-01  0.19392220996E-01  0.65318236358E-01  0.51100000000E-03 0.  1.
         11    1    4    4    0    0 -0.25945298376E-01 -0.55057799787E-01  0.18991804345E-01  0.63761034954E-01  0.51100000000E-03 0. -1.
</event>
<event>
 8    1  0.1117354E+005  0.1043930E+01  0.7957747E-01            NaN
         13   -1    0    0    0    0  0.00000000000E+00  0.00000000000E+00  0.74505805969E-08  0.10566000000E+00  0.10566000000E+00 0. -1.
     999900   -1    0    0    0    0 -0.00000000000E+00 -0.00000000000E+00 -0.74505805969E-08  0.93827000000E+00  0.93827000000E+00 0. -1.
     999902    2    1    2    0    0  0.16208722458E-01 -0.16622426444E-01  0.23931442068E-02  0.10205900153E+01  0.10203230981E+01 0.  0.
     999903    2    3    3    0    0 -0.74744686038E-01  0.35802604507E-03 -0.10365882782E+00  0.12940660041E+00  0.20347465931E-01 0.  0.
         14    1    1    2    0    0 -0.16208722458E-01  0.16622426444E-01 -0.23931442068E-02  0.23339984657E-01  0.00000000000E+00 0.  1.
     999901    1    3    3    0    0  0.90953408496E-01 -0.16980452489E-01  0.10605197203E+00  0.89118341494E+00  0.88000000000E+00 0.  1.
        -11    1    4    4    0    0 -0.37807980200E-01 -0.32516380357E-02 -0.36395868686E-01  0.52582667250E-01  0.51100000000E-03 0. -1.
         11    1    4    4    0    0 -0.36936705838E-01  0.36096640808E-02 -0.67262959137E-01  0.76823933158E-01  0.51100000000E-03 0.  1.
</event>
<event>
 8    1  0.1117354E+005  0.1043930E+01  0.7957747E-01            NaN
         13   -1    0    0    0    0  0.00000000000E+00  0.00000000000E+00  0.74505805969E-08  0.10566000000E+00  0.10566000000E+00 0.  1.
     999900   -1    0    0    0    0 -0.00000000000E+00 -0.00000000000E+00 -0.74505805969E-08  0.93827000000E+00  0.93827000000E+00 0. -1.
     999902    2    1    2    0    0 -0.27514884673E-03  0.85464707665E-02  0.22600178822E-01  0.10197662678E+01  0.10194799434E+01 0.  0.
     999903    2    3    3    0    0  0.33771372627E-01  0.10948023983E+00  0.62779253893E-01  0.13243253725E+00  0.21695936919E-01 0.  0.
         14    1    1    2    0    0  0.27514884673E-03 -0.85464707665E-02 -0.22600178822E-01  0.24163732167E-01  0.00000000000E+00 0. -1.
     999901    1    3    3    0    0 -0.34046521474E-01 -0.10093376907E+00 -0.40179075071E-01  0.88733373059E+00  0.88000000000E+00 0. -1.
        -11    1    4    4    0    0 -0.13508843124E-02 -0.18219741280E-03  0.81909313966E-03  0.16703648985E-02  0.51100000000E-03 0.  1.
         11    1    4    4    0    0  0.35122256939E-01  0.10966243725E+00  0.61960160753E-01  0.13076217235E+00  0.51100000000E-03 0. -1.
</event>
<event>
 8    1  0.1117354E+005  0.1043930E+01  0.7957747E-01            NaN
         13   -1    0    0    0    0  0.00000000000E+00  0.00000000000E+00  0.74505805969E-08  0.10566000000E+00  0.10566000000E+00 0.  1.
     999900   -1    0    0    0    0 -0.00000000000E+00 -0.00000000000E+00 -0.74505805969E-08  0.93827000000E+00  0.93827000000E+00 0. -1.
     999902    2    1    2    0    0  0.12540779518E-01  0.17651078180E-01  0.21817140004E-01  0.10131920868E+01  0.10127257207E+01 0.  0.
     999903    2    3    3    0    0 -0.11360681341E-02  0.52677530668E-01  0.11448944535E+00  0.12752732812E+00  0.19472376111E-01 0.  0.
         14    1    1    2    0    0 -0.12540779518E-01 -0.17651078180E-01 -0.21817140004E-01  0.30737913231E-01  0.00000000000E+00 0. -1.
     999901    1    3    3    0    0  0.13676847652E-01 -0.35026452488E-01 -0.92672305351E-01  0.88566475865E+00  0.88000000000E+00 0. -1.
        -11    1    4    4    0    0 -0.98410983317E-02  0.20909031237E-01  0.51254460980E-01  0.56225578654E-01  0.51100000000E-03 0. -1.
         11    1    4    4    0    0  0.87050301976E-02  0.31768499432E-01  0.63234984375E-01  0.71301749465E-01  0.51100000000E-03 0.  1.
</event>
<event>
 7    1  0.1117354E+005  0.1043930E+01  0.7957747E-01            NaN
         13   -1    0    0    0    0  0.00000000000E+00  0.00000000000E+00  0.74505805969E-08  0.10566000000E+00  0.10566000000E+00 0.  1.
     999900   -1    0    0    0    0 -0.00000000000E+00 -0.00000000000E+00 -0.74505805969E-08  0.93827000000E+00  0.93827000000E+00 0. -1.
     999902    2    1    2    0    0  0.63191554352E-02  0.11923800128E-01 -0.19034536471E-01  0.10205971409E+01  0.10203303885E+01 0.  0.
         14    1    1    2    0    0 -0.63191554352E-02 -0.11923800128E-01  0.19034536471E-01  0.23332859095E-01  0.00000000000E+00 0.  1.
     999901    1    3    3    0    0 -0.98410806431E-01  0.14293223227E-01 -0.67898171027E-01  0.88819994634E+00  0.88000000000E+00 0. -1.
        -11    1    3    3    0    0  0.80473855214E-01  0.23894985640E-01  0.19630699449E-01  0.86212743801E-01  0.51100000000E-03 0. -1.
         11    1    3    3    0    0  0.24256106652E-01 -0.26264408739E-01  0.29232935107E-01  0.46184450763E-01  0.51100000000E-03 0.  1.
</event>
<event>
 8    1  0.1117354E+005  0.1043930E+01  0.7957747E-01            NaN
         13   -1    0    0    0    0  0.00000000000E+00  0.00000000000E+00  0.74505805969E-08  0.10566000000E+00  0.10566000000E+00 0. -1.
     999900   -1    0    0    0    0 -0.00000000000E+00 -0.00000000000E+00 -0.74505805969E-08  0.93827000000E+00  0.93827000000E+00 0. -1.
     999902    2    1    2    0    0 -0.16383203705E-02  0.12688330724E-01 -0.19586345088E-01  0.10205354976E+01  0.10202673174E+01 0.  0.
     999903    2    3    3    0    0  0.59123716262E-01  0.31642507365E-01 -0.11342001621E+00  0.13326099453E+00  0.19938166595E-01 0.  0.
         14    1    1    2    0    0  0.16383203705E-02 -0.12688330724E-01  0.19586345088E-01  0.23394502433E-01  0.00000000000E+00 0. -1.
     999901    1    3    3    0    0 -0.60762036632E-01 -0.18954176640E-01  0.93833671127E-01  0.88727450304E+00  0.88000000000E+00 0.  1.
        -11    1    4    4    0    0  0.18397150668E-01  0.20877175304E-01 -0.45322381467E-01  0.53185439589E-01  0.51100000000E-03 0. -1.
         11    1    4    4    0    0  0.40726565593E-01  0.10765332061E-01 -0.68097634747E-01  0.80075554938E-01  0.51100000000E-03 0.  1.
</event>
<event>
 8    1  0.1117354E+005  0.1043930E+01  0.7957747E-01            NaN
         13   -1    0    0    0    0  0.00000000000E+00  0.00000000000E+00  0.74505805969E-08  0.10566000000E+00  0.10566000000E+00 0. -1.
     999900   -1    0    0    0    0 -0.00000000000E+00 -0.00000000000E+00 -0.74505805969E-08  0.93827000000E+00  0.93827000000E+00 0.  1.
     999902    2    1    2    0    0 -0.15760463536E-01 -0.14870560629E-01  0.96608529427E-02  0.10202053743E+01  0.10199294818E+01 0.  0.
     999903    2    3    3    0    0 -0.13450817796E-01 -0.32312503408E-01  0.12605642315E+00  0.13236671521E+00  0.20142072984E-01 0.  0.
         14    1    1    2    0    0  0.15760463536E-01  0.14870560629E-01 -0.96608529427E-02  0.23724625685E-01  0.00000000000E+00 0.  1.
     999901    1    3    3    0    0 -0.23096457400E-02  0.17441942780E-01 -0.11639557020E+00  0.88783865910E+00  0.88000000000E+00 0.  1.
        -11    1    4    4    0    0 -0.64688911838E-02 -0.30866062680E-02  0.90143037116E-02  0.11527900234E-01  0.51100000000E-03 0. -1.
         11    1    4    4    0    0 -0.69819266124E-02 -0.29225897140E-01  0.11704211944E+00  0.12083881498E+00  0.51100000000E-03 0.  1.
</event>
<event>
 8    1  0.1117354E+005  0.1043930E+01  0.7957747E-01            NaN
         13   -1    0    0    0    0  0.00000000000E+00  0.00000000000E+00  0.74505805969E-08  0.10566000000E+00  0.10566000000E+00 0. -1.
     999900   -1    0    0    0    0 -0.00000000000E+00 -0.00000000000E+00 -0.74505805969E-08  0.93827000000E+00  0.93827000000E+00 0.  1.
     999902    2    1    2    0    0 -0.14622735435E-02 -0.79851666435E-03  0.22657880794E-01  0.10212109456E+01  0.10209581969E+01 0.  0.
     999903    2    3    3    0    0  0.69670345814E-01 -0.10956219866E+00 -0.49824885545E-03  0.13136511936E+00  0.19967820887E-01 0.  0.
         14    1    1    2    0    0  0.14622735435E-02  0.79851666435E-03 -0.22657880794E-01  0.22719054444E-01  0.00000000000E+00 0.  1.
     999901    1    3    3    0    0 -0.71132619358E-01  0.10876368200E+00  0.23156129649E-01  0.88984582620E+00  0.88000000000E+00 0.  1.
        -11    1    4    4    0    0  0.61055727891E-01 -0.80471900284E-01 -0.95576771097E-03  0.10101833129E+00  0.51100000000E-03 0.  1.
         11    1    4    4    0    0  0.86146179236E-02 -0.29090298378E-01  0.45751885552E-03  0.30346788070E-01  0.51100000000E-03 0. -1.
</event>
<event>
 8    1  0.1117354E+005  0.1043930E+01  0.7957747E-01            NaN
         13   -1    0    0    0    0  0.00000000000E+00  0.00000000000E+00  0.74505805969E-08  0.10566000000E+00  0.10566000000E+00 0. -1.
     999900   -1    0    0    0    0 -0.00000000000E+00 -0.00000000000E+00 -0.74505805969E-08  0.93827000000E+00  0.93827000000E+00 0.  1.
     999902    2    1    2    0    0 -0.58289814608E-02 -0.20889409266E-01 -0.56481192164E-02  0.10215191612E+01  0.10212732989E+01 0.  0.
     999903    2    3    3    0    0 -0.98619113756E-01  0.42416172938E-01 -0.74021487322E-01  0.13174811041E+00  0.18802198969E-01 0.  0.
         14    1    1    2    0    0  0.58289814608E-02  0.20889409266E-01  0.56481192164E-02  0.22410838785E-01  0.00000000000E+00 0.  1.
     999901    1    3    3    0    0  0.92790132295E-01 -0.63305582203E-01  0.68373368105E-01  0.88977105081E+00  0.88000000000E+00 0. -1.
        -11    1    4    4    0    0 -0.57018546140E-01  0.34237637991E-01 -0.42763054439E-01  0.79071299503E-01  0.51100000000E-03 0.  1.
         11    1    4    4    0    0 -0.41600567616E-01  0.81785349466E-02 -0.31258432883E-01  0.52676810905E-01  0.51100000000E-03 0. -1.
</event>
<event>
 8    1  0.1117354E+005  0.1043930E+01  0.7957747E-01            NaN
         13   -1    0    0    0    0  0.00000000000E+00  0.00000000000E+00  0.74505805969E-08  0.10566000000E+00  0.10566000000E+00 0. -1.
     999900   -1    0    0    0    0 -0.00000000000E+00 -0.00000000000E+00 -0.74505805969E-08  0.93827000000E+00  0.93827000000E+00 0. -1.
     999902    2    1    2    0    0  0.18852996657E-01  0.79058546229E-02  0.11405290078E-01  0.10205202016E+01  0.10202516666E+01 0.  0.
     999903    2    3    3    0    0 -0.25175700442E-01  0.11183960394E+00 -0.59356745582E-01  0.13049322665E+00  0.19061638237E-01 0.  0.
         14    1    1    2    0    0 -0.18852996657E-01 -0.79058546229E-02 -0.11405290078E-01  0.23409798419E-01  0.00000000000E+00 0.  1.
     999901    1    3    3    0    0  0.44028697099E-01 -0.10393374932E+00  0.70762035660E-01  0.89002697493E+00  0.88000000000E+00 0.  1.
        -11    1    4    4    0    0 -0.12766665623E-02  0.38055296443E-01 -0.25726816286E-01  0.45956127579E-01  0.51100000000E-03 0. -1.
         11    1    4    4    0    0 -0.23899033879E-01  0.73784307500E-01 -0.33629929296E-01  0.84537099069E-01  0.51100000000E-03 0.  1.
</event>
<event>
 8    1  0.1117354E+005  0.1043930E+01  0.7957747E-01            NaN
         13   -1    0    0    0    0  0.00000000000E+00  0.00000000000E+00  0.74505805969E-08  0.10566000000E+00  0.10566000000E+00 0. -1.
     999900   -1    0    0    0    0 -0.00000000000E+00 -0.00000000000E+00 -0.74505805969E-08  0.93827000000E+00  0.93827000000E+00 0. -1.
     999902    2    1    2    0    0  0.22930480877E-03 -0.17896924834E-01 -0.14620918819E-01  0.10208188822E+01  0.10205572333E+01 0.  0.
     999903    2    3    3    0    0  0.42733984210E-01 -0.74223839814E-01  0.97040069318E-01  0.13096072193E+00  0.19964063480E-01 0.  0.
         14    1    1    2    0    0 -0.22930480877E-03  0.17896924834E-01  0.14620918819E-01  0.23111117808E-01  0.00000000000E+00 0. -1.
     999901    1    3    3    0    0 -0.42504679401E-01  0.56326914979E-01 -0.11166098814E+00  0.88985816027E+00  0.88000000000E+00 0.  1.
        -11    1    4    4    0    0  0.48956359900E-02 -0.64437405976E-02  0.22007318735E-02  0.84019870516E-02  0.51100000000E-03 0. -1.
         11    1    4    4    0    0  0.37838348220E-01 -0.67780099216E-01  0.94839337445E-01  0.12255873487E+00  0.51100000000E-03 0.  1.
</event>
<event>
 8    1  0.1117354E+005  0.1043930E+01  0.7957747E-01            NaN
         13   -1    0    0    0    0  0.00000000000E+00  0.00000000000E+00  0.74505805969E-08  0.10566000000E+00  0.10566000000E+00 0.  1.
     999900   -1    0    0    0    0 -0.00000000000E+00 -0.00000000000E+00 -0.74505805969E-08  0.93827000000E+00  0.93827000000E+00 0. -1.
     999902    2    1    2    0    0 -0.11358000949E-01  0.12803835516E-01  0.46670733926E-02  0.10261895388E+01  0.10260361814E+01 0.  0.
     999903    2    3    3    0    0  0.10706478008E+00  0.75936974686E-01 -0.26597402505E-01  0.13546667742E+00  0.20359460046E-01 0.  0.
         14    1    1    2    0    0  0.11358000949E-01 -0.12803835516E-01 -0.46670733926E-02  0.17740461199E-01  0.00000000000E+00 0. -1.
     999901    1    3    3    0    0 -0.11842278103E+00 -0.63133139170E-01  0.31264475898E-01  0.89072286138E+00  0.88000000000E+00 0.  1.
        -11    1    4    4    0    0  0.23714534557E-01  0.15783521908E-01 -0.14492574985E-01  0.31965521485E-01  0.51100000000E-03 0. -1.
         11    1    4    4    0    0  0.83350245526E-01  0.60153452778E-01 -0.12104827520E-01  0.10350115594E+00  0.51100000000E-03 0.  1.
</event>
<event>
 8    1  0.1117354E+005  0.1043930E+01  0.7957747E-01            NaN
         13   -1    0    0    0    0  0.00000000000E+00  0.00000000000E+00  0.74505805969E-08  0.10566000000E+00  0.10566000000E+00 0.  1.
     999900   -1    0    0    0    0 -0.00000000000E+00 -0.00000000000E+00 -0.74505805969E-08  0.93827000000E+00  0.93827000000E+00 0.  1.
     999902    2    1    2    0    0  0.16205054200E-01 -0.11641042427E-01 -0.12915223612E-01  0.10201619405E+01  0.10198850250E+01 0.  0.
     999903    2    3    3    0    0 -0.31467888992E-01  0.11699027884E+00 -0.40322471480E-01  0.12911206338E+00  0.19159066350E-01 0.  0.
         14    1    1    2    0    0 -0.16205054200E-01  0.11641042427E-01  0.12915223612E-01  0.23768059478E-01  0.00000000000E+00 0.  1.
     999901    1    3    3    0    0  0.47672943192E-01 -0.12863132126E+00  0.27407247868E-01  0.89104987714E+00  0.88000000000E+00 0. -1.
        -11    1    4    4    0    0 -0.19658953126E-01  0.93905417646E-01 -0.25640274592E-01  0.99309549910E-01  0.51100000000E-03 0.  1.
         11    1    4    4    0    0 -0.11808935866E-01  0.23084861191E-01 -0.14682196889E-01  0.29802513467E-01  0.51100000000E-03 0. -1.
</event>
<event>
 8    1  0.1117354E+005  0.1043930E+01  0.7957747E-01            NaN
         13   -1    0    0    0    0  0.00000000000E+00  0.00000000000E+00  0.74505805969E-08  0.10566000000E+00  0.10566000000E+00 0. -1.
     999900   -1    0    0    0    0 -0.00000000000E+00 -0.00000000000E+00 -0.74505805969E-08  0.93827000000E+00  0.93827000000E+00 0.  1.
     999902    2    1    2    0    0 -0.18417035147E-01  0.13107459623E-01 -0.63231712796E-02  0.10204571396E+01  0.10201871390E+01 0.  0.
     999903    2    3    3    0    0 -0.11680955228E+00 -0.47046028635E-01 -0.35005573432E-01  0.13246940894E+00  0.21562787822E-01 0.  0.
         14    1    1    2    0    0  0.18417035147E-01 -0.13107459623E-01  0.63231712796E-02  0.23472860422E-01  0.00000000000E+00 0.  1.
     999901    1    3    3    0    0  0.98392517132E-01  0.60153488258E-01  0.28682402152E-01  0.88798773064E+00  0.88000000000E+00 0. -1.
        -11    1    4    4    0    0 -0.91282478950E-01 -0.43544426673E-01 -0.33923391203E-01  0.10667551570E+00  0.51100000000E-03 0.  1.
         11    1    4    4    0    0 -0.25527073329E-01 -0.35016019613E-02 -0.10821822290E-02  0.25793893238E-01  0.51100000000E-03 0. -1.
</event>
<event>
 8    1  0.1117354E+005  0.1043930E+01  0.7957747E-01            NaN
         13   -1    0    0    0    0  0.00000000000E+00  0.00000000000E+00  0.74505805969E-08  0.10566000000E+00  0.10566000000E+00 0. -1.
     999900   -1    0    0    0    0 -0.00000000000E+00 -0.00000000000E+00 -0.74505805969E-08  0.93827000000E+00  0.93827000000E+00 0. -1.
     999902    2    1    2    0    0  0.16747045766E-01 -0.16626003965E-01 -0.12352409790E-02  0.10202992283E+01  0.10200255399E+01 0.  0.
     999903    2    3    3    0    0 -0.22234980756E-01 -0.94112195451E-01  0.86968935925E-01  0.13164649239E+00  0.20388806746E-01 0.  0.
         14    1    1    2    0    0 -0.16747045766E-01  0.16626003965E-01  0.12352409790E-02  0.23630771676E-01  0.00000000000E+00 0. -1.
     999901    1    3    3    0    0  0.38982026521E-01  0.77486191486E-01 -0.88204176904E-01  0.88865273594E+00  0.88000000000E+00 0. -1.
        -11    1    4    4    0    0 -0.11205569734E-01 -0.45930038550E-01  0.29006774272E-01  0.55468795813E-01  0.51100000000E-03 0. -1.
         11    1    4    4    0    0 -0.11029411021E-01 -0.48182156901E-01  0.57962161652E-01  0.76177696575E-01  0.51100000000E-03 0.  1.
</event>
<event>
 8    1  0.1117354E+005  0.1043930E+01  0.7957747E-01            NaN
         13   -1    0    0    0    0  0.00000000000E+00  0.00000000000E+00  0.74505805969E-08  0.10566000000E+00  0.10566000000E+00 0.  1.
     999900   -1    0    0    0    0 -0.00000000000E+00 -0.00000000000E+00 -0.74505805969E-08  0.93827000000E+00  0.93827000000E+00 0. -1.
     999902    2    1    2    0    0  0.14964144294E-01  0.45517085179E-02  0.16043301459E-01  0.10215239475E+01  0.10212781914E+01 0.  0.
     999903    2    3    3    0    0  0.36377217413E-01 -0.68100548791E-02 -0.12326074335E+00  0.13023654930E+00  0.19966700532E-01 0.  0.
         14    1    1    2    0    0 -0.14964144294E-01 -0.45517085179E-02 -0.16043301459E-01  0.22406052454E-01  0.00000000000E+00 0.  1.
     999901    1    3    3    0    0 -0.21413073119E-01  0.11361763397E-01  0.13930404480E+00  0.89128739824E+00  0.88000000000E+00 0.  1.
        -11    1    4    4    0    0  0.14368616751E-01  0.61452448747E-02 -0.60232694979E-01  0.62229091648E-01  0.51100000000E-03 0. -1.
         11    1    4    4    0    0  0.22008600662E-01 -0.12955299754E-01 -0.63028048366E-01  0.68007457654E-01  0.51100000000E-03 0.  1.
</event>
<event>
 8    1  0.1117354E+005  0.1043930E+01  0.7957747E-01            NaN
         13   -1    0    0    0    0  0.00000000000E+00  0.00000000000E+00  0.74505805969E-08  0.10566000000E+00  0.10566000000E+00 0.  1.
     999900   -1    0    0    0    0 -0.00000000000E+00 -0.00000000000E+00 -0.74505805969E-08  0.93827000000E+00  0.93827000000E+00 0. -1.
     999902    2    1    2    0    0  0.20912341843E-01 -0.42546806546E-02  0.10092251466E-01  0.10203231813E+01  0.10200500539E+01 0.  0.
     999903    2    3    3    0    0 -0.49176336353E-01 -0.76584300462E-02 -0.11676569647E+00  0.12846167453E+00  0.19779038017E-01 0.  0.
         14    1    1    2    0    0 -0.20912341843E-01  0.42546806546E-02 -0.10092251466E-01  0.23606818686E-01  0.00000000000E+00 0. -1.
     999901    1    3    3    0    0  0.70088678197E-01  0.34037493916E-02  0.12685794793E+00  0.89186150678E+00  0.88000000000E+00 0.  1.
        -11    1    4    4    0    0 -0.24242347609E-01  0.21888749222E-02 -0.36836998827E-01  0.44155500162E-01  0.51100000000E-03 0. -1.
         11    1    4    4    0    0 -0.24933988745E-01 -0.98473049684E-02 -0.79928697640E-01  0.84306174372E-01  0.51100000000E-03 0.  1.
</event>
<event>
 8    1  0.1117354E+005  0.1043930E+01  0.7957747E-01            NaN
         13   -1    0    0    0    0  0.00000000000E+00  0.00000000000E+00  0.74505805969E-08  0.10566000000E+00  0.10566000000E+00 0.  1.
     999900   -1    0    0    0    0 -0.00000000000E+00 -0.00000000000E+00 -0.74505805969E-08  0.93827000000E+00  0.93827000000E+00 0. -1.
     999902    2    1    2    0    0  0.20173400152E-01 -0.13420284742E-02 -0.12570301834E-01  0.10201228666E+01  0.10198450291E+01 0.  0.
     999903    2    3    3    0    0  0.12552054667E+00  0.70585682904E-02  0.36013242249E-01  0.13246924490E+00  0.21116728062E-01 0.  0.
         14    1    1    2    0    0 -0.20173400152E-01  0.13420284742E-02  0.12570301834E-01  0.23807133433E-01  0.00000000000E+00 0.  1.
     999901    1    3    3    0    0 -0.10534714652E+00 -0.84005967646E-02 -0.48583544083E-01  0.88765362167E+00  0.88000000000E+00 0.  1.
        -11    1    4    4    0    0  0.60986058213E-01  0.11863113296E-01  0.11049248051E-01  0.63106099205E-01  0.51100000000E-03 0. -1.
         11    1    4    4    0    0  0.64534488457E-01 -0.48045450055E-02  0.24963994198E-01  0.69363145693E-01  0.51100000000E-03 0.  1.
</event>
<event>
 8    1  0.1117354E+005  0.1043930E+01  0.7957747E-01            NaN
         13   -1    0    0    0    0  0.00000000000E+00  0.00000000000E+00  0.74505805969E-08  0.10566000000E+00  0.10566000000E+00 0.  1.
     999900   -1    0    0    0    0 -0.00000000000E+00 -0.00000000000E+00 -0.74505805969E-08  0.93827000000E+00  0.93827000000E+00 0. -1.
     999902    2    1    2    0    0  0.15283636119E-01 -0.14193996436E-01  0.12877815088E-01  0.10194167956E+01  0.10191220270E+01 0.  0.
     999903    2    3    3    0    0 -0.19502566690E-01 -0.65261958271E-01  0.11109918089E+00  0.13179894241E+00  0.19709386577E-01 0.  0.
         14    1    1    2    0    0 -0.15283636119E-01  0.14193996436E-01 -0.12877815088E-01  0.24513204386E-01  0.00000000000E+00 0. -1.
     999901    1    3    3    0    0  0.34786202809E-01  0.51067961835E-01 -0.98221365806E-01  0.88761785321E+00  0.88000000000E+00 0. -1.
        -11    1    4    4    0    0 -0.15706938196E-01 -0.43004239345E-01  0.56565456233E-01  0.72773514887E-01  0.51100000000E-03 0. -1.
         11    1    4    4    0    0 -0.37956284943E-02 -0.22257718926E-01  0.54533724661E-01  0.59025427519E-01  0.51100000000E-03 0.  1.
</event>
<event>
 8    1  0.1117354E+005  0.1043930E+01  0.7957747E-01            NaN
         13   -1    0    0    0    0  0.00000000000E+00  0.00000000000E+00  0.74505805969E-08  0.10566000000E+00  0.10566000000E+00 0. -1.
     999900   -1    0    0    0    0 -0.00000000000E+00 -0.00000000000E+00 -0.74505805969E-08  0.93827000000E+00  0.93827000000E+00 0. -1.
     999902    2    1    2    0    0  0.21130819379E-01 -0.10671665954E-01 -0.33346213730E-02  0.10200236058E+01  0.10197434191E+01 0.  0.
     999903    2    3    3    0    0  0.11463277579E+00 -0.65274661040E-01 -0.15074641011E-02  0.13338532479E+00  0.19695627969E-01 0.  0.
         14    1    1    2    0    0 -0.21130819379E-01  0.10671665954E-01  0.33346213730E-02  0.23906394157E-01  0.00000000000E+00 0.  1.
     999901    1    3    3    0    0 -0.93501956415E-01  0.54602995087E-01 -0.18271572719E-02  0.88663828105E+00  0.88000000000E+00 0. -1.
        -11    1    4    4    0    0  0.47457977406E-01 -0.29231778538E-01 -0.10165737307E-01  0.56660037345E-01  0.51100000000E-03 0. -1.
         11    1    4    4    0    0  0.67174798388E-01 -0.36042882503E-01  0.86582732061E-02  0.76725287444E-01  0.51100000000E-03 0.  1.
</event>
<event>
 8    1  0.1117354E+005  0.1043930E+01  0.7957747E-01            NaN
         13   -1    0    0    0    0  0.00000000000E+00  0.00000000000E+00  0.74505805969E-08  0.10566000000E+00  0.10566000000E+00 0.  1.
     999900   -1    0    0    0    0 -0.00000000000E+00 -0.00000000000E+00 -0.74505805969E-08  0.93827000000E+00  0.93827000000E+00 0. -1.
     999902    2    1    2    0    0  0.16746096072E-01 -0.14786851174E-01  0.82833481764E-02  0.10201036163E+01  0.10198253240E+01 0.  0.
     999903    2    3    3    0    0  0.74027208990E-01  0.10036359087E+00  0.34537036571E-01  0.13036769689E+00  0.15813015365E-01 0.  0.
         14    1    1    2    0    0 -0.16746096072E-01  0.14786851174E-01 -0.82833481764E-02  0.23826383660E-01  0.00000000000E+00 0.  1.
     999901    1    3    3    0    0 -0.57281112917E-01 -0.11515044204E+00 -0.26253688395E-01  0.88973591945E+00  0.88000000000E+00 0. -1.
        -11    1    4    4    0    0  0.48005280619E-01  0.69389669980E-01  0.30450321989E-01  0.89704606891E-01  0.51100000000E-03 0.  1.
         11    1    4    4    0    0  0.26021928370E-01  0.30973920890E-01  0.40867145820E-02  0.40663090001E-01  0.51100000000E-03 0. -1.
</event>
<event>
 8    1  0.1117354E+005  0.1043930E+01  0.7957747E-01            NaN
         13   -1    0    0    0    0  0.00000000000E+00  0.00000000000E+00  0.74505805969E-08  0.10566000000E+00  0.10566000000E+00 0.  1.
     999900   -1    0    0    0    0 -0.00000000000E+00 -0.00000000000E+00 -0.74505805969E-08  0.93827000000E+00  0.93827000000E+00 0.  1.
     999902    2    1    2    0    0  0.14939617980E-01 -0.17924462230E-01  0.55512421336E-02  0.10199446957E+01  0.10196626342E+01 0.  0.
     999903    2    3    3    0    0 -0.11735393585E+00 -0.31220895012E-01  0.39542557716E-01  0.12930796336E+00  0.20254505041E-01 0.  0.
         14    1    1    2    0    0 -0.14939617980E-01  0.17924462230E-01 -0.55512421336E-02  0.23985304268E-01  0.00000000000E+00 0. -1.
     999901    1    3    3    0    0  0.13229355383E+00  0.13296432782E-01 -0.33991315583E-01  0.89063673237E+00  0.88000000000E+00 0.  1.
        -11    1    4    4    0    0 -0.70719320042E-01 -0.20721265614E-01  0.34077318827E-01  0.81191858306E-01  0.51100000000E-03 0.  1.
         11    1    4    4    0    0 -0.46634615805E-01 -0.10499629398E-01  0.54652388895E-02  0.48116105057E-01  0.51100000000E-03 0. -1.
</event>
<event>
 8    1  0.1117354E+005  0.1043930E+01  0.7957747E-01            NaN
         13   -1    0    0    0    0  0.00000000000E+00  0.00000000000E+00  0.74505805969E-08  0.10566000000E+00  0.10566000000E+00 0.  1.
     999900   -1    0    0    0    0 -0.00000000000E+00 -0.00000000000E+00 -0.74505805969E-08  0.93827000000E+00  0.93827000000E+00 0. -1.
     999902    2    1    2    0    0 -0.11354714114E-01  0.86413804247E-02  0.17567593725E-01  0.10212976484E+01  0.10210468468E+01 0.  0.
     999903    2    3    3    0    0 -0.83460046578E-01 -0.66871761604E-01  0.76890959277E-01  0.13314187646E+00  0.19419777895E-01 0.  0.
         14    1    1    2    0    0  0.11354714114E-01 -0.86413804247E-02 -0.17567593725E-01  0.22632351569E-01  0.00000000000E+00 0.  1.
     999901    1    3    3    0    0  0.72105332464E-01  0.75513142028E-01 -0.59323365552E-01  0.88815577197E+00  0.88000000000E+00 0.  1.
        -11    1    4    4    0    0 -0.14006779793E-01 -0.35187464912E-02  0.73853120078E-02  0.16228845045E-01  0.51100000000E-03 0.  1.
         11    1    4    4    0    0 -0.69453266785E-01 -0.63353015113E-01  0.69505647269E-01  0.11691303141E+00  0.51100000000E-03 0. -1.
</event>
<event>
 8    1  0.1117354E+005  0.1043930E+01  0.7957747E-01            NaN
         13   -1    0    0    0    0  0.00000000000E+00  0.00000000000E+00  0.74505805969E-08  0.10566000000E+00  0.10566000000E+00 0.  1.
     999900   -1    0    0    0    0 -0.00000000000E+00 -0.00000000000E+00 -0.74505805969E-08  0.93827000000E+00  0.93827000000E+00 0. -1.
     999902    2    1    2    0    0  0.84487126485E-02 -0.85526829958E-02 -0.17794517132E-01  0.10224550385E+01  0.10222294908E+01 0.  0.
     999903    2    3    3    0    0  0.47156835135E-01 -0.59569975014E-01 -0.11036582241E+00  0.13528508330E+00  0.18683949898E-01 0.  0.
         14    1    1    2    0    0 -0.84487126485E-02  0.85526829958E-02  0.17794517132E-01  0.21474961509E-01  0.00000000000E+00 0.  1.
     999901    1    3    3    0    0 -0.38708122486E-01  0.51017292018E-01  0.92571305280E-01  0.88716995519E+00  0.88000000000E+00 0.  1.
        -11    1    4    4    0    0  0.36874498991E-01 -0.37532384504E-01 -0.86246808752E-01  0.10103059786E+00  0.51100000000E-03 0.  1.
         11    1    4    4    0    0  0.10282336144E-01 -0.22037590510E-01 -0.24119013660E-01  0.34254485444E-01  0.51100000000E-03 0. -1.
</event>
<event>
 8    1  0.1117354E+005  0.1043930E+01  0.7957747E-01            NaN
         13   -1    0    0    0    0  0.00000000000E+00  0.00000000000E+00  0.74505805969E-08  0.10566000000E+00  0.10566000000E+00 0. -1.
     999900   -1    0    0    0    0 -0.00000000000E+00 -0.00000000000E+00 -0.74505805969E-08  0.93827000000E+00  0.93827000000E+00 0. -1.
     999902    2    1    2    0    0 -0.14444954900E-01  0.34662993059E-02  0.20934652045E-01  0.10182603368E+01  0.10179367278E+01 0.  0.
     999903    2    3    3    0    0  0.53789433437E-01 -0.11321615834E+00 -0.10825496973E-01  0.12737345579E+00  0.19889801317E-01 0.  0.
         14    1    1    2    0    0  0.14444954900E-01 -0.34662993059E-02 -0.20934652045E-01  0.25669663208E-01  0.00000000000E+00 0.  1.
     999901    1    3    3    0    0 -0.68234388337E-01  0.11668245765E+00  0.31760149018E-01  0.89088688100E+00  0.88000000000E+00 0.  1.
        -11    1    4    4    0    0  0.14416397344E-01 -0.51359886520E-01 -0.84231680407E-02  0.54008159907E-01  0.51100000000E-03 0.  1.
         11    1    4    4    0    0  0.39373036094E-01 -0.61856271821E-01 -0.24023289323E-02  0.73365295884E-01  0.51100000000E-03 0. -1.
</event>
<event>
 8    1  0.1117354E+005  0.1043930E+01  0.7957747E-01            NaN
         13   -1    0    0    0    0  0.00000000000E+00  0.00000000000E+00  0.74505805969E-08  0.10566000000E+00  0.10566000000E+00 0.  1.
     999900   -1    0    0    0    0 -0.00000000000E+00 -0.00000000000E+00 -0.74505805969E-08  0.93827000000E+00  0.93827000000E+00 0.  1.
     999902    2    1    2    0    0  0.40986811195E-02 -0.21266111679E-01  0.10918363466E-01  0.10196759827E+01  0.10193874888E+01 0.  0.
     999903    2    3    3    0    0 -0.48233115440E-01 -0.24878859231E-01  0.11808753802E+00  0.13162367524E+00  0.20850280245E-01 0.  0.
         14    1    1    2    0    0 -0.40986811195E-02  0.21266111679E-01 -0.10918363466E-01  0.24254017268E-01  0.00000000000E+00 0. -1.
     999901    1    3    3    0    0  0.52331796560E-01  0.36127475521E-02 -0.10716917455E+00  0.88805230750E+00  0.88000000000E+00 0.  1.
        -11    1    4    4    0    0 -0.29745625808E-01 -0.26085086991E-01  0.78152266618E-01  0.87597214091E-01  0.51100000000E-03 0. -1.
         11    1    4    4    0    0 -0.18487489633E-01  0.12062277598E-02  0.39935271398E-01  0.44026461145E-01  0.51100000000E-03 0.  1.
</event>
<event>
 8    1  0.1117354E+005  0.1043930E+01  0.7957747E-01            NaN
         13   -1    0    0    0    0  0.00000000000E+00  0.00000000000E+00  0.74505805969E-08  0.10566000000E+00  0.10566000000E+00 0.  1.
     999900   -1    0    0    0    0 -0.00000000000E+00 -0.00000000000E+00 -0.74505805969E-08  0.93827000000E+00  0.93827000000E+00 0. -1.
     999902    2    1    2    0    0 -0.22838653764E-01  0.74252469907E-02  0.11434927166E-02  0.10198874133E+01  0.10196039868E+01 0.  0.
     999903    2    3    3    0    0 -0.94171824830E-01  0.65340611371E-01  0.65017298393E-01  0.13280090470E+00  0.16465209157E-01 0.  0.
         14    1    1    2    0    0  0.22838653764E-01 -0.74252469907E-02 -0.11434927166E-02  0.24042586679E-01  0.00000000000E+00 0. -1.
     999901    1    3    3    0    0  0.71333171066E-01 -0.57915364381E-01 -0.63873805677E-01  0.88708650862E+00  0.88000000000E+00 0. -1.
        -11    1    4    4    0    0 -0.66004508639E-01  0.53704707812E-01  0.44189634087E-01  0.95884178484E-01  0.51100000000E-03 0.  1.
         11    1    4    4    0    0 -0.28167316191E-01  0.11635903560E-01  0.20827664306E-01  0.36916726216E-01  0.51100000000E-03 0. -1.
</event>
<event>
 8    1  0.1117354E+005  0.1043930E+01  0.7957747E-01            NaN
         13   -1    0    0    0    0  0.00000000000E+00  0.00000000000E+00  0.74505805969E-08  0.10566000000E+00  0.10566000000E+00 0. -1.
     999900   -1    0    0    0    0 -0.00000000000E+00 -0.00000000000E+00 -0.74505805969E-08  0.93827000000E+00  0.93827000000E+00 0.  1.
     999902    2    1    2    0    0  0.21349948108E-02  0.20253151780E-01 -0.12425666569E-01  0.10200732284E+01  0.10197942174E+01 0.  0.
     999903    2    3    3    0    0  0.70227767789E-01  0.92903021344E-01 -0.62221178649E-01  0.13305901079E+00  0.16441244974E-01 0.  0.
         14    1    1    2    0    0 -0.21349948108E-02 -0.20253151780E-01  0.12425666569E-01  0.23856771566E-01  0.00000000000E+00 0. -1.
     999901    1    3    3    0    0 -0.68092772979E-01 -0.72649869564E-01  0.49795512080E-01  0.88701421764E+00  0.88000000000E+00 0. -1.
        -11    1    4    4    0    0  0.20202741753E-01  0.18909457245E-01 -0.20700536333E-01  0.34561418853E-01  0.51100000000E-03 0.  1.
         11    1    4    4    0    0  0.50025026036E-01  0.73993564099E-01 -0.41520642317E-01  0.98497591937E-01  0.51100000000E-03 0. -1.
</event>
<event>
 8    1  0.1117354E+005  0.1043930E+01  0.7957747E-01            NaN
         13   -1    0    0    0    0  0.00000000000E+00  0.00000000000E+00  0.74505805969E-08  0.10566000000E+00  0.10566000000E+00 0. -1.
     999900   -1    0    0    0    0 -0.00000000000E+00 -0.00000000000E+00 -0.74505805969E-08  0.93827000000E+00  0.93827000000E+00 0. -1.
     999902    2    1    2    0    0 -0.94100423284E-02  0.14499072832E-01 -0.16667081817E-01  0.10199182607E+01  0.10196355696E+01 0.  0.
     999903    2    3    3    0    0 -0.23371754258E-01  0.44956838626E-02  0.12462063091E+00  0.12848278069E+00  0.20274940529E-01 0.  0.
         14    1    1    2    0    0  0.94100423284E-02 -0.14499072832E-01  0.16667081817E-01  0.24011739336E-01  0.00000000000E+00 0. -1.
     999901    1    3    3    0    0  0.13961711930E-01  0.10003388970E-01 -0.14128771273E+00  0.89143547998E+00  0.88000000000E+00 0. -1.
        -11    1    4    4    0    0 -0.11641174596E-02  0.85788245320E-02  0.35822020646E-01  0.36856881094E-01  0.51100000000E-03 0.  1.
         11    1    4    4    0    0 -0.22207636799E-01 -0.40831406694E-02  0.88798610268E-01  0.91625899594E-01  0.51100000000E-03 0. -1.
</event>
<event>
 8    1  0.1117354E+005  0.1043930E+01  0.7957747E-01            NaN
         13   -1    0    0    0    0  0.00000000000E+00  0.00000000000E+00  0.74505805969E-08  0.10566000000E+00  0.10566000000E+00 0. -1.
     999900   -1    0    0    0    0 -0.00000000000E+00 -0.00000000000E+00 -0.74505805969E-08  0.93827000000E+00  0.93827000000E+00 0.  1.
     999902    2    1    2    0    0  0.94887140506E-02  0.18704267628E-01 -0.11463857315E-01  0.10200280054E+01  0.10197479230E+01 0.  0.
     999903    2    3    3    0    0 -0.55761050720E-01 -0.47615650562E-01  0.10256119586E+00  0.12780741826E+00  0.20961686717E-01 0.  0.
         14    1    1    2    0    0 -0.94887140506E-02 -0.18704267628E-01  0.11463857315E-01  0.23901994610E-01  0.00000000000E+00 0. -1.
     999901    1    3    3    0    0  0.65249764770E-01  0.66319918189E-01 -0.11402505317E+00  0.89222058713E+00  0.88000000000E+00 0.  1.
        -11    1    4    4    0    0 -0.40109674736E-01 -0.43507482072E-01  0.71782294130E-01  0.93030349216E-01  0.51100000000E-03 0.  1.
         11    1    4    4    0    0 -0.15651375983E-01 -0.41081684894E-02  0.30778901729E-01  0.34777069042E-01  0.51100000000E-03 0. -1.
</event>
<event>
 8    1  0.1117354E+005  0.1043930E+01  0.7957747E-01            NaN
         13   -1    0    0    0    0  0.00000000000E+00  0.00000000000E+00  0.74505805969E-08  0.10566000000E+00  0.10566000000E+00 0. -1.
     999900   -1    0    0    0    0 -0.00000000000E+00 -0.00000000000E+00 -0.74505805969E-08  0.93827000000E+00  0.93827000000E+00 0. -1.
     999902    2    1    2    0    0 -0.90672116262E-02 -0.21929465918E-01  0.64176136030E-02  0.10193474540E+01  0.10190509950E+01 0.  0.
     999903    2    3    3    0    0  0.80757693591E-02  0.10247029038E+00  0.74911107049E-01  0.12779793784E+00  0.12460357032E-01 0.  0.
         14    1    1    2    0    0  0.90672116262E-02  0.21929465918E-01 -0.64176136030E-02  0.24582545973E-01  0.00000000000E+00 0.  1.
     999901    1    3    3    0    0 -0.17142980985E-01 -0.12439975629E+00 -0.68493493446E-01  0.89154951618E+00  0.88000000000E+00 0.  1.
        -11    1    4    4    0    0 -0.40018466313E-03  0.29380189616E-01  0.27619431129E-01  0.40329267121E-01  0.51100000000E-03 0. -1.
         11    1    4    4    0    0  0.84759540222E-02  0.73090100759E-01  0.47291675920E-01  0.87468670722E-01  0.51100000000E-03 0.  1.
</event>
<event>
 8    1  0.1117354E+005  0.1043930E+01  0.7957747E-01            NaN
         13   -1    0    0    0    0  0.00000000000E+00  0.00000000000E+00  0.74505805969E-08  0.10566000000E+00  0.10566000000E+00 0. -1.
     999900   -1    0    0    0    0 -0.00000000000E+00 -0.00000000000E+00 -0.74505805969E-08  0.93827000000E+00  0.93827000000E+00 0.  1.
     999902    2    1    2    0    0 -0.96830559023E-02 -0.17025694603E-01 -0.12931045458E-01  0.10204598533E+01  0.10201899159E+01 0.  0.
     999903    2    3    3    0    0  0.19434725616E-01  0.12379429079E+00  0.19009020531E-01  0.12821645531E+00  0.19374766035E-01 0.  0.
         14    1    1    2    0    0  0.96830559023E-02  0.17025694603E-01  0.12931045458E-01  0.23470146675E-01  0.00000000000E+00 0.  1.
     999901    1    3    3    0    0 -0.29117781519E-01 -0.14081998539E+00 -0.31940065989E-01  0.89224339802E+00  0.88000000000E+00 0. -1.
        -11    1    4    4    0    0  0.10519883559E-03  0.57907391960E-01  0.49037102820E-02  0.58116990682E-01  0.51100000000E-03 0.  1.
         11    1    4    4    0    0  0.19329526781E-01  0.65886898829E-01  0.14105310249E-01  0.70099464628E-01  0.51100000000E-03 0. -1.
</event>
<event>
 8    1  0.1117354E+005  0.1043930E+01  0.7957747E-01            NaN
         13   -1    0    0    0    0  0.00000000000E+00  0.00000000000E+00  0.74505805969E-08  0.10566000000E+00  0.10566000000E+00 0.  1.
     999900   -1    0    0    0    0 -0.00000000000E+00 -0.00000000000E+00 -0.74505805969E-08  0.93827000000E+00  0.93827000000E+00 0.  1.
     999902    2    1    2    0    0 -0.12732448124E-01 -0.90215051017E-03 -0.20830421431E-01  0.10194997817E+01  0.10192070296E+01 0.  0.
     999903    2    3    3    0    0  0.31323009800E-01  0.11373818076E+00  0.46598954848E-01  0.12841616622E+00  0.20043563761E-01 0.  0.
         14    1    1    2    0    0  0.12732448124E-01  0.90215051017E-03  0.20830421431E-01  0.24430218332E-01  0.00000000000E+00 0.  1.
     999901    1    3    3    0    0 -0.44055457924E-01 -0.11464033127E+00 -0.67429376279E-01  0.89108361544E+00  0.88000000000E+00 0. -1.
        -11    1    4    4    0    0  0.84723582922E-02  0.34399125204E-01  0.24064989501E-01  0.42830660870E-01  0.51100000000E-03 0. -1.
         11    1    4    4    0    0  0.22850651508E-01  0.79339055560E-01  0.22533965347E-01  0.85585505354E-01  0.51100000000E-03 0.  1.
</event>
<event>
 8    1  0.1117354E+005  0.1043930E+01  0.7957747E-01            NaN
         13   -1    0    0    0    0  0.00000000000E+00  0.00000000000E+00  0.74505805969E-08  0.10566000000E+00  0.10566000000E+00 0.  1.
     999900   -1    0    0    0    0 -0.00000000000E+00 -0.00000000000E+00 -0.74505805969E-08  0.93827000000E+00  0.93827000000E+00 0.  1.
     999902    2    1    2    0    0 -0.14682448149E-01 -0.11804671389E-01  0.15299542998E-01  0.10196606661E+01  0.10193718034E+01 0.  0.
     999903    2    3    3    0    0 -0.37927589355E-01  0.38814117470E-01 -0.11413753815E+00  0.12844994114E+00  0.22955871034E-01 0.  0.
         14    1    1    2    0    0  0.14682448149E-01  0.11804671389E-01 -0.15299542998E-01  0.24269333864E-01  0.00000000000E+00 0. -1.
     999901    1    3    3    0    0  0.23245141206E-01 -0.50618788859E-01  0.12943708115E+00  0.89121072500E+00  0.88000000000E+00 0. -1.
        -11    1    4    4    0    0 -0.30012324005E-01  0.20072156061E-01 -0.53987307133E-01  0.64950146217E-01  0.51100000000E-03 0.  1.
         11    1    4    4    0    0 -0.79152653495E-02  0.18741961409E-01 -0.60150231014E-01  0.63499794921E-01  0.51100000000E-03 0. -1.
</event>
<event>
 8    1  0.1117354E+005  0.1043930E+01  0.7957747E-01            NaN
         13   -1    0    0    0    0  0.00000000000E+00  0.00000000000E+00  0.74505805969E-08  0.10566000000E+00  0.10566000000E+00 0.  1.
     999900   -1    0    0    0    0 -0.00000000000E+00 -0.00000000000E+00 -0.74505805969E-08  0.93827000000E+00  0.93827000000E+00 0. -1.
     999902    2    1    2    0    0  0.92527758826E-02 -0.17220477429E-01  0.13227329498E-01  0.10203265903E+01  0.10200535427E+01 0.  0.
     999903    2    3    3    0    0 -0.49764980815E-01 -0.10935493397E+00 -0.49205534561E-01  0.13135543429E+00  0.19950202652E-01 0.  0.
         14    1    1    2    0    0 -0.92527758826E-02  0.17220477429E-01 -0.13227329498E-01  0.23603409713E-01  0.00000000000E+00 0. -1.
     999901    1    3    3    0    0  0.59017756698E-01  0.92134456541E-01  0.62432864060E-01  0.88897115600E+00  0.88000000000E+00 0.  1.
        -11    1    4    4    0    0 -0.32747756249E-01 -0.63901265293E-01 -0.19335697813E-01  0.74363415577E-01  0.51100000000E-03 0.  1.
         11    1    4    4    0    0 -0.17017224567E-01 -0.45453668677E-01 -0.29869836748E-01  0.56992018708E-01  0.51100000000E-03 0. -1.
</event>
<event>
 8    1  0.1117354E+005  0.1043930E+01  0.7957747E-01            NaN
         13   -1    0    0    0    0  0.00000000000E+00  0.00000000000E+00  0.74505805969E-08  0.10566000000E+00  0.10566000000E+00 0. -1.
     999900   -1    0    0    0    0 -0.00000000000E+00 -0.00000000000E+00 -0.74505805969E-08  0.93827000000E+00  0.93827000000E+00 0.  1.
     999902    2    1    2    0    0  0.20854516583E-01  0.16265121140E-02  0.11224635354E-01  0.10201908163E+01  0.10199145811E+01 0.  0.
     999903    2    3    3    0    0  0.68825429829E-01 -0.56328012595E-01  0.96373591456E-01  0.13288575029E+00  0.21470181794E-01 0.  0.
         14    1    1    2    0    0 -0.20854516583E-01 -0.16265121140E-02 -0.11224635354E-01  0.23739183693E-01  0.00000000000E+00 0. -1.
     999901    1    3    3    0    0 -0.47970913246E-01  0.57954524709E-01 -0.85148956102E-01  0.88730506602E+00  0.88000000000E+00 0.  1.
        -11    1    4    4    0    0  0.28469146524E-01 -0.14390636428E-01  0.45575151918E-01  0.55632169776E-01  0.51100000000E-03 0. -1.
         11    1    4    4    0    0  0.40356283305E-01 -0.41937376167E-01  0.50798439538E-01  0.77253580515E-01  0.51100000000E-03 0.  1.
</event>
<event>
 8    1  0.1117354E+005  0.1043930E+01  0.7957747E-01            NaN
         13   -1    0    0    0    0  0.00000000000E+00  0.00000000000E+00  0.74505805969E-08  0.10566000000E+00  0.10566000000E+00 0.  1.
     999900   -1    0    0    0    0 -0.00000000000E+00 -0.00000000000E+00 -0.74505805969E-08  0.93827000000E+00  0.93827000000E+00 0. -1.
     999902    2    1    2    0    0 -0.47818069185E-02 -0.18600917044E-01 -0.13534592619E-01  0.10204343623E+01  0.10201638314E+01 0.  0.
     999903    2    3    3    0    0 -0.56996446073E-01  0.53595044136E-01  0.10034824814E+00  0.12863397728E+00  0.18865460104E-01 0.  0.
         14    1    1    2    0    0  0.47818069185E-02  0.18600917044E-01  0.13534592619E-01  0.23495637673E-01  0.00000000000E+00 0.  1.
     999901    1    3    3    0    0  0.52214639154E-01 -0.72195961180E-01 -0.11388284076E+00  0.89180038505E+00  0.88000000000E+00 0. -1.
        -11    1    4    4    0    0 -0.10939404054E-01  0.22144844310E-01  0.31179458595E-01  0.39780453113E-01  0.51100000000E-03 0.  1.
         11    1    4    4    0    0 -0.46057042019E-01  0.31450199826E-01  0.69168789545E-01  0.88853524166E-01  0.51100000000E-03 0. -1.
</event>
<event>
 8    1  0.1117354E+005  0.1043930E+01  0.7957747E-01            NaN
         13   -1    0    0    0    0  0.00000000000E+00  0.00000000000E+00  0.74505805969E-08  0.10566000000E+00  0.10566000000E+00 0.  1.
     999900   -1    0    0    0    0 -0.00000000000E+00 -0.00000000000E+00 -0.74505805969E-08  0.93827000000E+00  0.93827000000E+00 0. -1.
     999902    2    1    2    0    0 -0.25373634755E-01 -0.80171386599E-04 -0.63673918444E-02  0.10177695060E+01  0.10174332390E+01 0.  0.
     999903    2    3    3    0    0 -0.33033856225E-01 -0.12886159196E-01 -0.12345936714E+00  0.12988820593E+00  0.19272829251E-01 0.  0.
         14    1    1    2    0    0  0.25373634755E-01  0.80171386599E-04  0.63673918444E-02  0.26160494014E-01  0.00000000000E+00 0.  1.
     999901    1    3    3    0    0  0.76602214691E-02  0.12805987810E-01  0.11709197530E+00  0.88788130006E+00  0.88000000000E+00 0.  1.
        -11    1    4    4    0    0 -0.30009918351E-01 -0.89001694635E-02 -0.76464417817E-01  0.82624914699E-01  0.51100000000E-03 0.  1.
         11    1    4    4    0    0 -0.30239378732E-02 -0.39859897330E-02 -0.46994949326E-01  0.47263291227E-01  0.51100000000E-03 0. -1.
</event>
<event>
 8    1  0.1117354E+005  0.1043930E+01  0.7957747E-01            NaN
         13   -1    0    0    0    0  0.00000000000E+00  0.00000000000E+00  0.74505805969E-08  0.10566000000E+00  0.10566000000E+00 0. -1.
     999900   -1    0    0    0    0 -0.00000000000E+00 -0.00000000000E+00 -0.74505805969E-08  0.93827000000E+00  0.93827000000E+00 0. -1.
     999902    2    1    2    0    0 -0.15700610785E-02 -0.89850076237E-02 -0.23842677331E-01  0.10184021972E+01  0.10180822003E+01 0.  0.
     999903    2    3    3    0    0 -0.72126432374E-01 -0.83476952981E-01  0.62344820055E-01  0.12825864913E+00  0.19818692270E-01 0.  0.
         14    1    1    2    0    0  0.15700610785E-02  0.89850076237E-02  0.23842677331E-01  0.25527802806E-01  0.00000000000E+00 0. -1.
     999901    1    3    3    0    0  0.70556371295E-01  0.74491945357E-01 -0.86187497385E-01  0.89014354806E+00  0.88000000000E+00 0. -1.
        -11    1    4    4    0    0 -0.24838172439E-01 -0.22994035211E-01  0.98637429384E-02  0.35259254262E-01  0.51100000000E-03 0. -1.
         11    1    4    4    0    0 -0.47288259935E-01 -0.60482917770E-01  0.52481077116E-01  0.92999394868E-01  0.51100000000E-03 0.  1.
</event>
<event>
 8    1  0.1117354E+005  0.1043930E+01  0.7957747E-01            NaN
         13   -1    0    0    0    0  0.00000000000E+00  0.00000000000E+00  0.74505805969E-08  0.10566000000E+00  0.10566000000E+00 0. -1.
     999900   -1    0    0    0    0 -0.00000000000E+00 -0.00000000000E+00 -0.74505805969E-08  0.93827000000E+00  0.93827000000E+00 0. -1.
     999902    2    1    2    0    0 -0.91942905712E-02 -0.18380993174E-01 -0.10802856693E-01  0.10207115246E+01  0.10204474111E+01 0.  0.
     999903    2    3    3    0    0  0.54999651669E-01  0.31382891968E-01  0.11009681448E+00  0.12873953118E+00  0.21040692411E-01 0.  0.
         14    1    1    2    0    0  0.91942905712E-02  0.18380993174E-01  0.10802856693E-01  0.23218475443E-01  0.00000000000E+00 0. -1.
     999901    1    3    3    0    0 -0.64193942240E-01 -0.49763885142E-01 -0.12089967117E+00  0.89197199338E+00  0.88000000000E+00 0. -1.
        -11    1    4    4    0    0  0.14002552966E-01  0.90553790133E-02  0.49554610648E-01  0.52287588739E-01  0.51100000000E-03 0. -1.
         11    1    4    4    0    0  0.40997098703E-01  0.22327512955E-01  0.60542203831E-01  0.76451942438E-01  0.51100000000E-03 0.  1.
</event>
<event>
 8    1  0.1117354E+005  0.1043930E+01  0.7957747E-01            NaN
         13   -1    0    0    0    0  0.00000000000E+00  0.00000000000E+00  0.74505805969E-08  0.10566000000E+00  0.10566000000E+00 0. -1.
     999900   -1    0    0    0    0 -0.00000000000E+00 -0.00000000000E+00 -0.74505805969E-08  0.93827000000E+00  0.93827000000E+00 0.  1.
     999902    2    1    2    0    0 -0.67813029161E-02 -0.18329758023E-01  0.11018313058E-01  0.10214941064E+01  0.10212476879E+01 0.  0.
     999903    2    3    3    0    0  0.72139070438E-01  0.85552756960E-01  0.63554767986E-01  0.13032628757E+00  0.20552688149E-01 0.  0.
         14    1    1    2    0    0  0.67813029161E-02  0.18329758023E-01 -0.11018313058E-01  0.22435893588E-01  0.00000000000E+00 0.  1.
     999901    1    3    3    0    0 -0.78920373354E-01 -0.10388251498E+00 -0.52536454927E-01  0.89116781885E+00  0.88000000000E+00 0. -1.
        -11    1    4    4    0    0  0.55681306058E-01  0.76713973722E-01  0.56482426311E-01  0.11034476522E+00  0.51100000000E-03 0. -1.
         11    1    4    4    0    0  0.16457764380E-01  0.88387832375E-02  0.70723416749E-02  0.19981522346E-01  0.51100000000E-03 0.  1.
</event>
<event>
 8    1  0.1117354E+005  0.1043930E+01  0.7957747E-01            NaN
         13   -1    0    0    0    0  0.00000000000E+00  0.00000000000E+00  0.74505805969E-08  0.10566000000E+00  0.10566000000E+00 0.  1.
     999900   -1    0    0    0    0 -0.00000000000E+00 -0.00000000000E+00 -0.74505805969E-08  0.93827000000E+00  0.93827000000E+00 0.  1.
     999902    2    1    2    0    0  0.12429482930E-01  0.15984272372E-01  0.12145552465E-01  0.10203184890E+01  0.10200452517E+01 0.  0.
     999903    2    3    3    0    0  0.71762148290E-01  0.82556668502E-01  0.75862821751E-01  0.13351967326E+00  0.10340502077E-01 0.  0.
         14    1    1    2    0    0 -0.12429482930E-01 -0.15984272372E-01 -0.12145552465E-01  0.23611511045E-01  0.00000000000E+00 0. -1.
     999901    1    3    3    0    0 -0.59332665360E-01 -0.66572396130E-01 -0.63717269286E-01  0.88679881569E+00  0.88000000000E+00 0.  1.
        -11    1    4    4    0    0  0.19817685759E-01  0.26482691142E-01  0.18082066678E-01  0.37700077656E-01  0.51100000000E-03 0.  1.
         11    1    4    4    0    0  0.51944462531E-01  0.56073977360E-01  0.57780755073E-01  0.95819595608E-01  0.51100000000E-03 0. -1.
</event>
<event>
 8    1  0.1117354E+005  0.1043930E+01  0.7957747E-01            NaN
         13   -1    0    0    0    0  0.00000000000E+00  0.00000000000E+00  0.74505805969E-08  0.10566000000E+00  0.10566000000E+00 0. -1.
     999900   -1    0    0    0    0 -0.00000000000E+00 -0.00000000000E+00 -0.74505805969E-08  0.93827000000E+00  0.93827000000E+00 0. -1.
     999902    2    1    2    0    0 -0.11084054733E-01 -0.20501255318E-01  0.25680477055E-02  0.10204831962E+01  0.10202138017E+01 0.  0.
     999903    2    3    3    0    0  0.44106922856E-01 -0.12309734284E+00  0.11741482346E-01  0.13275792729E+00  0.19708586736E-01 0.  0.
         14    1    1    2    0    0  0.11084054733E-01  0.20501255318E-01 -0.25680477055E-02  0.23446803790E-01  0.00000000000E+00 0.  1.
     999901    1    3    3    0    0 -0.55190977589E-01  0.10259608752E+00 -0.91734346409E-02  0.88772526892E+00  0.88000000000E+00 0. -1.
        -11    1    4    4    0    0  0.35299126003E-01 -0.11429514146E+00  0.87582684927E-02  0.11994322009E+00  0.51100000000E-03 0. -1.
         11    1    4    4    0    0  0.88077968527E-02 -0.88022013785E-02  0.29832138537E-02  0.12814707191E-01  0.51100000000E-03 0.  1.
</event>
<event>
 8    1  0.1117354E+005  0.1043930E+01  0.7957747E-01            NaN
         13   -1    0    0    0    0  0.00000000000E+00  0.00000000000E+00  0.74505805969E-08  0.10566000000E+00  0.10566000000E+00 0.  1.
     999900   -1    0    0    0    0 -0.00000000000E+00 -0.00000000000E+00 -0.74505805969E-08  0.93827000000E+00  0.93827000000E+00 0. -1.
     999902    2    1    2    0    0  0.94242247125E-02  0.20262166906E-01 -0.11024440438E-01  0.10190119402E+01  0.10187072320E+01 0.  0.
     999903    2    3    3    0    0  0.72033361746E-01  0.10898221204E+00  0.52545703073E-02  0.13218830683E+00  0.19498979639E-01 0.  0.
         14    1    1    2    0    0 -0.94242247125E-02 -0.20262166906E-01  0.11024440438E-01  0.24918059839E-01  0.00000000000E+00 0.  1.
     999901    1    3    3    0    0 -0.62609137033E-01 -0.88720045135E-01 -0.16279010745E-01  0.88682363333E+00  0.88000000000E+00 0. -1.
        -11    1    4    4    0    0  0.31365283113E-01  0.64414955247E-01  0.27865646790E-03  0.71647792811E-01  0.51100000000E-03 0.  1.
         11    1    4    4    0    0  0.40668078633E-01  0.44567256794E-01  0.49759138394E-02  0.60540514016E-01  0.51100000000E-03 0. -1.
</event>
<event>
 8    1  0.1117354E+005  0.1043930E+01  0.7957747E-01            NaN
         13   -1    0    0    0    0  0.00000000000E+00  0.00000000000E+00  0.74505805969E-08  0.10566000000E+00  0.10566000000E+00 0. -1.
     999900   -1    0    0    0    0 -0.00000000000E+00 -0.00000000000E+00 -0.74505805969E-08  0.93827000000E+00  0.93827000000E+00 0. -1.
     999902    2    1    2    0    0  0.58753995624E-02  0.22747902215E-01 -0.54612790581E-02  0.10198092010E+01  0.10195239053E+01 0.  0.
     999903    2    3    3    0    0 -0.12008236211E+00 -0.10176310962E-01 -0.42856900232E-01  0.12944534616E+00  0.19901074055E-01 0.  0.
         14    1    1    2    0    0 -0.58753995624E-02 -0.22747902215E-01  0.54612790581E-02  0.24120798995E-01  0.00000000000E+00 0.  1.
     999901    1    3    3    0    0  0.12595776168E+00  0.32924213176E-01  0.37395621174E-01  0.89036385485E+00  0.88000000000E+00 0.  1.
        -11    1    4    4    0    0 -0.57254164948E-01 -0.12241670397E-01 -0.13613936016E-01  0.60112380362E-01  0.51100000000E-03 0. -1.
         11    1    4    4    0    0 -0.62828197165E-01  0.20653594350E-02 -0.29242964216E-01  0.69332965794E-01  0.51100000000E-03 0.  1.
</event>
<event>
 8    1  0.1117354E+005  0.1043930E+01  0.7957747E-01            NaN
         13   -1    0    0    0    0  0.00000000000E+00  0.00000000000E+00  0.74505805969E-08  0.10566000000E+00  0.10566000000E+00 0.  1.
     999900   -1    0    0    0    0 -0.00000000000E+00 -0.00000000000E+00 -0.74505805969E-08  0.93827000000E+00  0.93827000000E+00 0.  1.
     999902    2    1    2    0    0 -0.18396090191E-01 -0.78221251090E-02  0.49875914871E-02  0.10233271399E+01  0.10231197180E+01 0.  0.
     999903    2    3    3    0    0  0.90542119669E-01  0.27796193013E-01 -0.88213771180E-01  0.13101402660E+00  0.20310144291E-01 0.  0.
         14    1    1    2    0    0  0.18396090191E-01  0.78221251090E-02 -0.49875914871E-02  0.20602860102E-01  0.00000000000E+00 0. -1.
     999901    1    3    3    0    0 -0.10893820986E+00 -0.35618318122E-01  0.93201362667E-01  0.89231311329E+00  0.88000000000E+00 0.  1.
        -11    1    4    4    0    0  0.56208629781E-01  0.19262422969E-01 -0.67849927358E-01  0.90190491539E-01  0.51100000000E-03 0. -1.
         11    1    4    4    0    0  0.34333489888E-01  0.85337700438E-02 -0.20363843822E-01  0.40823535065E-01  0.51100000000E-03 0.  1.
</event>
<event>
 8    1  0.1117354E+005  0.1043930E+01  0.7957747E-01            NaN
         13   -1    0    0    0    0  0.00000000000E+00  0.00000000000E+00  0.74505805969E-08  0.10566000000E+00  0.10566000000E+00 0.  1.
     999900   -1    0    0    0    0 -0.00000000000E+00 -0.00000000000E+00 -0.74505805969E-08  0.93827000000E+00  0.93827000000E+00 0.  1.
     999902    2    1    2    0    0  0.21439088882E-01  0.14311480225E-02  0.10187911153E-01  0.10201502555E+01  0.10198730644E+01 0.  0.
     999903    2    3    3    0    0 -0.35744603484E-01  0.66666253952E-01 -0.10192141881E+00  0.12880627271E+00  0.21932035542E-01 0.  0.
         14    1    1    2    0    0 -0.21439088882E-01 -0.14311480225E-02 -0.10187911153E-01  0.23779744540E-01  0.00000000000E+00 0. -1.
     999901    1    3    3    0    0  0.57183692365E-01 -0.65235105930E-01  0.11210932996E+00  0.89134398275E+00  0.88000000000E+00 0. -1.
        -11    1    4    4    0    0 -0.24279313373E-01  0.24137643689E-01 -0.51620164513E-01  0.61943630876E-01  0.51100000000E-03 0. -1.
         11    1    4    4    0    0 -0.11465290111E-01  0.42528610263E-01 -0.50301254298E-01  0.66862641835E-01  0.51100000000E-03 0.  1.
</event>
<event>
 8    1  0.1117354E+005  0.1043930E+01  0.7957747E-01            NaN
         13   -1    0    0    0    0  0.00000000000E+00  0.00000000000E+00  0.74505805969E-08  0.10566000000E+00  0.10566000000E+00 0.  1.
     999900   -1    0    0    0    0 -0.00000000000E+00 -0.00000000000E+00 -0.74505805969E-08  0.93827000000E+00  0.93827000000E+00 0.  1.
     999902    2    1    2    0    0  0.22835140285E-01  0.12945144684E-01 -0.51079474206E-02  0.10171884307E+01  0.10168368561E+01 0.  0.
     999903    2    3    3    0    0  0.10182828170E-01 -0.97933716580E-01 -0.78073340136E-01  0.12714452648E+00  0.19379921061E-01 0.  0.
         14    1    1    2    0    0 -0.22835140285E-01 -0.12945144684E-01  0.51079474206E-02  0.26741569318E-01  0.00000000000E+00 0. -1.
     999901    1    3    3    0    0  0.12652312115E-01  0.11087886126E+00  0.72965392716E-01  0.89004390420E+00  0.88000000000E+00 0. -1.
        -11    1    4    4    0    0 -0.30202916095E-02 -0.60748481945E-01 -0.49528001806E-01  0.78439685772E-01  0.51100000000E-03 0.  1.
         11    1    4    4    0    0  0.13203119779E-01 -0.37185234636E-01 -0.28545338330E-01  0.48704840706E-01  0.51100000000E-03 0. -1.
</event>
<event>
 8    1  0.1117354E+005  0.1043930E+01  0.7957747E-01            NaN
         13   -1    0    0    0    0  0.00000000000E+00  0.00000000000E+00  0.74505805969E-08  0.10566000000E+00  0.10566000000E+00 0. -1.
     999900   -1    0    0    0    0 -0.00000000000E+00 -0.00000000000E+00 -0.74505805969E-08  0.93827000000E+00  0.93827000000E+00 0.  1.
     999902    2    1    2    0    0  0.15492953998E-01  0.13852658178E-01  0.92994414161E-02  0.10211614389E+01  0.10209075752E+01 0.  0.
     999903    2    3    3    0    0  0.13816229782E-01 -0.74014877696E-01  0.10580980973E+00  0.13153355805E+00  0.20887094887E-01 0.  0.
         14    1    1    2    0    0 -0.15492953998E-01 -0.13852658178E-01 -0.92994414161E-02  0.22768561062E-01  0.00000000000E+00 0.  1.
     999901    1    3    3    0    0  0.16767242164E-02  0.87867535874E-01 -0.96510368310E-01  0.88962788089E+00  0.88000000000E+00 0.  1.
        -11    1    4    4    0    0 -0.55209689602E-02 -0.20296016950E-01  0.28854300751E-01  0.35710519390E-01  0.51100000000E-03 0.  1.
         11    1    4    4    0    0  0.19337198742E-01 -0.53718860746E-01  0.76955508975E-01  0.95823038658E-01  0.51100000000E-03 0. -1.
</event>
<event>
 8    1  0.1117354E+005  0.1043930E+01  0.7957747E-01            NaN
         13   -1    0    0    0    0  0.00000000000E+00  0.00000000000E+00  0.74505805969E-08  0.10566000000E+00  0.10566000000E+00 0.  1.
     999900   -1    0    0    0    0 -0.00000000000E+00 -0.00000000000E+00 -0.74505805969E-08  0.93827000000E+00  0.93827000000E+00 0.  1.
     999902    2    1    2    0    0 -0.15428418371E-01 -0.51533739526E-03  0.18348004000E-01  0.10199518659E+01  0.10196699749E+01 0.  0.
     999903    2    3    3    0    0 -0.65002790181E-01 -0.44346485203E-01  0.10564128461E+00  0.13316051233E+00  0.19485059645E-01 0.  0.
         14    1    1    2    0    0  0.15428418371E-01  0.51533739526E-03 -0.18348004000E-01  0.23978134141E-01  0.00000000000E+00 0. -1.
     999901    1    3    3    0    0  0.49574371809E-01  0.43831147808E-01 -0.87293280606E-01  0.88679135353E+00  0.88000000000E+00 0.  1.
        -11    1    4    4    0    0 -0.20395582222E-01 -0.11120256255E-01  0.46432291097E-01  0.51921658784E-01  0.51100000000E-03 0.  1.
         11    1    4    4    0    0 -0.44607207959E-01 -0.33226228947E-01  0.59208993508E-01  0.81238853544E-01  0.51100000000E-03 0. -1.
</event>
<event>
 8    1  0.1117354E+005  0.1043930E+01  0.7957747E-01            NaN
         13   -1    0    0    0    0  0.00000000000E+00  0.00000000000E+00  0.74505805969E-08  0.10566000000E+00  0.10566000000E+00 0.  1.
     999900   -1    0    0    0    0 -0.00000000000E+00 -0.00000000000E+00 -0.74505805969E-08  0.93827000000E+00  0.93827000000E+00 0.  1.
     999902    2    1    2    0    0 -0.88400990541E-02 -0.19407998686E-01  0.17537710298E-02  0.10225315543E+01  0.10223076279E+01 0.  0.
     999903    2    3    3    0    0 -0.29440793351E-01  0.99587373395E-01 -0.76975834317E-01  0.13080141693E+00  0.19983151656E-01 0.  0.
         14    1    1    2    0    0  0.88400990541E-02  0.19407998686E-01 -0.17537710298E-02  0.21398445670E-01  0.00000000000E+00 0.  1.
     999901    1    3    3    0    0  0.20600694297E-01 -0.11899537208E+00  0.78729605347E-01  0.89173013740E+00  0.88000000000E+00 0. -1.
        -11    1    4    4    0    0 -0.11129865327E-01  0.70382707882E-01 -0.53064016022E-01  0.88846217636E-01  0.51100000000E-03 0. -1.
         11    1    4    4    0    0 -0.18310928024E-01  0.29204665514E-01 -0.23911818295E-01  0.41955199297E-01  0.51100000000E-03 0.  1.
</event>
<event>
 8    1  0.1117354E+005  0.1043930E+01  0.7957747E-01            NaN
         13   -1    0    0    0    0  0.00000000000E+00  0.00000000000E+00  0.74505805969E-08  0.10566000000E+00  0.10566000000E+00 0. -1.
     999900   -1    0    0    0    0 -0.00000000000E+00 -0.00000000000E+00 -0.74505805969E-08  0.93827000000E+00  0.93827000000E+00 0. -1.
     999902    2    1    2    0    0 -0.36827665548E-02 -0.58379444996E-02 -0.22934029821E-01  0.10199797581E+01  0.10196985303E+01 0.  0.
     999903    2    3    3    0    0 -0.43953529949E-01  0.82965358702E-01 -0.90658894113E-01  0.13200767612E+00  0.19794644080E-01 0.  0.
         14    1    1    2    0    0  0.36827665548E-02  0.58379444996E-02  0.22934029821E-01  0.23950241946E-01  0.00000000000E+00 0. -1.
     999901    1    3    3    0    0  0.40270763394E-01 -0.88803303202E-01  0.67724864292E-01  0.88797208193E+00  0.88000000000E+00 0.  1.
        -11    1    4    4    0    0 -0.33181965243E-01  0.48318290737E-01 -0.46295027812E-01  0.74693980737E-01  0.51100000000E-03 0. -1.
         11    1    4    4    0    0 -0.10771564706E-01  0.34647067965E-01 -0.44363866300E-01  0.57313695387E-01  0.51100000000E-03 0.  1.
</event>
<event>
 8    1  0.1117354E+005  0.1043930E+01  0.7957747E-01            NaN
         13   -1    0    0    0    0  0.00000000000E+00  0.00000000000E+00  0.74505805969E-08  0.10566000000E+00  0.10566000000E+00 0. -1.
     999900   -1    0    0    0    0 -0.00000000000E+00 -0.00000000000E+00 -0.74505805969E-08  0.93827000000E+00  0.93827000000E+00 0.  1.
     999902    2    1    2    0    0 -0.17864912514E-02 -0.10690784302E-01 -0.21238472184E-01  0.10200855642E+01  0.10198068450E+01 0.  0.
     999903    2    3    3    0    0  0.66826162282E-01  0.85789189376E-01  0.63921624729E-01  0.12808314059E+00  0.22221516954E-01 0.  0.
         14    1    1    2    0    0  0.17864912514E-02  0.10690784302E-01  0.21238472184E-01  0.23844435844E-01  0.00000000000E+00 0. -1.
     999901    1    3    3    0    0 -0.68612653533E-01 -0.96479973678E-01 -0.85160096913E-01  0.89200242357E+00  0.88000000000E+00 0.  1.
        -11    1    4    4    0    0  0.32541832888E-01  0.30590200012E-01  0.35955140931E-01  0.57339031251E-01  0.51100000000E-03 0. -1.
         11    1    4    4    0    0  0.34284329394E-01  0.55198989364E-01  0.27966483799E-01  0.70744109337E-01  0.51100000000E-03 0.  1.
</event>
<event>
 8    1  0.1117354E+005  0.1043930E+01  0.7957747E-01            NaN
         13   -1    0    0    0    0  0.00000000000E+00  0.00000000000E+00  0.74505805969E-08  0.10566000000E+00  0.10566000000E+00 0.  1.
     999900   -1    0    0    0    0 -0.00000000000E+00 -0.00000000000E+00 -0.74505805969E-08  0.93827000000E+00  0.93827000000E+00 0.  1.
     999902    2    1    2    0    0 -0.11943136419E-01 -0.15394394177E-01 -0.13977381639E-01  0.10199509867E+01  0.10196690749E+01 0.  0.
     999903    2    3    3    0    0  0.79536675691E-01 -0.73295609803E-01  0.68523088628E-01  0.12948625729E+00  0.19311860488E-01 0.  0.
         14    1    1    2    0    0  0.11943136419E-01  0.15394394177E-01  0.13977381639E-01  0.23979013263E-01  0.00000000000E+00 0.  1.
     999901    1    3    3    0    0 -0.91479812110E-01  0.57901215626E-01 -0.82500470267E-01  0.89046472945E+00  0.88000000000E+00 0.  1.
        -11    1    4    4    0    0  0.61179194295E-01 -0.44255221413E-01  0.47105301907E-01  0.88997691125E-01  0.51100000000E-03 0. -1.
         11    1    4    4    0    0  0.18357481396E-01 -0.29040388390E-01  0.21417786721E-01  0.40488566164E-01  0.51100000000E-03 0.  1.
</event>
<event>
 8    1  0.1117354E+005  0.1043930E+01  0.7957747E-01            NaN
         13   -1    0    0    0    0  0.00000000000E+00  0.00000000000E+00  0.74505805969E-08  0.10566000000E+00  0.10566000000E+00 0.  1.
     999900   -1    0    0    0    0 -0.00000000000E+00 -0.00000000000E+00 -0.74505805969E-08  0.93827000000E+00  0.93827000000E+00 0.  1.
     999902    2    1    2    0    0 -0.21137466171E-01 -0.35598665699E-02  0.91547065021E-02  0.10206217659E+01  0.10203555827E+01 0.  0.
     999903    2    3    3    0    0  0.63369887797E-01 -0.91782366723E-01  0.64510040292E-01  0.13045946867E+00  0.20454391887E-01 0.  0.
         14    1    1    2    0    0  0.21137466171E-01  0.35598665699E-02 -0.91547065021E-02  0.23308234109E-01  0.00000000000E+00 0. -1.
     999901    1    3    3    0    0 -0.84507353968E-01  0.88222500154E-01 -0.55355333790E-01  0.89016229722E+00  0.88000000000E+00 0.  1.
        -11    1    4    4    0    0  0.98571733402E-02 -0.15007642857E-01  0.23601714811E-02  0.18116973831E-01  0.51100000000E-03 0. -1.
         11    1    4    4    0    0  0.53512714457E-01 -0.76774723867E-01  0.62149868811E-01  0.11234249484E+00  0.51100000000E-03 0.  1.
</event>
<event>
 8    1  0.1117354E+005  0.1043930E+01  0.7957747E-01            NaN
         13   -1    0    0    0    0  0.00000000000E+00  0.00000000000E+00  0.74505805969E-08  0.10566000000E+00  0.10566000000E+00 0.  1.
     999900   -1    0    0    0    0 -0.00000000000E+00 -0.00000000000E+00 -0.74505805969E-08  0.93827000000E+00  0.93827000000E+00 0.  1.
     999902    2    1    2    0    0 -0.31222077097E-02  0.21467139646E-01  0.99738752184E-02  0.10200539775E+01  0.10197745106E+01 0.  0.
     999903    2    3    3    0    0  0.89050540068E-01  0.40837494044E-01 -0.83481848104E-01  0.13010735081E+00  0.19000109618E-01 0.  0.
         14    1    1    2    0    0  0.31222077097E-02 -0.21467139646E-01 -0.99738752184E-02  0.23876022542E-01  0.00000000000E+00 0. -1.
     999901    1    3    3    0    0 -0.92172747777E-01 -0.19370354398E-01  0.93455723322E-01  0.88994662665E+00  0.88000000000E+00 0. -1.
        -11    1    4    4    0    0  0.19713465770E-01  0.14001783028E-02 -0.20414493581E-01  0.28418196655E-01  0.51100000000E-03 0.  1.
         11    1    4    4    0    0  0.69337074297E-01  0.39437315741E-01 -0.63067354523E-01  0.10168915415E+00  0.51100000000E-03 0. -1.
</event>
<event>
 8    1  0.1117354E+005  0.1043930E+01  0.7957747E-01            NaN
         13   -1    0    0    0    0  0.00000000000E+00  0.00000000000E+00  0.74505805969E-08  0.10566000000E+00  0.10566000000E+00 0. -1.
     999900   -1    0    0    0    0 -0.00000000000E+00 -0.00000000000E+00 -0.74505805969E-08  0.93827000000E+00  0.93827000000E+00 0.  1.
     999902    2    1    2    0    0 -0.14601669838E-01  0.17909559321E-01  0.37376799758E-02  0.10205220670E+01  0.10202535753E+01 0.  0.
     999903    2    3    3    0    0  0.11059044698E-01 -0.12641014116E+00 -0.32963859515E-03  0.12838800121E+00  0.19533149655E-01 0.  0.
         14    1    1    2    0    0  0.14601669838E-01 -0.17909559321E-01 -0.37376799758E-02  0.23407933030E-01  0.00000000000E+00 0. -1.
     999901    1    3    3    0    0 -0.25660714536E-01  0.14431970048E+00  0.40673185710E-02  0.89213406576E+00  0.88000000000E+00 0. -1.
        -11    1    4    4    0    0 -0.31363703796E-02 -0.74506169110E-01  0.70614577180E-04  0.74573937552E-01  0.51100000000E-03 0. -1.
         11    1    4    4    0    0  0.14195415077E-01 -0.51903972045E-01 -0.40025317233E-03  0.53814063653E-01  0.51100000000E-03 0.  1.
</event>
<event>
 8    1  0.1117354E+005  0.1043930E+01  0.7957747E-01            NaN
         13   -1    0    0    0    0  0.00000000000E+00  0.00000000000E+00  0.74505805969E-08  0.10566000000E+00  0.10566000000E+00 0. -1.
     999900   -1    0    0    0    0 -0.00000000000E+00 -0.00000000000E+00 -0.74505805969E-08  0.93827000000E+00  0.93827000000E+00 0. -1.
     999902    2    1    2    0    0  0.45514549604E-02  0.32019630360E-02 -0.20895895894E-01  0.10223057827E+01  0.10220770551E+01 0.  0.
     999903    2    3    3    0    0  0.96963010589E-01  0.44442833456E-01  0.74053833947E-01  0.13143196658E+00  0.20332256389E-01 0.  0.
         14    1    1    2    0    0 -0.45514549604E-02 -0.32019630360E-02  0.20895895894E-01  0.21624217321E-01  0.00000000000E+00 0. -1.
     999901    1    3    3    0    0 -0.92411555628E-01 -0.41240870420E-01 -0.94949729841E-01  0.89087381609E+00  0.88000000000E+00 0. -1.
        -11    1    4    4    0    0  0.18401890899E-01  0.11983456280E-01  0.25040424386E-01  0.33309409894E-01  0.51100000000E-03 0.  1.
         11    1    4    4    0    0  0.78561119690E-01  0.32459377176E-01  0.49013409561E-01  0.98122556690E-01  0.51100000000E-03 0. -1.
</event>
<event>
 8    1  0.1117354E+005  0.1043930E+01  0.7957747E-01            NaN
         13   -1    0    0    0    0  0.00000000000E+00  0.00000000000E+00  0.74505805969E-08  0.10566000000E+00  0.10566000000E+00 0. -1.
     999900   -1    0    0    0    0 -0.00000000000E+00 -0.00000000000E+00 -0.74505805969E-08  0.93827000000E+00  0.93827000000E+00 0. -1.
     999902    2    1    2    0    0  0.19338357923E-01 -0.87443037085E-02 -0.95710550887E-02  0.10206482468E+01  0.10203826752E+01 0.  0.
     999903    2    3    3    0    0 -0.87335678905E-01  0.63194171113E-01  0.65469736760E-01  0.12813179616E+00  0.22593067178E-01 0.  0.
         14    1    1    2    0    0 -0.19338357923E-01  0.87443037085E-02  0.95710550887E-02  0.23281753156E-01  0.00000000000E+00 0. -1.
     999901    1    3    3    0    0  0.10667403683E+00 -0.71938474821E-01 -0.75040791849E-01  0.89251645068E+00  0.88000000000E+00 0. -1.
        -11    1    4    4    0    0 -0.21353969420E-01  0.23839120092E-01  0.28555465494E-01  0.42894887659E-01  0.51100000000E-03 0. -1.
         11    1    4    4    0    0 -0.65981709485E-01  0.39355051021E-01  0.36914271266E-01  0.85236908505E-01  0.51100000000E-03 0.  1.
</event>
<event>
 8    1  0.1117354E+005  0.1043930E+01  0.7957747E-01            NaN
         13   -1    0    0    0    0  0.00000000000E+00  0.00000000000E+00  0.74505805969E-08  0.10566000000E+00  0.10566000000E+00 0. -1.
     999900   -1    0    0    0    0 -0.00000000000E+00 -0.00000000000E+00 -0.74505805969E-08  0.93827000000E+00  0.93827000000E+00 0.  1.
     999902    2    1    2    0    0  0.20410510047E-01 -0.95561165307E-02 -0.64718265051E-02  0.10204823387E+01  0.10202129242E+01 0.  0.
     999903    2    3    3    0    0  0.12263391061E+00  0.43653337330E-01  0.15796040861E-01  0.13268916032E+00  0.20302917725E-01 0.  0.
         14    1    1    2    0    0 -0.20410510047E-01  0.95561165307E-02  0.64718265051E-02  0.23447661330E-01  0.00000000000E+00 0. -1.
     999901    1    3    3    0    0 -0.10222340057E+00 -0.53209453861E-01 -0.22267867366E-01  0.88779317835E+00  0.88000000000E+00 0.  1.
        -11    1    4    4    0    0  0.39311798470E-01  0.47790896247E-02  0.80778270753E-02  0.40419915980E-01  0.51100000000E-03 0. -1.
         11    1    4    4    0    0  0.83322112143E-01  0.38874247705E-01  0.77182137852E-02  0.92269244343E-01  0.51100000000E-03 0.  1.
</event>
<event>
 8    1  0.1117354E+005  0.1043930E+01  0.7957747E-01            NaN
         13   -1    0    0    0    0  0.00000000000E+00  0.00000000000E+00  0.74505805969E-08  0.10566000000E+00  0.10566000000E+00 0. -1.
     999900   -1    0    0    0    0 -0.00000000000E+00 -0.00000000000E+00 -0.74505805969E-08  0.93827000000E+00  0.93827000000E+00 0.  1.
     999902    2    1    2    0    0 -0.17222001715E-01  0.11446690009E-01  0.10892954551E-01  0.10205573554E+01  0.10202896820E+01 0.  0.
     999903    2    3    3    0    0  0.94875344539E-01 -0.83246633969E-01 -0.10387823017E-01  0.12815301202E+00  0.19594758355E-01 0.  0.
         14    1    1    2    0    0  0.17222001715E-01 -0.11446690009E-01 -0.10892954551E-01  0.23372644567E-01  0.00000000000E+00 0.  1.
     999901    1    3    3    0    0 -0.11209734625E+00  0.94693323977E-01  0.21280777568E-01  0.89240434341E+00  0.88000000000E+00 0. -1.
        -11    1    4    4    0    0  0.53634396379E-02 -0.11555431350E-01 -0.36957931734E-02  0.13274580469E-01  0.51100000000E-03 0.  1.
         11    1    4    4    0    0  0.89511904901E-01 -0.71691202618E-01 -0.66920298437E-02  0.11487843155E+00  0.51100000000E-03 0. -1.
</event>
<event>
 8    1  0.1117354E+005  0.1043930E+01  0.7957747E-01            NaN
         13   -1    0    0    0    0  0.00000000000E+00  0.00000000000E+00  0.74505805969E-08  0.10566000000E+00  0.10566000000E+00 0.  1.
     999900   -1    0    0    0    0 -0.00000000000E+00 -0.00000000000E+00 -0.74505805969E-08  0.93827000000E+00  0.93827000000E+00 0.  1.
     999902    2    1    2    0    0 -0.16883028556E-01 -0.48299027362E-02  0.13966331584E-01  0.10214929095E+01  0.10212464644E+01 0.  0.
     999903    2    3    3    0    0  0.11124551847E+00 -0.59703354812E-01  0.25513139074E-01  0.13044782134E+00  0.20631477695E-01 0.  0.
         14    1    1    2    0    0  0.16883028556E-01  0.48299027362E-02 -0.13966331584E-01  0.22437090533E-01  0.00000000000E+00 0. -1.
     999901    1    3    3    0    0 -0.12812854703E+00  0.54873452076E-01 -0.11546807490E-01  0.89104508812E+00  0.88000000000E+00 0. -1.
        -11    1    4    4    0    0  0.83701384385E-01 -0.47424217132E-01  0.10556701539E-01  0.96781626287E-01  0.51100000000E-03 0. -1.
         11    1    4    4    0    0  0.27544134088E-01 -0.12279137680E-01  0.14956437535E-01  0.33666195056E-01  0.51100000000E-03 0.  1.
</event>
<event>
 8    1  0.1117354E+005  0.1043930E+01  0.7957747E-01            NaN
         13   -1    0    0    0    0  0.00000000000E+00  0.00000000000E+00  0.74505805969E-08  0.10566000000E+00  0.10566000000E+00 0. -1.
     999900   -1    0    0    0    0 -0.00000000000E+00 -0.00000000000E+00 -0.74505805969E-08  0.93827000000E+00  0.93827000000E+00 0. -1.
     999902    2    1    2    0    0 -0.10923557949E-01 -0.69178196573E-02  0.18718047167E-01  0.10211803706E+01  0.10209269336E+01 0.  0.
     999903    2    3    3    0    0  0.35116514052E-01 -0.11825541231E+00 -0.39398226677E-01  0.13107181036E+00  0.20250607573E-01 0.  0.
         14    1    1    2    0    0  0.10923557949E-01  0.69178196573E-02 -0.18718047167E-01  0.22749629377E-01  0.00000000000E+00 0.  1.
     999901    1    3    3    0    0 -0.46040072000E-01  0.11133759265E+00  0.58116273844E-01  0.89010856026E+00  0.88000000000E+00 0.  1.
        -11    1    4    4    0    0  0.34244884872E-01 -0.92426303489E-01 -0.25914078619E-01  0.10191729151E+00  0.51100000000E-03 0. -1.
         11    1    4    4    0    0  0.87162917997E-03 -0.25829108818E-01 -0.13484148058E-01  0.29154518854E-01  0.51100000000E-03 0.  1.
</event>
<event>
 8    1  0.1117354E+005  0.1043930E+01  0.7957747E-01            NaN
         13   -1    0    0    0    0  0.00000000000E+00  0.00000000000E+00  0.74505805969E-08  0.10566000000E+00  0.10566000000E+00 0. -1.
     999900   -1    0    0    0    0 -0.00000000000E+00 -0.00000000000E+00 -0.74505805969E-08  0.93827000000E+00  0.93827000000E+00 0. -1.
     999902    2    1    2    0    0  0.79570399093E-02 -0.86271020351E-02 -0.19938298838E-01  0.10207939430E+01  0.10205317226E+01 0.  0.
     999903    2    3    3    0    0 -0.12774414721E+00 -0.15353558808E-01 -0.12318972913E-02  0.13017057317E+00  0.19711966729E-01 0.  0.
         14    1    1    2    0    0 -0.79570399093E-02  0.86271020351E-02  0.19938298838E-01  0.23136057015E-01  0.00000000000E+00 0. -1.
     999901    1    3    3    0    0  0.13570118712E+00  0.67264567728E-02 -0.18706401547E-01  0.89062336982E+00  0.88000000000E+00 0. -1.
        -11    1    4    4    0    0 -0.12087020933E+00 -0.13158657162E-01 -0.56102819210E-02  0.12171480660E+00  0.51100000000E-03 0. -1.
         11    1    4    4    0    0 -0.68739378883E-02 -0.21949016462E-02  0.43783846297E-02  0.84557665704E-02  0.51100000000E-03 0.  1.
</event>
<event>
 8    1  0.1117354E+005  0.1043930E+01  0.7957747E-01            NaN
         13   -1    0    0    0    0  0.00000000000E+00  0.00000000000E+00  0.74505805969E-08  0.10566000000E+00  0.10566000000E+00 0.  1.
     999900   -1    0    0    0    0 -0.00000000000E+00 -0.00000000000E+00 -0.74505805969E-08  0.93827000000E+00  0.93827000000E+00 0. -1.
     999902    2    1    2    0    0  0.19844754068E-01 -0.55832626500E-02 -0.83184871094E-02  0.10216997433E+01  0.10214578705E+01 0.  0.
     999903    2    3    3    0    0  0.10390399402E+00  0.10407223058E-01 -0.82424193008E-01  0.13444932367E+00  0.19455661874E-01 0.  0.
         14    1    1    2    0    0 -0.19844754068E-01  0.55832626500E-02  0.83184871094E-02  0.22230256715E-01  0.00000000000E+00 0. -1.
     999901    1    3    3    0    0 -0.84059239948E-01 -0.15990485708E-01  0.74105705898E-01  0.88725041961E+00  0.88000000000E+00 0.  1.
        -11    1    4    4    0    0  0.51882735360E-01  0.14847327565E-01 -0.43741248352E-01  0.69468117095E-01  0.51100000000E-03 0. -1.
         11    1    4    4    0    0  0.52021258656E-01 -0.44401045071E-02 -0.38682944655E-01  0.64981206578E-01  0.51100000000E-03 0.  1.
</event>
<event>
 8    1  0.1117354E+005  0.1043930E+01  0.7957747E-01            NaN
         13   -1    0    0    0    0  0.00000000000E+00  0.00000000000E+00  0.74505805969E-08  0.10566000000E+00  0.10566000000E+00 0. -1.
     999900   -1    0    0    0    0 -0.00000000000E+00 -0.00000000000E+00 -0.74505805969E-08  0.93827000000E+00  0.93827000000E+00 0.  1.
     999902    2    1    2    0    0  0.39150213241E-03 -0.23300995386E-01 -0.10419246013E-02  0.10206024355E+01  0.10203358055E+01 0.  0.
     999903    2    3    3    0    0  0.12653421156E+00 -0.29003377759E-01  0.39398024732E-02  0.13157526046E+00  0.21081378140E-01 0.  0.
         14    1    1    2    0    0 -0.39150213241E-03  0.23300995386E-01  0.10419246013E-02  0.23327564527E-01  0.00000000000E+00 0.  1.
     999901    1    3    3    0    0 -0.12614270943E+00  0.57023823729E-02 -0.49817270746E-02  0.88902717501E+00  0.88000000000E+00 0. -1.
        -11    1    4    4    0    0  0.69291265266E-01 -0.24748819983E-01 -0.36604879572E-02  0.73671187216E-01  0.51100000000E-03 0. -1.
         11    1    4    4    0    0  0.57242946297E-01 -0.42545577757E-02  0.76002904304E-02  0.57904073244E-01  0.51100000000E-03 0.  1.
</event>
<event>
 8    1  0.1117354E+005  0.1043930E+01  0.7957747E-01            NaN
         13   -1    0    0    0    0  0.00000000000E+00  0.00000000000E+00  0.74505805969E-08  0.10566000000E+00  0.10566000000E+00 0. -1.
     999900   -1    0    0    0    0 -0.00000000000E+00 -0.00000000000E+00 -0.74505805969E-08  0.93827000000E+00  0.93827000000E+00 0. -1.
     999902    2    1    2    0    0 -0.17649436900E-01 -0.15001136611E-01  0.24587146020E-02  0.10206366104E+01  0.10203707701E+01 0.  0.
     999903    2    3    3    0    0  0.86622173836E-01  0.65783591633E-03 -0.93648133284E-01  0.12914667862E+00  0.20126052312E-01 0.  0.
         14    1    1    2    0    0  0.17649436900E-01  0.15001136611E-01 -0.24587146020E-02  0.23293389620E-01  0.00000000000E+00 0. -1.
     999901    1    3    3    0    0 -0.10427161074E+00 -0.15658972527E-01  0.96106847886E-01  0.89148993176E+00  0.88000000000E+00 0.  1.
        -11    1    4    4    0    0  0.28184673257E-01  0.89752733668E-02 -0.36537920452E-01  0.47012892812E-01  0.51100000000E-03 0.  1.
         11    1    4    4    0    0  0.58437500579E-01 -0.83174374504E-02 -0.57110212832E-01  0.82133785804E-01  0.51100000000E-03 0. -1.
</event>
<event>
 8    1  0.1117354E+005  0.1043930E+01  0.7957747E-01            NaN
         13   -1    0    0    0    0  0.00000000000E+00  0.00000000000E+00  0.74505805969E-08  0.10566000000E+00  0.10566000000E+00 0.  1.
     999900   -1    0    0    0    0 -0.00000000000E+00 -0.00000000000E+00 -0.74505805969E-08  0.93827000000E+00  0.93827000000E+00 0.  1.
     999902    2    1    2    0    0 -0.16964408901E-01  0.12521062591E-01  0.91899148530E-02  0.10209295062E+01  0.10206703846E+01 0.  0.
     999903    2    3    3    0    0  0.44345254335E-02 -0.11581802610E+00  0.55399189914E-01  0.13016346897E+00  0.20975657898E-01 0.  0.
         14    1    1    2    0    0  0.16964408901E-01 -0.12521062591E-01 -0.91899148530E-02  0.23000493751E-01  0.00000000000E+00 0.  1.
     999901    1    3    3    0    0 -0.21398934335E-01  0.12833908869E+00 -0.46209275061E-01  0.89076603728E+00  0.88000000000E+00 0.  1.
        -11    1    4    4    0    0 -0.62148802348E-02 -0.79620699442E-01  0.41008435727E-01  0.89777688975E-01  0.51100000000E-03 0.  1.
         11    1    4    4    0    0  0.10649405668E-01 -0.36197326659E-01  0.14390754187E-01  0.40385779990E-01  0.51100000000E-03 0. -1.
</event>
<event>
 8    1  0.1117354E+005  0.1043930E+01  0.7957747E-01            NaN
         13   -1    0    0    0    0  0.00000000000E+00  0.00000000000E+00  0.74505805969E-08  0.10566000000E+00  0.10566000000E+00 0.  1.
     999900   -1    0    0    0    0 -0.00000000000E+00 -0.00000000000E+00 -0.74505805969E-08  0.93827000000E+00  0.93827000000E+00 0. -1.
     999902    2    1    2    0    0  0.95735649773E-02  0.20573579065E-01  0.76862744873E-02  0.10199716170E+01  0.10196901957E+01 0.  0.
     999903    2    3    3    0    0  0.45123410872E-01 -0.56914212116E-01 -0.10377603363E+00  0.12885322110E+00  0.23629170142E-01 0.  0.
         14    1    1    2    0    0 -0.95735649773E-02 -0.20573579065E-01 -0.76862744873E-02  0.23958383030E-01  0.00000000000E+00 0.  1.
     999901    1    3    3    0    0 -0.35549845895E-01  0.77487791181E-01  0.11146230812E+00  0.89111839587E+00  0.88000000000E+00 0.  1.
        -11    1    4    4    0    0  0.21880855679E-01 -0.36579931700E-01 -0.76836632088E-01  0.87869177759E-01  0.51100000000E-03 0.  1.
         11    1    4    4    0    0  0.23242555193E-01 -0.20334280416E-01 -0.26939401546E-01  0.40984043341E-01  0.51100000000E-03 0. -1.
</event>
<event>
 8    1  0.1117354E+005  0.1043930E+01  0.7957747E-01            NaN
         13   -1    0    0    0    0  0.00000000000E+00  0.00000000000E+00  0.74505805969E-08  0.10566000000E+00  0.10566000000E+00 0.  1.
     999900   -1    0    0    0    0 -0.00000000000E+00 -0.00000000000E+00 -0.74505805969E-08  0.93827000000E+00  0.93827000000E+00 0. -1.
     999902    2    1    2    0    0  0.93541947294E-02  0.51108269852E-02  0.20518779363E-01  0.10208076771E+01  0.10205457715E+01 0.  0.
     999903    2    3    3    0    0  0.96864777655E-01 -0.55541812910E-01 -0.64111322489E-01  0.13035885821E+00  0.20383623619E-01 0.  0.
         14    1    1    2    0    0 -0.93541947294E-02 -0.51108269852E-02 -0.20518779363E-01  0.23122322938E-01  0.00000000000E+00 0. -1.
     999901    1    3    3    0    0 -0.87510582926E-01  0.60652639895E-01  0.84630101852E-01  0.89044881885E+00  0.88000000000E+00 0.  1.
        -11    1    4    4    0    0  0.43280443676E-01 -0.28867732766E-01 -0.40817239042E-01  0.66127535292E-01  0.51100000000E-03 0.  1.
         11    1    4    4    0    0  0.53584333979E-01 -0.26674080144E-01 -0.23294083447E-01  0.64231322921E-01  0.51100000000E-03 0. -1.
</event>
<event>
 8    1  0.1117354E+005  0.1043930E+01  0.7957747E-01            NaN
         13   -1    0    0    0    0  0.00000000000E+00  0.00000000000E+00  0.74505805969E-08  0.10566000000E+00  0.10566000000E+00 0. -1.
     999900   -1    0    0    0    0 -0.00000000000E+00 -0.00000000000E+00 -0.74505805969E-08  0.93827000000E+00  0.93827000000E+00 0.  1.
     999902    2    1    2    0    0  0.20063396543E-01 -0.77506584474E-02 -0.19709073413E-02  0.10223314569E+01  0.10221032779E+01 0.  0.
     999903    2    3    3    0    0  0.12248235877E+00  0.10560353545E-01 -0.51237200044E-01  0.13483379238E+00  0.21010750122E-01 0.  0.
         14    1    1    2    0    0 -0.20063396543E-01  0.77506584474E-02  0.19709073413E-02  0.21598543075E-01  0.00000000000E+00 0. -1.
     999901    1    3    3    0    0 -0.10241896223E+00 -0.18311011993E-01  0.49266292702E-01  0.88749766455E+00  0.88000000000E+00 0. -1.
        -11    1    4    4    0    0  0.89180623286E-01  0.15957254345E-01 -0.41947304070E-01  0.99838143891E-01  0.51100000000E-03 0. -1.
         11    1    4    4    0    0  0.33301735486E-01 -0.53969008001E-02 -0.92898959733E-02  0.34995648484E-01  0.51100000000E-03 0.  1.
</event>
<event>
 8    1  0.1117354E+005  0.1043930E+01  0.7957747E-01            NaN
         13   -1    0    0    0    0  0.00000000000E+00  0.00000000000E+00  0.74505805969E-08  0.10566000000E+00  0.10566000000E+00 0. -1.
     999900   -1    0    0    0    0 -0.00000000000E+00 -0.00000000000E+00 -0.74505805969E-08  0.93827000000E+00  0.93827000000E+00 0.  1.
     999902    2    1    2    0    0 -0.82769379485E-02 -0.14132035911E-01 -0.17835830750E-01  0.10197155622E+01  0.10194280204E+01 0.  0.
     999903    2    3    3    0    0 -0.40368648399E-01 -0.86230320276E-01 -0.90877287666E-01  0.13316996554E+00  0.20254935170E-01 0.  0.
         14    1    1    2    0    0  0.82769379485E-02  0.14132035911E-01  0.17835830750E-01  0.24214437828E-01  0.00000000000E+00 0.  1.
     999901    1    3    3    0    0  0.32091710450E-01  0.72098284365E-01  0.73041456916E-01  0.88654559664E+00  0.88000000000E+00 0. -1.
        -11    1    4    4    0    0 -0.26147708976E-01 -0.38747935613E-01 -0.34499156749E-01  0.58099553668E-01  0.51100000000E-03 0.  1.
         11    1    4    4    0    0 -0.14220939423E-01 -0.47482384663E-01 -0.56378130916E-01  0.75070411868E-01  0.51100000000E-03 0. -1.
</event>
<event>
 8    1  0.1117354E+005  0.1043930E+01  0.7957747E-01            NaN
         13   -1    0    0    0    0  0.00000000000E+00  0.00000000000E+00  0.74505805969E-08  0.10566000000E+00  0.10566000000E+00 0. -1.
     999900   -1    0    0    0    0 -0.00000000000E+00 -0.00000000000E+00 -0.74505805969E-08  0.93827000000E+00  0.93827000000E+00 0. -1.
     999902    2    1    2    0    0  0.22045036184E-01  0.11763246338E-01 -0.35570752646E-02  0.10186909357E+01  0.10183782264E+01 0.  0.
     999903    2    3    3    0    0 -0.70080666021E-01 -0.69766998067E-01 -0.77342760683E-01  0.12707518145E+00  0.19684139357E-01 0.  0.
         14    1    1    2    0    0 -0.22045036184E-01 -0.11763246338E-01  0.35570752646E-02  0.25239064349E-01  0.00000000000E+00 0. -1.
     999901    1    3    3    0    0  0.92125702205E-01  0.81530244406E-01  0.73785685418E-01  0.89161575420E+00  0.88000000000E+00 0.  1.
        -11    1    4    4    0    0 -0.61178664109E-01 -0.62962275265E-01 -0.75328113780E-01  0.11567913768E+00  0.51100000000E-03 0.  1.
         11    1    4    4    0    0 -0.89020019121E-02 -0.68047228024E-02 -0.20146469028E-02  0.11396043770E-01  0.51100000000E-03 0. -1.
</event>
<event>
 8    1  0.1117354E+005  0.1043930E+01  0.7957747E-01            NaN
         13   -1    0    0    0    0  0.00000000000E+00  0.00000000000E+00  0.74505805969E-08  0.10566000000E+00  0.10566000000E+00 0.  1.
     999900   -1    0    0    0    0 -0.00000000000E+00 -0.00000000000E+00 -0.74505805969E-08  0.93827000000E+00  0.93827000000E+00 0.  1.
     999902    2    1    2    0    0  0.20102929172E-01  0.99680020481E-02 -0.32719842077E-02  0.10212541382E+01  0.10210023605E+01 0.  0.
     999903    2    3    3    0    0 -0.48258081225E-01  0.10933075364E-01  0.11877128977E+00  0.13020491410E+00  0.19958102160E-01 0.  0.
         14    1    1    2    0    0 -0.20102929172E-01 -0.99680020481E-02  0.32719842077E-02  0.22675861765E-01  0.00000000000E+00 0.  1.
     999901    1    3    3    0    0  0.68361010396E-01 -0.96507331608E-03 -0.12204327398E+00  0.89104922414E+00  0.88000000000E+00 0.  1.
        -11    1    4    4    0    0 -0.19304226226E-01  0.26767071633E-02  0.24912720728E-01  0.31634201214E-01  0.51100000000E-03 0. -1.
         11    1    4    4    0    0 -0.28953854999E-01  0.82563682009E-02  0.93858569042E-01  0.98570712886E-01  0.51100000000E-03 0.  1.
</event>
<event>
 8    1  0.1117354E+005  0.1043930E+01  0.7957747E-01            NaN
         13   -1    0    0    0    0  0.00000000000E+00  0.00000000000E+00  0.74505805969E-08  0.10566000000E+00  0.10566000000E+00 0.  1.
     999900   -1    0    0    0    0 -0.00000000000E+00 -0.00000000000E+00 -0.74505805969E-08  0.93827000000E+00  0.93827000000E+00 0.  1.
     999902    2    1    2    0    0 -0.70770731373E-03  0.20258850848E-01 -0.11127320603E-01  0.10208055724E+01  0.10205436186E+01 0.  0.
     999903    2    3    3    0    0  0.53169826779E-01 -0.91806863548E-01  0.69500643627E-01  0.12841418875E+00  0.20108051460E-01 0.  0.
         14    1    1    2    0    0  0.70770731373E-03 -0.20258850848E-01  0.11127320603E-01  0.23124427585E-01  0.00000000000E+00 0.  1.
     999901    1    3    3    0    0 -0.53877534093E-01  0.11206571440E+00 -0.80627964230E-01  0.89239138366E+00  0.88000000000E+00 0.  1.
        -11    1    4    4    0    0  0.20847627272E-01 -0.42423033881E-01  0.42262290006E-01  0.63408987092E-01  0.51100000000E-03 0. -1.
         11    1    4    4    0    0  0.32322199507E-01 -0.49383829668E-01  0.27238353621E-01  0.65005201658E-01  0.51100000000E-03 0.  1.
</event>
<event>
 8    1  0.1117354E+005  0.1043930E+01  0.7957747E-01            NaN
         13   -1    0    0    0    0  0.00000000000E+00  0.00000000000E+00  0.74505805969E-08  0.10566000000E+00  0.10566000000E+00 0. -1.
     999900   -1    0    0    0    0 -0.00000000000E+00 -0.00000000000E+00 -0.74505805969E-08  0.93827000000E+00  0.93827000000E+00 0.  1.
     999902    2    1    2    0    0  0.85048341011E-02 -0.10339431241E-01  0.18586301837E-01  0.10210239602E+01  0.10207669865E+01 0.  0.
     999903    2    3    3    0    0 -0.25361144527E-01 -0.59050756991E-01 -0.11032722587E+00  0.12965512783E+00  0.22542756095E-01 0.  0.
         14    1    1    2    0    0 -0.85048341011E-02  0.10339431241E-01 -0.18586301837E-01  0.22906039759E-01  0.00000000000E+00 0. -1.
     999901    1    3    3    0    0  0.33865978628E-01  0.48711325750E-01  0.12891352771E+00  0.89136883241E+00  0.88000000000E+00 0. -1.
        -11    1    4    4    0    0 -0.22355549864E-01 -0.56609525927E-01 -0.88059030724E-01  0.10704701326E+00  0.51100000000E-03 0.  1.
         11    1    4    4    0    0 -0.30055946632E-02 -0.24412310638E-02 -0.22268195144E-01  0.22608114569E-01  0.51100000000E-03 0. -1.
</event>
<event>
 8    1  0.1117354E+005  0.1043930E+01  0.7957747E-01            NaN
         13   -1    0    0    0    0  0.00000000000E+00  0.00000000000E+00  0.74505805969E-08  0.10566000000E+00  0.10566000000E+00 0. -1.
     999900   -1    0    0    0    0 -0.00000000000E+00 -0.00000000000E+00 -0.74505805969E-08  0.93827000000E+00  0.93827000000E+00 0. -1.
     999902    2    1    2    0    0 -0.89314621616E-02 -0.19589444612E-01  0.17763279320E-01  0.10160185069E+01  0.10156350500E+01 0.  0.
     999903    2    3    3    0    0 -0.81220488284E-01  0.51707934884E-01 -0.77330740113E-01  0.12509096091E+00  0.19930551610E-01 0.  0.
         14    1    1    2    0    0  0.89314621616E-02  0.19589444612E-01 -0.17763279320E-01  0.27911493130E-01  0.00000000000E+00 0.  1.
     999901    1    3    3    0    0  0.72289026123E-01 -0.71297379496E-01  0.95094019433E-01  0.89092754596E+00  0.88000000000E+00 0.  1.
        -11    1    4    4    0    0 -0.57777625297E-01  0.43413080952E-01 -0.48615642766E-01  0.87101615515E-01  0.51100000000E-03 0.  1.
         11    1    4    4    0    0 -0.23442862987E-01  0.82948539319E-02 -0.28715097348E-01  0.37989345394E-01  0.51100000000E-03 0. -1.
</event>
<event>
 8    1  0.1117354E+005  0.1043930E+01  0.7957747E-01            NaN
         13   -1    0    0    0    0  0.00000000000E+00  0.00000000000E+00  0.74505805969E-08  0.10566000000E+00  0.10566000000E+00 0. -1.
     999900   -1    0    0    0    0 -0.00000000000E+00 -0.00000000000E+00 -0.74505805969E-08  0.93827000000E+00  0.93827000000E+00 0. -1.
     999902    2    1    2    0    0 -0.58813966405E-02 -0.11933272588E-01 -0.19955660773E-01  0.10199462093E+01  0.10196641837E+01 0.  0.
     999903    2    3    3    0    0  0.28007148539E-02 -0.22165156522E-01 -0.12961906200E+00  0.13303802232E+00  0.19971879746E-01 0.  0.
         14    1    1    2    0    0  0.58813966405E-02  0.11933272588E-01  0.19955660773E-01  0.23983790734E-01  0.00000000000E+00 0. -1.
     999901    1    3    3    0    0 -0.86821114944E-02  0.10231883934E-01  0.10966340123E+00  0.88690818695E+00  0.88000000000E+00 0.  1.
        -11    1    4    4    0    0 -0.44916998573E-02 -0.20574088501E-01 -0.11083311685E+00  0.11281715028E+00  0.51100000000E-03 0.  1.
         11    1    4    4    0    0  0.72924147112E-02 -0.15910680205E-02 -0.18785945149E-01  0.20220872036E-01  0.51100000000E-03 0. -1.
</event>
<event>
 8    1  0.1117354E+005  0.1043930E+01  0.7957747E-01            NaN
         13   -1    0    0    0    0  0.00000000000E+00  0.00000000000E+00  0.74505805969E-08  0.10566000000E+00  0.10566000000E+00 0. -1.
     999900   -1    0    0    0    0 -0.00000000000E+00 -0.00000000000E+00 -0.74505805969E-08  0.93827000000E+00  0.93827000000E+00 0.  1.
     999902    2    1    2    0    0 -0.20960696317E-01 -0.40967660979E-02 -0.10694564565E-01  0.10200446908E+01  0.10197650040E+01 0.  0.
     999903    2    3    3    0    0  0.10453229639E+00 -0.55349302968E-01 -0.47332732195E-01  0.12891188980E+00  0.19680992575E-01 0.  0.
         14    1    1    2    0    0  0.20960696317E-01  0.40967660979E-02  0.10694564565E-01  0.23885309162E-01  0.00000000000E+00 0. -1.
     999901    1    3    3    0    0 -0.12549299270E+00  0.51252536870E-01  0.36638167630E-01  0.89113280103E+00  0.88000000000E+00 0. -1.
        -11    1    4    4    0    0  0.27384850209E-01 -0.52545731129E-02 -0.97510864323E-02  0.29544633475E-01  0.51100000000E-03 0. -1.
         11    1    4    4    0    0  0.77147446177E-01 -0.50094729855E-01 -0.37581645763E-01  0.99367256328E-01  0.51100000000E-03 0.  1.
</event>
<event>
 8    1  0.1117354E+005  0.1043930E+01  0.7957747E-01            NaN
         13   -1    0    0    0    0  0.00000000000E+00  0.00000000000E+00  0.74505805969E-08  0.10566000000E+00  0.10566000000E+00 0. -1.
     999900   -1    0    0    0    0 -0.00000000000E+00 -0.00000000000E+00 -0.74505805969E-08  0.93827000000E+00  0.93827000000E+00 0.  1.
     999902    2    1    2    0    0  0.19648270890E-01  0.97349525321E-02  0.94515816820E-02  0.10200520552E+01  0.10197725428E+01 0.  0.
     999903    2    3    3    0    0  0.14564877918E-01 -0.84403383431E-01  0.96999700596E-01  0.13069692915E+00  0.18348802929E-01 0.  0.
         14    1    1    2    0    0 -0.19648270890E-01 -0.97349525321E-02 -0.94515816820E-02  0.23877944762E-01  0.00000000000E+00 0.  1.
     999901    1    3    3    0    0  0.50833929723E-02  0.94138335963E-01 -0.87548118914E-01  0.88935512609E+00  0.88000000000E+00 0.  1.
        -11    1    4    4    0    0  0.12563982508E-01 -0.30488980659E-01  0.29199968077E-01  0.44049186767E-01  0.51100000000E-03 0. -1.
         11    1    4    4    0    0  0.20008954098E-02 -0.53914402771E-01  0.67799732519E-01  0.86647742378E-01  0.51100000000E-03 0.  1.
</event>
<event>
 7    1  0.1117354E+005  0.1043930E+01  0.7957747E-01            NaN
         13   -1    0    0    0    0  0.00000000000E+00  0.00000000000E+00  0.74505805969E-08  0.10566000000E+00  0.10566000000E+00 0.  1.
     999900   -1    0    0    0    0 -0.00000000000E+00 -0.00000000000E+00 -0.74505805969E-08  0.93827000000E+00  0.93827000000E+00 0. -1.
     999902    2    1    2    0    0  0.15534814365E-01  0.21859111480E-01 -0.50279348875E-02  0.10166457309E+01  0.10162795436E+01 0.  0.
         14    1    1    2    0    0 -0.15534814365E-01 -0.21859111480E-01  0.50279348875E-02  0.27284269118E-01  0.00000000000E+00 0. -1.
     999901    1    3    3    0    0 -0.68669394093E-01  0.95197390381E-01  0.35438968168E-01  0.88850095627E+00  0.88000000000E+00 0.  1.
        -11    1    3    3    0    0  0.39138973956E-01 -0.35808505306E-01  0.59055320969E-02  0.53378317367E-01  0.51100000000E-03 0. -1.
         11    1    3    3    0    0  0.45065234501E-01 -0.37529773595E-01 -0.46372435152E-01  0.74766457250E-01  0.51100000000E-03 0.  1.
</event>
<event>
 8    1  0.1117354E+005  0.1043930E+01  0.7957747E-01            NaN
         13   -1    0    0    0    0  0.00000000000E+00  0.00000000000E+00  0.74505805969E-08  0.10566000000E+00  0.10566000000E+00 0. -1.
     999900   -1    0    0    0    0 -0.00000000000E+00 -0.00000000000E+00 -0.74505805969E-08  0.93827000000E+00  0.93827000000E+00 0. -1.
     999902    2    1    2    0    0 -0.21613355133E-01  0.79672719397E-02  0.89505630945E-02  0.10192171062E+01  0.10189174561E+01 0.  0.
     999903    2    3    3    0    0 -0.56276765359E-01 -0.17321761780E-01  0.11606523425E+00  0.13168421099E+00  0.20061781371E-01 0.  0.
         14    1    1    2    0    0  0.21613355133E-01 -0.79672719397E-02 -0.89505630945E-02  0.24712893841E-01  0.00000000000E+00 0.  1.
     999901    1    3    3    0    0  0.34663410226E-01  0.25289033720E-01 -0.10711467115E+00  0.88753289517E+00  0.88000000000E+00 0. -1.
        -11    1    4    4    0    0 -0.52367871269E-01 -0.19520445248E-01  0.95702798355E-01  0.11082747158E+00  0.51100000000E-03 0.  1.
         11    1    4    4    0    0 -0.39088940905E-02  0.21986834676E-02  0.20362435893E-01  0.20856739403E-01  0.51100000000E-03 0. -1.
</event>
<event>
 8    1  0.1117354E+005  0.1043930E+01  0.7957747E-01            NaN
         13   -1    0    0    0    0  0.00000000000E+00  0.00000000000E+00  0.74505805969E-08  0.10566000000E+00  0.10566000000E+00 0. -1.
     999900   -1    0    0    0    0 -0.00000000000E+00 -0.00000000000E+00 -0.74505805969E-08  0.93827000000E+00  0.93827000000E+00 0. -1.
     999902    2    1    2    0    0 -0.21803566702E-01  0.97963629217E-02  0.80250288482E-03  0.10200133059E+01  0.10197328748E+01 0.  0.
     999903    2    3    3    0    0  0.71144854394E-01  0.85838747082E-01 -0.63385435706E-01  0.12954042889E+00  0.18251806747E-01 0.  0.
         14    1    1    2    0    0  0.21803566702E-01 -0.97963629217E-02 -0.80250288482E-03  0.23916694134E-01  0.00000000000E+00 0. -1.
     999901    1    3    3    0    0 -0.92948421095E-01 -0.76042384161E-01  0.64187938591E-01  0.89047287698E+00  0.88000000000E+00 0. -1.
        -11    1    4    4    0    0  0.33900495741E-01  0.34069953424E-01 -0.36386617510E-01  0.60284760865E-01  0.51100000000E-03 0.  1.
         11    1    4    4    0    0  0.37244358652E-01  0.51768793659E-01 -0.26998818197E-01  0.69255668023E-01  0.51100000000E-03 0. -1.
</event>
<event>
 8    1  0.1117354E+005  0.1043930E+01  0.7957747E-01            NaN
         13   -1    0    0    0    0  0.00000000000E+00  0.00000000000E+00  0.74505805969E-08  0.10566000000E+00  0.10566000000E+00 0.  1.
     999900   -1    0    0    0    0 -0.00000000000E+00 -0.00000000000E+00 -0.74505805969E-08  0.93827000000E+00  0.93827000000E+00 0. -1.
     999902    2    1    2    0    0 -0.10748677640E-01  0.58298814892E-02  0.18470181762E-01  0.10217789458E+01  0.10215388122E+01 0.  0.
     999903    2    3    3    0    0  0.10569124534E+00  0.85073420061E-02  0.76354422971E-01  0.13221949872E+00  0.20223346022E-01 0.  0.
         14    1    1    2    0    0  0.10748677640E-01 -0.58298814892E-02 -0.18470181762E-01  0.22151054230E-01  0.00000000000E+00 0. -1.
     999901    1    3    3    0    0 -0.11643992298E+00 -0.26774605169E-02 -0.57884241210E-01  0.88955944705E+00  0.88000000000E+00 0. -1.
        -11    1    4    4    0    0  0.51764786175E-01  0.71273758740E-02  0.49417091726E-01  0.71921503393E-01  0.51100000000E-03 0.  1.
         11    1    4    4    0    0  0.53926459166E-01  0.13799661321E-02  0.26937331245E-01  0.60297995326E-01  0.51100000000E-03 0. -1.
</event>
<event>
 8    1  0.1117354E+005  0.1043930E+01  0.7957747E-01            NaN
         13   -1    0    0    0    0  0.00000000000E+00  0.00000000000E+00  0.74505805969E-08  0.10566000000E+00  0.10566000000E+00 0. -1.
     999900   -1    0    0    0    0 -0.00000000000E+00 -0.00000000000E+00 -0.74505805969E-08  0.93827000000E+00  0.93827000000E+00 0.  1.
     999902    2    1    2    0    0 -0.26466961287E-01 -0.59325421648E-02  0.60741445249E-02  0.10161344909E+01  0.10157542583E+01 0.  0.
     999903    2    3    3    0    0  0.33232988487E-01 -0.11909028180E+00 -0.15000653550E-01  0.12663299837E+00  0.22890389398E-01 0.  0.
         14    1    1    2    0    0  0.26466961287E-01  0.59325421648E-02 -0.60741445249E-02  0.27795509134E-01  0.00000000000E+00 0.  1.
     999901    1    3    3    0    0 -0.59699949774E-01  0.11315773963E+00  0.21074798075E-01  0.88950149250E+00  0.88000000000E+00 0. -1.
        -11    1    4    4    0    0  0.25483329694E-01 -0.65858385600E-01  0.59976981010E-03  0.70621157530E-01  0.51100000000E-03 0. -1.
         11    1    4    4    0    0  0.77496587931E-02 -0.53231896196E-01 -0.15600423360E-01  0.56011840838E-01  0.51100000000E-03 0.  1.
</event>
<event>
 8    1  0.1117354E+005  0.1043930E+01  0.7957747E-01            NaN
         13   -1    0    0    0    0  0.00000000000E+00  0.00000000000E+00  0.74505805969E-08  0.10566000000E+00  0.10566000000E+00 0.  1.
     999900   -1    0    0    0    0 -0.00000000000E+00 -0.00000000000E+00 -0.74505805969E-08  0.93827000000E+00  0.93827000000E+00 0. -1.
     999902    2    1    2    0    0 -0.45757587189E-02  0.84745944445E-02  0.17276437361E-01  0.10241504245E+01  0.10239594037E+01 0.  0.
     999903    2    3    3    0    0  0.85385224459E-01 -0.97634221234E-01  0.23131652913E-01  0.13320354460E+00  0.19622263287E-01 0.  0.
         14    1    1    2    0    0  0.45757587189E-02 -0.84745944445E-02 -0.17276437361E-01  0.19779575494E-01  0.00000000000E+00 0. -1.
     999901    1    3    3    0    0 -0.89960983178E-01  0.10610881568E+00 -0.58552155525E-02  0.89094687990E+00  0.88000000000E+00 0. -1.
        -11    1    4    4    0    0  0.26110238717E-01 -0.31090150812E-01 -0.18684925576E-02  0.40645964484E-01  0.51100000000E-03 0.  1.
         11    1    4    4    0    0  0.59274985742E-01 -0.66544070421E-01  0.25000145471E-01  0.92557580119E-01  0.51100000000E-03 0. -1.
</event>
<event>
 8    1  0.1117354E+005  0.1043930E+01  0.7957747E-01            NaN
         13   -1    0    0    0    0  0.00000000000E+00  0.00000000000E+00  0.74505805969E-08  0.10566000000E+00  0.10566000000E+00 0.  1.
     999900   -1    0    0    0    0 -0.00000000000E+00 -0.00000000000E+00 -0.74505805969E-08  0.93827000000E+00  0.93827000000E+00 0.  1.
     999902    2    1    2    0    0  0.71002176325E-02  0.22036252013E-01 -0.11336208968E-01  0.10181517315E+01  0.10178253432E+01 0.  0.
     999903    2    3    3    0    0 -0.12119726902E+00  0.35494830525E-01  0.12567727114E-01  0.12842549463E+00  0.19659575110E-01 0.  0.
         14    1    1    2    0    0 -0.71002176325E-02 -0.22036252013E-01  0.11336208968E-01  0.25778268502E-01  0.00000000000E+00 0. -1.
     999901    1    3    3    0    0  0.12829748665E+00 -0.13458578512E-01 -0.23903936082E-01  0.88972623687E+00  0.88000000000E+00 0. -1.
        -11    1    4    4    0    0 -0.27642159580E-01  0.16957685371E-01  0.33572817340E-02  0.32606510715E-01  0.51100000000E-03 0. -1.
         11    1    4    4    0    0 -0.93555109440E-01  0.18537145154E-01  0.92104453796E-02  0.95818983911E-01  0.51100000000E-03 0.  1.
</event>
<event>
 8    1  0.1117354E+005  0.1043930E+01  0.7957747E-01            NaN
         13   -1    0    0    0    0  0.00000000000E+00  0.00000000000E+00  0.74505805969E-08  0.10566000000E+00  0.10566000000E+00 0.  1.
     999900   -1    0    0    0    0 -0.00000000000E+00 -0.00000000000E+00 -0.74505805969E-08  0.93827000000E+00  0.93827000000E+00 0. -1.
     999902    2    1    2    0    0  0.12510267140E-01  0.57507661356E-02 -0.19557574942E-01  0.10200118723E+01  0.10197314072E+01 0.  0.
     999903    2    3    3    0    0 -0.49574526442E-01 -0.11200136985E+00 -0.37963428512E-01  0.12981028694E+00  0.20187822355E-01 0.  0.
         14    1    1    2    0    0 -0.12510267140E-01 -0.57507661356E-02  0.19557574942E-01  0.23918127700E-01  0.00000000000E+00 0.  1.
     999901    1    3    3    0    0  0.62084793582E-01  0.11775213599E+00  0.18405853569E-01  0.89020158536E+00  0.88000000000E+00 0.  1.
        -11    1    4    4    0    0 -0.24404011866E-01 -0.65053305392E-01 -0.11862061479E-01  0.70487289359E-01  0.51100000000E-03 0. -1.
         11    1    4    4    0    0 -0.25170514575E-01 -0.46948064460E-01 -0.26101367032E-01  0.59322997585E-01  0.51100000000E-03 0.  1.
</event>
<event>
 8    1  0.1117354E+005  0.1043930E+01  0.7957747E-01            NaN
         13   -1    0    0    0    0  0.00000000000E+00  0.00000000000E+00  0.74505805969E-08  0.10566000000E+00  0.10566000000E+00 0.  1.
     999900   -1    0    0    0    0 -0.00000000000E+00 -0.00000000000E+00 -0.74505805969E-08  0.93827000000E+00  0.93827000000E+00 0. -1.
     999902    2    1    2    0    0 -0.17030570932E-01 -0.16702656737E-01 -0.36778890074E-02  0.10197940112E+01  0.10195083518E+01 0.  0.
     999903    2    3    3    0    0 -0.99040521283E-01  0.57849273443E-01  0.59135856808E-01  0.13062069349E+00  0.20227523641E-01 0.  0.
         14    1    1    2    0    0  0.17030570932E-01  0.16702656737E-01  0.36778890074E-02  0.24135988811E-01  0.00000000000E+00 0. -1.
     999901    1    3    3    0    0  0.82009950351E-01 -0.74551930180E-01 -0.62813745815E-01  0.88917331770E+00  0.88000000000E+00 0. -1.
        -11    1    4    4    0    0 -0.87142515717E-01  0.57776458984E-01  0.52900666616E-01  0.11717797962E+00  0.51100000000E-03 0.  1.
         11    1    4    4    0    0 -0.11898005566E-01  0.72814459143E-04  0.62351901916E-02  0.13442713868E-01  0.51100000000E-03 0. -1.
</event>
<event>
 8    1  0.1117354E+005  0.1043930E+01  0.7957747E-01            NaN
         13   -1    0    0    0    0  0.00000000000E+00  0.00000000000E+00  0.74505805969E-08  0.10566000000E+00  0.10566000000E+00 0.  1.
     999900   -1    0    0    0    0 -0.00000000000E+00 -0.00000000000E+00 -0.74505805969E-08  0.93827000000E+00  0.93827000000E+00 0.  1.
     999902    2    1    2    0    0 -0.57662760950E-02 -0.23797458885E-01  0.11419968362E-02  0.10194172860E+01  0.10191225294E+01 0.  0.
     999903    2    3    3    0    0  0.20576045017E-01  0.67519423301E-02 -0.12602645108E+00  0.12936167095E+00  0.19565612274E-01 0.  0.
         14    1    1    2    0    0  0.57662760950E-02  0.23797458885E-01 -0.11419968362E-02  0.24512713969E-01  0.00000000000E+00 0.  1.
     999901    1    3    3    0    0 -0.26342321112E-01 -0.30549401215E-01  0.12716844792E+00  0.89005561508E+00  0.88000000000E+00 0. -1.
        -11    1    4    4    0    0  0.76629486692E-03  0.57441712838E-02 -0.63417928909E-01  0.63684201649E-01  0.51100000000E-03 0.  1.
         11    1    4    4    0    0  0.19809750150E-01  0.10077710463E-02 -0.62608522174E-01  0.65677469298E-01  0.51100000000E-03 0. -1.
</event>
<event>
 8    1  0.1117354E+005  0.1043930E+01  0.7957747E-01            NaN
         13   -1    0    0    0    0  0.00000000000E+00  0.00000000000E+00  0.74505805969E-08  0.10566000000E+00  0.10566000000E+00 0.  1.
     999900   -1    0    0    0    0 -0.00000000000E+00 -0.00000000000E+00 -0.74505805969E-08  0.93827000000E+00  0.93827000000E+00 0.  1.
     999902    2    1    2    0    0  0.73829827896E-02  0.20358125605E-01  0.46506554950E-02  0.10217807267E+01  0.10215406321E+01 0.  0.
     999903    2    3    3    0    0 -0.54561684458E-01 -0.38095576227E-01  0.11157196986E+00  0.13122688521E+00  0.18545635673E-01 0.  0.
         14    1    1    2    0    0 -0.73829827896E-02 -0.20358125605E-01 -0.46506554950E-02  0.22149273342E-01  0.00000000000E+00 0.  1.
     999901    1    3    3    0    0  0.61944667248E-01  0.58453701832E-01 -0.10692131437E+00  0.89055384145E+00  0.88000000000E+00 0.  1.
        -11    1    4    4    0    0 -0.29221820568E-01 -0.93908955755E-02  0.46325403713E-01  0.55573445702E-01  0.51100000000E-03 0.  1.
         11    1    4    4    0    0 -0.25339863890E-01 -0.28704680651E-01  0.65246566151E-01  0.75653439504E-01  0.51100000000E-03 0. -1.
</event>
<event>
 8    1  0.1117354E+005  0.1043930E+01  0.7957747E-01            NaN
         13   -1    0    0    0    0  0.00000000000E+00  0.00000000000E+00  0.74505805969E-08  0.10566000000E+00  0.10566000000E+00 0.  1.
     999900   -1    0    0    0    0 -0.00000000000E+00 -0.00000000000E+00 -0.74505805969E-08  0.93827000000E+00  0.93827000000E+00 0.  1.
     999902    2    1    2    0    0 -0.14819009951E-01  0.82413007811E-02  0.26922150982E-01  0.10121129557E+01  0.10116127277E+01 0.  0.
     999903    2    3    3    0    0  0.10465936530E+00 -0.41224547394E-01 -0.38749561007E-01  0.12024148175E+00  0.17419512130E-01 0.  0.
         14    1    1    2    0    0  0.14819009951E-01 -0.82413007811E-02 -0.26922150982E-01  0.31817044300E-01  0.00000000000E+00 0. -1.
     999901    1    3    3    0    0 -0.11947837525E+00  0.49465848175E-01  0.65671711989E-01  0.89187147395E+00  0.88000000000E+00 0. -1.
        -11    1    4    4    0    0  0.30743982217E-01 -0.74338597466E-02 -0.41365338100E-02  0.31903397096E-01  0.51100000000E-03 0.  1.
         11    1    4    4    0    0  0.73915383082E-01 -0.33790687647E-01 -0.34613027197E-01  0.88338084655E-01  0.51100000000E-03 0. -1.
</event>
<event>
 8    1  0.1117354E+005  0.1043930E+01  0.7957747E-01            NaN
         13   -1    0    0    0    0  0.00000000000E+00  0.00000000000E+00  0.74505805969E-08  0.10566000000E+00  0.10566000000E+00 0. -1.
     999900   -1    0    0    0    0 -0.00000000000E+00 -0.00000000000E+00 -0.74505805969E-08  0.93827000000E+00  0.93827000000E+00 0. -1.
     999902    2    1    2    0    0  0.62021884743E-03 -0.18426319887E-02  0.23108828784E-01  0.10207395293E+01  0.10204760598E+01 0.  0.
     999903    2    3    3    0    0  0.10168284622E+00 -0.92522231814E-02 -0.77678266704E-01  0.12920905011E+00  0.15364265741E-01 0.  0.
         14    1    1    2    0    0 -0.62021884743E-03  0.18426319887E-02 -0.23108828784E-01  0.23190470712E-01  0.00000000000E+00 0.  1.
     999901    1    3    3    0    0 -0.10106262737E+00  0.74095911927E-02  0.10078709549E+00  0.89153047918E+00  0.88000000000E+00 0.  1.
        -11    1    4    4    0    0  0.39704040616E-01 -0.14048539595E-02 -0.21429432357E-01  0.45142730844E-01  0.51100000000E-03 0. -1.
         11    1    4    4    0    0  0.61978805605E-01 -0.78473692219E-02 -0.56248834347E-01  0.84066319263E-01  0.51100000000E-03 0.  1.
</event>
<event>
 8    1  0.1117354E+005  0.1043930E+01  0.7957747E-01            NaN
         13   -1    0    0    0    0  0.00000000000E+00  0.00000000000E+00  0.74505805969E-08  0.10566000000E+00  0.10566000000E+00 0. -1.
     999900   -1    0    0    0    0 -0.00000000000E+00 -0.00000000000E+00 -0.74505805969E-08  0.93827000000E+00  0.93827000000E+00 0. -1.
     999902    2    1    2    0    0  0.15710867785E-01  0.15593986264E-01 -0.12458661942E-01  0.10185287789E+01  0.10182119875E+01 0.  0.
     999903    2    3    3    0    0  0.52269208848E-01 -0.41239287988E-01  0.10733056098E+00  0.12784589974E+00  0.19798376008E-01 0.  0.
         14    1    1    2    0    0 -0.15710867785E-01 -0.15593986264E-01  0.12458661942E-01  0.25401221063E-01  0.00000000000E+00 0.  1.
     999901    1    3    3    0    0 -0.36558341064E-01  0.56833274252E-01 -0.11978922292E+00  0.89068287920E+00  0.88000000000E+00 0. -1.
        -11    1    4    4    0    0  0.11012908615E-01 -0.12433172417E-01  0.43498722157E-01  0.46564663456E-01  0.51100000000E-03 0. -1.
         11    1    4    4    0    0  0.41256300233E-01 -0.28806115572E-01  0.63831838825E-01  0.81281236285E-01  0.51100000000E-03 0.  1.
</event>
<event>
 8    1  0.1117354E+005  0.1043930E+01  0.7957747E-01            NaN
         13   -1    0    0    0    0  0.00000000000E+00  0.00000000000E+00  0.74505805969E-08  0.10566000000E+00  0.10566000000E+00 0.  1.
     999900   -1    0    0    0    0 -0.00000000000E+00 -0.00000000000E+00 -0.74505805969E-08  0.93827000000E+00  0.93827000000E+00 0.  1.
     999902    2    1    2    0    0 -0.21851716494E-01  0.29265468744E-02 -0.71940277166E-02  0.10207391349E+01  0.10204756564E+01 0.  0.
     999903    2    3    3    0    0  0.39385514176E-01  0.64183604321E-01  0.10396457435E+00  0.12952722948E+00  0.17260262666E-01 0.  0.
         14    1    1    2    0    0  0.21851716494E-01 -0.29265468744E-02  0.71940277166E-02  0.23190865122E-01  0.00000000000E+00 0.  1.
     999901    1    3    3    0    0 -0.61237230670E-01 -0.61257057446E-01 -0.11115860206E+00  0.89121190540E+00  0.88000000000E+00 0.  1.
        -11    1    4    4    0    0  0.35119481358E-01  0.42431383499E-01  0.74583580465E-01  0.92718778424E-01  0.51100000000E-03 0.  1.
         11    1    4    4    0    0  0.42660328180E-02  0.21752220822E-01  0.29380993883E-01  0.36808451058E-01  0.51100000000E-03 0. -1.
</event>
<event>
 8    1  0.1117354E+005  0.1043930E+01  0.7957747E-01            NaN
         13   -1    0    0    0    0  0.00000000000E+00  0.00000000000E+00  0.74505805969E-08  0.10566000000E+00  0.10566000000E+00 0.  1.
     999900   -1    0    0    0    0 -0.00000000000E+00 -0.00000000000E+00 -0.74505805969E-08  0.93827000000E+00  0.93827000000E+00 0. -1.
     999902    2    1    2    0    0 -0.90792508970E-02 -0.45102257703E-02  0.20883743727E-01  0.10207156578E+01  0.10204516394E+01 0.  0.
     999903    2    3    3    0    0 -0.60096285248E-01  0.27307090389E-01  0.11463800775E+00  0.13369539789E+00  0.19373846064E-01 0.  0.
         14    1    1    2    0    0  0.90792508970E-02  0.45102257703E-02 -0.20883743727E-01  0.23214342235E-01  0.00000000000E+00 0. -1.
     999901    1    3    3    0    0  0.51017034351E-01 -0.31817316160E-01 -0.93754264021E-01  0.88702025987E+00  0.88000000000E+00 0. -1.
        -11    1    4    4    0    0 -0.35962741165E-02  0.67746139221E-02  0.21576158384E-01  0.22904591525E-01  0.51100000000E-03 0. -1.
         11    1    4    4    0    0 -0.56500011131E-01  0.20532476467E-01  0.93061849364E-01  0.11079080637E+00  0.51100000000E-03 0.  1.
</event>
<event>
 8    1  0.1117354E+005  0.1043930E+01  0.7957747E-01            NaN
         13   -1    0    0    0    0  0.00000000000E+00  0.00000000000E+00  0.74505805969E-08  0.10566000000E+00  0.10566000000E+00 0. -1.
     999900   -1    0    0    0    0 -0.00000000000E+00 -0.00000000000E+00 -0.74505805969E-08  0.93827000000E+00  0.93827000000E+00 0.  1.
     999902    2    1    2    0    0  0.20534730656E-01  0.85925415522E-02  0.84590588176E-02  0.10201169236E+01  0.10198389457E+01 0.  0.
     999903    2    3    3    0    0 -0.31613350668E-01  0.55390863798E-01  0.11254851664E+00  0.13121641137E+00  0.21977858898E-01 0.  0.
         14    1    1    2    0    0 -0.20534730656E-01 -0.85925415522E-02 -0.84590588176E-02  0.23813076440E-01  0.00000000000E+00 0.  1.
     999901    1    3    3    0    0  0.52148081324E-01 -0.46798322246E-01 -0.10408945782E+00  0.88890051219E+00  0.88000000000E+00 0.  1.
        -11    1    4    4    0    0  0.60059225997E-03  0.13492070379E-01  0.33526476547E-01  0.36148062532E-01  0.51100000000E-03 0. -1.
         11    1    4    4    0    0 -0.32213942928E-01  0.41898793419E-01  0.79022040090E-01  0.95068348834E-01  0.51100000000E-03 0.  1.
</event>
<event>
 8    1  0.1117354E+005  0.1043930E+01  0.7957747E-01            NaN
         13   -1    0    0    0    0  0.00000000000E+00  0.00000000000E+00  0.74505805969E-08  0.10566000000E+00  0.10566000000E+00 0. -1.
     999900   -1    0    0    0    0 -0.00000000000E+00 -0.00000000000E+00 -0.74505805969E-08  0.93827000000E+00  0.93827000000E+00 0. -1.
     999902    2    1    2    0    0 -0.19175533223E-02 -0.22638949959E-01 -0.24742920157E-02  0.10210756528E+01  0.10208198507E+01 0.  0.
     999903    2    3    3    0    0 -0.12835682811E+00 -0.18424470013E-01  0.13213498119E-01  0.13189020597E+00  0.20136868715E-01 0.  0.
         14    1    1    2    0    0  0.19175533223E-02  0.22638949959E-01  0.24742920157E-02  0.22854347222E-01  0.00000000000E+00 0.  1.
     999901    1    3    3    0    0  0.12643927479E+00 -0.42144799453E-02 -0.15687790134E-01  0.88918544680E+00  0.88000000000E+00 0. -1.
        -11    1    4    4    0    0 -0.38964943471E-01  0.95811690601E-03  0.10543085718E-01  0.40380720463E-01  0.51100000000E-03 0. -1.
         11    1    4    4    0    0 -0.89391884638E-01 -0.19382586919E-01  0.26704124003E-02  0.91509485510E-01  0.51100000000E-03 0.  1.
</event>
<event>
 8    1  0.1117354E+005  0.1043930E+01  0.7957747E-01            NaN
         13   -1    0    0    0    0  0.00000000000E+00  0.00000000000E+00  0.74505805969E-08  0.10566000000E+00  0.10566000000E+00 0. -1.
     999900   -1    0    0    0    0 -0.00000000000E+00 -0.00000000000E+00 -0.74505805969E-08  0.93827000000E+00  0.93827000000E+00 0. -1.
     999902    2    1    2    0    0 -0.12448836241E-01  0.50397791429E-02 -0.20170761245E-01  0.10196971193E+01  0.10194091341E+01 0.  0.
     999903    2    3    3    0    0  0.53701909718E-01  0.75509297162E-01 -0.89816981286E-01  0.13166982799E+00  0.26159212707E-01 0.  0.
         14    1    1    2    0    0  0.12448836241E-01 -0.50397791429E-02  0.20170761245E-01  0.24232880695E-01  0.00000000000E+00 0.  1.
     999901    1    3    3    0    0 -0.66150745958E-01 -0.70469518019E-01  0.69646220041E-01  0.88802729132E+00  0.88000000000E+00 0.  1.
        -11    1    4    4    0    0  0.53146274637E-01  0.57860351276E-01 -0.71672937824E-01  0.10634668728E+00  0.51100000000E-03 0. -1.
         11    1    4    4    0    0  0.55563508129E-03  0.17648945886E-01 -0.18144043462E-01  0.25323140709E-01  0.51100000000E-03 0.  1.
</event>
<event>
 8    1  0.1117354E+005  0.1043930E+01  0.7957747E-01            NaN
         13   -1    0    0    0    0  0.00000000000E+00  0.00000000000E+00  0.74505805969E-08  0.10566000000E+00  0.10566000000E+00 0.  1.
     999900   -1    0    0    0    0 -0.00000000000E+00 -0.00000000000E+00 -0.74505805969E-08  0.93827000000E+00  0.93827000000E+00 0. -1.
     999902    2    1    2    0    0  0.15098067409E-01  0.14231953073E-01  0.22700171787E-03  0.10231802613E+01  0.10229698409E+01 0.  0.
     999903    2    3    3    0    0 -0.39331296695E-01 -0.12111910673E+00  0.22605683593E-01  0.13088923785E+00  0.20104395992E-01 0.  0.
         14    1    1    2    0    0 -0.15098067409E-01 -0.14231953073E-01 -0.22700171787E-03  0.20749738734E-01  0.00000000000E+00 0.  1.
     999901    1    3    3    0    0  0.54429364104E-01  0.13535105981E+00 -0.22378681875E-01  0.89229102342E+00  0.88000000000E+00 0. -1.
        -11    1    4    4    0    0 -0.11060278486E-01 -0.15625578482E-01 -0.89761566853E-03  0.19171731742E-01  0.51100000000E-03 0. -1.
         11    1    4    4    0    0 -0.28271018209E-01 -0.10549352825E+00  0.23503299261E-01  0.11171750611E+00  0.51100000000E-03 0.  1.
</event>
<event>
 8    1  0.1117354E+005  0.1043930E+01  0.7957747E-01            NaN
         13   -1    0    0    0    0  0.00000000000E+00  0.00000000000E+00  0.74505805969E-08  0.10566000000E+00  0.10566000000E+00 0. -1.
     999900   -1    0    0    0    0 -0.00000000000E+00 -0.00000000000E+00 -0.74505805969E-08  0.93827000000E+00  0.93827000000E+00 0.  1.
     999902    2    1    2    0    0 -0.64684232322E-02 -0.28289084154E-02 -0.22387082632E-01  0.10204560849E+01  0.10201860597E+01 0.  0.
     999903    2    3    3    0    0  0.74390154623E-01 -0.47136405446E-01  0.91180282378E-01  0.12838052178E+00  0.20297257295E-01 0.  0.
         14    1    1    2    0    0  0.64684232322E-02  0.28289084154E-02  0.22387082632E-01  0.23473915112E-01  0.00000000000E+00 0. -1.
     999901    1    3    3    0    0 -0.80858577856E-01  0.44307497030E-01 -0.11356736501E+00  0.89207556311E+00  0.88000000000E+00 0.  1.
        -11    1    4    4    0    0  0.29772504037E-01 -0.22603301029E-01  0.25409178475E-01  0.45201755341E-01  0.51100000000E-03 0.  1.
         11    1    4    4    0    0  0.44617650586E-01 -0.24533104416E-01  0.65771103903E-01  0.83178766436E-01  0.51100000000E-03 0. -1.
</event>
<event>
 8    1  0.1117354E+005  0.1043930E+01  0.7957747E-01            NaN
         13   -1    0    0    0    0  0.00000000000E+00  0.00000000000E+00  0.74505805969E-08  0.10566000000E+00  0.10566000000E+00 0.  1.
     999900   -1    0    0    0    0 -0.00000000000E+00 -0.00000000000E+00 -0.74505805969E-08  0.93827000000E+00  0.93827000000E+00 0.  1.
     999902    2    1    2    0    0  0.12132210456E-01 -0.80098031278E-02 -0.18849473450E-01  0.10201255860E+01  0.10198478127E+01 0.  0.
     999903    2    3    3    0    0 -0.22946683041E-01  0.87014054841E-01 -0.93702011822E-01  0.13115822729E+00  0.18011595232E-01 0.  0.
         14    1    1    2    0    0 -0.12132210456E-01  0.80098031278E-02  0.18849473450E-01  0.23804414003E-01  0.00000000000E+00 0.  1.
     999901    1    3    3    0    0  0.35078893497E-01 -0.95023857969E-01  0.74852538372E-01  0.88896735871E+00  0.88000000000E+00 0. -1.
        -11    1    4    4    0    0 -0.18922927074E-01  0.79827591048E-01 -0.90888269892E-01  0.12243961853E+00  0.51100000000E-03 0. -1.
         11    1    4    4    0    0 -0.40237559672E-02  0.71864637939E-02 -0.28137419301E-02  0.87186087533E-02  0.51100000000E-03 0.  1.
</event>
<event>
 8    1  0.1117354E+005  0.1043930E+01  0.7957747E-01            NaN
         13   -1    0    0    0    0  0.00000000000E+00  0.00000000000E+00  0.74505805969E-08  0.10566000000E+00  0.10566000000E+00 0. -1.
     999900   -1    0    0    0    0 -0.00000000000E+00 -0.00000000000E+00 -0.74505805969E-08  0.93827000000E+00  0.93827000000E+00 0.  1.
     999902    2    1    2    0    0 -0.21871576246E-01 -0.50779148704E-02 -0.85528795133E-02  0.10199028734E+01  0.10196198155E+01 0.  0.
     999903    2    3    3    0    0 -0.38117125197E-01  0.11862345921E+00 -0.34267243733E-01  0.13073068736E+00  0.19794653760E-01 0.  0.
         14    1    1    2    0    0  0.21871576246E-01  0.50779148704E-02  0.85528795133E-02  0.24027126647E-01  0.00000000000E+00 0. -1.
     999901    1    3    3    0    0  0.16245548951E-01 -0.12370137408E+00  0.25714364220E-01  0.88917218599E+00  0.88000000000E+00 0. -1.
        -11    1    4    4    0    0 -0.23816430865E-01  0.50682414286E-01 -0.83560819041E-02  0.56621680678E-01  0.51100000000E-03 0. -1.
         11    1    4    4    0    0 -0.14300694332E-01  0.67941044924E-01 -0.25911161829E-01  0.74109006686E-01  0.51100000000E-03 0.  1.
</event>
<event>
 8    1  0.1117354E+005  0.1043930E+01  0.7957747E-01            NaN
         13   -1    0    0    0    0  0.00000000000E+00  0.00000000000E+00  0.74505805969E-08  0.10566000000E+00  0.10566000000E+00 0.  1.
     999900   -1    0    0    0    0 -0.00000000000E+00 -0.00000000000E+00 -0.74505805969E-08  0.93827000000E+00  0.93827000000E+00 0. -1.
     999902    2    1    2    0    0  0.15988548043E-01 -0.13417094849E-01  0.11514772370E-01  0.10200921711E+01  0.10198136082E+01 0.  0.
     999903    2    3    3    0    0 -0.43838480803E-01  0.94799791214E-02  0.12128537777E+00  0.13096162099E+00  0.20715233733E-01 0.  0.
         14    1    1    2    0    0 -0.15988548043E-01  0.13417094849E-01 -0.11514772370E-01  0.23837828874E-01  0.00000000000E+00 0. -1.
     999901    1    3    3    0    0  0.59827028846E-01 -0.22897073970E-01 -0.10977060540E+00  0.88913055014E+00  0.88000000000E+00 0. -1.
        -11    1    4    4    0    0 -0.26507511808E-01 -0.24752251233E-02  0.50239134055E-01  0.56859534233E-01  0.51100000000E-03 0. -1.
         11    1    4    4    0    0 -0.17330968995E-01  0.11955204245E-01  0.71046243713E-01  0.74102086756E-01  0.51100000000E-03 0.  1.
</event>
<event>
 8    1  0.1117354E+005  0.1043930E+01  0.7957747E-01            NaN
         13   -1    0    0    0    0  0.00000000000E+00  0.00000000000E+00  0.74505805969E-08  0.10566000000E+00  0.10566000000E+00 0. -1.
     999900   -1    0    0    0    0 -0.00000000000E+00 -0.00000000000E+00 -0.74505805969E-08  0.93827000000E+00  0.93827000000E+00 0. -1.
     999902    2    1    2    0    0 -0.85543570309E-03 -0.22040976329E-01 -0.36793310222E-02  0.10215676682E+01  0.10213228808E+01 0.  0.
     999903    2    3    3    0    0 -0.46844181656E-01 -0.12415798117E+00  0.20211048459E-02  0.13445136103E+00  0.21529096023E-01 0.  0.
         14    1    1    2    0    0  0.85543570309E-03  0.22040976329E-01  0.36793310222E-02  0.22362331823E-01  0.00000000000E+00 0.  1.
     999901    1    3    3    0    0  0.45988745952E-01  0.10211700484E+00 -0.57004358681E-02  0.88711630714E+00  0.88000000000E+00 0.  1.
        -11    1    4    4    0    0 -0.33485910832E-01 -0.73728858836E-01  0.10288660640E-01  0.81629458581E-01  0.51100000000E-03 0. -1.
         11    1    4    4    0    0 -0.13358270824E-01 -0.50429122335E-01 -0.82675557943E-02  0.52821902452E-01  0.51100000000E-03 0.  1.
</event>
<event>
 8    1  0.1117354E+005  0.1043930E+01  0.7957747E-01            NaN
         13   -1    0    0    0    0  0.00000000000E+00  0.00000000000E+00  0.74505805969E-08  0.10566000000E+00  0.10566000000E+00 0. -1.
     999900   -1    0    0    0    0 -0.00000000000E+00 -0.00000000000E+00 -0.74505805969E-08  0.93827000000E+00  0.93827000000E+00 0.  1.
     999902    2    1    2    0    0  0.41129519646E-02  0.33742609193E-02  0.23854513351E-01  0.10194894636E+01  0.10191964613E+01 0.  0.
     999903    2    3    3    0    0 -0.45399690500E-01  0.53999299038E-01 -0.10411161531E+00  0.12741899202E+00  0.20477179749E-01 0.  0.
         14    1    1    2    0    0 -0.41129519646E-02 -0.33742609193E-02 -0.23854513351E-01  0.24440536365E-01  0.00000000000E+00 0.  1.
     999901    1    3    3    0    0  0.49512642465E-01 -0.50625038118E-01  0.12796612866E+00  0.89207047162E+00  0.88000000000E+00 0. -1.
        -11    1    4    4    0    0 -0.26878769533E-01  0.26407182452E-01 -0.71678279486E-01  0.80980518693E-01  0.51100000000E-03 0.  1.
         11    1    4    4    0    0 -0.18520920966E-01  0.27592116586E-01 -0.32433335822E-01  0.46438473324E-01  0.51100000000E-03 0. -1.
</event>
<event>
 8    1  0.1117354E+005  0.1043930E+01  0.7957747E-01            NaN
         13   -1    0    0    0    0  0.00000000000E+00  0.00000000000E+00  0.74505805969E-08  0.10566000000E+00  0.10566000000E+00 0. -1.
     999900   -1    0    0    0    0 -0.00000000000E+00 -0.00000000000E+00 -0.74505805969E-08  0.93827000000E+00  0.93827000000E+00 0. -1.
     999902    2    1    2    0    0 -0.17352021168E-01 -0.15551508079E-01 -0.66098549836E-03  0.10206195100E+01  0.10203532747E+01 0.  0.
     999903    2    3    3    0    0 -0.12423039671E+00 -0.41624589098E-01  0.16661787298E-01  0.13360041710E+00  0.20140963479E-01 0.  0.
         14    1    1    2    0    0  0.17352021168E-01  0.15551508079E-01  0.66098549836E-03  0.23310489999E-01  0.00000000000E+00 0.  1.
     999901    1    3    3    0    0  0.10687837554E+00  0.26073081018E-01 -0.17322772797E-01  0.88701909290E+00  0.88000000000E+00 0. -1.
        -11    1    4    4    0    0 -0.43690598258E-01 -0.19581576716E-01  0.14653557855E-01  0.50072890885E-01  0.51100000000E-03 0. -1.
         11    1    4    4    0    0 -0.80539798450E-01 -0.22043012382E-01  0.20082294437E-02  0.83527526215E-01  0.51100000000E-03 0.  1.
</event>
<event>
 8    1  0.1117354E+005  0.1043930E+01  0.7957747E-01            NaN
         13   -1    0    0    0    0  0.00000000000E+00  0.00000000000E+00  0.74505805969E-08  0.10566000000E+00  0.10566000000E+00 0.  1.
     999900   -1    0    0    0    0 -0.00000000000E+00 -0.00000000000E+00 -0.74505805969E-08  0.93827000000E+00  0.93827000000E+00 0. -1.
     999902    2    1    2    0    0 -0.17802458513E-01 -0.15064401518E-01  0.49075145450E-02  0.10200983525E+01  0.10198199358E+01 0.  0.
     999903    2    3    3    0    0  0.96329768472E-01  0.65218045200E-01 -0.48147580617E-01  0.12752550978E+00  0.20291584757E-01 0.  0.
         14    1    1    2    0    0  0.17802458513E-01  0.15064401518E-01 -0.49075145450E-02  0.23831647472E-01  0.00000000000E+00 0. -1.
     999901    1    3    3    0    0 -0.11413222699E+00 -0.80282446718E-01  0.53055095162E-01  0.89257284275E+00  0.88000000000E+00 0.  1.
        -11    1    4    4    0    0  0.19480367334E-02  0.42356148073E-02 -0.57569917462E-02  0.74255878472E-02  0.51100000000E-03 0.  1.
         11    1    4    4    0    0  0.94381731739E-01  0.60982430393E-01 -0.42390588871E-01  0.12009992193E+00  0.51100000000E-03 0. -1.
</event>
<event>
 7    1  0.1117354E+005  0.1043930E+01  0.7957747E-01            NaN
         13   -1    0    0    0    0  0.00000000000E+00  0.00000000000E+00  0.74505805969E-08  0.10566000000E+00  0.10566000000E+00 0.  1.
     999900   -1    0    0    0    0 -0.00000000000E+00 -0.00000000000E+00 -0.74505805969E-08  0.93827000000E+00  0.93827000000E+00 0. -1.
     999902    2    1    2    0    0  0.15744271124E-01 -0.13074634584E-01  0.12334429562E-01  0.10200350990E+01  0.10197551848E+01 0.  0.
         14    1    1    2    0    0 -0.15744271124E-01  0.13074634584E-01 -0.12334429562E-01  0.23894901032E-01  0.00000000000E+00 0. -1.
     999901    1    3    3    0    0  0.10978872644E-01  0.20859066701E-01  0.13060661102E+00  0.88995152854E+00  0.88000000000E+00 0.  1.
        -11    1    3    3    0    0  0.12728867581E-01 -0.39865600553E-01 -0.10781870399E+00  0.11565649237E+00  0.51100000000E-03 0.  1.
         11    1    3    3    0    0 -0.79634691008E-02  0.59318992684E-02 -0.10453477470E-01  0.14427078057E-01  0.51100000000E-03 0. -1.
</event>
<event>
 8    1  0.1117354E+005  0.1043930E+01  0.7957747E-01            NaN
         13   -1    0    0    0    0  0.00000000000E+00  0.00000000000E+00  0.74505805969E-08  0.10566000000E+00  0.10566000000E+00 0. -1.
     999900   -1    0    0    0    0 -0.00000000000E+00 -0.00000000000E+00 -0.74505805969E-08  0.93827000000E+00  0.93827000000E+00 0.  1.
     999902    2    1    2    0    0 -0.16846362923E-01 -0.60545487312E-03 -0.15820766366E-01  0.10208115405E+01  0.10205497235E+01 0.  0.
     999903    2    3    3    0    0 -0.13052176400E+00 -0.50760460144E-02  0.14710283525E-01  0.13296345218E+00  0.20029729285E-01 0.  0.
         14    1    1    2    0    0  0.16846362923E-01  0.60545487312E-03  0.15820766366E-01  0.23118459459E-01  0.00000000000E+00 0. -1.
     999901    1    3    3    0    0  0.11367540107E+00  0.44705911413E-02 -0.30531049890E-01  0.88784808836E+00  0.88000000000E+00 0.  1.
        -11    1    4    4    0    0 -0.26008916082E-01 -0.46058039557E-02  0.10299672272E-01  0.28355273156E-01  0.51100000000E-03 0.  1.
         11    1    4    4    0    0 -0.10451284791E+00 -0.47024205867E-03  0.44106112525E-02  0.10460817903E+00  0.51100000000E-03 0. -1.
</event>
<event>
 8    1  0.1117354E+005  0.1043930E+01  0.7957747E-01            NaN
         13   -1    0    0    0    0  0.00000000000E+00  0.00000000000E+00  0.74505805969E-08  0.10566000000E+00  0.10566000000E+00 0. -1.
     999900   -1    0    0    0    0 -0.00000000000E+00 -0.00000000000E+00 -0.74505805969E-08  0.93827000000E+00  0.93827000000E+00 0.  1.
     999902    2    1    2    0    0  0.14730294237E-01 -0.55792756531E-02 -0.20796741559E-01  0.10178414135E+01  0.10175070166E+01 0.  0.
     999903    2    3    3    0    0 -0.54207110365E-01  0.22829621886E-01 -0.11406369352E+00  0.12977713908E+00  0.19286710400E-01 0.  0.
         14    1    1    2    0    0 -0.14730294237E-01  0.55792756531E-02  0.20796741559E-01  0.26088586481E-01  0.00000000000E+00 0. -1.
     999901    1    3    3    0    0  0.68937404602E-01 -0.28408897539E-01  0.93266951961E-01  0.88806427444E+00  0.88000000000E+00 0. -1.
        -11    1    4    4    0    0 -0.17151344705E-01  0.52627673530E-02 -0.18453851430E-01  0.25742398858E-01  0.51100000000E-03 0. -1.
         11    1    4    4    0    0 -0.37055765660E-01  0.17566854533E-01 -0.95609842090E-01  0.10403474022E+00  0.51100000000E-03 0.  1.
</event>
<event>
 8    1  0.1117354E+005  0.1043930E+01  0.7957747E-01            NaN
         13   -1    0    0    0    0  0.00000000000E+00  0.00000000000E+00  0.74505805969E-08  0.10566000000E+00  0.10566000000E+00 0. -1.
     999900   -1    0    0    0    0 -0.00000000000E+00 -0.00000000000E+00 -0.74505805969E-08  0.93827000000E+00  0.93827000000E+00 0.  1.
     999902    2    1    2    0    0 -0.11957706980E-01  0.19578202928E-01  0.14568631162E-02  0.10209427158E+01  0.10206838951E+01 0.  0.
     999903    2    3    3    0    0  0.45142683737E-02 -0.24160530279E-01  0.12686113958E+00  0.13082438919E+00  0.20424549664E-01 0.  0.
         14    1    1    2    0    0  0.11957706980E-01 -0.19578202928E-01 -0.14568631162E-02  0.22987284229E-01  0.00000000000E+00 0.  1.
     999901    1    3    3    0    0 -0.16471975353E-01  0.43738733207E-01 -0.12540427647E+00  0.89011832658E+00  0.88000000000E+00 0.  1.
        -11    1    4    4    0    0  0.41201396254E-03 -0.21569474965E-01  0.59597267370E-01  0.63383810273E-01  0.51100000000E-03 0. -1.
         11    1    4    4    0    0  0.41022544111E-02 -0.25910553142E-02  0.67263872213E-01  0.67440578919E-01  0.51100000000E-03 0.  1.
</event>
<event>
 8    1  0.1117354E+005  0.1043930E+01  0.7957747E-01            NaN
         13   -1    0    0    0    0  0.00000000000E+00  0.00000000000E+00  0.74505805969E-08  0.10566000000E+00  0.10566000000E+00 0.  1.
     999900   -1    0    0    0    0 -0.00000000000E+00 -0.00000000000E+00 -0.74505805969E-08  0.93827000000E+00  0.93827000000E+00 0.  1.
     999902    2    1    2    0    0  0.13298855478E-01  0.12036070300E-01  0.17127286607E-01  0.10191293853E+01  0.10188275779E+01 0.  0.
     999903    2    3    3    0    0  0.53702973253E-01 -0.67577951949E-01  0.95818790784E-01  0.13111855305E+00  0.23665277561E-01 0.  0.
         14    1    1    2    0    0 -0.13298855478E-01 -0.12036070300E-01 -0.17127286607E-01  0.24800614747E-01  0.00000000000E+00 0. -1.
     999901    1    3    3    0    0 -0.40404117774E-01  0.79614022249E-01 -0.78691504177E-01  0.88801083220E+00  0.88000000000E+00 0.  1.
        -11    1    4    4    0    0  0.45656737134E-01 -0.67216159783E-01  0.84649532841E-01  0.11733863095E+00  0.51100000000E-03 0.  1.
         11    1    4    4    0    0  0.80462361184E-02 -0.36179216590E-03  0.11169257943E-01  0.13779922106E-01  0.51100000000E-03 0. -1.
</event>
<event>
 8    1  0.1117354E+005  0.1043930E+01  0.7957747E-01            NaN
         13   -1    0    0    0    0  0.00000000000E+00  0.00000000000E+00  0.74505805969E-08  0.10566000000E+00  0.10566000000E+00 0. -1.
     999900   -1    0    0    0    0 -0.00000000000E+00 -0.00000000000E+00 -0.74505805969E-08  0.93827000000E+00  0.93827000000E+00 0. -1.
     999902    2    1    2    0    0  0.21290655798E-01 -0.91442786387E-02 -0.39791805720E-02  0.10204194974E+01  0.10201486200E+01 0.  0.
     999903    2    3    3    0    0  0.11470601036E+00  0.35713216489E-01  0.52608997987E-01  0.13253389365E+00  0.19095121118E-01 0.  0.
         14    1    1    2    0    0 -0.21290655798E-01  0.91442786387E-02  0.39791805720E-02  0.23510502635E-01  0.00000000000E+00 0. -1.
     999901    1    3    3    0    0 -0.93415354565E-01 -0.44857495128E-01 -0.56588178559E-01  0.88788560372E+00  0.88000000000E+00 0. -1.
        -11    1    4    4    0    0  0.10016564128E+00  0.31115379416E-01  0.52457063719E-01  0.11727458030E+00  0.51100000000E-03 0.  1.
         11    1    4    4    0    0  0.14540369085E-01  0.45978370728E-02  0.15193426844E-03  0.15259313350E-01  0.51100000000E-03 0. -1.
</event>
<event>
 8    1  0.1117354E+005  0.1043930E+01  0.7957747E-01            NaN
         13   -1    0    0    0    0  0.00000000000E+00  0.00000000000E+00  0.74505805969E-08  0.10566000000E+00  0.10566000000E+00 0. -1.
     999900   -1    0    0    0    0 -0.00000000000E+00 -0.00000000000E+00 -0.74505805969E-08  0.93827000000E+00  0.93827000000E+00 0. -1.
     999902    2    1    2    0    0  0.14085346618E-01 -0.15648004065E-01 -0.68378216555E-02  0.10217937667E+01  0.10215539579E+01 0.  0.
     999903    2    3    3    0    0 -0.12337639712E+00  0.77378793041E-02  0.34619451115E-01  0.12985131562E+00  0.19525563563E-01 0.  0.
         14    1    1    2    0    0 -0.14085346618E-01  0.15648004065E-01  0.68378216555E-02  0.22136233319E-01  0.00000000000E+00 0.  1.
     999901    1    3    3    0    0  0.13746174373E+00 -0.23385883369E-01 -0.41457272770E-01  0.89194245106E+00  0.88000000000E+00 0.  1.
        -11    1    4    4    0    0 -0.64694992185E-01  0.13786937681E-01  0.18988168840E-01  0.68821023978E-01  0.51100000000E-03 0. -1.
         11    1    4    4    0    0 -0.58681404931E-01 -0.60490583773E-02  0.15631282275E-01  0.61030291646E-01  0.51100000000E-03 0.  1.
</event>
<event>
 8    1  0.1117354E+005  0.1043930E+01  0.7957747E-01            NaN
         13   -1    0    0    0    0  0.00000000000E+00  0.00000000000E+00  0.74505805969E-08  0.10566000000E+00  0.10566000000E+00 0. -1.
     999900   -1    0    0    0    0 -0.00000000000E+00 -0.00000000000E+00 -0.74505805969E-08  0.93827000000E+00  0.93827000000E+00 0. -1.
     999902    2    1    2    0    0  0.12973668443E-03 -0.24157228040E-01 -0.44331744968E-02  0.10193690242E+01  0.10190730915E+01 0.  0.
     999903    2    3    3    0    0 -0.19762834213E-01  0.14181939753E-01 -0.12610140844E+00  0.12994855817E+00  0.19833444685E-01 0.  0.
         14    1    1    2    0    0 -0.12973668443E-03  0.24157228040E-01  0.44331744968E-02  0.24560975842E-01  0.00000000000E+00 0. -1.
     999901    1    3    3    0    0  0.19892570897E-01 -0.38339167793E-01  0.12166823395E+00  0.88942046599E+00  0.88000000000E+00 0.  1.
        -11    1    4    4    0    0 -0.16659802969E-01  0.68547345483E-03 -0.83493349223E-01  0.85143522327E-01  0.51100000000E-03 0.  1.
         11    1    4    4    0    0 -0.31030312439E-02  0.13496466298E-01 -0.42608059221E-01  0.44805035844E-01  0.51100000000E-03 0. -1.
</event>
<event>
 8    1  0.1117354E+005  0.1043930E+01  0.7957747E-01            NaN
         13   -1    0    0    0    0  0.00000000000E+00  0.00000000000E+00  0.74505805969E-08  0.10566000000E+00  0.10566000000E+00 0. -1.
     999900   -1    0    0    0    0 -0.00000000000E+00 -0.00000000000E+00 -0.74505805969E-08  0.93827000000E+00  0.93827000000E+00 0. -1.
     999902    2    1    2    0    0  0.42668931590E-02 -0.15089886413E-02  0.23060173462E-01  0.10204298931E+01  0.10201592580E+01 0.  0.
     999903    2    3    3    0    0 -0.84390836380E-02 -0.10516642250E+00 -0.72216813606E-01  0.12914766524E+00  0.18238879240E-01 0.  0.
         14    1    1    2    0    0 -0.42668931590E-02  0.15089886413E-02 -0.23060173462E-01  0.23500106894E-01  0.00000000000E+00 0.  1.
     999901    1    3    3    0    0  0.12705976797E-01  0.10365743386E+00  0.95276987068E-01  0.89128222786E+00  0.88000000000E+00 0. -1.
        -11    1    4    4    0    0 -0.36358059418E-02 -0.62231337150E-01 -0.53150322406E-01  0.81921769397E-01  0.51100000000E-03 0. -1.
         11    1    4    4    0    0 -0.48032776962E-02 -0.42935085350E-01 -0.19066491200E-01  0.47225895845E-01  0.51100000000E-03 0.  1.
</event>
<event>
 8    1  0.1117354E+005  0.1043930E+01  0.7957747E-01            NaN
         13   -1    0    0    0    0  0.00000000000E+00  0.00000000000E+00  0.74505805969E-08  0.10566000000E+00  0.10566000000E+00 0. -1.
     999900   -1    0    0    0    0 -0.00000000000E+00 -0.00000000000E+00 -0.74505805969E-08  0.93827000000E+00  0.93827000000E+00 0. -1.
     999902    2    1    2    0    0  0.38624946032E-02  0.42451600467E-02  0.24788971305E-01  0.10184852884E+01  0.10181673975E+01 0.  0.
     999903    2    3    3    0    0 -0.21072946902E-01  0.90665547700E-01 -0.84144265264E-01  0.12721837573E+00  0.20974916357E-01 0.  0.
         14    1    1    2    0    0 -0.38624946032E-02 -0.42451600467E-02 -0.24788971305E-01  0.25444711567E-01  0.00000000000E+00 0.  1.
     999901    1    3    3    0    0  0.24935441505E-01 -0.86420387654E-01  0.10893323657E+00  0.89126691270E+00  0.88000000000E+00 0.  1.
        -11    1    4    4    0    0 -0.70400490954E-02  0.69434696650E-01 -0.64940025809E-01  0.95332090417E-01  0.51100000000E-03 0.  1.
         11    1    4    4    0    0 -0.14032897807E-01  0.21230851051E-01 -0.19204239455E-01  0.31886285316E-01  0.51100000000E-03 0. -1.
</event>
<event>
 7    1  0.1117354E+005  0.1043930E+01  0.7957747E-01            NaN
         13   -1    0    0    0    0  0.00000000000E+00  0.00000000000E+00  0.74505805969E-08  0.10566000000E+00  0.10566000000E+00 0.  1.
     999900   -1    0    0    0    0 -0.00000000000E+00 -0.00000000000E+00 -0.74505805969E-08  0.93827000000E+00  0.93827000000E+00 0. -1.
     999902    2    1    2    0    0 -0.31506579453E-02 -0.24198330123E-01 -0.58138738597E-03  0.10195204970E+01  0.10192282472E+01 0.  0.
         14    1    1    2    0    0  0.31506579453E-02  0.24198330123E-01  0.58138738597E-03  0.24409503017E-01  0.00000000000E+00 0. -1.
     999901    1    3    3    0    0  0.87558791138E-01 -0.55125404157E-01 -0.71099531311E-01  0.88890972289E+00  0.88000000000E+00 0. -1.
        -11    1    3    3    0    0 -0.93226347164E-01  0.24826074216E-01  0.49218217173E-01  0.10830595454E+00  0.51100000000E-03 0. -1.
         11    1    3    3    0    0  0.25168980813E-02  0.61009998174E-02  0.21299926752E-01  0.22304819554E-01  0.51100000000E-03 0.  1.
</event>
<event>
 8    1  0.1117354E+005  0.1043930E+01  0.7957747E-01            NaN
         13   -1    0    0    0    0  0.00000000000E+00  0.00000000000E+00  0.74505805969E-08  0.10566000000E+00  0.10566000000E+00 0.  1.
     999900   -1    0    0    0    0 -0.00000000000E+00 -0.00000000000E+00 -0.74505805969E-08  0.93827000000E+00  0.93827000000E+00 0. -1.
     999902    2    1    2    0    0  0.18304137480E-03  0.15729467540E-01  0.17240265237E-01  0.10205916967E+01  0.10203248184E+01 0.  0.
     999903    2    3    3    0    0  0.57935682849E-01 -0.44889962726E-01 -0.10335087623E+00  0.12843010470E+00  0.21005620111E-01 0.  0.
         14    1    1    2    0    0 -0.18304137480E-03 -0.15729467540E-01 -0.17240265237E-01  0.23338303252E-01  0.00000000000E+00 0. -1.
     999901    1    3    3    0    0 -0.57752641474E-01  0.60619430266E-01  0.12059114146E+00  0.89216159205E+00  0.88000000000E+00 0.  1.
        -11    1    4    4    0    0  0.45493669091E-01 -0.23434510307E-01 -0.74438310533E-01  0.90333678087E-01  0.51100000000E-03 0. -1.
         11    1    4    4    0    0  0.12442013758E-01 -0.21455452419E-01 -0.28912565694E-01  0.38096426615E-01  0.51100000000E-03 0.  1.
</event>
<event>
 8    1  0.1117354E+005  0.1043930E+01  0.7957747E-01            NaN
         13   -1    0    0    0    0  0.00000000000E+00  0.00000000000E+00  0.74505805969E-08  0.10566000000E+00  0.10566000000E+00 0. -1.
     999900   -1    0    0    0    0 -0.00000000000E+00 -0.00000000000E+00 -0.74505805969E-08  0.93827000000E+00  0.93827000000E+00 0.  1.
     999902    2    1    2    0    0 -0.69332681784E-02 -0.14205973798E-01 -0.18418533152E-01  0.10196581591E+01  0.10193692359E+01 0.  0.
     999903    2    3    3    0    0 -0.28751537040E-01  0.24522832771E-01 -0.12501390807E+00  0.13211180463E+00  0.19925649316E-01 0.  0.
         14    1    1    2    0    0  0.69332681784E-02  0.14205973798E-01  0.18418533152E-01  0.24271840941E-01  0.00000000000E+00 0. -1.
     999901    1    3    3    0    0  0.21818268862E-01 -0.38728806569E-01  0.10659537492E+00  0.88754635443E+00  0.88000000000E+00 0. -1.
        -11    1    4    4    0    0 -0.26723491724E-01  0.26565570585E-01 -0.98927816181E-01  0.10586240355E+00  0.51100000000E-03 0. -1.
         11    1    4    4    0    0 -0.20280453161E-02 -0.20427378138E-02 -0.26086091891E-01  0.26249401073E-01  0.51100000000E-03 0.  1.
</event>
<event>
 8    1  0.1117354E+005  0.1043930E+01  0.7957747E-01            NaN
         13   -1    0    0    0    0  0.00000000000E+00  0.00000000000E+00  0.74505805969E-08  0.10566000000E+00  0.10566000000E+00 0.  1.
     999900   -1    0    0    0    0 -0.00000000000E+00 -0.00000000000E+00 -0.74505805969E-08  0.93827000000E+00  0.93827000000E+00 0. -1.
     999902    2    1    2    0    0 -0.91715956886E-02 -0.42761823691E-02  0.18695333030E-01  0.10226716045E+01  0.10224506302E+01 0.  0.
     999903    2    3    3    0    0  0.67796680301E-01 -0.11000006013E+00  0.23792048358E-01  0.13299321857E+00  0.20609015819E-01 0.  0.
         14    1    1    2    0    0  0.91715956886E-02  0.42761823691E-02 -0.18695333030E-01  0.21258395524E-01  0.00000000000E+00 0. -1.
     999901    1    3    3    0    0 -0.76968275989E-01  0.10572387776E+00 -0.50967153282E-02  0.88967838590E+00  0.88000000000E+00 0. -1.
        -11    1    4    4    0    0  0.58304338517E-01 -0.79591905186E-01  0.13929315343E-01  0.99642130688E-01  0.51100000000E-03 0.  1.
         11    1    4    4    0    0  0.94923417836E-02 -0.30408154943E-01  0.98627330155E-02  0.33351087885E-01  0.51100000000E-03 0. -1.
</event>
<event>
 8    1  0.1117354E+005  0.1043930E+01  0.7957747E-01            NaN
         13   -1    0    0    0    0  0.00000000000E+00  0.00000000000E+00  0.74505805969E-08  0.10566000000E+00  0.10566000000E+00 0.  1.
     999900   -1    0    0    0    0 -0.00000000000E+00 -0.00000000000E+00 -0.74505805969E-08  0.93827000000E+00  0.93827000000E+00 0. -1.
     999902    2    1    2    0    0 -0.20815617260E-02 -0.17053672481E-01  0.14407160016E-01  0.10215084277E+01  0.10212623272E+01 0.  0.
     999903    2    3    3    0    0 -0.32058502772E-01  0.11526413684E+00  0.48098906553E-01  0.13047433552E+00  0.19911769814E-01 0.  0.
         14    1    1    2    0    0  0.20815617260E-02  0.17053672481E-01 -0.14407160016E-01  0.22421572292E-01  0.00000000000E+00 0.  1.
     999901    1    3    3    0    0  0.29976941046E-01 -0.13231780932E+00 -0.33691746537E-01  0.89103409219E+00  0.88000000000E+00 0. -1.
        -11    1    4    4    0    0 -0.16492722011E-01  0.38854455560E-01  0.25364037474E-01  0.49247072138E-01  0.51100000000E-03 0. -1.
         11    1    4    4    0    0 -0.15565780761E-01  0.76409681276E-01  0.22734869079E-01  0.81227263382E-01  0.51100000000E-03 0.  1.
</event>
<event>
 8    1  0.1117354E+005  0.1043930E+01  0.7957747E-01            NaN
         13   -1    0    0    0    0  0.00000000000E+00  0.00000000000E+00  0.74505805969E-08  0.10566000000E+00  0.10566000000E+00 0. -1.
     999900   -1    0    0    0    0 -0.00000000000E+00 -0.00000000000E+00 -0.74505805969E-08  0.93827000000E+00  0.93827000000E+00 0. -1.
     999902    2    1    2    0    0 -0.19751593881E-02 -0.91213877946E-02  0.22181233277E-01  0.10198653355E+01  0.10195813819E+01 0.  0.
     999903    2    3    3    0    0 -0.57248984359E-01 -0.87359421886E-01  0.79494012872E-01  0.13281339763E+00  0.20272782341E-01 0.  0.
         14    1    1    2    0    0  0.19751593881E-02  0.91213877946E-02 -0.22181233277E-01  0.24064664543E-01  0.00000000000E+00 0.  1.
     999901    1    3    3    0    0  0.55273824971E-01  0.78238034091E-01 -0.57312779596E-01  0.88705193783E+00  0.88000000000E+00 0. -1.
        -11    1    4    4    0    0 -0.26863512899E-01 -0.24731467617E-01  0.31877553299E-01  0.48474048119E-01  0.51100000000E-03 0.  1.
         11    1    4    4    0    0 -0.30385471460E-01 -0.62627954269E-01  0.47616459573E-01  0.84339349506E-01  0.51100000000E-03 0. -1.
</event>
<event>
 8    1  0.1117354E+005  0.1043930E+01  0.7957747E-01            NaN
         13   -1    0    0    0    0  0.00000000000E+00  0.00000000000E+00  0.74505805969E-08  0.10566000000E+00  0.10566000000E+00 0. -1.
     999900   -1    0    0    0    0 -0.00000000000E+00 -0.00000000000E+00 -0.74505805969E-08  0.93827000000E+00  0.93827000000E+00 0. -1.
     999902    2    1    2    0    0  0.46303336725E-02  0.19331420461E-01  0.14353335767E-01  0.10194113937E+01  0.10191164936E+01 0.  0.
     999903    2    3    3    0    0 -0.38215740962E-02 -0.65552270114E-01 -0.10691976581E+00  0.12700798670E+00  0.19684710280E-01 0.  0.
         14    1    1    2    0    0 -0.46303336725E-02 -0.19331420461E-01 -0.14353335767E-01  0.24518606294E-01  0.00000000000E+00 0.  1.
     999901    1    3    3    0    0  0.84519077688E-02  0.84883690575E-01  0.12127310158E+00  0.89240340701E+00  0.88000000000E+00 0.  1.
        -11    1    4    4    0    0 -0.32491514594E-02 -0.45458840138E-01 -0.89358866589E-01  0.10031117231E+00  0.51100000000E-03 0.  1.
         11    1    4    4    0    0 -0.57242263685E-03 -0.20093429976E-01 -0.17560899221E-01  0.26696814386E-01  0.51100000000E-03 0. -1.
</event>
<event>
 8    1  0.1117354E+005  0.1043930E+01  0.7957747E-01            NaN
         13   -1    0    0    0    0  0.00000000000E+00  0.00000000000E+00  0.74505805969E-08  0.10566000000E+00  0.10566000000E+00 0.  1.
     999900   -1    0    0    0    0 -0.00000000000E+00 -0.00000000000E+00 -0.74505805969E-08  0.93827000000E+00  0.93827000000E+00 0.  1.
     999902    2    1    2    0    0  0.18755097335E-02 -0.29550908469E-02 -0.28100498768E-01  0.10156123707E+01  0.10152175133E+01 0.  0.
     999903    2    3    3    0    0  0.33444772166E-01  0.11965302277E+00 -0.15218188452E-01  0.12645809736E+00  0.18018282001E-01 0.  0.
         14    1    1    2    0    0 -0.18755097335E-02  0.29550908469E-02  0.28100498768E-01  0.28317629309E-01  0.00000000000E+00 0.  1.
     999901    1    3    3    0    0 -0.31569262432E-01 -0.12260811362E+00 -0.12882310317E-01  0.88915427333E+00  0.88000000000E+00 0.  1.
        -11    1    4    4    0    0  0.33330821782E-01  0.98824830219E-01 -0.88427131855E-02  0.10466969688E+00  0.51100000000E-03 0. -1.
         11    1    4    4    0    0  0.11395038426E-03  0.20828192551E-01 -0.63754752660E-02  0.21788400480E-01  0.51100000000E-03 0.  1.
</event>
<event>
 8    1  0.1117354E+005  0.1043930E+01  0.7957747E-01            NaN
         13   -1    0    0    0    0  0.00000000000E+00  0.00000000000E+00  0.74505805969E-08  0.10566000000E+00  0.10566000000E+00 0. -1.
     999900   -1    0    0    0    0 -0.00000000000E+00 -0.00000000000E+00 -0.74505805969E-08  0.93827000000E+00  0.93827000000E+00 0.  1.
     999902    2    1    2    0    0 -0.16707975069E-01  0.17675991584E-01  0.70685317382E-02  0.10186009406E+01  0.10182859691E+01 0.  0.
     999903    2    3    3    0    0  0.10613486728E+00  0.15228690581E-01  0.67174278269E-01  0.12803423677E+00  0.19592321288E-01 0.  0.
         14    1    1    2    0    0  0.16707975069E-01 -0.17675991584E-01 -0.70685317382E-02  0.25329059405E-01  0.00000000000E+00 0.  1.
     999901    1    3    3    0    0 -0.12284284235E+00  0.24473010035E-02 -0.60105746531E-01  0.89056670383E+00  0.88000000000E+00 0.  1.
        -11    1    4    4    0    0  0.50926858529E-01 -0.24654831546E-02  0.29895214834E-01  0.59106755263E-01  0.51100000000E-03 0. -1.
         11    1    4    4    0    0  0.55208008756E-01  0.17694173736E-01  0.37279063435E-01  0.68927481505E-01  0.51100000000E-03 0.  1.
</event>
<event>
 8    1  0.1117354E+005  0.1043930E+01  0.7957747E-01            NaN
         13   -1    0    0    0    0  0.00000000000E+00  0.00000000000E+00  0.74505805969E-08  0.10566000000E+00  0.10566000000E+00 0.  1.
     999900   -1    0    0    0    0 -0.00000000000E+00 -0.00000000000E+00 -0.74505805969E-08  0.93827000000E+00  0.93827000000E+00 0. -1.
     999902    2    1    2    0    0  0.13218389380E-01 -0.15633733731E-01 -0.61686672760E-02  0.10225479537E+01  0.10223243740E+01 0.  0.
     999903    2    3    3    0    0  0.80775174759E-01 -0.72817470457E-01  0.76406846975E-01  0.13426161779E+00  0.19004286013E-01 0.  0.
         14    1    1    2    0    0 -0.13218389380E-01  0.15633733731E-01  0.61686672760E-02  0.21382046304E-01  0.00000000000E+00 0.  1.
     999901    1    3    3    0    0 -0.67556785378E-01  0.57183736727E-01 -0.82575514251E-01  0.88828633590E+00  0.88000000000E+00 0.  1.
        -11    1    4    4    0    0  0.29903583254E-01 -0.26461029712E-01  0.39480299053E-01  0.56154835225E-01  0.51100000000E-03 0.  1.
         11    1    4    4    0    0  0.50871591505E-01 -0.46356440746E-01  0.36926547923E-01  0.78106782570E-01  0.51100000000E-03 0. -1.
</event>
<event>
 8    1  0.1117354E+005  0.1043930E+01  0.7957747E-01            NaN
         13   -1    0    0    0    0  0.00000000000E+00  0.00000000000E+00  0.74505805969E-08  0.10566000000E+00  0.10566000000E+00 0.  1.
     999900   -1    0    0    0    0 -0.00000000000E+00 -0.00000000000E+00 -0.74505805969E-08  0.93827000000E+00  0.93827000000E+00 0. -1.
     999902    2    1    2    0    0 -0.14112954855E-01 -0.18275324244E-01 -0.79562406746E-03  0.10208259746E+01  0.10205644882E+01 0.  0.
     999903    2    3    3    0    0 -0.11765118592E+00 -0.55407644508E-02  0.58031301096E-01  0.13271396512E+00  0.19309661082E-01 0.  0.
         14    1    1    2    0    0  0.14112954855E-01  0.18275324244E-01  0.79562406746E-03  0.23104025377E-01  0.00000000000E+00 0. -1.
     999901    1    3    3    0    0  0.10353823106E+00 -0.12734559793E-01 -0.58826925163E-01  0.88811200951E+00  0.88000000000E+00 0.  1.
        -11    1    4    4    0    0 -0.58954728393E-01  0.67399824154E-02  0.30652249224E-01  0.66790035682E-01  0.51100000000E-03 0. -1.
         11    1    4    4    0    0 -0.58696457527E-01 -0.12280746866E-01  0.27379051872E-01  0.65923929435E-01  0.51100000000E-03 0.  1.
</event>
<event>
 8    1  0.1117354E+005  0.1043930E+01  0.7957747E-01            NaN
         13   -1    0    0    0    0  0.00000000000E+00  0.00000000000E+00  0.74505805969E-08  0.10566000000E+00  0.10566000000E+00 0.  1.
     999900   -1    0    0    0    0 -0.00000000000E+00 -0.00000000000E+00 -0.74505805969E-08  0.93827000000E+00  0.93827000000E+00 0.  1.
     999902    2    1    2    0    0  0.84487778657E-02  0.15253576981E-01  0.15897334911E-01  0.10203338411E+01  0.10200609632E+01 0.  0.
     999903    2    3    3    0    0  0.23283355684E-01 -0.54748262716E-01  0.11555769124E+00  0.13182244055E+00  0.22002020467E-01 0.  0.
         14    1    1    2    0    0 -0.84487778657E-02 -0.15253576981E-01 -0.15897334911E-01  0.23596158912E-01  0.00000000000E+00 0. -1.
     999901    1    3    3    0    0 -0.14834577818E-01  0.70001839697E-01 -0.99660356334E-01  0.88851140054E+00  0.88000000000E+00 0.  1.
        -11    1    4    4    0    0  0.36812459585E-02 -0.13348765648E-01  0.11073975308E-01  0.17737958346E-01  0.51100000000E-03 0.  1.
         11    1    4    4    0    0  0.19602109725E-01 -0.41399497068E-01  0.10448371594E+00  0.11408448221E+00  0.51100000000E-03 0. -1.
</event>
<event>
 8    1  0.1117354E+005  0.1043930E+01  0.7957747E-01            NaN
         13   -1    0    0    0    0  0.00000000000E+00  0.00000000000E+00  0.74505805969E-08  0.10566000000E+00  0.10566000000E+00 0.  1.
     999900   -1    0    0    0    0 -0.00000000000E+00 -0.00000000000E+00 -0.74505805969E-08  0.93827000000E+00  0.93827000000E+00 0.  1.
     999902    2    1    2    0    0 -0.10573155350E-01 -0.18212313243E-01 -0.87645683170E-02  0.10211199666E+01  0.10208651667E+01 0.  0.
     999903    2    3    3    0    0 -0.87164142589E-01  0.72132664559E-01  0.61333418607E-01  0.13042241851E+00  0.21154431248E-01 0.  0.
         14    1    1    2    0    0  0.10573155350E-01  0.18212313243E-01  0.87645683170E-02  0.22810033439E-01  0.00000000000E+00 0.  1.
     999901    1    3    3    0    0  0.76590987239E-01 -0.90344977801E-01 -0.70097986924E-01  0.89069754805E+00  0.88000000000E+00 0.  1.
        -11    1    4    4    0    0 -0.50595704700E-01  0.28564627064E-01  0.28098043073E-01  0.64541648560E-01  0.51100000000E-03 0. -1.
         11    1    4    4    0    0 -0.36568437889E-01  0.43568037494E-01  0.33235375534E-01  0.65880769946E-01  0.51100000000E-03 0.  1.
</event>
<event>
 8    1  0.1117354E+005  0.1043930E+01  0.7957747E-01            NaN
         13   -1    0    0    0    0  0.00000000000E+00  0.00000000000E+00  0.74505805969E-08  0.10566000000E+00  0.10566000000E+00 0. -1.
     999900   -1    0    0    0    0 -0.00000000000E+00 -0.00000000000E+00 -0.74505805969E-08  0.93827000000E+00  0.93827000000E+00 0.  1.
     999902    2    1    2    0    0 -0.46266625607E-02 -0.41902783847E-02  0.22807257945E-01  0.10202839548E+01  0.10200099083E+01 0.  0.
     999903    2    3    3    0    0  0.49168631723E-02  0.79424610685E-01 -0.98016938086E-01  0.12805023265E+00  0.21379841096E-01 0.  0.
         14    1    1    2    0    0  0.46266625607E-02  0.41902783847E-02 -0.22807257945E-01  0.23646045216E-01  0.00000000000E+00 0.  1.
     999901    1    3    3    0    0 -0.95435257330E-02 -0.83614889070E-01  0.12082419603E+00  0.89223372213E+00  0.88000000000E+00 0. -1.
        -11    1    4    4    0    0  0.94408992880E-02  0.14809956711E-01 -0.22836424453E-01  0.28813691189E-01  0.51100000000E-03 0.  1.
         11    1    4    4    0    0 -0.45240361157E-02  0.64614653974E-01 -0.75180513632E-01  0.99236541465E-01  0.51100000000E-03 0. -1.
</event>
<event>
 8    1  0.1117354E+005  0.1043930E+01  0.7957747E-01            NaN
         13   -1    0    0    0    0  0.00000000000E+00  0.00000000000E+00  0.74505805969E-08  0.10566000000E+00  0.10566000000E+00 0.  1.
     999900   -1    0    0    0    0 -0.00000000000E+00 -0.00000000000E+00 -0.74505805969E-08  0.93827000000E+00  0.93827000000E+00 0.  1.
     999902    2    1    2    0    0 -0.44034639510E-02 -0.37632014190E-02  0.22249122053E-01  0.10209392277E+01  0.10206803275E+01 0.  0.
     999903    2    3    3    0    0 -0.20990309117E-01  0.12677814181E+00  0.17637116706E-01  0.13114293846E+00  0.19341977778E-01 0.  0.
         14    1    1    2    0    0  0.44034639510E-02  0.37632014190E-02 -0.22249122053E-01  0.22990772319E-01  0.00000000000E+00 0. -1.
     999901    1    3    3    0    0  0.16586845166E-01 -0.13054134323E+00  0.46120053469E-02  0.88979628922E+00  0.88000000000E+00 0.  1.
        -11    1    4    4    0    0 -0.29160634339E-02  0.30691468137E-01 -0.37406280377E-02  0.31059991331E-01  0.51100000000E-03 0. -1.
         11    1    4    4    0    0 -0.18074245683E-01  0.96086673671E-01  0.21377744744E-01  0.10008294713E+00  0.51100000000E-03 0.  1.
</event>
<event>
 8    1  0.1117354E+005  0.1043930E+01  0.7957747E-01            NaN
         13   -1    0    0    0    0  0.00000000000E+00  0.00000000000E+00  0.74505805969E-08  0.10566000000E+00  0.10566000000E+00 0. -1.
     999900   -1    0    0    0    0 -0.00000000000E+00 -0.00000000000E+00 -0.74505805969E-08  0.93827000000E+00  0.93827000000E+00 0. -1.
     999902    2    1    2    0    0  0.14802896450E-01  0.74596142714E-02 -0.15609254801E-01  0.10211611523E+01  0.10209072821E+01 0.  0.
     999903    2    3    3    0    0 -0.77461236557E-01 -0.99104160568E-01  0.22032971086E-01  0.12914913139E+00  0.19291669528E-01 0.  0.
         14    1    1    2    0    0 -0.14802896450E-01 -0.74596142714E-02  0.15609254801E-01  0.22768847661E-01  0.00000000000E+00 0. -1.
     999901    1    3    3    0    0  0.92264133006E-01  0.10656377484E+00 -0.37642225887E-01  0.89201202095E+00  0.88000000000E+00 0. -1.
        -11    1    4    4    0    0 -0.42071336555E-01 -0.39879461851E-01  0.57224171441E-02  0.58252691063E-01  0.51100000000E-03 0.  1.
         11    1    4    4    0    0 -0.35389900001E-01 -0.59224698717E-01  0.16310553942E-01  0.70896440327E-01  0.51100000000E-03 0. -1.
</event>
<event>
 8    1  0.1117354E+005  0.1043930E+01  0.7957747E-01            NaN
         13   -1    0    0    0    0  0.00000000000E+00  0.00000000000E+00  0.74505805969E-08  0.10566000000E+00  0.10566000000E+00 0.  1.
     999900   -1    0    0    0    0 -0.00000000000E+00 -0.00000000000E+00 -0.74505805969E-08  0.93827000000E+00  0.93827000000E+00 0. -1.
     999902    2    1    2    0    0  0.11997901080E-01  0.82828170744E-02  0.20785416687E-01  0.10185412577E+01  0.10182247814E+01 0.  0.
     999903    2    3    3    0    0  0.29692580680E-01 -0.17124143291E-01  0.12566945854E+00  0.13177224744E+00  0.19905445348E-01 0.  0.
         14    1    1    2    0    0 -0.11997901080E-01 -0.82828170744E-02 -0.20785416687E-01  0.25388742306E-01  0.00000000000E+00 0. -1.
     999901    1    3    3    0    0 -0.17694679600E-01  0.25406960365E-01 -0.10488404185E+00  0.88676901026E+00  0.88000000000E+00 0. -1.
        -11    1    4    4    0    0  0.14662910775E-02 -0.10903785156E-03  0.39236383232E-01  0.39267248299E-01  0.51100000000E-03 0.  1.
         11    1    4    4    0    0  0.28226289603E-01 -0.17015105439E-01  0.86433075303E-01  0.92504999137E-01  0.51100000000E-03 0. -1.
</event>
<event>
 8    1  0.1117354E+005  0.1043930E+01  0.7957747E-01            NaN
         13   -1    0    0    0    0  0.00000000000E+00  0.00000000000E+00  0.74505805969E-08  0.10566000000E+00  0.10566000000E+00 0. -1.
     999900   -1    0    0    0    0 -0.00000000000E+00 -0.00000000000E+00 -0.74505805969E-08  0.93827000000E+00  0.93827000000E+00 0.  1.
     999902    2    1    2    0    0  0.16597100129E-01 -0.80417977928E-02 -0.15299898702E-01  0.10199670881E+01  0.10196855593E+01 0.  0.
     999903    2    3    3    0    0  0.13447812439E-01  0.62173006782E-01 -0.11369490630E+00  0.13169820187E+00  0.19275845640E-01 0.  0.
         14    1    1    2    0    0 -0.16597100129E-01  0.80417977928E-02  0.15299898702E-01  0.23962911858E-01  0.00000000000E+00 0. -1.
     999901    1    3    3    0    0  0.31492876903E-02 -0.70214804575E-01  0.98395007602E-01  0.88826888627E+00  0.88000000000E+00 0. -1.
        -11    1    4    4    0    0 -0.14461322437E-02  0.18048704572E-01 -0.19478104647E-01  0.26598960822E-01  0.51100000000E-03 0. -1.
         11    1    4    4    0    0  0.14893944683E-01  0.44124302211E-01 -0.94216801657E-01  0.10509924105E+00  0.51100000000E-03 0.  1.
</event>
<event>
 8    1  0.1117354E+005  0.1043930E+01  0.7957747E-01            NaN
         13   -1    0    0    0    0  0.00000000000E+00  0.00000000000E+00  0.74505805969E-08  0.10566000000E+00  0.10566000000E+00 0. -1.
     999900   -1    0    0    0    0 -0.00000000000E+00 -0.00000000000E+00 -0.74505805969E-08  0.93827000000E+00  0.93827000000E+00 0.  1.
     999902    2    1    2    0    0 -0.16868060513E-01  0.22722376628E-01  0.70824131622E-02  0.10147581224E+01  0.10143387248E+01 0.  0.
     999903    2    3    3    0    0  0.58274245909E-01 -0.97353030112E-01 -0.39878615595E-01  0.12219450691E+00  0.21626218551E-01 0.  0.
         14    1    1    2    0    0  0.16868060513E-01 -0.22722376628E-01 -0.70824131622E-02  0.29171877576E-01  0.00000000000E+00 0. -1.
     999901    1    3    3    0    0 -0.75142306422E-01  0.12007540674E+00  0.46961028757E-01  0.89256361551E+00  0.88000000000E+00 0. -1.
        -11    1    4    4    0    0  0.41021381345E-01 -0.80776272205E-01 -0.24879180430E-01  0.93951022446E-01  0.51100000000E-03 0. -1.
         11    1    4    4    0    0  0.17252864564E-01 -0.16576757907E-01 -0.14999435165E-01  0.28243484464E-01  0.51100000000E-03 0.  1.
</event>
<event>
 8    1  0.1117354E+005  0.1043930E+01  0.7957747E-01            NaN
         13   -1    0    0    0    0  0.00000000000E+00  0.00000000000E+00  0.74505805969E-08  0.10566000000E+00  0.10566000000E+00 0.  1.
     999900   -1    0    0    0    0 -0.00000000000E+00 -0.00000000000E+00 -0.74505805969E-08  0.93827000000E+00  0.93827000000E+00 0.  1.
     999902    2    1    2    0    0 -0.27082915926E-02  0.17741404544E-01  0.16141573278E-01  0.10197920078E+01  0.10195063004E+01 0.  0.
     999903    2    3    3    0    0 -0.12467338293E+00 -0.26919475295E-01  0.17276603724E-01  0.13025765436E+00  0.20011619646E-01 0.  0.
         14    1    1    2    0    0  0.27082915926E-02 -0.17741404544E-01 -0.16141573278E-01  0.24137992179E-01  0.00000000000E+00 0. -1.
     999901    1    3    3    0    0  0.12196509134E+00  0.44660879839E-01 -0.11350304463E-02  0.88953435346E+00  0.88000000000E+00 0. -1.
        -11    1    4    4    0    0 -0.82459598085E-01 -0.12021972133E-01  0.34558155359E-02  0.83404537720E-01  0.51100000000E-03 0. -1.
         11    1    4    4    0    0 -0.42213784848E-01 -0.14897503163E-01  0.13820788189E-01  0.46853116640E-01  0.51100000000E-03 0.  1.
</event>
<event>
 7    1  0.1117354E+005  0.1043930E+01  0.7957747E-01            NaN
         13   -1    0    0    0    0  0.00000000000E+00  0.00000000000E+00  0.74505805969E-08  0.10566000000E+00  0.10566000000E+00 0.  1.
     999900   -1    0    0    0    0 -0.00000000000E+00 -0.00000000000E+00 -0.74505805969E-08  0.93827000000E+00  0.93827000000E+00 0.  1.
     999902    2    1    2    0    0  0.46233559419E-02 -0.18651020626E-02  0.24811893848E-01  0.10186222126E+01  0.10183077766E+01 0.  0.
         14    1    1    2    0    0 -0.46233559419E-02  0.18651020626E-02 -0.24811893848E-01  0.25307787383E-01  0.00000000000E+00 0. -1.
     999901    1    3    3    0    0 -0.66586534752E-01 -0.98362964118E-01  0.45142598982E-01  0.88912704017E+00  0.88000000000E+00 0. -1.
        -11    1    3    3    0    0  0.51691233727E-01  0.75412875166E-01  0.44663535034E-02  0.91538488187E-01  0.51100000000E-03 0. -1.
         11    1    3    3    0    0  0.19518656967E-01  0.21084986889E-01 -0.24797058637E-01  0.37956684259E-01  0.51100000000E-03 0.  1.
</event>
<event>
 8    1  0.1117354E+005  0.1043930E+01  0.7957747E-01            NaN
         13   -1    0    0    0    0  0.00000000000E+00  0.00000000000E+00  0.74505805969E-08  0.10566000000E+00  0.10566000000E+00 0. -1.
     999900   -1    0    0    0    0 -0.00000000000E+00 -0.00000000000E+00 -0.74505805969E-08  0.93827000000E+00  0.93827000000E+00 0.  1.
     999902    2    1    2    0    0  0.22321819712E-01  0.49535950884E-03  0.12440227970E-01  0.10183708864E+01  0.10180500940E+01 0.  0.
     999903    2    3    3    0    0  0.70668129087E-01  0.36533846455E-01 -0.99841962071E-01  0.12918956160E+00  0.19819662704E-01 0.  0.
         14    1    1    2    0    0 -0.22321819712E-01 -0.49535950884E-03 -0.12440227970E-01  0.25559113605E-01  0.00000000000E+00 0.  1.
     999901    1    3    3    0    0 -0.48346309374E-01 -0.36038486946E-01  0.11228219004E+00  0.88918132480E+00  0.88000000000E+00 0. -1.
        -11    1    4    4    0    0  0.24303445304E-01  0.17819281499E-01 -0.51311569371E-01  0.59509012083E-01  0.51100000000E-03 0. -1.
         11    1    4    4    0    0  0.46364683783E-01  0.18714564957E-01 -0.48530392699E-01  0.69680549513E-01  0.51100000000E-03 0.  1.
</event>
<event>
 8    1  0.1117354E+005  0.1043930E+01  0.7957747E-01            NaN
         13   -1    0    0    0    0  0.00000000000E+00  0.00000000000E+00  0.74505805969E-08  0.10566000000E+00  0.10566000000E+00 0.  1.
     999900   -1    0    0    0    0 -0.00000000000E+00 -0.00000000000E+00 -0.74505805969E-08  0.93827000000E+00  0.93827000000E+00 0. -1.
     999902    2    1    2    0    0  0.24284650219E-01 -0.58013600445E-02  0.62182116588E-02  0.10181993535E+01  0.10178741854E+01 0.  0.
     999903    2    3    3    0    0 -0.11861387975E+00 -0.37259211518E-01  0.25921828600E-02  0.12611038124E+00  0.20966819772E-01 0.  0.
         14    1    1    2    0    0 -0.24284650219E-01  0.58013600445E-02 -0.62182116588E-02  0.25730646530E-01  0.00000000000E+00 0. -1.
     999901    1    3    3    0    0  0.14289852997E+00  0.31457851473E-01  0.36260287988E-02  0.89208897223E+00  0.88000000000E+00 0. -1.
        -11    1    4    4    0    0 -0.32827140673E-01 -0.12692349601E-01  0.99291482692E-02  0.36572749548E-01  0.51100000000E-03 0.  1.
         11    1    4    4    0    0 -0.85786739082E-01 -0.24566861916E-01 -0.73369654092E-02  0.89537631693E-01  0.51100000000E-03 0. -1.
</event>
<event>
 8    1  0.1160533E+005  0.1043930E+01  0.7957747E-01            NaN
         13   -1    0    0    0    0  0.00000000000E+00  0.00000000000E+00  0.74505805969E-08  0.10566000000E+00  0.10566000000E+00 0.  1.
     999900   -1    0    0    0    0 -0.00000000000E+00 -0.00000000000E+00 -0.74505805969E-08  0.93827000000E+00  0.93827000000E+00 0.  1.
     999902    2    1    2    0    0  0.23814570204E-01 -0.88484528825E-02 -0.53398619035E-02  0.10179695879E+01  0.10176385109E+01 0.  0.
     999903    2    3    3    0    0  0.10426092904E+00  0.59280861046E-01 -0.47576000346E-01  0.13067194252E+00  0.20666856154E-01 0.  0.
         14    1    1    2    0    0 -0.23814570204E-01  0.88484528825E-02  0.53398619035E-02  0.25960412123E-01  0.00000000000E+00 0. -1.
     999901    1    3    3    0    0 -0.80446358832E-01 -0.68129313929E-01  0.42236138442E-01  0.88729764536E+00  0.88000000000E+00 0. -1.
        -11    1    4    4    0    0  0.41915051135E-01  0.20470293517E-01 -0.82781975138E-02  0.47378202830E-01  0.51100000000E-03 0.  1.
         11    1    4    4    0    0  0.62345877901E-01  0.38810567529E-01 -0.39297802832E-01  0.83293739690E-01  0.51100000000E-03 0. -1.
</event>
<event>
 8    1  0.1117354E+005  0.1043930E+01  0.7957747E-01            NaN
         13   -1    0    0    0    0  0.00000000000E+00  0.00000000000E+00  0.74505805969E-08  0.10566000000E+00  0.10566000000E+00 0. -1.
     999900   -1    0    0    0    0 -0.00000000000E+00 -0.00000000000E+00 -0.74505805969E-08  0.93827000000E+00  0.93827000000E+00 0. -1.
     999902    2    1    2    0    0 -0.99755542614E-02 -0.35212364597E-02  0.21704642284E-01  0.10197845597E+01  0.10194986739E+01 0.  0.
     999903    2    3    3    0    0  0.57083523724E-01 -0.26158587127E-01  0.11451329970E+00  0.13207806743E+00  0.19710903763E-01 0.  0.
         14    1    1    2    0    0  0.99755542614E-02  0.35212364597E-02 -0.21704642284E-01  0.24145440267E-01  0.00000000000E+00 0.  1.
     999901    1    3    3    0    0 -0.67059077986E-01  0.22637350667E-01 -0.92808657413E-01  0.88770649230E+00  0.88000000000E+00 0. -1.
        -11    1    4    4    0    0  0.14135440869E-01 -0.31407350485E-03  0.38568642467E-01  0.41081755482E-01  0.51100000000E-03 0.  1.
         11    1    4    4    0    0  0.42948082855E-01 -0.25844513622E-01  0.75944657231E-01  0.90996311948E-01  0.51100000000E-03 0. -1.
</event>
<event>
 8    1  0.1117354E+005  0.1043930E+01  0.7957747E-01            NaN
         13   -1    0    0    0    0  0.00000000000E+00  0.00000000000E+00  0.74505805969E-08  0.10566000000E+00  0.10566000000E+00 0. -1.
     999900   -1    0    0    0    0 -0.00000000000E+00 -0.00000000000E+00 -0.74505805969E-08  0.93827000000E+00  0.93827000000E+00 0.  1.
     999902    2    1    2    0    0 -0.20118255979E-01  0.13256252556E-01 -0.15589068789E-02  0.10197866231E+01  0.10195007867E+01 0.  0.
     999903    2    3    3    0    0 -0.76720551450E-01  0.10482682773E+00  0.19016474691E-01  0.13298769643E+00  0.21198921302E-01 0.  0.
         14    1    1    2    0    0  0.20118255979E-01 -0.13256252556E-01  0.15589068789E-02  0.24143376858E-01  0.00000000000E+00 0.  1.
     999901    1    3    3    0    0  0.56602295471E-01 -0.91570575178E-01 -0.20575381570E-01  0.88679892671E+00  0.88000000000E+00 0.  1.
        -11    1    4    4    0    0 -0.21836111171E-01  0.15697470443E-01  0.53632722942E-02  0.27427215317E-01  0.51100000000E-03 0.  1.
         11    1    4    4    0    0 -0.54884440279E-01  0.89129357292E-01  0.13653202397E-01  0.10556048111E+00  0.51100000000E-03 0. -1.
</event>
<event>
 8    1  0.1117354E+005  0.1043930E+01  0.7957747E-01            NaN
         13   -1    0    0    0    0  0.00000000000E+00  0.00000000000E+00  0.74505805969E-08  0.10566000000E+00  0.10566000000E+00 0. -1.
     999900   -1    0    0    0    0 -0.00000000000E+00 -0.00000000000E+00 -0.74505805969E-08  0.93827000000E+00  0.93827000000E+00 0. -1.
     999902    2    1    2    0    0  0.99061297576E-02  0.69045914102E-02  0.19364434448E-01  0.10211092614E+01  0.10208542196E+01 0.  0.
     999903    2    3    3    0    0 -0.46265674353E-01 -0.11734066168E+00 -0.22249682266E-01  0.12963638507E+00  0.20029989168E-01 0.  0.
         14    1    1    2    0    0 -0.99061297576E-02 -0.69045914102E-02 -0.19364434448E-01  0.22820738612E-01  0.00000000000E+00 0.  1.
     999901    1    3    3    0    0  0.56171804110E-01  0.12424525309E+00  0.41614116714E-01  0.89147287631E+00  0.88000000000E+00 0.  1.
        -11    1    4    4    0    0 -0.44639408664E-01 -0.10574457966E+00 -0.14759658546E-01  0.11572684034E+00  0.51100000000E-03 0.  1.
         11    1    4    4    0    0 -0.16262656885E-02 -0.11596082025E-01 -0.74900237194E-02  0.13909544735E-01  0.51100000000E-03 0. -1.
</event>
<event>
 8    1  0.1117354E+005  0.1043930E+01  0.7957747E-01            NaN
         13   -1    0    0    0    0  0.00000000000E+00  0.00000000000E+00  0.74505805969E-08  0.10566000000E+00  0.10566000000E+00 0.  1.
     999900   -1    0    0    0    0 -0.00000000000E+00 -0.00000000000E+00 -0.74505805969E-08  0.93827000000E+00  0.93827000000E+00 0. -1.
     999902    2    1    2    0    0 -0.18813758851E-01  0.14436075952E-01  0.30085233622E-02  0.10200258367E+01  0.10197457028E+01 0.  0.
     999903    2    3    3    0    0  0.63129427666E-01 -0.36136727099E-01  0.10459123965E+00  0.12896391826E+00  0.20029406333E-01 0.  0.
         14    1    1    2    0    0  0.18813758851E-01 -0.14436075952E-01 -0.30085233622E-02  0.23904163315E-01  0.00000000000E+00 0. -1.
     999901    1    3    3    0    0 -0.81943186517E-01  0.50572803051E-01 -0.10158271629E+00  0.89106191843E+00  0.88000000000E+00 0. -1.
        -11    1    4    4    0    0  0.37007169025E-01 -0.15322775025E-01  0.71426336262E-01  0.81892005877E-01  0.51100000000E-03 0. -1.
         11    1    4    4    0    0  0.26122258642E-01 -0.20813952074E-01  0.33164903386E-01  0.47071912380E-01  0.51100000000E-03 0.  1.
</event>
<event>
 8    1  0.1117354E+005  0.1043930E+01  0.7957747E-01            NaN
         13   -1    0    0    0    0  0.00000000000E+00  0.00000000000E+00  0.74505805969E-08  0.10566000000E+00  0.10566000000E+00 0. -1.
     999900   -1    0    0    0    0 -0.00000000000E+00 -0.00000000000E+00 -0.74505805969E-08  0.93827000000E+00  0.93827000000E+00 0.  1.
     999902    2    1    2    0    0  0.78796849307E-03 -0.18695942188E-01  0.16075583908E-01  0.10192605139E+01  0.10189619284E+01 0.  0.
     999903    2    3    3    0    0 -0.12728714433E+00  0.19338779236E-02 -0.10725515913E-01  0.12934640398E+00  0.20241011223E-01 0.  0.
         14    1    1    2    0    0 -0.78796849307E-03  0.18695942188E-01 -0.16075583908E-01  0.24669486144E-01  0.00000000000E+00 0.  1.
     999901    1    3    3    0    0  0.12807511282E+00 -0.20629820112E-01  0.26801099821E-01  0.88991410987E+00  0.88000000000E+00 0.  1.
        -11    1    4    4    0    0 -0.36344592731E-01  0.42413703110E-02 -0.11534415176E-01  0.38369551696E-01  0.51100000000E-03 0.  1.
         11    1    4    4    0    0 -0.90942551600E-01 -0.23074923874E-02  0.80889926212E-03  0.90976852285E-01  0.51100000000E-03 0. -1.
</event>
<event>
 8    1  0.1117354E+005  0.1043930E+01  0.7957747E-01            NaN
         13   -1    0    0    0    0  0.00000000000E+00  0.00000000000E+00  0.74505805969E-08  0.10566000000E+00  0.10566000000E+00 0.  1.
     999900   -1    0    0    0    0 -0.00000000000E+00 -0.00000000000E+00 -0.74505805969E-08  0.93827000000E+00  0.93827000000E+00 0. -1.
     999902    2    1    2    0    0  0.35515963160E-02 -0.16645683740E-01  0.16295935420E-01  0.10203662538E+01  0.10200941338E+01 0.  0.
     999903    2    3    3    0    0 -0.40700136585E-01  0.10893931579E+00  0.53316095880E-01  0.12957991565E+00  0.20593028358E-01 0.  0.
         14    1    1    2    0    0 -0.35515963160E-02  0.16645683740E-01 -0.16295935420E-01  0.23563746195E-01  0.00000000000E+00 0. -1.
     999901    1    3    3    0    0  0.44251732901E-01 -0.12558499953E+00 -0.37020160460E-01  0.89078633816E+00  0.88000000000E+00 0. -1.
        -11    1    4    4    0    0 -0.27982444011E-01  0.93930086632E-01  0.40226363010E-01  0.10594479576E+00  0.51100000000E-03 0. -1.
         11    1    4    4    0    0 -0.12717692574E-01  0.15009229154E-01  0.13089732870E-01  0.23635119882E-01  0.51100000000E-03 0.  1.
</event>
<event>
 8    1  0.1117354E+005  0.1043930E+01  0.7957747E-01            NaN
         13   -1    0    0    0    0  0.00000000000E+00  0.00000000000E+00  0.74505805969E-08  0.10566000000E+00  0.10566000000E+00 0. -1.
     999900   -1    0    0    0    0 -0.00000000000E+00 -0.00000000000E+00 -0.74505805969E-08  0.93827000000E+00  0.93827000000E+00 0.  1.
     999902    2    1    2    0    0 -0.15013610527E-01  0.16781876877E-01  0.11654446591E-01  0.10185751973E+01  0.10182595772E+01 0.  0.
     999903    2    3    3    0    0  0.10598070398E+00  0.67203196502E-01 -0.18571537274E-01  0.12835300950E+00  0.19529818617E-01 0.  0.
         14    1    1    2    0    0  0.15013610527E-01 -0.16781876877E-01 -0.11654446591E-01  0.25354802660E-01  0.00000000000E+00 0.  1.
     999901    1    3    3    0    0 -0.12099431451E+00 -0.50421319625E-01  0.30225983864E-01  0.89022218784E+00  0.88000000000E+00 0. -1.
        -11    1    4    4    0    0  0.16307640817E-01  0.18220744017E-01  0.22093594535E-03  0.24459039132E-01  0.51100000000E-03 0. -1.
         11    1    4    4    0    0  0.89673063166E-01  0.48982452484E-01 -0.18792473219E-01  0.10389397037E+00  0.51100000000E-03 0.  1.
</event>
<event>
 8    1  0.1117354E+005  0.1043930E+01  0.7957747E-01            NaN
         13   -1    0    0    0    0  0.00000000000E+00  0.00000000000E+00  0.74505805969E-08  0.10566000000E+00  0.10566000000E+00 0.  1.
     999900   -1    0    0    0    0 -0.00000000000E+00 -0.00000000000E+00 -0.74505805969E-08  0.93827000000E+00  0.93827000000E+00 0.  1.
     999902    2    1    2    0    0  0.50736075524E-02 -0.11035176971E-01  0.21612291949E-01  0.10191387155E+01  0.10188371379E+01 0.  0.
     999903    2    3    3    0    0  0.77458956189E-02 -0.11020134225E+00  0.69870085543E-01  0.13225096380E+00  0.20103577737E-01 0.  0.
         14    1    1    2    0    0 -0.50736075524E-02  0.11035176971E-01 -0.21612291949E-01  0.24791284510E-01  0.00000000000E+00 0. -1.
     999901    1    3    3    0    0 -0.26722880665E-02  0.99166165283E-01 -0.48257793593E-01  0.88688775169E+00  0.88000000000E+00 0.  1.
        -11    1    4    4    0    0  0.43079674330E-02 -0.72281661892E-01  0.56664815289E-01  0.91947591823E-01  0.51100000000E-03 0. -1.
         11    1    4    4    0    0  0.34379281859E-02 -0.37919680362E-01  0.13205270253E-01  0.40303371974E-01  0.51100000000E-03 0.  1.
</event>
<event>
 8    1  0.1117354E+005  0.1043930E+01  0.7957747E-01            NaN
         13   -1    0    0    0    0  0.00000000000E+00  0.00000000000E+00  0.74505805969E-08  0.10566000000E+00  0.10566000000E+00 0.  1.
     999900   -1    0    0    0    0 -0.00000000000E+00 -0.00000000000E+00 -0.74505805969E-08  0.93827000000E+00  0.93827000000E+00 0. -1.
     999902    2    1    2    0    0  0.22115137769E-01 -0.41828645483E-02 -0.65871821793E-02  0.10204786324E+01  0.10202091317E+01 0.  0.
     999903    2    3    3    0    0  0.72293778122E-01  0.93235097180E-01  0.51181363392E-01  0.13180244834E+00  0.28864852823E-01 0.  0.
         14    1    1    2    0    0 -0.22115137769E-01  0.41828645483E-02  0.65871821793E-02  0.23451367624E-01  0.00000000000E+00 0. -1.
     999901    1    3    3    0    0 -0.50178640353E-01 -0.97417961729E-01 -0.57768545572E-01  0.88867618404E+00  0.88000000000E+00 0. -1.
        -11    1    4    4    0    0  0.31543331145E-01  0.61413129331E-01  0.36270511648E-01  0.77989520643E-01  0.51100000000E-03 0.  1.
         11    1    4    4    0    0  0.40750446977E-01  0.31821967850E-01  0.14910851745E-01  0.53812927698E-01  0.51100000000E-03 0. -1.
</event>
<event>
 8    1  0.1117354E+005  0.1043930E+01  0.7957747E-01            NaN
         13   -1    0    0    0    0  0.00000000000E+00  0.00000000000E+00  0.74505805969E-08  0.10566000000E+00  0.10566000000E+00 0. -1.
     999900   -1    0    0    0    0 -0.00000000000E+00 -0.00000000000E+00 -0.74505805969E-08  0.93827000000E+00  0.93827000000E+00 0.  1.
     999902    2    1    2    0    0  0.12496877246E-01  0.11707468714E-01  0.22802367941E-01  0.10154136056E+01  0.10150131062E+01 0.  0.
     999903    2    3    3    0    0 -0.94968885377E-02  0.26555864152E-01 -0.11835878643E+00  0.12376868073E+00  0.22682133760E-01 0.  0.
         14    1    1    2    0    0 -0.12496877246E-01 -0.11707468714E-01 -0.22802367941E-01  0.28516394378E-01  0.00000000000E+00 0. -1.
     999901    1    3    3    0    0  0.21993765784E-01 -0.14848395437E-01  0.14116115437E+00  0.89164492489E+00  0.88000000000E+00 0. -1.
        -11    1    4    4    0    0  0.29050020555E-02  0.15158879877E-01 -0.29208652015E-01  0.33039932651E-01  0.51100000000E-03 0. -1.
         11    1    4    4    0    0 -0.12401890593E-01  0.11396984275E-01 -0.89150134416E-01  0.90728748081E-01  0.51100000000E-03 0.  1.
</event>
<event>
 8    1  0.1117354E+005  0.1043930E+01  0.7957747E-01            NaN
         13   -1    0    0    0    0  0.00000000000E+00  0.00000000000E+00  0.74505805969E-08  0.10566000000E+00  0.10566000000E+00 0. -1.
     999900   -1    0    0    0    0 -0.00000000000E+00 -0.00000000000E+00 -0.74505805969E-08  0.93827000000E+00  0.93827000000E+00 0.  1.
     999902    2    1    2    0    0  0.40633225380E-02 -0.22901576405E-01  0.43984134168E-02  0.10202585228E+01  0.10199838795E+01 0.  0.
     999903    2    3    3    0    0 -0.88276811334E-01  0.15835071651E-01 -0.91119002297E-01  0.12944383673E+00  0.20235843803E-01 0.  0.
         14    1    1    2    0    0 -0.40633225380E-02  0.22901576405E-01 -0.43984134168E-02  0.23671477192E-01  0.00000000000E+00 0.  1.
     999901    1    3    3    0    0  0.92340133872E-01 -0.38736648055E-01  0.95517415714E-01  0.89081468608E+00  0.88000000000E+00 0. -1.
        -11    1    4    4    0    0 -0.63212067635E-01  0.18687848048E-02 -0.62943152341E-01  0.89226450109E-01  0.51100000000E-03 0.  1.
         11    1    4    4    0    0 -0.25064743699E-01  0.13966286846E-01 -0.28175849956E-01  0.40217386622E-01  0.51100000000E-03 0. -1.
</event>
<event>
 8    1  0.1117354E+005  0.1043930E+01  0.7957747E-01            NaN
         13   -1    0    0    0    0  0.00000000000E+00  0.00000000000E+00  0.74505805969E-08  0.10566000000E+00  0.10566000000E+00 0. -1.
     999900   -1    0    0    0    0 -0.00000000000E+00 -0.00000000000E+00 -0.74505805969E-08  0.93827000000E+00  0.93827000000E+00 0.  1.
     999902    2    1    2    0    0 -0.16220448613E-01  0.20625626572E-01  0.57559066604E-02  0.10170664580E+01  0.10167116259E+01 0.  0.
     999903    2    3    3    0    0 -0.12731251762E+00 -0.72443087371E-02  0.62457897949E-02  0.12964411154E+00  0.22530615086E-01 0.  0.
         14    1    1    2    0    0  0.16220448613E-01 -0.20625626572E-01 -0.57559066604E-02  0.26863541951E-01  0.00000000000E+00 0.  1.
     999901    1    3    3    0    0  0.11109206901E+00  0.27869935309E-01 -0.48988313442E-03  0.88742234650E+00  0.88000000000E+00 0. -1.
        -11    1    4    4    0    0 -0.38036835166E-01 -0.39309792142E-02  0.12106808095E-01  0.40113455975E-01  0.51100000000E-03 0. -1.
         11    1    4    4    0    0 -0.89275682454E-01 -0.33133295228E-02 -0.58610182998E-02  0.89530655569E-01  0.51100000000E-03 0.  1.
</event>
<event>
 8    1  0.1117354E+005  0.1043930E+01  0.7957747E-01            NaN
         13   -1    0    0    0    0  0.00000000000E+00  0.00000000000E+00  0.74505805969E-08  0.10566000000E+00  0.10566000000E+00 0. -1.
     999900   -1    0    0    0    0 -0.00000000000E+00 -0.00000000000E+00 -0.74505805969E-08  0.93827000000E+00  0.93827000000E+00 0. -1.
     999902    2    1    2    0    0  0.12643147822E-01  0.21615944258E-01  0.38027721549E-02  0.10186009789E+01  0.10182860084E+01 0.  0.
     999903    2    3    3    0    0 -0.62620917867E-01 -0.15278396378E-01 -0.10858927705E+00  0.12750174500E+00  0.17614060830E-01 0.  0.
         14    1    1    2    0    0 -0.12643147822E-01 -0.21615944258E-01 -0.38027721549E-02  0.25329021084E-01  0.00000000000E+00 0.  1.
     999901    1    3    3    0    0  0.75264065689E-01  0.36894340636E-01  0.11239204920E+00  0.89109923391E+00  0.88000000000E+00 0.  1.
        -11    1    4    4    0    0 -0.19762456553E-01 -0.10216004576E-01 -0.50034158369E-01  0.54759470078E-01  0.51100000000E-03 0. -1.
         11    1    4    4    0    0 -0.42858461314E-01 -0.50623918020E-02 -0.58555118678E-01  0.72742274926E-01  0.51100000000E-03 0.  1.
</event>
<event>
 8    1  0.1117354E+005  0.1043930E+01  0.7957747E-01            NaN
         13   -1    0    0    0    0  0.00000000000E+00  0.00000000000E+00  0.74505805969E-08  0.10566000000E+00  0.10566000000E+00 0. -1.
     999900   -1    0    0    0    0 -0.00000000000E+00 -0.00000000000E+00 -0.74505805969E-08  0.93827000000E+00  0.93827000000E+00 0. -1.
     999902    2    1    2    0    0  0.22149947339E-01 -0.10595519194E-01  0.13818051151E-02  0.10193374284E+01  0.10190407245E+01 0.  0.
     999903    2    3    3    0    0 -0.23360591450E-01  0.12045079819E+00  0.30385323892E-01  0.12799823898E+00  0.20153641286E-01 0.  0.
         14    1    1    2    0    0 -0.22149947339E-01  0.10595519194E-01 -0.13818051151E-02  0.24592571633E-01  0.00000000000E+00 0.  1.
     999901    1    3    3    0    0  0.45510538790E-01 -0.13104631738E+00 -0.29003518777E-01  0.89133918939E+00  0.88000000000E+00 0. -1.
        -11    1    4    4    0    0 -0.77711359448E-03  0.41146626075E-01  0.36724721682E-02  0.41320659672E-01  0.51100000000E-03 0.  1.
         11    1    4    4    0    0 -0.22583477856E-01  0.79304172111E-01  0.26712851724E-01  0.86677579307E-01  0.51100000000E-03 0. -1.
</event>
<event>
 8    1  0.1260521E+005  0.1043930E+01  0.7957747E-01            NaN
         13   -1    0    0    0    0  0.00000000000E+00  0.00000000000E+00  0.74505805969E-08  0.10566000000E+00  0.10566000000E+00 0.  1.
     999900   -1    0    0    0    0 -0.00000000000E+00 -0.00000000000E+00 -0.74505805969E-08  0.93827000000E+00  0.93827000000E+00 0. -1.
     999902    2    1    2    0    0  0.10838397491E-01  0.21204511872E-01  0.55207938192E-02  0.10194845229E+01  0.10191914007E+01 0.  0.
     999903    2    3    3    0    0 -0.11914656528E+00 -0.11282339751E-01  0.43066351128E-01  0.12855177860E+00  0.18645481330E-01 0.  0.
         14    1    1    2    0    0 -0.10838397491E-01 -0.21204511872E-01 -0.55207938192E-02  0.24445477052E-01  0.00000000000E+00 0.  1.
     999901    1    3    3    0    0  0.12998496277E+00  0.32486851623E-01 -0.37545557309E-01  0.89093274435E+00  0.88000000000E+00 0. -1.
        -11    1    4    4    0    0 -0.61148474989E-01 -0.97153414593E-03  0.30394036679E-01  0.68294498012E-01  0.51100000000E-03 0. -1.
         11    1    4    4    0    0 -0.57998090290E-01 -0.10310805606E-01  0.12672314449E-01  0.60257280590E-01  0.51100000000E-03 0.  1.
</event>
<event>
 8    1  0.1117354E+005  0.1043930E+01  0.7957747E-01            NaN
         13   -1    0    0    0    0  0.00000000000E+00  0.00000000000E+00  0.74505805969E-08  0.10566000000E+00  0.10566000000E+00 0.  1.
     999900   -1    0    0    0    0 -0.00000000000E+00 -0.00000000000E+00 -0.74505805969E-08  0.93827000000E+00  0.93827000000E+00 0. -1.
     999902    2    1    2    0    0 -0.14562348757E-01 -0.13071226610E-01 -0.13030580839E-01  0.10204201084E+01  0.10201492453E+01 0.  0.
     999903    2    3    3    0    0 -0.96205753025E-01 -0.30984904488E-01  0.81625173906E-01  0.13140590309E+00  0.19728941470E-01 0.  0.
         14    1    1    2    0    0  0.14562348757E-01  0.13071226610E-01  0.13030580839E-01  0.23509891608E-01  0.00000000000E+00 0.  1.
     999901    1    3    3    0    0  0.81643404267E-01  0.17913677879E-01 -0.94655754745E-01  0.88901420530E+00  0.88000000000E+00 0. -1.
        -11    1    4    4    0    0 -0.68475115246E-01 -0.13713604087E-01  0.49627684497E-01  0.85674223279E-01  0.51100000000E-03 0.  1.
         11    1    4    4    0    0 -0.27730637779E-01 -0.17271300401E-01  0.31997489410E-01  0.45731679815E-01  0.51100000000E-03 0. -1.
</event>
<event>
 8    1  0.1117354E+005  0.1043930E+01  0.7957747E-01            NaN
         13   -1    0    0    0    0  0.00000000000E+00  0.00000000000E+00  0.74505805969E-08  0.10566000000E+00  0.10566000000E+00 0. -1.
     999900   -1    0    0    0    0 -0.00000000000E+00 -0.00000000000E+00 -0.74505805969E-08  0.93827000000E+00  0.93827000000E+00 0.  1.
     999902    2    1    2    0    0  0.53367137802E-02  0.23171730489E-01 -0.10594805077E-02  0.10201280651E+01  0.10198503503E+01 0.  0.
     999903    2    3    3    0    0 -0.11695033721E+00  0.23476057416E-01 -0.45911591045E-01  0.13054056106E+00  0.26541613448E-01 0.  0.
         14    1    1    2    0    0 -0.53367137802E-02 -0.23171730489E-01  0.10594805077E-02  0.23801934937E-01  0.00000000000E+00 0. -1.
     999901    1    3    3    0    0  0.12228705099E+00 -0.30432692693E-03  0.44852110537E-01  0.88958750400E+00  0.88000000000E+00 0. -1.
        -11    1    4    4    0    0 -0.17479803100E-01 -0.95098439797E-03  0.16864155853E-02  0.17594118514E-01  0.51100000000E-03 0.  1.
         11    1    4    4    0    0 -0.99470534111E-01  0.24427041814E-01 -0.47598006630E-01  0.11294644255E+00  0.51100000000E-03 0. -1.
</event>
<event>
 8    1  0.1218489E+005  0.1043930E+01  0.7957747E-01            NaN
         13   -1    0    0    0    0  0.00000000000E+00  0.00000000000E+00  0.74505805969E-08  0.10566000000E+00  0.10566000000E+00 0. -1.
     999900   -1    0    0    0    0 -0.00000000000E+00 -0.00000000000E+00 -0.74505805969E-08  0.93827000000E+00  0.93827000000E+00 0.  1.
     999902    2    1    2    0    0  0.19643527572E-01 -0.12063494649E-01  0.78862002940E-02  0.10195663337E+01  0.10192751938E+01 0.  0.
     999903    2    3    3    0    0  0.36136716551E-01  0.72682860143E-01 -0.98079411857E-01  0.12901443694E+00  0.20892426066E-01 0.  0.
         14    1    1    2    0    0 -0.19643527572E-01  0.12063494649E-01 -0.78862002940E-02  0.24363666261E-01  0.00000000000E+00 0. -1.
     999901    1    3    3    0    0 -0.16493188979E-01 -0.84746354792E-01  0.10596561215E+00  0.89055189680E+00  0.88000000000E+00 0. -1.
        -11    1    4    4    0    0  0.14393792461E-01  0.48533033567E-01 -0.51484120044E-01  0.72204655987E-01  0.51100000000E-03 0. -1.
         11    1    4    4    0    0  0.21742924090E-01  0.24149826577E-01 -0.46595291814E-01  0.56809780953E-01  0.51100000000E-03 0.  1.
</event>
<event>
 8    1  0.1117354E+005  0.1043930E+01  0.7957747E-01            NaN
         13   -1    0    0    0    0  0.00000000000E+00  0.00000000000E+00  0.74505805969E-08  0.10566000000E+00  0.10566000000E+00 0.  1.
     999900   -1    0    0    0    0 -0.00000000000E+00 -0.00000000000E+00 -0.74505805969E-08  0.93827000000E+00  0.93827000000E+00 0. -1.
     999902    2    1    2    0    0  0.94962758323E-02 -0.17301677521E-01  0.13619574044E-01  0.10199504233E+01  0.10196684981E+01 0.  0.
     999903    2    3    3    0    0  0.28327290592E-01 -0.37150244189E-01  0.12267613129E+00  0.13279660049E+00  0.20073063490E-01 0.  0.
         14    1    1    2    0    0 -0.94962758323E-02  0.17301677521E-01 -0.13619574044E-01  0.23979576662E-01  0.00000000000E+00 0. -1.
     999901    1    3    3    0    0 -0.18831014760E-01  0.19848566668E-01 -0.10905655725E+00  0.88715382285E+00  0.88000000000E+00 0. -1.
        -11    1    4    4    0    0  0.79563686059E-02 -0.23909794425E-01  0.77553906920E-01  0.81546622680E-01  0.51100000000E-03 0. -1.
         11    1    4    4    0    0  0.20370921987E-01 -0.13240449764E-01  0.45122224370E-01  0.51249977811E-01  0.51100000000E-03 0.  1.
</event>
<event>
 7    1  0.1117354E+005  0.1043930E+01  0.7957747E-01            NaN
         13   -1    0    0    0    0  0.00000000000E+00  0.00000000000E+00  0.74505805969E-08  0.10566000000E+00  0.10566000000E+00 0. -1.
     999900   -1    0    0    0    0 -0.00000000000E+00 -0.00000000000E+00 -0.74505805969E-08  0.93827000000E+00  0.93827000000E+00 0.  1.
     999903    2    1    2    0    0 -0.38966224252E-01 -0.20465960202E-01 -0.10234265819E+00  0.11345823732E+00  0.21483243934E-01 0.  0.
         14    1    1    2    0    0  0.27470087475E-01  0.71406570332E-02 -0.28967305927E-01  0.40554894913E-01  0.00000000000E+00 0.  1.
     999901    1    1    2    0    0  0.11496136777E-01  0.13325303169E-01  0.13130996412E+00  0.88991686777E+00  0.88000000000E+00 0. -1.
        -11    1    3    3    0    0 -0.16073172293E-01 -0.20508655631E-01 -0.55946264041E-01  0.61718695745E-01  0.51100000000E-03 0. -1.
         11    1    3    3    0    0 -0.22893051958E-01  0.42695428554E-04 -0.46396394151E-01  0.51739541572E-01  0.51100000000E-03 0.  1.
</event>
<event>
 8    1  0.1117354E+005  0.1043930E+01  0.7957747E-01            NaN
         13   -1    0    0    0    0  0.00000000000E+00  0.00000000000E+00  0.74505805969E-08  0.10566000000E+00  0.10566000000E+00 0. -1.
     999900   -1    0    0    0    0 -0.00000000000E+00 -0.00000000000E+00 -0.74505805969E-08  0.93827000000E+00  0.93827000000E+00 0. -1.
     999902    2    1    2    0    0 -0.11890968273E-01 -0.15869698661E-01  0.24825340152E-01  0.10121567412E+01  0.10116579109E+01 0.  0.
     999903    2    3    3    0    0  0.36406581751E-01  0.19560157247E-01 -0.11062085038E+00  0.11978148460E+00  0.20064709556E-01 0.  0.
         14    1    1    2    0    0  0.11890968273E-01  0.15869698661E-01 -0.24825340152E-01  0.31773258815E-01  0.00000000000E+00 0.  1.
     999901    1    3    3    0    0 -0.48297550024E-01 -0.35429855909E-01  0.13544619053E+00  0.89237525658E+00  0.88000000000E+00 0.  1.
        -11    1    4    4    0    0  0.37040692586E-01  0.21687556099E-01 -0.98479407139E-01  0.10742819811E+00  0.51100000000E-03 0. -1.
         11    1    4    4    0    0 -0.63411083463E-03 -0.21273988511E-02 -0.12141443239E-01  0.12353286499E-01  0.51100000000E-03 0.  1.
</event>
<event>
 8    1  0.1117354E+005  0.1043930E+01  0.7957747E-01            NaN
         13   -1    0    0    0    0  0.00000000000E+00  0.00000000000E+00  0.74505805969E-08  0.10566000000E+00  0.10566000000E+00 0.  1.
     999900   -1    0    0    0    0 -0.00000000000E+00 -0.00000000000E+00 -0.74505805969E-08  0.93827000000E+00  0.93827000000E+00 0. -1.
     999902    2    1    2    0    0 -0.12268383867E-01  0.11434853242E-01 -0.16905103804E-01  0.10201171538E+01  0.10198391813E+01 0.  0.
     999903    2    3    3    0    0 -0.10456382889E+00 -0.20677828655E-01  0.72112210946E-01  0.13024426630E+00  0.20055698091E-01 0.  0.
         14    1    1    2    0    0  0.12268383867E-01 -0.11434853242E-01  0.16905103804E-01  0.23812846239E-01  0.00000000000E+00 0.  1.
     999901    1    3    3    0    0  0.92295445026E-01  0.32112681898E-01 -0.89017314750E-01  0.88987288746E+00  0.88000000000E+00 0. -1.
        -11    1    4    4    0    0 -0.92390254274E-01 -0.23357695434E-01  0.58697045118E-01  0.11192473028E+00  0.51100000000E-03 0. -1.
         11    1    4    4    0    0 -0.12173574620E-01  0.26798667781E-02  0.13415165829E-01  0.18319536025E-01  0.51100000000E-03 0.  1.
</event>
<event>
 8    1  0.1117354E+005  0.1043930E+01  0.7957747E-01            NaN
         13   -1    0    0    0    0  0.00000000000E+00  0.00000000000E+00  0.74505805969E-08  0.10566000000E+00  0.10566000000E+00 0.  1.
     999900   -1    0    0    0    0 -0.00000000000E+00 -0.00000000000E+00 -0.74505805969E-08  0.93827000000E+00  0.93827000000E+00 0. -1.
     999902    2    1    2    0    0 -0.10982064736E-01  0.11225773370E-01  0.17436791414E-01  0.10204637385E+01  0.10201938915E+01 0.  0.
     999903    2    3    3    0    0 -0.83457873864E-01 -0.97512820948E-01 -0.10960131671E-01  0.13036081747E+00  0.19996281793E-01 0.  0.
         14    1    1    2    0    0  0.10982064736E-01 -0.11225773370E-01 -0.17436791414E-01  0.23466261493E-01  0.00000000000E+00 0. -1.
     999901    1    3    3    0    0  0.72475809128E-01  0.10873859432E+00  0.28396923086E-01  0.89010292104E+00  0.88000000000E+00 0. -1.
        -11    1    4    4    0    0 -0.37647285034E-01 -0.30829974238E-01 -0.86373726966E-02  0.49423382220E-01  0.51100000000E-03 0. -1.
         11    1    4    4    0    0 -0.45810588830E-01 -0.66682846710E-01 -0.23227589748E-02  0.80937435248E-01  0.51100000000E-03 0.  1.
</event>
<event>
 8    1  0.1117354E+005  0.1043930E+01  0.7957747E-01            NaN
         13   -1    0    0    0    0  0.00000000000E+00  0.00000000000E+00  0.74505805969E-08  0.10566000000E+00  0.10566000000E+00 0.  1.
     999900   -1    0    0    0    0 -0.00000000000E+00 -0.00000000000E+00 -0.74505805969E-08  0.93827000000E+00  0.93827000000E+00 0. -1.
     999902    2    1    2    0    0  0.13510653912E-01  0.17080939601E-01  0.97567530869E-02  0.10200660000E+01  0.10197868178E+01 0.  0.
     999903    2    3    3    0    0 -0.34824167263E-01 -0.90176771229E-01  0.83335225324E-01  0.12919324640E+00  0.20039022946E-01 0.  0.
         14    1    1    2    0    0 -0.13510653912E-01 -0.17080939601E-01 -0.97567530869E-02  0.23864000034E-01  0.00000000000E+00 0.  1.
     999901    1    3    3    0    0  0.48334821175E-01  0.10725771083E+00 -0.73578472237E-01  0.89087275357E+00  0.88000000000E+00 0. -1.
        -11    1    4    4    0    0 -0.27422407797E-01 -0.71165025724E-01  0.75545006481E-01  0.10734877019E+00  0.51100000000E-03 0.  1.
         11    1    4    4    0    0 -0.74017594658E-02 -0.19011745505E-01  0.77902188435E-02  0.21844476212E-01  0.51100000000E-03 0. -1.
</event>
<event>
 8    1  0.1117354E+005  0.1043930E+01  0.7957747E-01            NaN
         13   -1    0    0    0    0  0.00000000000E+00  0.00000000000E+00  0.74505805969E-08  0.10566000000E+00  0.10566000000E+00 0. -1.
     999900   -1    0    0    0    0 -0.00000000000E+00 -0.00000000000E+00 -0.74505805969E-08  0.93827000000E+00  0.93827000000E+00 0. -1.
     999902    2    1    2    0    0  0.11426004941E-01  0.19393538161E-01  0.37445686769E-02  0.10211114833E+01  0.10208564917E+01 0.  0.
     999903    2    3    3    0    0  0.54932695313E-01  0.11557839516E+00 -0.33432970576E-01  0.13402268938E+00  0.21641425621E-01 0.  0.
         14    1    1    2    0    0 -0.11426004941E-01 -0.19393538161E-01 -0.37445686769E-02  0.22818516733E-01  0.00000000000E+00 0.  1.
     999901    1    3    3    0    0 -0.43506690372E-01 -0.96184857003E-01  0.37177539253E-01  0.88708879389E+00  0.88000000000E+00 0.  1.
        -11    1    4    4    0    0  0.35994547987E-01  0.85512512696E-01 -0.14986019145E-01  0.93983185747E-01  0.51100000000E-03 0.  1.
         11    1    4    4    0    0  0.18938147326E-01  0.30065882468E-01 -0.18446951431E-01  0.40039503629E-01  0.51100000000E-03 0. -1.
</event>
<event>
 8    1  0.1117354E+005  0.1043930E+01  0.7957747E-01            NaN
         13   -1    0    0    0    0  0.00000000000E+00  0.00000000000E+00  0.74505805969E-08  0.10566000000E+00  0.10566000000E+00 0. -1.
     999900   -1    0    0    0    0 -0.00000000000E+00 -0.00000000000E+00 -0.74505805969E-08  0.93827000000E+00  0.93827000000E+00 0.  1.
     999902    2    1    2    0    0  0.22837851774E-01 -0.37977879632E-02  0.56955828549E-02  0.10200882230E+01  0.10198095667E+01 0.  0.
     999903    2    3    3    0    0 -0.42383169804E-01  0.65977205493E-01 -0.10008315801E+00  0.12862231036E+00  0.19435418110E-01 0.  0.
         14    1    1    2    0    0 -0.22837851774E-01  0.37977879632E-02 -0.56955828549E-02  0.23841777012E-01  0.00000000000E+00 0.  1.
     999901    1    3    3    0    0  0.65221021578E-01 -0.69774993456E-01  0.10577874086E+00  0.89146591263E+00  0.88000000000E+00 0. -1.
        -11    1    4    4    0    0 -0.15317840094E-01  0.41003054675E-01 -0.49990661189E-01  0.66447077024E-01  0.51100000000E-03 0. -1.
         11    1    4    4    0    0 -0.27065329710E-01  0.24974150818E-01 -0.50092496818E-01  0.62175233332E-01  0.51100000000E-03 0.  1.
</event>
<event>
 8    1  0.1117354E+005  0.1043930E+01  0.7957747E-01            NaN
         13   -1    0    0    0    0  0.00000000000E+00  0.00000000000E+00  0.74505805969E-08  0.10566000000E+00  0.10566000000E+00 0. -1.
     999900   -1    0    0    0    0 -0.00000000000E+00 -0.00000000000E+00 -0.74505805969E-08  0.93827000000E+00  0.93827000000E+00 0. -1.
     999902    2    1    2    0    0 -0.16673720837E-01  0.17659031322E-01  0.57870700046E-02  0.10189631313E+01  0.10186572134E+01 0.  0.
     999903    2    3    3    0    0 -0.64364065471E-01 -0.42096858003E-01 -0.10146650759E+00  0.12916064468E+00  0.21728819403E-01 0.  0.
         14    1    1    2    0    0  0.16673720837E-01 -0.17659031322E-01 -0.57870700046E-02  0.24966868707E-01  0.00000000000E+00 0.  1.
     999901    1    3    3    0    0  0.47690344634E-01  0.59755889325E-01  0.10725357760E+00  0.88980248662E+00  0.88000000000E+00 0. -1.
        -11    1    4    4    0    0 -0.30518641478E-01 -0.84463071385E-02 -0.33406174652E-01  0.46032175789E-01  0.51100000000E-03 0.  1.
         11    1    4    4    0    0 -0.33845423993E-01 -0.33650550865E-01 -0.68060332941E-01  0.83128468889E-01  0.51100000000E-03 0. -1.
</event>
<event>
 8    1  0.1117354E+005  0.1043930E+01  0.7957747E-01            NaN
         13   -1    0    0    0    0  0.00000000000E+00  0.00000000000E+00  0.74505805969E-08  0.10566000000E+00  0.10566000000E+00 0. -1.
     999900   -1    0    0    0    0 -0.00000000000E+00 -0.00000000000E+00 -0.74505805969E-08  0.93827000000E+00  0.93827000000E+00 0. -1.
     999902    2    1    2    0    0  0.68694394386E-02  0.67712873506E-02  0.23163471932E-01  0.10188384484E+01  0.10185294291E+01 0.  0.
     999903    2    3    3    0    0 -0.10668414392E-01  0.47088879438E-02  0.13018346376E+00  0.13217892610E+00  0.19686177333E-01 0.  0.
         14    1    1    2    0    0 -0.68694394386E-02 -0.67712873506E-02 -0.23163471932E-01  0.25091551617E-01  0.00000000000E+00 0.  1.
     999901    1    3    3    0    0  0.17537853831E-01  0.20623994067E-02 -0.10701999182E+00  0.88665952228E+00  0.88000000000E+00 0. -1.
        -11    1    4    4    0    0 -0.77580624904E-02  0.12088550226E-01  0.96851038149E-01  0.97911721932E-01  0.51100000000E-03 0. -1.
         11    1    4    4    0    0 -0.29103519021E-02 -0.73796622826E-02  0.33332425606E-01  0.34267204166E-01  0.51100000000E-03 0.  1.
</event>
<event>
 8    1  0.1117354E+005  0.1043930E+01  0.7957747E-01            NaN
         13   -1    0    0    0    0  0.00000000000E+00  0.00000000000E+00  0.74505805969E-08  0.10566000000E+00  0.10566000000E+00 0.  1.
     999900   -1    0    0    0    0 -0.00000000000E+00 -0.00000000000E+00 -0.74505805969E-08  0.93827000000E+00  0.93827000000E+00 0. -1.
     999902    2    1    2    0    0  0.18052976053E-01 -0.38197889380E-03  0.16083964851E-01  0.10197484000E+01  0.10194616469E+01 0.  0.
     999903    2    3    3    0    0 -0.48673005438E-01  0.86661847106E-01  0.82338557246E-01  0.13046854797E+00  0.19054311789E-01 0.  0.
         14    1    1    2    0    0 -0.18052976053E-01  0.38197889380E-03 -0.16083964851E-01  0.24181599980E-01  0.00000000000E+00 0.  1.
     999901    1    3    3    0    0  0.66725981490E-01 -0.87043826000E-01 -0.66254592395E-01  0.88927985205E+00  0.88000000000E+00 0. -1.
        -11    1    4    4    0    0 -0.61252392099E-02  0.24712417948E-02  0.33028060102E-02  0.74023806933E-02  0.51100000000E-03 0.  1.
         11    1    4    4    0    0 -0.42547766228E-01  0.84190605311E-01  0.79035751236E-01  0.12306616728E+00  0.51100000000E-03 0. -1.
</event>
<event>
 8    1  0.1117354E+005  0.1043930E+01  0.7957747E-01            NaN
         13   -1    0    0    0    0  0.00000000000E+00  0.00000000000E+00  0.74505805969E-08  0.10566000000E+00  0.10566000000E+00 0. -1.
     999900   -1    0    0    0    0 -0.00000000000E+00 -0.00000000000E+00 -0.74505805969E-08  0.93827000000E+00  0.93827000000E+00 0. -1.
     999902    2    1    2    0    0  0.22125365835E-01  0.54478870124E-02 -0.59759484827E-02  0.10203731911E+01  0.10201012331E+01 0.  0.
     999903    2    3    3    0    0 -0.97874282282E-01  0.47532656371E-01 -0.66984945080E-01  0.12914194105E+00  0.18759784576E-01 0.  0.
         14    1    1    2    0    0 -0.22125365835E-01 -0.54478870124E-02  0.59759484827E-02  0.23556808921E-01  0.00000000000E+00 0. -1.
     999901    1    3    3    0    0  0.11999964812E+00 -0.42084769358E-01  0.61008996597E-01  0.89123125003E+00  0.88000000000E+00 0. -1.
        -11    1    4    4    0    0 -0.36175796986E-01  0.79232549651E-02 -0.24401429153E-01  0.44352645045E-01  0.51100000000E-03 0. -1.
         11    1    4    4    0    0 -0.61698485296E-01  0.39609401405E-01 -0.42583515927E-01  0.84789296007E-01  0.51100000000E-03 0.  1.
</event>
<event>
 8    1  0.1117354E+005  0.1043930E+01  0.7957747E-01            NaN
         13   -1    0    0    0    0  0.00000000000E+00  0.00000000000E+00  0.74505805969E-08  0.10566000000E+00  0.10566000000E+00 0.  1.
     999900   -1    0    0    0    0 -0.00000000000E+00 -0.00000000000E+00 -0.74505805969E-08  0.93827000000E+00  0.93827000000E+00 0. -1.
     999902    2    1    2    0    0 -0.11707824298E-01 -0.19708083577E-01  0.17647980150E-03  0.10210059329E+01  0.10207485499E+01 0.  0.
     999903    2    3    3    0    0 -0.12520199558E+00 -0.16436957067E-01  0.35841795246E-01  0.13299487332E+00  0.21384311714E-01 0.  0.
         14    1    1    2    0    0  0.11707824298E-01  0.19708083577E-01 -0.17647980150E-03  0.22924067117E-01  0.00000000000E+00 0.  1.
     999901    1    3    3    0    0  0.11349417128E+00 -0.32711265097E-02 -0.35665315444E-01  0.88801105956E+00  0.88000000000E+00 0. -1.
        -11    1    4    4    0    0 -0.59801521343E-01  0.14394892128E-02  0.22376814835E-01  0.63869218308E-01  0.51100000000E-03 0.  1.
         11    1    4    4    0    0 -0.65400474237E-01 -0.17876446280E-01  0.13464980411E-01  0.69125655010E-01  0.51100000000E-03 0. -1.
</event>
<event>
 8    1  0.1117354E+005  0.1043930E+01  0.7957747E-01            NaN
         13   -1    0    0    0    0  0.00000000000E+00  0.00000000000E+00  0.74505805969E-08  0.10566000000E+00  0.10566000000E+00 0. -1.
     999900   -1    0    0    0    0 -0.00000000000E+00 -0.00000000000E+00 -0.74505805969E-08  0.93827000000E+00  0.93827000000E+00 0.  1.
     999902    2    1    2    0    0  0.19853855637E-01  0.12910502973E-02 -0.12913927907E-01  0.10202105580E+01  0.10199347875E+01 0.  0.
     999903    2    3    3    0    0  0.41219856426E-01 -0.44088888234E-01  0.11310043939E+00  0.12981993273E+00  0.20459689974E-01 0.  0.
         14    1    1    2    0    0 -0.19853855637E-01 -0.12910502973E-02  0.12913927907E-01  0.23719441994E-01  0.00000000000E+00 0.  1.
     999901    1    3    3    0    0 -0.21366000789E-01  0.45379938531E-01 -0.12601436730E+00  0.89039062527E+00  0.88000000000E+00 0.  1.
        -11    1    4    4    0    0  0.15490009969E-02 -0.12233413457E-01  0.29139703873E-01  0.31645525303E-01  0.51100000000E-03 0.  1.
         11    1    4    4    0    0  0.39670855429E-01 -0.31855474777E-01  0.83960735520E-01  0.98174407428E-01  0.51100000000E-03 0. -1.
</event>
<event>
 8    1  0.1117354E+005  0.1043930E+01  0.7957747E-01            NaN
         13   -1    0    0    0    0  0.00000000000E+00  0.00000000000E+00  0.74505805969E-08  0.10566000000E+00  0.10566000000E+00 0.  1.
     999900   -1    0    0    0    0 -0.00000000000E+00 -0.00000000000E+00 -0.74505805969E-08  0.93827000000E+00  0.93827000000E+00 0. -1.
     999902    2    1    2    0    0 -0.94647049451E-02 -0.14552661736E-01 -0.16211537409E-01  0.10201776412E+01  0.10199010957E+01 0.  0.
     999903    2    3    3    0    0 -0.64112433142E-01 -0.84686703778E-01 -0.78326529447E-01  0.13351906526E+00  0.20249782549E-01 0.  0.
         14    1    1    2    0    0  0.94647049451E-02  0.14552661736E-01  0.16211537409E-01  0.23752358798E-01  0.00000000000E+00 0. -1.
     999901    1    3    3    0    0  0.54647728197E-01  0.70134042042E-01  0.62114992038E-01  0.88665857594E+00  0.88000000000E+00 0. -1.
        -11    1    4    4    0    0 -0.18763121408E-01 -0.23330710502E-01 -0.11443161190E-01  0.32055948536E-01  0.51100000000E-03 0.  1.
         11    1    4    4    0    0 -0.45349311734E-01 -0.61355993277E-01 -0.66883368257E-01  0.10146311673E+00  0.51100000000E-03 0. -1.
</event>
<event>
 8    1  0.1117354E+005  0.1043930E+01  0.7957747E-01            NaN
         13   -1    0    0    0    0  0.00000000000E+00  0.00000000000E+00  0.74505805969E-08  0.10566000000E+00  0.10566000000E+00 0. -1.
     999900   -1    0    0    0    0 -0.00000000000E+00 -0.00000000000E+00 -0.74505805969E-08  0.93827000000E+00  0.93827000000E+00 0. -1.
     999902    2    1    2    0    0  0.23100617201E-02  0.12391828900E-01  0.24506297253E-01  0.10163718358E+01  0.10159981576E+01 0.  0.
     999903    2    3    3    0    0 -0.59315168940E-01 -0.20792268230E-01 -0.10538464339E+00  0.12408796292E+00  0.18474084387E-01 0.  0.
         14    1    1    2    0    0 -0.23100617201E-02 -0.12391828900E-01 -0.24506297253E-01  0.27558164193E-01  0.00000000000E+00 0.  1.
     999901    1    3    3    0    0  0.61625230660E-01  0.33184097130E-01  0.12989094064E+00  0.89228387289E+00  0.88000000000E+00 0. -1.
        -11    1    4    4    0    0 -0.43784480612E-01 -0.72271438197E-02 -0.64479254427E-01  0.78276099306E-01  0.51100000000E-03 0.  1.
         11    1    4    4    0    0 -0.15530688328E-01 -0.13565124411E-01 -0.40905388965E-01  0.45811863612E-01  0.51100000000E-03 0. -1.
</event>
<event>
 8    1  0.1117354E+005  0.1043930E+01  0.7957747E-01            NaN
         13   -1    0    0    0    0  0.00000000000E+00  0.00000000000E+00  0.74505805969E-08  0.10566000000E+00  0.10566000000E+00 0. -1.
     999900   -1    0    0    0    0 -0.00000000000E+00 -0.00000000000E+00 -0.74505805969E-08  0.93827000000E+00  0.93827000000E+00 0. -1.
     999902    2    1    2    0    0  0.23354652060E-02 -0.13956441123E-01  0.19127868223E-01  0.10201368920E+01  0.10198593856E+01 0.  0.
     999903    2    3    3    0    0  0.12185693737E-01  0.65500064458E-01 -0.10709489475E+00  0.12753252880E+00  0.18880673819E-01 0.  0.
         14    1    1    2    0    0 -0.23354652060E-02  0.13956441123E-01 -0.19127868223E-01  0.23793108021E-01  0.00000000000E+00 0.  1.
     999901    1    3    3    0    0 -0.98502285314E-02 -0.79456505581E-01  0.12622276297E+00  0.89260436318E+00  0.88000000000E+00 0.  1.
        -11    1    4    4    0    0  0.27968836252E-02  0.34505259426E-01 -0.71282174488E-01  0.79245473099E-01  0.51100000000E-03 0.  1.
         11    1    4    4    0    0  0.93888101123E-02  0.30994805032E-01 -0.35812720261E-01  0.48287055696E-01  0.51100000000E-03 0. -1.
</event>
<event>
 8    1  0.1117354E+005  0.1043930E+01  0.7957747E-01            NaN
         13   -1    0    0    0    0  0.00000000000E+00  0.00000000000E+00  0.74505805969E-08  0.10566000000E+00  0.10566000000E+00 0.  1.
     999900   -1    0    0    0    0 -0.00000000000E+00 -0.00000000000E+00 -0.74505805969E-08  0.93827000000E+00  0.93827000000E+00 0. -1.
     999902    2    1    2    0    0  0.12690624403E-01  0.13971113767E-01  0.12746172430E-01  0.10211548188E+01  0.10209008057E+01 0.  0.
     999903    2    3    3    0    0 -0.41069708906E-01  0.91870419594E-01 -0.81472632395E-01  0.13107860943E+00  0.20418546328E-01 0.  0.
         14    1    1    2    0    0 -0.12690624403E-01 -0.13971113767E-01 -0.12746172430E-01  0.22775181212E-01  0.00000000000E+00 0. -1.
     999901    1    3    3    0    0  0.53760333309E-01 -0.77899305828E-01  0.94218804825E-01  0.89007620936E+00  0.88000000000E+00 0.  1.
        -11    1    4    4    0    0 -0.13282701528E-01  0.19734668560E-01 -0.10045298156E-01  0.25827435783E-01  0.51100000000E-03 0. -1.
         11    1    4    4    0    0 -0.27787007378E-01  0.72135751034E-01 -0.71427334238E-01  0.10525117365E+00  0.51100000000E-03 0.  1.
</event>
<event>
 8    1  0.1117354E+005  0.1043930E+01  0.7957747E-01            NaN
         13   -1    0    0    0    0  0.00000000000E+00  0.00000000000E+00  0.74505805969E-08  0.10566000000E+00  0.10566000000E+00 0.  1.
     999900   -1    0    0    0    0 -0.00000000000E+00 -0.00000000000E+00 -0.74505805969E-08  0.93827000000E+00  0.93827000000E+00 0. -1.
     999902    2    1    2    0    0 -0.15385895303E-02  0.20394843926E-01 -0.11353162489E-01  0.10205374539E+01  0.10202693191E+01 0.  0.
     999903    2    3    3    0    0  0.62121897459E-01  0.52667300458E-01  0.99865695794E-01  0.13067015842E+00  0.21646210371E-01 0.  0.
         14    1    1    2    0    0  0.15385895303E-02 -0.20394843926E-01  0.11353162489E-01  0.23392546142E-01  0.00000000000E+00 0. -1.
     999901    1    3    3    0    0 -0.63660486989E-01 -0.32272456533E-01 -0.11121885828E+00  0.88986729544E+00  0.88000000000E+00 0. -1.
        -11    1    4    4    0    0  0.56262825867E-01  0.50670870729E-01  0.98620805145E-01  0.12433570301E+00  0.51100000000E-03 0.  1.
         11    1    4    4    0    0  0.58590715916E-02  0.19964297295E-02  0.12448906490E-02  0.63344554074E-02  0.51100000000E-03 0. -1.
</event>
<event>
 8    1  0.1117354E+005  0.1043930E+01  0.7957747E-01            NaN
         13   -1    0    0    0    0  0.00000000000E+00  0.00000000000E+00  0.74505805969E-08  0.10566000000E+00  0.10566000000E+00 0.  1.
     999900   -1    0    0    0    0 -0.00000000000E+00 -0.00000000000E+00 -0.74505805969E-08  0.93827000000E+00  0.93827000000E+00 0.  1.
     999902    2    1    2    0    0  0.99281144811E-02  0.13933390527E-01 -0.16512995917E-01  0.10201521561E+01  0.10198750098E+01 0.  0.
     999903    2    3    3    0    0 -0.11022190113E+00  0.59885110250E-01 -0.30452931798E-01  0.13069057250E+00  0.20434059011E-01 0.  0.
         14    1    1    2    0    0 -0.99281144811E-02 -0.13933390527E-01  0.16512995917E-01  0.23777843950E-01  0.00000000000E+00 0.  1.
     999901    1    3    3    0    0  0.12015001561E+00 -0.45951719722E-01  0.13939935881E-01  0.88946158355E+00  0.88000000000E+00 0. -1.
        -11    1    4    4    0    0  0.30225837168E-03  0.20518133154E-02  0.43858685512E-03  0.21805452148E-02  0.51100000000E-03 0.  1.
         11    1    4    4    0    0 -0.11052415950E+00  0.57833296934E-01 -0.30891518653E-01  0.12851002729E+00  0.51100000000E-03 0. -1.
</event>
<event>
 8    1  0.1117354E+005  0.1043930E+01  0.7957747E-01            NaN
         13   -1    0    0    0    0  0.00000000000E+00  0.00000000000E+00  0.74505805969E-08  0.10566000000E+00  0.10566000000E+00 0.  1.
     999900   -1    0    0    0    0 -0.00000000000E+00 -0.00000000000E+00 -0.74505805969E-08  0.93827000000E+00  0.93827000000E+00 0.  1.
     999902    2    1    2    0    0  0.18327053694E-01 -0.61487910187E-02  0.13915487586E-01  0.10201113241E+01  0.10198332139E+01 0.  0.
     999903    2    3    3    0    0 -0.44736499158E-01 -0.12001585165E+00 -0.12519729872E-01  0.13014416742E+00  0.19380445640E-01 0.  0.
         14    1    1    2    0    0 -0.18327053694E-01  0.61487910187E-02 -0.13915487586E-01  0.23818675925E-01  0.00000000000E+00 0.  1.
     999901    1    3    3    0    0  0.63063552852E-01  0.11386706063E+00  0.26435217458E-01  0.88996715665E+00  0.88000000000E+00 0. -1.
        -11    1    4    4    0    0 -0.21639248711E-01 -0.35010596976E-01  0.61561435425E-04  0.41161437003E-01  0.51100000000E-03 0. -1.
         11    1    4    4    0    0 -0.23097250448E-01 -0.85005254678E-01 -0.12581291307E-01  0.88982730420E-01  0.51100000000E-03 0.  1.
</event>
<event>
 8    1  0.1117354E+005  0.1043930E+01  0.7957747E-01            NaN
         13   -1    0    0    0    0  0.00000000000E+00  0.00000000000E+00  0.74505805969E-08  0.10566000000E+00  0.10566000000E+00 0. -1.
     999900   -1    0    0    0    0 -0.00000000000E+00 -0.00000000000E+00 -0.74505805969E-08  0.93827000000E+00  0.93827000000E+00 0.  1.
     999902    2    1    2    0    0 -0.64873975523E-02  0.65468118080E-02  0.23041543633E-01  0.10191134772E+01  0.10188112777E+01 0.  0.
     999903    2    3    3    0    0 -0.88402520828E-01  0.52567350516E-02 -0.90293036814E-01  0.12807112193E+00  0.20167816540E-01 0.  0.
         14    1    1    2    0    0  0.64873975523E-02 -0.65468118080E-02 -0.23041543633E-01  0.24816522820E-01  0.00000000000E+00 0. -1.
     999901    1    3    3    0    0  0.81915123275E-01  0.12900767564E-02  0.11333458045E+00  0.89104235525E+00  0.88000000000E+00 0. -1.
        -11    1    4    4    0    0 -0.73948352789E-01  0.22141483584E-02 -0.63614447123E-01  0.97572128894E-01  0.51100000000E-03 0. -1.
         11    1    4    4    0    0 -0.14454168038E-01  0.30425866932E-02 -0.26678589691E-01  0.30498993039E-01  0.51100000000E-03 0.  1.
</event>
<event>
 8    1  0.1117354E+005  0.1043930E+01  0.7957747E-01            NaN
         13   -1    0    0    0    0  0.00000000000E+00  0.00000000000E+00  0.74505805969E-08  0.10566000000E+00  0.10566000000E+00 0. -1.
     999900   -1    0    0    0    0 -0.00000000000E+00 -0.00000000000E+00 -0.74505805969E-08  0.93827000000E+00  0.93827000000E+00 0. -1.
     999902    2    1    2    0    0 -0.12755947778E-01  0.13543017779E-01  0.11527222261E-01  0.10220438311E+01  0.10218094678E+01 0.  0.
     999903    2    3    3    0    0  0.36723837667E-01 -0.26520063051E-01 -0.12010398450E+00  0.12997876950E+00  0.20434270988E-01 0.  0.
         14    1    1    2    0    0  0.12755947778E-01 -0.13543017779E-01 -0.11527222261E-01  0.21886168859E-01  0.00000000000E+00 0.  1.
     999901    1    3    3    0    0 -0.49479785445E-01  0.40063080830E-01  0.13163120676E+00  0.89206506164E+00  0.88000000000E+00 0.  1.
        -11    1    4    4    0    0  0.12825714385E-01 -0.21574936488E-01 -0.55363978971E-01  0.60789868584E-01  0.51100000000E-03 0. -1.
         11    1    4    4    0    0  0.23898123282E-01 -0.49451265631E-02 -0.64740005525E-01  0.69188900913E-01  0.51100000000E-03 0.  1.
</event>
<event>
 8    1  0.1117354E+005  0.1043930E+01  0.7957747E-01            NaN
         13   -1    0    0    0    0  0.00000000000E+00  0.00000000000E+00  0.74505805969E-08  0.10566000000E+00  0.10566000000E+00 0. -1.
     999900   -1    0    0    0    0 -0.00000000000E+00 -0.00000000000E+00 -0.74505805969E-08  0.93827000000E+00  0.93827000000E+00 0. -1.
     999902    2    1    2    0    0 -0.22529394426E-01 -0.44125455136E-02  0.48342521918E-02  0.10204690928E+01  0.10201993703E+01 0.  0.
     999903    2    3    3    0    0  0.56444151063E-01  0.71095416379E-01 -0.89900267806E-01  0.12866591809E+00  0.15243356148E-01 0.  0.
         14    1    1    2    0    0  0.22529394426E-01  0.44125455136E-02 -0.48342521918E-02  0.23460907172E-01  0.00000000000E+00 0.  1.
     999901    1    3    3    0    0 -0.78973545489E-01 -0.75507961892E-01  0.94734519998E-01  0.89180317474E+00  0.88000000000E+00 0.  1.
        -11    1    4    4    0    0  0.21339724873E-01  0.31186325380E-01 -0.27750494923E-01  0.46886264917E-01  0.51100000000E-03 0. -1.
         11    1    4    4    0    0  0.35104426190E-01  0.39909090998E-01 -0.62149772883E-01  0.81779653171E-01  0.51100000000E-03 0.  1.
</event>
<event>
 8    1  0.1117354E+005  0.1043930E+01  0.7957747E-01            NaN
         13   -1    0    0    0    0  0.00000000000E+00  0.00000000000E+00  0.74505805969E-08  0.10566000000E+00  0.10566000000E+00 0.  1.
     999900   -1    0    0    0    0 -0.00000000000E+00 -0.00000000000E+00 -0.74505805969E-08  0.93827000000E+00  0.93827000000E+00 0. -1.
     999902    2    1    2    0    0 -0.13596858218E-01 -0.12027605413E-01 -0.14161733025E-01  0.10209062616E+01  0.10206466100E+01 0.  0.
     999903    2    3    3    0    0 -0.35527283846E-02  0.94405480383E-01 -0.88711834371E-01  0.13130713625E+00  0.21136647516E-01 0.  0.
         14    1    1    2    0    0  0.13596858218E-01  0.12027605413E-01  0.14161733025E-01  0.23023738350E-01  0.00000000000E+00 0.  1.
     999901    1    3    3    0    0 -0.10044129833E-01 -0.10643308580E+00  0.74550101346E-01  0.88959912540E+00  0.88000000000E+00 0.  1.
        -11    1    4    4    0    0  0.51652865269E-02  0.36003545412E-01 -0.44856716658E-01  0.57752243397E-01  0.51100000000E-03 0.  1.
         11    1    4    4    0    0 -0.87180149115E-02  0.58401934971E-01 -0.43855117713E-01  0.73554892856E-01  0.51100000000E-03 0. -1.
</event>
<event>
 8    1  0.1117354E+005  0.1043930E+01  0.7957747E-01            NaN
         13   -1    0    0    0    0  0.00000000000E+00  0.00000000000E+00  0.74505805969E-08  0.10566000000E+00  0.10566000000E+00 0. -1.
     999900   -1    0    0    0    0 -0.00000000000E+00 -0.00000000000E+00 -0.74505805969E-08  0.93827000000E+00  0.93827000000E+00 0.  1.
     999902    2    1    2    0    0 -0.34224973593E-02  0.13727811631E-01 -0.20167000713E-01  0.10192951828E+01  0.10189974463E+01 0.  0.
     999903    2    3    3    0    0  0.11212075388E+00  0.33666561252E-01  0.49366744610E-01  0.12879940046E+00  0.21159141952E-01 0.  0.
         14    1    1    2    0    0  0.34224973593E-02 -0.13727811631E-01  0.20167000713E-01  0.24634817193E-01  0.00000000000E+00 0. -1.
     999901    1    3    3    0    0 -0.11554325124E+00 -0.19938749621E-01 -0.69533745323E-01  0.89049578235E+00  0.88000000000E+00 0.  1.
        -11    1    4    4    0    0  0.27074580898E-01  0.29592820572E-02  0.36697643672E-02  0.27486698103E-01  0.51100000000E-03 0.  1.
         11    1    4    4    0    0  0.85046172981E-01  0.30707279195E-01  0.45696980242E-01  0.10131270236E+00  0.51100000000E-03 0. -1.
</event>
<event>
 8    1  0.1117354E+005  0.1043930E+01  0.7957747E-01            NaN
         13   -1    0    0    0    0  0.00000000000E+00  0.00000000000E+00  0.74505805969E-08  0.10566000000E+00  0.10566000000E+00 0. -1.
     999900   -1    0    0    0    0 -0.00000000000E+00 -0.00000000000E+00 -0.74505805969E-08  0.93827000000E+00  0.93827000000E+00 0.  1.
     999902    2    1    2    0    0  0.13226521488E-01 -0.19251213684E-01  0.55357494120E-02  0.10199259457E+01  0.10196434378E+01 0.  0.
     999903    2    3    3    0    0  0.23391044678E-01  0.52173837293E-01  0.11494578182E+00  0.13022070769E+00  0.21809394384E-01 0.  0.
         14    1    1    2    0    0 -0.13226521488E-01  0.19251213684E-01 -0.55357494120E-02  0.24004054252E-01  0.00000000000E+00 0. -1.
     999901    1    3    3    0    0 -0.10164523190E-01 -0.71425050977E-01 -0.10941003241E+00  0.88970523806E+00  0.88000000000E+00 0.  1.
        -11    1    4    4    0    0 -0.19557889052E-02  0.15511205994E-01  0.20514628573E-01  0.25797940385E-01  0.51100000000E-03 0. -1.
         11    1    4    4    0    0  0.25346833583E-01  0.36662631299E-01  0.94431153248E-01  0.10442276730E+00  0.51100000000E-03 0.  1.
</event>
<event>
 8    1  0.1117354E+005  0.1043930E+01  0.7957747E-01            NaN
         13   -1    0    0    0    0  0.00000000000E+00  0.00000000000E+00  0.74505805969E-08  0.10566000000E+00  0.10566000000E+00 0.  1.
     999900   -1    0    0    0    0 -0.00000000000E+00 -0.00000000000E+00 -0.74505805969E-08  0.93827000000E+00  0.93827000000E+00 0. -1.
     999902    2    1    2    0    0 -0.18446417797E-01  0.61269187996E-02  0.12140011977E-01  0.10210129898E+01  0.10207557671E+01 0.  0.
     999903    2    3    3    0    0 -0.30895289460E-01  0.11903242976E+00  0.46223642575E-01  0.13305785433E+00  0.21083861656E-01 0.  0.
         14    1    1    2    0    0  0.18446417797E-01 -0.61269187996E-02 -0.12140011977E-01  0.22917010153E-01  0.00000000000E+00 0.  1.
     999901    1    3    3    0    0  0.12448871663E-01 -0.11290551096E+00 -0.34083630598E-01  0.88795513551E+00  0.88000000000E+00 0. -1.
        -11    1    4    4    0    0 -0.58074575693E-02  0.62242683679E-01  0.19727274469E-01  0.65553830658E-01  0.51100000000E-03 0.  1.
         11    1    4    4    0    0 -0.25087831891E-01  0.56789746078E-01  0.26496368106E-01  0.67504023676E-01  0.51100000000E-03 0. -1.
</event>
<event>
 8    1  0.1117354E+005  0.1043930E+01  0.7957747E-01            NaN
         13   -1    0    0    0    0  0.00000000000E+00  0.00000000000E+00  0.74505805969E-08  0.10566000000E+00  0.10566000000E+00 0.  1.
     999900   -1    0    0    0    0 -0.00000000000E+00 -0.00000000000E+00 -0.74505805969E-08  0.93827000000E+00  0.93827000000E+00 0. -1.
     999902    2    1    2    0    0 -0.24082515955E-01  0.74633452425E-02  0.19585164326E-02  0.10186415662E+01  0.10183276170E+01 0.  0.
     999903    2    3    3    0    0  0.63011513435E-01 -0.10578927153E+00  0.23211773198E-01  0.12686624356E+00  0.19860426570E-01 0.  0.
         14    1    1    2    0    0  0.24082515955E-01 -0.74633452425E-02 -0.19585164326E-02  0.25288433790E-01  0.00000000000E+00 0.  1.
     999901    1    3    3    0    0 -0.87094029390E-01  0.11325261678E+00 -0.21253256765E-01  0.89177532265E+00  0.88000000000E+00 0. -1.
        -11    1    4    4    0    0  0.37683735915E-01 -0.57752576344E-01  0.22550676321E-01  0.72554931951E-01  0.51100000000E-03 0.  1.
         11    1    4    4    0    0  0.25327777520E-01 -0.48036695189E-01  0.66109687708E-03  0.54311311610E-01  0.51100000000E-03 0. -1.
</event>
<event>
 8    1  0.1117354E+005  0.1043930E+01  0.7957747E-01            NaN
         13   -1    0    0    0    0  0.00000000000E+00  0.00000000000E+00  0.74505805969E-08  0.10566000000E+00  0.10566000000E+00 0.  1.
     999900   -1    0    0    0    0 -0.00000000000E+00 -0.00000000000E+00 -0.74505805969E-08  0.93827000000E+00  0.93827000000E+00 0.  1.
     999902    2    1    2    0    0 -0.72214624617E-02 -0.31179815181E-02  0.22116260188E-01  0.10204566046E+01  0.10201865915E+01 0.  0.
     999903    2    3    3    0    0  0.41569227089E-01 -0.78736155291E-01  0.96371183598E-01  0.13275596062E+00  0.20232579233E-01 0.  0.
         14    1    1    2    0    0  0.72214624617E-02  0.31179815181E-02 -0.22116260188E-01  0.23473395441E-01  0.00000000000E+00 0. -1.
     999901    1    3    3    0    0 -0.48790689551E-01  0.75618173773E-01 -0.74254923410E-01  0.88770064393E+00  0.88000000000E+00 0. -1.
        -11    1    4    4    0    0  0.32193373728E-01 -0.46717202603E-01  0.70728584775E-01  0.90673613341E-01  0.51100000000E-03 0. -1.
         11    1    4    4    0    0  0.93758533613E-02 -0.32018952688E-01  0.25642598822E-01  0.42082347283E-01  0.51100000000E-03 0.  1.
</event>
<event>
 8    1  0.1117354E+005  0.1043930E+01  0.7957747E-01            NaN
         13   -1    0    0    0    0  0.00000000000E+00  0.00000000000E+00  0.74505805969E-08  0.10566000000E+00  0.10566000000E+00 0.  1.
     999900   -1    0    0    0    0 -0.00000000000E+00 -0.00000000000E+00 -0.74505805969E-08  0.93827000000E+00  0.93827000000E+00 0.  1.
     999902    2    1    2    0    0  0.14356558671E-02 -0.20213535427E-01 -0.11938492047E-01  0.10204103122E+01  0.10201392207E+01 0.  0.
     999903    2    3    3    0    0  0.98557564728E-01 -0.11373607117E-02 -0.85480778181E-01  0.13181308427E+00  0.18783998288E-01 0.  0.
         14    1    1    2    0    0 -0.14356558671E-02  0.20213535427E-01  0.11938492047E-01  0.23519687808E-01  0.00000000000E+00 0. -1.
     999901    1    3    3    0    0 -0.97121908860E-01 -0.19076174715E-01  0.73542286134E-01  0.88859722792E+00  0.88000000000E+00 0.  1.
        -11    1    4    4    0    0  0.55337149901E-01  0.49919816879E-02 -0.38014670576E-01  0.67323817036E-01  0.51100000000E-03 0.  1.
         11    1    4    4    0    0  0.43220414826E-01 -0.61293423995E-02 -0.47466107605E-01  0.64489267233E-01  0.51100000000E-03 0. -1.
</event>
<event>
 8    1  0.1117354E+005  0.1043930E+01  0.7957747E-01            NaN
         13   -1    0    0    0    0  0.00000000000E+00  0.00000000000E+00  0.74505805969E-08  0.10566000000E+00  0.10566000000E+00 0. -1.
     999900   -1    0    0    0    0 -0.00000000000E+00 -0.00000000000E+00 -0.74505805969E-08  0.93827000000E+00  0.93827000000E+00 0.  1.
     999902    2    1    2    0    0  0.61210529068E-02 -0.13491709906E-01 -0.18981568898E-01  0.10198510988E+01  0.10195668052E+01 0.  0.
     999903    2    3    3    0    0  0.26995104529E-01  0.10953018925E+00  0.56661261111E-01  0.12783543110E+00  0.20144500707E-01 0.  0.
         14    1    1    2    0    0 -0.61210529068E-02  0.13491709906E-01  0.18981568898E-01  0.24078901194E-01  0.00000000000E+00 0. -1.
     999901    1    3    3    0    0 -0.20874051622E-01 -0.12302189915E+00 -0.75642830009E-01  0.89201566771E+00  0.88000000000E+00 0.  1.
        -11    1    4    4    0    0  0.28223451030E-01  0.76727121636E-01  0.41078353653E-01  0.91494844895E-01  0.51100000000E-03 0. -1.
         11    1    4    4    0    0 -0.12283465017E-02  0.32803067611E-01  0.15582907458E-01  0.36340586204E-01  0.51100000000E-03 0.  1.
</event>
<event>
 8    1  0.1117354E+005  0.1043930E+01  0.7957747E-01            NaN
         13   -1    0    0    0    0  0.00000000000E+00  0.00000000000E+00  0.74505805969E-08  0.10566000000E+00  0.10566000000E+00 0.  1.
     999900   -1    0    0    0    0 -0.00000000000E+00 -0.00000000000E+00 -0.74505805969E-08  0.93827000000E+00  0.93827000000E+00 0. -1.
     999902    2    1    2    0    0  0.21102523583E-01  0.13625996934E-02 -0.10673144113E-01  0.10202426788E+01  0.10199676635E+01 0.  0.
     999903    2    3    3    0    0  0.41924579465E-01 -0.11394276875E+00 -0.47126072936E-01  0.13172835590E+00  0.19770384024E-01 0.  0.
         14    1    1    2    0    0 -0.21102523583E-01 -0.13625996934E-02  0.10673144113E-01  0.23687321182E-01  0.00000000000E+00 0.  1.
     999901    1    3    3    0    0 -0.20822055881E-01  0.11530536845E+00  0.36452928824E-01  0.88851432291E+00  0.88000000000E+00 0. -1.
        -11    1    4    4    0    0  0.31875222642E-01 -0.60321240887E-01 -0.30138369151E-01  0.74587293400E-01  0.51100000000E-03 0. -1.
         11    1    4    4    0    0  0.10049356823E-01 -0.53621527866E-01 -0.16987703785E-01  0.57141062504E-01  0.51100000000E-03 0.  1.
</event>
<event>
 8    1  0.1117354E+005  0.1043930E+01  0.7957747E-01            NaN
         13   -1    0    0    0    0  0.00000000000E+00  0.00000000000E+00  0.74505805969E-08  0.10566000000E+00  0.10566000000E+00 0.  1.
     999900   -1    0    0    0    0 -0.00000000000E+00 -0.00000000000E+00 -0.74505805969E-08  0.93827000000E+00  0.93827000000E+00 0. -1.
     999902    2    1    2    0    0  0.10952589636E-01 -0.20344765014E-01 -0.31551930119E-04  0.10208243799E+01  0.10205628569E+01 0.  0.
     999903    2    3    3    0    0  0.10059297542E-02 -0.45094171674E-01  0.12258387116E+00  0.13192280430E+00  0.18502016449E-01 0.  0.
         14    1    1    2    0    0 -0.10952589636E-01  0.20344765014E-01  0.31551930119E-04  0.23105620068E-01  0.00000000000E+00 0.  1.
     999901    1    3    3    0    0  0.99466598816E-02  0.24749406660E-01 -0.12261542309E+00  0.88890157563E+00  0.88000000000E+00 0. -1.
        -11    1    4    4    0    0  0.76358122167E-02 -0.10489825862E-01  0.24985926022E-01  0.28158474657E-01  0.51100000000E-03 0. -1.
         11    1    4    4    0    0 -0.66298824625E-02 -0.34604345812E-01  0.97597945140E-01  0.10376432965E+00  0.51100000000E-03 0.  1.
</event>
<event>
 8    1  0.1117354E+005  0.1043930E+01  0.7957747E-01            NaN
         13   -1    0    0    0    0  0.00000000000E+00  0.00000000000E+00  0.74505805969E-08  0.10566000000E+00  0.10566000000E+00 0. -1.
     999900   -1    0    0    0    0 -0.00000000000E+00 -0.00000000000E+00 -0.74505805969E-08  0.93827000000E+00  0.93827000000E+00 0.  1.
     999902    2    1    2    0    0 -0.18660833129E-01 -0.14245693629E-01  0.47288206489E-02  0.10199815507E+01  0.10197003656E+01 0.  0.
     999903    2    3    3    0    0  0.12202147923E+00 -0.19192283539E-01  0.29286560185E-01  0.12845529513E+00  0.19633519803E-01 0.  0.
         14    1    1    2    0    0  0.18660833129E-01  0.14245693629E-01 -0.47288206489E-02  0.23948449319E-01  0.00000000000E+00 0.  1.
     999901    1    3    3    0    0 -0.14068231236E+00  0.49465899101E-02 -0.24557739536E-01  0.89152625555E+00  0.88000000000E+00 0. -1.
        -11    1    4    4    0    0  0.52412509806E-01  0.15452220876E-02  0.12426009775E-01  0.53889940948E-01  0.51100000000E-03 0. -1.
         11    1    4    4    0    0  0.69608969421E-01 -0.20737505627E-01  0.16860550411E-01  0.74565354184E-01  0.51100000000E-03 0.  1.
</event>
<event>
 8    1  0.1117354E+005  0.1043930E+01  0.7957747E-01            NaN
         13   -1    0    0    0    0  0.00000000000E+00  0.00000000000E+00  0.74505805969E-08  0.10566000000E+00  0.10566000000E+00 0. -1.
     999900   -1    0    0    0    0 -0.00000000000E+00 -0.00000000000E+00 -0.74505805969E-08  0.93827000000E+00  0.93827000000E+00 0. -1.
     999902    2    1    2    0    0 -0.21557549273E-01  0.11186597689E-01  0.43913424645E-03  0.10196388342E+01  0.10193494452E+01 0.  0.
     999903    2    3    3    0    0 -0.78859804915E-01 -0.82293434435E-01  0.59985180791E-01  0.13083750847E+00  0.23003337271E-01 0.  0.
         14    1    1    2    0    0  0.21557549273E-01 -0.11186597689E-01 -0.43913424645E-03  0.24291165830E-01  0.00000000000E+00 0.  1.
     999901    1    3    3    0    0  0.57302255642E-01  0.93480032124E-01 -0.59546046545E-01  0.88880132570E+00  0.88000000000E+00 0.  1.
        -11    1    4    4    0    0 -0.61016345593E-01 -0.49246956231E-01  0.36073073073E-01  0.86312136166E-01  0.51100000000E-03 0.  1.
         11    1    4    4    0    0 -0.17843459321E-01 -0.33046478204E-01  0.23912107718E-01  0.44525372303E-01  0.51100000000E-03 0. -1.
</event>
<event>
 8    1  0.1117354E+005  0.1043930E+01  0.7957747E-01            NaN
         13   -1    0    0    0    0  0.00000000000E+00  0.00000000000E+00  0.74505805969E-08  0.10566000000E+00  0.10566000000E+00 0. -1.
     999900   -1    0    0    0    0 -0.00000000000E+00 -0.00000000000E+00 -0.74505805969E-08  0.93827000000E+00  0.93827000000E+00 0.  1.
     999902    2    1    2    0    0  0.19444131640E-01  0.12862174064E-01  0.19537248806E-02  0.10205349831E+01  0.10202667910E+01 0.  0.
     999903    2    3    3    0    0 -0.10191422332E+00  0.66811478086E-01 -0.39668927246E-01  0.12959681298E+00  0.19272457760E-01 0.  0.
         14    1    1    2    0    0 -0.19444131640E-01 -0.12862174064E-01 -0.19537248806E-02  0.23395016943E-01  0.00000000000E+00 0.  1.
     999901    1    3    3    0    0  0.12135835496E+00 -0.53949304021E-01  0.41622652126E-01  0.89093817007E+00  0.88000000000E+00 0. -1.
        -11    1    4    4    0    0 -0.25835066860E-01  0.18479860549E-01 -0.19360189636E-01  0.37202607292E-01  0.51100000000E-03 0.  1.
         11    1    4    4    0    0 -0.76079156458E-01  0.48331617537E-01 -0.20308737610E-01  0.92394205692E-01  0.51100000000E-03 0. -1.
</event>
<event>
 8    1  0.1117354E+005  0.1043930E+01  0.7957747E-01            NaN
         13   -1    0    0    0    0  0.00000000000E+00  0.00000000000E+00  0.74505805969E-08  0.10566000000E+00  0.10566000000E+00 0.  1.
     999900   -1    0    0    0    0 -0.00000000000E+00 -0.00000000000E+00 -0.74505805969E-08  0.93827000000E+00  0.93827000000E+00 0. -1.
     999902    2    1    2    0    0 -0.31429466616E-02  0.23139652257E-01  0.42204944576E-02  0.10201995513E+01  0.10199235218E+01 0.  0.
     999903    2    3    3    0    0  0.39636903949E-01 -0.31220923818E-01 -0.11760969676E+00  0.12911718514E+00  0.17128236597E-01 0.  0.
         14    1    1    2    0    0  0.31429466616E-02 -0.23139652257E-01 -0.42204944576E-02  0.23730448664E-01  0.00000000000E+00 0. -1.
     999901    1    3    3    0    0 -0.42779850610E-01  0.54360576075E-01  0.12183019122E+00  0.89108236619E+00  0.88000000000E+00 0.  1.
        -11    1    4    4    0    0  0.23499028702E-01 -0.24412748543E-01 -0.60086409823E-01  0.68984233037E-01  0.51100000000E-03 0. -1.
         11    1    4    4    0    0  0.16137875246E-01 -0.68081752751E-02 -0.57523286936E-01  0.60132952106E-01  0.51100000000E-03 0.  1.
</event>
<event>
 8    1  0.1117354E+005  0.1043930E+01  0.7957747E-01            NaN
         13   -1    0    0    0    0  0.00000000000E+00  0.00000000000E+00  0.74505805969E-08  0.10566000000E+00  0.10566000000E+00 0.  1.
     999900   -1    0    0    0    0 -0.00000000000E+00 -0.00000000000E+00 -0.74505805969E-08  0.93827000000E+00  0.93827000000E+00 0. -1.
     999902    2    1    2    0    0  0.18587207951E-01  0.11787216074E-01 -0.89119595665E-02  0.10201845628E+01  0.10199081804E+01 0.  0.
     999903    2    3    3    0    0 -0.75894473508E-02 -0.91859929955E-01  0.87273125586E-01  0.12851224705E+00  0.20073682992E-01 0.  0.
         14    1    1    2    0    0 -0.18587207951E-01 -0.11787216074E-01  0.89119595665E-02  0.23745437152E-01  0.00000000000E+00 0.  1.
     999901    1    3    3    0    0  0.26176655302E-01  0.10364714603E+00 -0.96185085152E-01  0.89167231580E+00  0.88000000000E+00 0. -1.
        -11    1    4    4    0    0 -0.13020565895E-01 -0.60211461075E-01  0.50242804825E-01  0.79495633457E-01  0.51100000000E-03 0. -1.
         11    1    4    4    0    0  0.54311185443E-02 -0.31648468879E-01  0.37030320761E-01  0.49016613589E-01  0.51100000000E-03 0.  1.
</event>
<event>
 8    1  0.1117354E+005  0.1043930E+01  0.7957747E-01            NaN
         13   -1    0    0    0    0  0.00000000000E+00  0.00000000000E+00  0.74505805969E-08  0.10566000000E+00  0.10566000000E+00 0.  1.
     999900   -1    0    0    0    0 -0.00000000000E+00 -0.00000000000E+00 -0.74505805969E-08  0.93827000000E+00  0.93827000000E+00 0. -1.
     999902    2    1    2    0    0 -0.20538782952E-01 -0.11416434921E-01  0.30205459688E-02  0.10202382232E+01  0.10199631031E+01 0.  0.
     999903    2    3    3    0    0  0.35618124151E-01 -0.12392717467E+00 -0.13077547452E-01  0.13115363024E+00  0.20091219200E-01 0.  0.
         14    1    1    2    0    0  0.20538782952E-01  0.11416434921E-01 -0.30205459688E-02  0.23691776831E-01  0.00000000000E+00 0.  1.
     999901    1    3    3    0    0 -0.56156907103E-01  0.11251073974E+00  0.16098093421E-01  0.88908459293E+00  0.88000000000E+00 0. -1.
        -11    1    4    4    0    0  0.82787290866E-02 -0.41994171205E-01  0.43888302540E-02  0.43029881739E-01  0.51100000000E-03 0. -1.
         11    1    4    4    0    0  0.27339395064E-01 -0.81933003461E-01 -0.17466377706E-01  0.88123748500E-01  0.51100000000E-03 0.  1.
</event>
<event>
 8    1  0.1117354E+005  0.1043930E+01  0.7957747E-01            NaN
         13   -1    0    0    0    0  0.00000000000E+00  0.00000000000E+00  0.74505805969E-08  0.10566000000E+00  0.10566000000E+00 0. -1.
     999900   -1    0    0    0    0 -0.00000000000E+00 -0.00000000000E+00 -0.74505805969E-08  0.93827000000E+00  0.93827000000E+00 0. -1.
     999902    2    1    2    0    0 -0.68010332944E-02  0.12469556342E-01 -0.18214825329E-01  0.10208318669E+01  0.10205705154E+01 0.  0.
     999903    2    3    3    0    0  0.28872454940E-01  0.10666430123E+00 -0.71931751110E-01  0.13345891499E+00  0.20644935499E-01 0.  0.
         14    1    1    2    0    0  0.68010332944E-02 -0.12469556342E-01  0.18214825329E-01  0.23098133063E-01  0.00000000000E+00 0. -1.
     999901    1    3    3    0    0 -0.35673488234E-01 -0.94194744888E-01  0.53716925781E-01  0.88737295194E+00  0.88000000000E+00 0.  1.
        -11    1    4    4    0    0  0.21643114875E-01  0.58919969835E-01 -0.30309933989E-01  0.69706100782E-01  0.51100000000E-03 0. -1.
         11    1    4    4    0    0  0.72293400646E-02  0.47744331396E-01 -0.41621817121E-01  0.63752814210E-01  0.51100000000E-03 0.  1.
</event>
<event>
 8    1  0.1117354E+005  0.1043930E+01  0.7957747E-01            NaN
         13   -1    0    0    0    0  0.00000000000E+00  0.00000000000E+00  0.74505805969E-08  0.10566000000E+00  0.10566000000E+00 0. -1.
     999900   -1    0    0    0    0 -0.00000000000E+00 -0.00000000000E+00 -0.74505805969E-08  0.93827000000E+00  0.93827000000E+00 0.  1.
     999902    2    1    2    0    0  0.14431711794E-01 -0.99227876805E-02 -0.16453392901E-01  0.10198998074E+01  0.10196166764E+01 0.  0.
     999903    2    3    3    0    0  0.12427819815E+00 -0.39246544917E-01 -0.12847531121E-01  0.13257848137E+00  0.20655092467E-01 0.  0.
         14    1    1    2    0    0 -0.14431711794E-01  0.99227876805E-02  0.16453392901E-01  0.24030192646E-01  0.00000000000E+00 0. -1.
     999901    1    3    3    0    0 -0.10984648635E+00  0.29323757237E-01 -0.36058617800E-02  0.88732132598E+00  0.88000000000E+00 0.  1.
        -11    1    4    4    0    0  0.21940350146E-01 -0.15105989344E-01 -0.52627710028E-02  0.27157462293E-01  0.51100000000E-03 0. -1.
         11    1    4    4    0    0  0.10233784800E+00 -0.24140555573E-01 -0.75847601178E-02  0.10542101908E+00  0.51100000000E-03 0.  1.
</event>
<event>
 8    1  0.1117354E+005  0.1043930E+01  0.7957747E-01            NaN
         13   -1    0    0    0    0  0.00000000000E+00  0.00000000000E+00  0.74505805969E-08  0.10566000000E+00  0.10566000000E+00 0.  1.
     999900   -1    0    0    0    0 -0.00000000000E+00 -0.00000000000E+00 -0.74505805969E-08  0.93827000000E+00  0.93827000000E+00 0.  1.
     999902    2    1    2    0    0  0.17645713830E-01 -0.74946484296E-02  0.14134931340E-01  0.10201111576E+01  0.10198330434E+01 0.  0.
     999903    2    3    3    0    0  0.46850287178E-01 -0.34895638278E-01 -0.11414343525E+00  0.12990946092E+00  0.20858792999E-01 0.  0.
         14    1    1    2    0    0 -0.17645713830E-01  0.74946484296E-02 -0.14134931340E-01  0.23818842450E-01  0.00000000000E+00 0.  1.
     999901    1    3    3    0    0 -0.29204573347E-01  0.27400989848E-01  0.12827836659E+00  0.89020169663E+00  0.88000000000E+00 0. -1.
        -11    1    4    4    0    0  0.38380399265E-01 -0.19836929343E-01 -0.67267931707E-01  0.79948699618E-01  0.51100000000E-03 0.  1.
         11    1    4    4    0    0  0.84698879129E-02 -0.15058708935E-01 -0.46875503547E-01  0.49960761301E-01  0.51100000000E-03 0. -1.
</event>
<event>
 8    1  0.1117354E+005  0.1043930E+01  0.7957747E-01            NaN
         13   -1    0    0    0    0  0.00000000000E+00  0.00000000000E+00  0.74505805969E-08  0.10566000000E+00  0.10566000000E+00 0. -1.
     999900   -1    0    0    0    0 -0.00000000000E+00 -0.00000000000E+00 -0.74505805969E-08  0.93827000000E+00  0.93827000000E+00 0.  1.
     999902    2    1    2    0    0  0.20401118327E-01  0.24082083974E-02  0.12195685392E-01  0.10200398380E+01  0.10197600362E+01 0.  0.
     999903    2    3    3    0    0  0.63258633504E-01  0.40680760903E-01 -0.10474689283E+00  0.13044604225E+00  0.19689574930E-01 0.  0.
         14    1    1    2    0    0 -0.20401118327E-01 -0.24082083974E-02 -0.12195685392E-01  0.23890161968E-01  0.00000000000E+00 0.  1.
     999901    1    3    3    0    0 -0.42857515177E-01 -0.38272552506E-01  0.11694257823E+00  0.88959379578E+00  0.88000000000E+00 0. -1.
        -11    1    4    4    0    0  0.52118051560E-01  0.40690542048E-01 -0.94241898303E-01  0.11512518416E+00  0.51100000000E-03 0.  1.
         11    1    4    4    0    0  0.11140581944E-01 -0.97811444227E-05 -0.10504994532E-01  0.15320858098E-01  0.51100000000E-03 0. -1.
</event>
<event>
 8    1  0.1117354E+005  0.1043930E+01  0.7957747E-01            NaN
         13   -1    0    0    0    0  0.00000000000E+00  0.00000000000E+00  0.74505805969E-08  0.10566000000E+00  0.10566000000E+00 0.  1.
     999900   -1    0    0    0    0 -0.00000000000E+00 -0.00000000000E+00 -0.74505805969E-08  0.93827000000E+00  0.93827000000E+00 0.  1.
     999902    2    1    2    0    0  0.55386950116E-02  0.14971994402E-01 -0.16825606404E-01  0.10207364925E+01  0.10204729533E+01 0.  0.
     999903    2    3    3    0    0  0.39505618785E-03  0.11465650131E+00 -0.66655778330E-01  0.13369280476E+00  0.16867243360E-01 0.  0.
         14    1    1    2    0    0 -0.55386950116E-02 -0.14971994402E-01  0.16825606404E-01  0.23193507489E-01  0.00000000000E+00 0.  1.
     999901    1    3    3    0    0  0.51436388237E-02 -0.99684506909E-01  0.49830171926E-01  0.88704368775E+00  0.88000000000E+00 0. -1.
        -11    1    4    4    0    0  0.60103320173E-02  0.52888607658E-01 -0.37781073861E-01  0.65276332419E-01  0.51100000000E-03 0.  1.
         11    1    4    4    0    0 -0.56152758295E-02  0.61767893652E-01 -0.28874704469E-01  0.68416472344E-01  0.51100000000E-03 0. -1.
</event>
<event>
 8    1  0.1117354E+005  0.1043930E+01  0.7957747E-01            NaN
         13   -1    0    0    0    0  0.00000000000E+00  0.00000000000E+00  0.74505805969E-08  0.10566000000E+00  0.10566000000E+00 0. -1.
     999900   -1    0    0    0    0 -0.00000000000E+00 -0.00000000000E+00 -0.74505805969E-08  0.93827000000E+00  0.93827000000E+00 0. -1.
     999902    2    1    2    0    0  0.98608476629E-02 -0.33691378553E-02 -0.21537847202E-01  0.10200037327E+01  0.10197230744E+01 0.  0.
     999903    2    3    3    0    0  0.11729107585E+00  0.54561212985E-01 -0.12934816123E-01  0.13153809370E+00  0.20020943757E-01 0.  0.
         14    1    1    2    0    0 -0.98608476629E-02  0.33691378553E-02  0.21537847202E-01  0.23926267336E-01  0.00000000000E+00 0. -1.
     999901    1    3    3    0    0 -0.10743022819E+00 -0.57930350840E-01 -0.86030310789E-02  0.88846563896E+00  0.88000000000E+00 0. -1.
        -11    1    4    4    0    0  0.61489151110E-01  0.22103305743E-01 -0.14620541072E-01  0.66958891652E-01  0.51100000000E-03 0.  1.
         11    1    4    4    0    0  0.55801924742E-01  0.32457907242E-01  0.16857249494E-02  0.64579202048E-01  0.51100000000E-03 0. -1.
</event>
<event>
 8    1  0.1117354E+005  0.1043930E+01  0.7957747E-01            NaN
         13   -1    0    0    0    0  0.00000000000E+00  0.00000000000E+00  0.74505805969E-08  0.10566000000E+00  0.10566000000E+00 0.  1.
     999900   -1    0    0    0    0 -0.00000000000E+00 -0.00000000000E+00 -0.74505805969E-08  0.93827000000E+00  0.93827000000E+00 0. -1.
     999902    2    1    2    0    0  0.17370756228E-01 -0.17761996324E-01 -0.75801212318E-02  0.10179552060E+01  0.10176237573E+01 0.  0.
     999903    2    3    3    0    0  0.10048126231E-01  0.85474263710E-01 -0.92332713183E-01  0.12784602835E+00  0.20309171423E-01 0.  0.
         14    1    1    2    0    0 -0.17370756228E-01  0.17761996324E-01  0.75801212318E-02  0.25974793998E-01  0.00000000000E+00 0. -1.
     999901    1    3    3    0    0  0.73226299967E-02 -0.10323626003E+00  0.84752591951E-01  0.89010917765E+00  0.88000000000E+00 0.  1.
        -11    1    4    4    0    0 -0.31951758005E-02  0.38655346770E-01 -0.50490823304E-01  0.63671259931E-01  0.51100000000E-03 0. -1.
         11    1    4    4    0    0  0.13243302031E-01  0.46818916939E-01 -0.41841889880E-01  0.64174768420E-01  0.51100000000E-03 0.  1.
</event>
<event>
 8    1  0.1117354E+005  0.1043930E+01  0.7957747E-01            NaN
         13   -1    0    0    0    0  0.00000000000E+00  0.00000000000E+00  0.74505805969E-08  0.10566000000E+00  0.10566000000E+00 0.  1.
     999900   -1    0    0    0    0 -0.00000000000E+00 -0.00000000000E+00 -0.74505805969E-08  0.93827000000E+00  0.93827000000E+00 0.  1.
     999902    2    1    2    0    0  0.69039620053E-02 -0.25011535749E-02  0.21214061394E-01  0.10214810165E+01  0.10212343072E+01 0.  0.
     999903    2    3    3    0    0  0.10261505177E+00 -0.17124079745E-01  0.82171387077E-01  0.13407454916E+00  0.20019113925E-01 0.  0.
         14    1    1    2    0    0 -0.69039620053E-02  0.25011535749E-02 -0.21214061394E-01  0.22448983527E-01  0.00000000000E+00 0. -1.
     999901    1    3    3    0    0 -0.95711089762E-01  0.14622926170E-01 -0.60957325683E-01  0.88740646731E+00  0.88000000000E+00 0. -1.
        -11    1    4    4    0    0  0.38137341453E-01 -0.34341498748E-02  0.18898544502E-01  0.42704406139E-01  0.51100000000E-03 0.  1.
         11    1    4    4    0    0  0.64477710314E-01 -0.13689929870E-01  0.63272842575E-01  0.91370143021E-01  0.51100000000E-03 0. -1.
</event>
<event>
 8    1  0.1117354E+005  0.1043930E+01  0.7957747E-01            NaN
         13   -1    0    0    0    0  0.00000000000E+00  0.00000000000E+00  0.74505805969E-08  0.10566000000E+00  0.10566000000E+00 0. -1.
     999900   -1    0    0    0    0 -0.00000000000E+00 -0.00000000000E+00 -0.74505805969E-08  0.93827000000E+00  0.93827000000E+00 0. -1.
     999902    2    1    2    0    0 -0.11399118837E-01  0.17795981524E-01 -0.11232303238E-01  0.10199967281E+01  0.10197159035E+01 0.  0.
     999903    2    3    3    0    0 -0.42587511097E-01 -0.24358759800E-01 -0.12082903851E+00  0.13164928344E+00  0.18023096318E-01 0.  0.
         14    1    1    2    0    0  0.11399118837E-01 -0.17795981524E-01  0.11232303238E-01  0.23933271918E-01  0.00000000000E+00 0. -1.
     999901    1    3    3    0    0  0.31188392260E-01  0.42154741324E-01  0.10959673527E+00  0.88834744465E+00  0.88000000000E+00 0.  1.
        -11    1    4    4    0    0 -0.22237063425E-01 -0.21689914554E-01 -0.62158111508E-01  0.69489792994E-01  0.51100000000E-03 0.  1.
         11    1    4    4    0    0 -0.20350447672E-01 -0.26688452454E-02 -0.58670927004E-01  0.62159490441E-01  0.51100000000E-03 0. -1.
</event>
<event>
 8    1  0.1117354E+005  0.1043930E+01  0.7957747E-01            NaN
         13   -1    0    0    0    0  0.00000000000E+00  0.00000000000E+00  0.74505805969E-08  0.10566000000E+00  0.10566000000E+00 0. -1.
     999900   -1    0    0    0    0 -0.00000000000E+00 -0.00000000000E+00 -0.74505805969E-08  0.93827000000E+00  0.93827000000E+00 0.  1.
     999902    2    1    2    0    0 -0.48762731783E-02 -0.34732368464E-02 -0.22704796744E-01  0.10204491736E+01  0.10201789876E+01 0.  0.
     999903    2    3    3    0    0  0.11364613983E+00  0.55460162253E-01  0.20960234266E-01  0.12947928472E+00  0.18283299956E-01 0.  0.
         14    1    1    2    0    0  0.48762731783E-02  0.34732368464E-02  0.22704796744E-01  0.23480826422E-01  0.00000000000E+00 0. -1.
     999901    1    3    3    0    0 -0.11852241300E+00 -0.58933399100E-01 -0.43665031009E-01  0.89096988886E+00  0.88000000000E+00 0. -1.
        -11    1    4    4    0    0  0.47813946233E-01  0.33049017134E-01  0.69819555565E-02  0.58544169755E-01  0.51100000000E-03 0.  1.
         11    1    4    4    0    0  0.65832193593E-01  0.22411145120E-01  0.13978278709E-01  0.70935114968E-01  0.51100000000E-03 0. -1.
</event>
<event>
 8    1  0.1117354E+005  0.1043930E+01  0.7957747E-01            NaN
         13   -1    0    0    0    0  0.00000000000E+00  0.00000000000E+00  0.74505805969E-08  0.10566000000E+00  0.10566000000E+00 0.  1.
     999900   -1    0    0    0    0 -0.00000000000E+00 -0.00000000000E+00 -0.74505805969E-08  0.93827000000E+00  0.93827000000E+00 0. -1.
     999902    2    1    2    0    0  0.92656712303E-02 -0.52473979936E-02 -0.10923692307E-01  0.10286750040E+01  0.10285618839E+01 0.  0.
     999903    2    3    3    0    0  0.98419065760E-01  0.81098723282E-01 -0.51659240594E-01  0.13903273584E+00  0.19952670853E-01 0.  0.
         14    1    1    2    0    0 -0.92656712303E-02  0.52473979936E-02  0.10923692307E-01  0.15254995990E-01  0.00000000000E+00 0.  1.
     999901    1    3    3    0    0 -0.89153394529E-01 -0.86346121276E-01  0.40735548287E-01  0.88964226817E+00  0.88000000000E+00 0.  1.
        -11    1    4    4    0    0  0.84301413275E-01  0.76801542450E-01 -0.48534308253E-01  0.12393968453E+00  0.51100000000E-03 0.  1.
         11    1    4    4    0    0  0.14117652485E-01  0.42971808325E-02 -0.31249323405E-02  0.15093051313E-01  0.51100000000E-03 0. -1.
</event>
<event>
 7    1  0.1130855E+005  0.1043930E+01  0.7957747E-01            NaN
         13   -1    0    0    0    0  0.00000000000E+00  0.00000000000E+00  0.74505805969E-08  0.10566000000E+00  0.10566000000E+00 0.  1.
     999900   -1    0    0    0    0 -0.00000000000E+00 -0.00000000000E+00 -0.74505805969E-08  0.93827000000E+00  0.93827000000E+00 0.  1.
     999903    2    1    2    0    0  0.65116670993E-02 -0.57367543975E-01 -0.68497039714E-01  0.96089184638E-01  0.34754137088E-01 0.  0.
         14    1    1    2    0    0  0.54240639436E-01 -0.14280565689E-01  0.25998084664E-01  0.61821371135E-01  0.00000000000E+00 0.  1.
     999901    1    1    2    0    0 -0.60752306535E-01  0.71648109664E-01  0.42498955049E-01  0.88601944423E+00  0.88000000000E+00 0. -1.
        -11    1    3    3    0    0  0.11593917712E-01 -0.38862080928E-01 -0.22808708645E-01  0.46531479377E-01  0.51100000000E-03 0. -1.
         11    1    3    3    0    0 -0.50822506124E-02 -0.18505463047E-01 -0.45688331069E-01  0.49557705261E-01  0.51100000000E-03 0.  1.
</event>
<event>
 8    1  0.1117354E+005  0.1043930E+01  0.7957747E-01            NaN
         13   -1    0    0    0    0  0.00000000000E+00  0.00000000000E+00  0.74505805969E-08  0.10566000000E+00  0.10566000000E+00 0.  1.
     999900   -1    0    0    0    0 -0.00000000000E+00 -0.00000000000E+00 -0.74505805969E-08  0.93827000000E+00  0.93827000000E+00 0. -1.
     999902    2    1    2    0    0  0.17674039537E-01 -0.15852820502E-01 -0.25850517562E-02  0.10200476617E+01  0.10197680452E+01 0.  0.
     999903    2    3    3    0    0  0.10588812546E+00  0.27929872345E-01  0.69735995687E-01  0.13160577666E+00  0.21554546428E-01 0.  0.
         14    1    1    2    0    0 -0.17674039537E-01  0.15852820502E-01  0.25850517562E-02  0.23882338328E-01  0.00000000000E+00 0.  1.
     999901    1    3    3    0    0 -0.88214085924E-01 -0.43782692847E-01 -0.72321047443E-01  0.88844188502E+00  0.88000000000E+00 0. -1.
        -11    1    4    4    0    0  0.75764383112E-01  0.97264924420E-02  0.46502343845E-01  0.89429164749E-01  0.51100000000E-03 0. -1.
         11    1    4    4    0    0  0.30123742349E-01  0.18203379903E-01  0.23233651842E-01  0.42176611907E-01  0.51100000000E-03 0.  1.
</event>
<event>
 8    1  0.1117354E+005  0.1043930E+01  0.7957747E-01            NaN
         13   -1    0    0    0    0  0.00000000000E+00  0.00000000000E+00  0.74505805969E-08  0.10566000000E+00  0.10566000000E+00 0. -1.
     999900   -1    0    0    0    0 -0.00000000000E+00 -0.00000000000E+00 -0.74505805969E-08  0.93827000000E+00  0.93827000000E+00 0.  1.
     999902    2    1    2    0    0  0.21855187712E-02  0.35762487470E-02  0.19737672424E-01  0.10237522459E+01  0.10235533788E+01 0.  0.
     999903    2    3    3    0    0  0.89587252538E-01 -0.67660125139E-01 -0.67595109564E-01  0.13226994163E+00  0.17957457267E-01 0.  0.
         14    1    1    2    0    0 -0.21855187712E-02 -0.35762487470E-02 -0.19737672424E-01  0.20177754090E-01  0.00000000000E+00 0.  1.
     999901    1    3    3    0    0 -0.87401733767E-01  0.71236373886E-01  0.87332781987E-01  0.89148230428E+00  0.88000000000E+00 0. -1.
        -11    1    4    4    0    0  0.36929734573E-01 -0.17182513548E-01 -0.23248875507E-01  0.46902189723E-01  0.51100000000E-03 0. -1.
         11    1    4    4    0    0  0.52657517965E-01 -0.50477611590E-01 -0.44346234056E-01  0.85367751910E-01  0.51100000000E-03 0.  1.
</event>
<event>
 8    1  0.1117354E+005  0.1043930E+01  0.7957747E-01            NaN
         13   -1    0    0    0    0  0.00000000000E+00  0.00000000000E+00  0.74505805969E-08  0.10566000000E+00  0.10566000000E+00 0.  1.
     999900   -1    0    0    0    0 -0.00000000000E+00 -0.00000000000E+00 -0.74505805969E-08  0.93827000000E+00  0.93827000000E+00 0. -1.
     999902    2    1    2    0    0 -0.68419359506E-02 -0.22830148177E-01  0.11556987761E-02  0.10200686632E+01  0.10197895441E+01 0.  0.
     999903    2    3    3    0    0  0.41695019007E-01 -0.58755975819E-01 -0.10774231485E+00  0.13130250811E+00  0.21004830968E-01 0.  0.
         14    1    1    2    0    0  0.68419359506E-02  0.22830148177E-01 -0.11556987761E-02  0.23861336781E-01  0.00000000000E+00 0. -1.
     999901    1    3    3    0    0 -0.48536954957E-01  0.35925827642E-01  0.10889801362E+00  0.88876615510E+00  0.88000000000E+00 0.  1.
        -11    1    4    4    0    0  0.37907363014E-01 -0.38154820026E-01 -0.82676858574E-01  0.98633070146E-01  0.51100000000E-03 0.  1.
         11    1    4    4    0    0  0.37876559929E-02 -0.20601155793E-01 -0.25065456274E-01  0.32669437968E-01  0.51100000000E-03 0. -1.
</event>
<event>
 8    1  0.1117354E+005  0.1043930E+01  0.7957747E-01            NaN
         13   -1    0    0    0    0  0.00000000000E+00  0.00000000000E+00  0.74505805969E-08  0.10566000000E+00  0.10566000000E+00 0.  1.
     999900   -1    0    0    0    0 -0.00000000000E+00 -0.00000000000E+00 -0.74505805969E-08  0.93827000000E+00  0.93827000000E+00 0.  1.
     999902    2    1    2    0    0  0.34557356553E-02 -0.17860410685E-03  0.24383874163E-01  0.10193018184E+01  0.10190042442E+01 0.  0.
     999903    2    3    3    0    0  0.18014028971E-01  0.12495973661E+00 -0.19597058808E-01  0.12924234250E+00  0.19496085932E-01 0.  0.
         14    1    1    2    0    0 -0.34557356553E-02  0.17860410685E-03 -0.24383874163E-01  0.24628181572E-01  0.00000000000E+00 0. -1.
     999901    1    3    3    0    0 -0.14558293316E-01 -0.12513834072E+00  0.43980932970E-01  0.89005947593E+00  0.88000000000E+00 0. -1.
        -11    1    4    4    0    0  0.12902836326E-01  0.55564045563E-01 -0.35703097284E-03  0.57045902015E-01  0.51100000000E-03 0. -1.
         11    1    4    4    0    0  0.51111926453E-02  0.69395691051E-01 -0.19240027835E-01  0.72196440486E-01  0.51100000000E-03 0.  1.
</event>
<event>
 8    1  0.1117354E+005  0.1043930E+01  0.7957747E-01            NaN
         13   -1    0    0    0    0  0.00000000000E+00  0.00000000000E+00  0.74505805969E-08  0.10566000000E+00  0.10566000000E+00 0. -1.
     999900   -1    0    0    0    0 -0.00000000000E+00 -0.00000000000E+00 -0.74505805969E-08  0.93827000000E+00  0.93827000000E+00 0. -1.
     999902    2    1    2    0    0 -0.16297701849E-01 -0.12061305345E-02 -0.19727201947E-01  0.10183129679E+01  0.10179907015E+01 0.  0.
     999903    2    3    3    0    0 -0.55136236487E-01 -0.11904082734E-01 -0.11749116961E+00  0.13198307937E+00  0.20824181665E-01 0.  0.
         14    1    1    2    0    0  0.16297701849E-01  0.12061305345E-02  0.19727201947E-01  0.25617032089E-01  0.00000000000E+00 0. -1.
     999901    1    3    3    0    0  0.38838534638E-01  0.10697952199E-01  0.97763967667E-01  0.88632988854E+00  0.88000000000E+00 0.  1.
        -11    1    4    4    0    0 -0.16192271749E-01 -0.83152121895E-02 -0.57957481303E-01  0.60750828621E-01  0.51100000000E-03 0.  1.
         11    1    4    4    0    0 -0.38943964738E-01 -0.35888705443E-02 -0.59533688310E-01  0.71232250745E-01  0.51100000000E-03 0. -1.
</event>
<event>
 8    1  0.1117354E+005  0.1043930E+01  0.7957747E-01            NaN
         13   -1    0    0    0    0  0.00000000000E+00  0.00000000000E+00  0.74505805969E-08  0.10566000000E+00  0.10566000000E+00 0.  1.
     999900   -1    0    0    0    0 -0.00000000000E+00 -0.00000000000E+00 -0.74505805969E-08  0.93827000000E+00  0.93827000000E+00 0.  1.
     999902    2    1    2    0    0  0.66672334709E-02  0.20217185646E-01  0.10374720124E-01  0.10202483317E+01  0.10199734491E+01 0.  0.
     999903    2    3    3    0    0  0.71085174376E-01 -0.10613201614E+00  0.18910775678E-02  0.12885292888E+00  0.16804589891E-01 0.  0.
         14    1    1    2    0    0 -0.66672334709E-02 -0.20217185646E-01 -0.10374720124E-01  0.23681668338E-01  0.00000000000E+00 0. -1.
     999901    1    3    3    0    0 -0.64417940905E-01  0.12634920179E+00  0.84836425567E-02  0.89139540278E+00  0.88000000000E+00 0. -1.
        -11    1    4    4    0    0  0.56428148226E-01 -0.71301504097E-01  0.38315904853E-02  0.91010892784E-01  0.51100000000E-03 0. -1.
         11    1    4    4    0    0  0.14657026150E-01 -0.34830512044E-01 -0.19405129175E-02  0.37842036100E-01  0.51100000000E-03 0.  1.
</event>
<event>
 8    1  0.1117354E+005  0.1043930E+01  0.7957747E-01            NaN
         13   -1    0    0    0    0  0.00000000000E+00  0.00000000000E+00  0.74505805969E-08  0.10566000000E+00  0.10566000000E+00 0. -1.
     999900   -1    0    0    0    0 -0.00000000000E+00 -0.00000000000E+00 -0.74505805969E-08  0.93827000000E+00  0.93827000000E+00 0.  1.
     999902    2    1    2    0    0  0.98522775200E-02 -0.13249259511E-01 -0.16706026540E-01  0.10204416716E+01  0.10201713109E+01 0.  0.
     999903    2    3    3    0    0 -0.75077305446E-01  0.10152795853E+00  0.10084523423E-01  0.12853103848E+00  0.21771588912E-01 0.  0.
         14    1    1    2    0    0 -0.98522775200E-02  0.13249259511E-01  0.16706026540E-01  0.23488328435E-01  0.00000000000E+00 0. -1.
     999901    1    3    3    0    0  0.84929582966E-01 -0.11477721804E+00 -0.26790549962E-01  0.89191063309E+00  0.88000000000E+00 0.  1.
        -11    1    4    4    0    0 -0.39592451891E-01  0.55190734329E-01  0.16245394438E-01  0.69840914684E-01  0.51100000000E-03 0.  1.
         11    1    4    4    0    0 -0.35484853555E-01  0.46337224200E-01 -0.61608710151E-02  0.58690123795E-01  0.51100000000E-03 0. -1.
</event>
<event>
 8    1  0.1117354E+005  0.1043930E+01  0.7957747E-01            NaN
         13   -1    0    0    0    0  0.00000000000E+00  0.00000000000E+00  0.74505805969E-08  0.10566000000E+00  0.10566000000E+00 0. -1.
     999900   -1    0    0    0    0 -0.00000000000E+00 -0.00000000000E+00 -0.74505805969E-08  0.93827000000E+00  0.93827000000E+00 0.  1.
     999902    2    1    2    0    0 -0.35985147423E-02  0.20140664141E-01 -0.13518951947E-01  0.10194074038E+01  0.10191124066E+01 0.  0.
     999903    2    3    3    0    0 -0.28287093912E-01 -0.10355289738E+00 -0.68269831801E-01  0.12872941380E+00  0.19675614514E-01 0.  0.
         14    1    1    2    0    0  0.35985147423E-02 -0.20140664141E-01  0.13518951947E-01  0.24522596155E-01  0.00000000000E+00 0. -1.
     999901    1    3    3    0    0  0.24688579170E-01  0.12369356152E+00  0.54750879853E-01  0.89067799004E+00  0.88000000000E+00 0. -1.
        -11    1    4    4    0    0 -0.20602285955E-01 -0.57314214273E-01 -0.48487855150E-01  0.77850539898E-01  0.51100000000E-03 0. -1.
         11    1    4    4    0    0 -0.76848079567E-02 -0.46238683104E-01 -0.19781976650E-01  0.50878873904E-01  0.51100000000E-03 0.  1.
</event>
<event>
 8    1  0.1117354E+005  0.1043930E+01  0.7957747E-01            NaN
         13   -1    0    0    0    0  0.00000000000E+00  0.00000000000E+00  0.74505805969E-08  0.10566000000E+00  0.10566000000E+00 0.  1.
     999900   -1    0    0    0    0 -0.00000000000E+00 -0.00000000000E+00 -0.74505805969E-08  0.93827000000E+00  0.93827000000E+00 0.  1.
     999902    2    1    2    0    0 -0.17699987108E-01  0.16331468084E-01 -0.18596060362E-02  0.10197749896E+01  0.10194888743E+01 0.  0.
     999903    2    3    3    0    0 -0.11070784640E+00 -0.60694553146E-01  0.30291463240E-01  0.13094589404E+00  0.17005833823E-01 0.  0.
         14    1    1    2    0    0  0.17699987108E-01 -0.16331468084E-01  0.18596060362E-02  0.24155010412E-01  0.00000000000E+00 0.  1.
     999901    1    3    3    0    0  0.93007859295E-01  0.77026021230E-01 -0.32151069276E-01  0.88882909555E+00  0.88000000000E+00 0.  1.
        -11    1    4    4    0    0 -0.95275830172E-02 -0.53646652958E-02  0.78270126664E-02  0.13456512184E-01  0.51100000000E-03 0. -1.
         11    1    4    4    0    0 -0.10118026339E+00 -0.55329887850E-01  0.22464450573E-01  0.11748938186E+00  0.51100000000E-03 0.  1.
</event>
<event>
 8    1  0.1117354E+005  0.1043930E+01  0.7957747E-01            NaN
         13   -1    0    0    0    0  0.00000000000E+00  0.00000000000E+00  0.74505805969E-08  0.10566000000E+00  0.10566000000E+00 0.  1.
     999900   -1    0    0    0    0 -0.00000000000E+00 -0.00000000000E+00 -0.74505805969E-08  0.93827000000E+00  0.93827000000E+00 0. -1.
     999902    2    1    2    0    0  0.10052168180E-01 -0.19452010383E-01  0.93339430013E-03  0.10220142975E+01  0.10217792943E+01 0.  0.
     999903    2    3    3    0    0  0.80585962279E-01 -0.79398152253E-01 -0.69703594125E-01  0.13434423478E+00  0.19789352885E-01 0.  0.
         14    1    1    2    0    0 -0.10052168180E-01  0.19452010383E-01 -0.93339430013E-03  0.21915702544E-01  0.00000000000E+00 0. -1.
     999901    1    3    3    0    0 -0.70533794098E-01  0.59946141870E-01  0.70636988425E-01  0.88767006267E+00  0.88000000000E+00 0.  1.
        -11    1    4    4    0    0  0.18248569076E-01 -0.98527689879E-02 -0.18700683540E-01  0.27929626133E-01  0.51100000000E-03 0.  1.
         11    1    4    4    0    0  0.62337393202E-01 -0.69545383265E-01 -0.51002910585E-01  0.10641460865E+00  0.51100000000E-03 0. -1.
</event>
<event>
 8    1  0.1117354E+005  0.1043930E+01  0.7957747E-01            NaN
         13   -1    0    0    0    0  0.00000000000E+00  0.00000000000E+00  0.74505805969E-08  0.10566000000E+00  0.10566000000E+00 0.  1.
     999900   -1    0    0    0    0 -0.00000000000E+00 -0.00000000000E+00 -0.74505805969E-08  0.93827000000E+00  0.93827000000E+00 0.  1.
     999902    2    1    2    0    0 -0.78317178935E-02  0.13728140849E-01  0.14091762649E-01  0.10227551226E+01  0.10225358994E+01 0.  0.
     999903    2    3    3    0    0 -0.68388926710E-01  0.21356161869E-01 -0.10924275324E+00  0.13206058182E+00  0.19310287125E-01 0.  0.
         14    1    1    2    0    0  0.78317178935E-02 -0.13728140849E-01 -0.14091762649E-01  0.21174877352E-01  0.00000000000E+00 0. -1.
     999901    1    3    3    0    0  0.60557208816E-01 -0.76280210204E-02  0.12333451589E+00  0.89069454082E+00  0.88000000000E+00 0. -1.
        -11    1    4    4    0    0 -0.21133505432E-01  0.15322881238E-01 -0.31904539776E-01  0.41225920494E-01  0.51100000000E-03 0. -1.
         11    1    4    4    0    0 -0.47255421278E-01  0.60332806308E-02 -0.77338213468E-01  0.90834661329E-01  0.51100000000E-03 0.  1.
</event>
<event>
 8    1  0.1117354E+005  0.1043930E+01  0.7957747E-01            NaN
         13   -1    0    0    0    0  0.00000000000E+00  0.00000000000E+00  0.74505805969E-08  0.10566000000E+00  0.10566000000E+00 0. -1.
     999900   -1    0    0    0    0 -0.00000000000E+00 -0.00000000000E+00 -0.74505805969E-08  0.93827000000E+00  0.93827000000E+00 0.  1.
     999902    2    1    2    0    0 -0.45239822924E-02  0.11678854796E-01  0.19837482021E-01  0.10204696556E+01  0.10201999462E+01 0.  0.
     999903    2    3    3    0    0  0.10131891411E+00 -0.49682615909E-01  0.63248308331E-01  0.13094593551E+00  0.20312676857E-01 0.  0.
         14    1    1    2    0    0  0.45239822924E-02 -0.11678854796E-01 -0.19837482021E-01  0.23460344372E-01  0.00000000000E+00 0.  1.
     999901    1    3    3    0    0 -0.10584289640E+00  0.61361470705E-01 -0.43410826311E-01  0.88952372011E+00  0.88000000000E+00 0. -1.
        -11    1    4    4    0    0  0.65700099696E-01 -0.34570970044E-01  0.30538084167E-01  0.80277585760E-01  0.51100000000E-03 0. -1.
         11    1    4    4    0    0  0.35618814412E-01 -0.15111645865E-01  0.32710224164E-01  0.50668349754E-01  0.51100000000E-03 0.  1.
</event>
<event>
 8    1  0.1117354E+005  0.1043930E+01  0.7957747E-01            NaN
         13   -1    0    0    0    0  0.00000000000E+00  0.00000000000E+00  0.74505805969E-08  0.10566000000E+00  0.10566000000E+00 0.  1.
     999900   -1    0    0    0    0 -0.00000000000E+00 -0.00000000000E+00 -0.74505805969E-08  0.93827000000E+00  0.93827000000E+00 0. -1.
     999902    2    1    2    0    0  0.71017115338E-02  0.17155402684E-01 -0.11206265519E-01  0.10222430792E+01  0.10220130089E+01 0.  0.
     999903    2    3    3    0    0 -0.11631979884E+00 -0.19841892307E-01  0.52180417061E-01  0.13060439642E+00  0.20266133025E-01 0.  0.
         14    1    1    2    0    0 -0.71017115338E-02 -0.17155402684E-01  0.11206265519E-01  0.21686920824E-01  0.00000000000E+00 0.  1.
     999901    1    3    3    0    0  0.12342151037E+00  0.36997294990E-01 -0.63386682580E-01  0.89163868276E+00  0.88000000000E+00 0. -1.
        -11    1    4    4    0    0 -0.89882170662E-02  0.25425480196E-02  0.83045308842E-02  0.12509154674E-01  0.51100000000E-03 0.  1.
         11    1    4    4    0    0 -0.10733158177E+00 -0.22384440326E-01  0.43875886176E-01  0.11809524175E+00  0.51100000000E-03 0. -1.
</event>
<event>
 8    1  0.1117354E+005  0.1043930E+01  0.7957747E-01            NaN
         13   -1    0    0    0    0  0.00000000000E+00  0.00000000000E+00  0.74505805969E-08  0.10566000000E+00  0.10566000000E+00 0. -1.
     999900   -1    0    0    0    0 -0.00000000000E+00 -0.00000000000E+00 -0.74505805969E-08  0.93827000000E+00  0.93827000000E+00 0. -1.
     999902    2    1    2    0    0  0.17521494160E-01  0.90587294886E-02 -0.13152226164E-01  0.10202225246E+01  0.10199470355E+01 0.  0.
     999903    2    3    3    0    0 -0.24468545601E-01  0.11335507328E+00  0.56209370306E-01  0.13036190526E+00  0.19663434858E-01 0.  0.
         14    1    1    2    0    0 -0.17521494160E-01 -0.90587294886E-02  0.13152226164E-01  0.23707475416E-01  0.00000000000E+00 0. -1.
     999901    1    3    3    0    0  0.41990039760E-01 -0.10429634379E+00 -0.69361596471E-01  0.88986061933E+00  0.88000000000E+00 0. -1.
        -11    1    4    4    0    0 -0.22081728778E-02  0.56710158941E-01  0.26776286683E-01  0.62754671572E-01  0.51100000000E-03 0. -1.
         11    1    4    4    0    0 -0.22260372723E-01  0.56644914335E-01  0.29433083623E-01  0.67607233684E-01  0.51100000000E-03 0.  1.
</event>
<event>
 8    1  0.1117354E+005  0.1043930E+01  0.7957747E-01            NaN
         13   -1    0    0    0    0  0.00000000000E+00  0.00000000000E+00  0.74505805969E-08  0.10566000000E+00  0.10566000000E+00 0. -1.
     999900   -1    0    0    0    0 -0.00000000000E+00 -0.00000000000E+00 -0.74505805969E-08  0.93827000000E+00  0.93827000000E+00 0. -1.
     999902    2    1    2    0    0 -0.22744582014E-01 -0.39749889096E-02 -0.80921609192E-02  0.10194637045E+01  0.10191700767E+01 0.  0.
     999903    2    3    3    0    0  0.94985540760E-01 -0.48711710904E-01  0.66515417353E-01  0.12737175472E+00  0.20104214038E-01 0.  0.
         14    1    1    2    0    0  0.22744582014E-01  0.39749889096E-02  0.80921609192E-02  0.24466295514E-01  0.00000000000E+00 0. -1.
     999901    1    3    3    0    0 -0.11773012277E+00  0.44736721994E-01 -0.74607578272E-01  0.89209194977E+00  0.88000000000E+00 0. -1.
        -11    1    4    4    0    0  0.66817899737E-01 -0.41237528892E-01  0.40726591908E-01  0.88453840640E-01  0.51100000000E-03 0. -1.
         11    1    4    4    0    0  0.28167641022E-01 -0.74741820116E-02  0.25788825445E-01  0.38917914080E-01  0.51100000000E-03 0.  1.
</event>
<event>
 8    1  0.1117354E+005  0.1043930E+01  0.7957747E-01            NaN
         13   -1    0    0    0    0  0.00000000000E+00  0.00000000000E+00  0.74505805969E-08  0.10566000000E+00  0.10566000000E+00 0.  1.
     999900   -1    0    0    0    0 -0.00000000000E+00 -0.00000000000E+00 -0.74505805969E-08  0.93827000000E+00  0.93827000000E+00 0. -1.
     999902    2    1    2    0    0  0.13508638075E-01 -0.16749383563E-01  0.86160218546E-02  0.10207511091E+01  0.10204879057E+01 0.  0.
     999903    2    3    3    0    0 -0.69923316724E-01  0.10213935142E+00  0.28710412175E-01  0.12861927637E+00  0.19922679437E-01 0.  0.
         14    1    1    2    0    0 -0.13508638075E-01  0.16749383563E-01 -0.86160218546E-02  0.23178890936E-01  0.00000000000E+00 0.  1.
     999901    1    3    3    0    0  0.83431954800E-01 -0.11888873498E+00 -0.20094390320E-01  0.89213183270E+00  0.88000000000E+00 0. -1.
        -11    1    4    4    0    0 -0.16832335649E-01  0.40932988164E-01  0.12435573208E-01  0.45975446115E-01  0.51100000000E-03 0.  1.
         11    1    4    4    0    0 -0.53090981075E-01  0.61206363256E-01  0.16274838967E-01  0.82643830253E-01  0.51100000000E-03 0. -1.
</event>
<event>
 8    1  0.1117354E+005  0.1043930E+01  0.7957747E-01            NaN
         13   -1    0    0    0    0  0.00000000000E+00  0.00000000000E+00  0.74505805969E-08  0.10566000000E+00  0.10566000000E+00 0. -1.
     999900   -1    0    0    0    0 -0.00000000000E+00 -0.00000000000E+00 -0.74505805969E-08  0.93827000000E+00  0.93827000000E+00 0. -1.
     999902    2    1    2    0    0  0.20565762958E-01  0.78768152387E-02  0.87610690565E-02  0.10202287098E+01  0.10199533662E+01 0.  0.
     999903    2    3    3    0    0 -0.23717071201E-01  0.53184913955E-01 -0.11393243281E+00  0.12946078910E+00  0.19706905667E-01 0.  0.
         14    1    1    2    0    0 -0.20565762958E-01 -0.78768152387E-02 -0.87610690565E-02  0.23701290163E-01  0.00000000000E+00 0.  1.
     999901    1    3    3    0    0  0.44282834159E-01 -0.45308098716E-01  0.12269350186E+00  0.89076792073E+00  0.88000000000E+00 0.  1.
        -11    1    4    4    0    0 -0.22034351427E-01  0.37327799561E-01 -0.66177911247E-01  0.79111657301E-01  0.51100000000E-03 0. -1.
         11    1    4    4    0    0 -0.16827197738E-02  0.15857114394E-01 -0.47754521560E-01  0.50349131802E-01  0.51100000000E-03 0.  1.
</event>
<event>
 8    1  0.1117354E+005  0.1043930E+01  0.7957747E-01            NaN
         13   -1    0    0    0    0  0.00000000000E+00  0.00000000000E+00  0.74505805969E-08  0.10566000000E+00  0.10566000000E+00 0. -1.
     999900   -1    0    0    0    0 -0.00000000000E+00 -0.00000000000E+00 -0.74505805969E-08  0.93827000000E+00  0.93827000000E+00 0.  1.
     999902    2    1    2    0    0 -0.11537968628E-01  0.10390723544E-01 -0.17656940559E-01  0.10204170375E+01  0.10201461028E+01 0.  0.
     999903    2    3    3    0    0 -0.39519890714E-02  0.13012201476E+00  0.81577572793E-02  0.13190168715E+00  0.19599722600E-01 0.  0.
         14    1    1    2    0    0  0.11537968628E-01 -0.10390723544E-01  0.17656940559E-01  0.23512962505E-01  0.00000000000E+00 0. -1.
     999901    1    3    3    0    0 -0.75859795566E-02 -0.11973129121E+00 -0.25814697839E-01  0.88851535035E+00  0.88000000000E+00 0.  1.
        -11    1    4    4    0    0  0.38071926929E-02  0.65497237208E-01  0.11997104839E-01  0.66697634468E-01  0.51100000000E-03 0. -1.
         11    1    4    4    0    0 -0.77591817643E-02  0.64624777549E-01 -0.38393475601E-02  0.65204052678E-01  0.51100000000E-03 0.  1.
</event>
<event>
 8    1  0.1262362E+005  0.1043930E+01  0.7957747E-01            NaN
         13   -1    0    0    0    0  0.00000000000E+00  0.00000000000E+00  0.74505805969E-08  0.10566000000E+00  0.10566000000E+00 0.  1.
     999900   -1    0    0    0    0 -0.00000000000E+00 -0.00000000000E+00 -0.74505805969E-08  0.93827000000E+00  0.93827000000E+00 0. -1.
     999902    2    1    2    0    0 -0.10011473070E-01  0.15431069923E-01  0.16297674873E-01  0.10193543674E+01  0.10190580771E+01 0.  0.
     999903    2    3    3    0    0 -0.10691402200E-01 -0.92132370814E-01 -0.86239008111E-01  0.12689477310E+00  0.79017141455E-02 0.  0.
         14    1    1    2    0    0  0.10011473070E-01 -0.15431069923E-01 -0.16297674873E-01  0.24575632612E-01  0.00000000000E+00 0. -1.
     999901    1    3    3    0    0  0.67992912937E-03  0.10756344074E+00  0.10253668298E+00  0.89245959429E+00  0.88000000000E+00 0.  1.
        -11    1    4    4    0    0 -0.47967737935E-02 -0.59162909715E-01 -0.50777006447E-01  0.78114175599E-01  0.51100000000E-03 0. -1.
         11    1    4    4    0    0 -0.58946284062E-02 -0.32969461099E-01 -0.35462001664E-01  0.48780597498E-01  0.51100000000E-03 0.  1.
</event>
<event>
 8    1  0.1117354E+005  0.1043930E+01  0.7957747E-01            NaN
         13   -1    0    0    0    0  0.00000000000E+00  0.00000000000E+00  0.74505805969E-08  0.10566000000E+00  0.10566000000E+00 0.  1.
     999900   -1    0    0    0    0 -0.00000000000E+00 -0.00000000000E+00 -0.74505805969E-08  0.93827000000E+00  0.93827000000E+00 0.  1.
     999902    2    1    2    0    0 -0.12359173470E-01 -0.15377224736E-01 -0.13104122799E-01  0.10202461185E+01  0.10199711839E+01 0.  0.
     999903    2    3    3    0    0 -0.78483761843E-01 -0.41542919332E-01 -0.97234827297E-01  0.13337798837E+00  0.21202856497E-01 0.  0.
         14    1    1    2    0    0  0.12359173470E-01  0.15377224736E-01  0.13104122799E-01  0.23683881518E-01  0.00000000000E+00 0. -1.
     999901    1    3    3    0    0  0.66124588373E-01  0.26165694596E-01  0.84130704498E-01  0.88686813011E+00  0.88000000000E+00 0. -1.
        -11    1    4    4    0    0 -0.54132771614E-01 -0.38898541878E-01 -0.74263037928E-01  0.99793353717E-01  0.51100000000E-03 0.  1.
         11    1    4    4    0    0 -0.24350990228E-01 -0.26443774547E-02 -0.22971789369E-01  0.33584634657E-01  0.51100000000E-03 0. -1.
</event>
<event>
 8    1  0.1117354E+005  0.1043930E+01  0.7957747E-01            NaN
         13   -1    0    0    0    0  0.00000000000E+00  0.00000000000E+00  0.74505805969E-08  0.10566000000E+00  0.10566000000E+00 0.  1.
     999900   -1    0    0    0    0 -0.00000000000E+00 -0.00000000000E+00 -0.74505805969E-08  0.93827000000E+00  0.93827000000E+00 0.  1.
     999902    2    1    2    0    0  0.11205430190E-01 -0.41773498474E-02  0.20226601212E-01  0.10204326105E+01  0.10201620387E+01 0.  0.
     999903    2    3    3    0    0 -0.11495752328E-01  0.98625326481E-01 -0.79084334907E-01  0.12861065741E+00  0.20670312696E-01 0.  0.
         14    1    1    2    0    0 -0.11205430190E-01  0.41773498474E-02 -0.20226601212E-01  0.23497389517E-01  0.00000000000E+00 0. -1.
     999901    1    3    3    0    0  0.22701182518E-01 -0.10280267633E+00  0.99310936119E-01  0.89182195307E+00  0.88000000000E+00 0. -1.
        -11    1    4    4    0    0  0.33945926913E-02  0.58793431631E-01 -0.46200152941E-01  0.74852562517E-01  0.51100000000E-03 0.  1.
         11    1    4    4    0    0 -0.14890345020E-01  0.39831894850E-01 -0.32884181966E-01  0.53758094895E-01  0.51100000000E-03 0. -1.
</event>
<event>
 8    1  0.1117354E+005  0.1043930E+01  0.7957747E-01            NaN
         13   -1    0    0    0    0  0.00000000000E+00  0.00000000000E+00  0.74505805969E-08  0.10566000000E+00  0.10566000000E+00 0.  1.
     999900   -1    0    0    0    0 -0.00000000000E+00 -0.00000000000E+00 -0.74505805969E-08  0.93827000000E+00  0.93827000000E+00 0. -1.
     999902    2    1    2    0    0 -0.21676642945E-01  0.69551549573E-02  0.76854309294E-02  0.10199025807E+01  0.10196195159E+01 0.  0.
     999903    2    3    3    0    0  0.95539716529E-01  0.85782674286E-02  0.83740180274E-01  0.12887697258E+00  0.19885476167E-01 0.  0.
         14    1    1    2    0    0  0.21676642945E-01 -0.69551549573E-02 -0.76854309294E-02  0.24027419304E-01  0.00000000000E+00 0. -1.
     999901    1    3    3    0    0 -0.11721635947E+00 -0.16231124713E-02 -0.76054749345E-01  0.89102560812E+00  0.88000000000E+00 0.  1.
        -11    1    4    4    0    0  0.84180035477E-01  0.10908799153E-01  0.65336945333E-01  0.10711889571E+00  0.51100000000E-03 0. -1.
         11    1    4    4    0    0  0.11359681052E-01 -0.23305317240E-02  0.18403234941E-01  0.21758076869E-01  0.51100000000E-03 0.  1.
</event>
<event>
 8    1  0.1117354E+005  0.1043930E+01  0.7957747E-01            NaN
         13   -1    0    0    0    0  0.00000000000E+00  0.00000000000E+00  0.74505805969E-08  0.10566000000E+00  0.10566000000E+00 0. -1.
     999900   -1    0    0    0    0 -0.00000000000E+00 -0.00000000000E+00 -0.74505805969E-08  0.93827000000E+00  0.93827000000E+00 0.  1.
     999902    2    1    2    0    0 -0.25765183381E-02 -0.23323461021E-01 -0.52067851418E-02  0.10198939252E+01  0.10196106540E+01 0.  0.
     999903    2    3    3    0    0  0.82008045962E-01  0.75342161310E-01  0.60016670379E-01  0.12796144305E+00  0.19244981441E-01 0.  0.
         14    1    1    2    0    0  0.25765183381E-02  0.23323461021E-01  0.52067851418E-02  0.24036074809E-01  0.00000000000E+00 0.  1.
     999901    1    3    3    0    0 -0.84584564301E-01 -0.98665622330E-01 -0.65223455521E-01  0.89193248214E+00  0.88000000000E+00 0. -1.
        -11    1    4    4    0    0  0.41977056252E-01  0.31966494985E-01  0.18997095566E-01  0.56081020089E-01  0.51100000000E-03 0.  1.
         11    1    4    4    0    0  0.40030989710E-01  0.43375666325E-01  0.41019574812E-01  0.71880422961E-01  0.51100000000E-03 0. -1.
</event>
<event>
 8    1  0.1117354E+005  0.1043930E+01  0.7957747E-01            NaN
         13   -1    0    0    0    0  0.00000000000E+00  0.00000000000E+00  0.74505805969E-08  0.10566000000E+00  0.10566000000E+00 0.  1.
     999900   -1    0    0    0    0 -0.00000000000E+00 -0.00000000000E+00 -0.74505805969E-08  0.93827000000E+00  0.93827000000E+00 0. -1.
     999902    2    1    2    0    0 -0.93031971314E-02 -0.11707473812E-01 -0.18740619943E-01  0.10199544863E+01  0.10196726577E+01 0.  0.
     999903    2    3    3    0    0 -0.38274755664E-01  0.10062378807E+00 -0.71276983699E-01  0.13078761047E+00  0.20853944493E-01 0.  0.
         14    1    1    2    0    0  0.93031971314E-02  0.11707473812E-01  0.18740619943E-01  0.23975513671E-01  0.00000000000E+00 0.  1.
     999901    1    3    3    0    0  0.28971558533E-01 -0.11233126189E+00  0.52536363756E-01  0.88916687585E+00  0.88000000000E+00 0. -1.
        -11    1    4    4    0    0 -0.16425091334E-02 -0.47135054843E-03 -0.27553009724E-02  0.32821962223E-02  0.51100000000E-03 0. -1.
         11    1    4    4    0    0 -0.36632246531E-01  0.10109513862E+00 -0.68521682726E-01  0.12750541425E+00  0.51100000000E-03 0.  1.
</event>
<event>
 8    1  0.1117354E+005  0.1043930E+01  0.7957747E-01            NaN
         13   -1    0    0    0    0  0.00000000000E+00  0.00000000000E+00  0.74505805969E-08  0.10566000000E+00  0.10566000000E+00 0.  1.
     999900   -1    0    0    0    0 -0.00000000000E+00 -0.00000000000E+00 -0.74505805969E-08  0.93827000000E+00  0.93827000000E+00 0.  1.
     999902    2    1    2    0    0 -0.30244468483E-02  0.22723000866E-01  0.76432632062E-02  0.10197659457E+01  0.10194796136E+01 0.  0.
     999903    2    3    3    0    0  0.11774435602E+00  0.42440972411E-01 -0.31007860076E-01  0.13045845588E+00  0.19823012102E-01 0.  0.
         14    1    1    2    0    0  0.30244468483E-02 -0.22723000866E-01 -0.76432632062E-02  0.24164054286E-01  0.00000000000E+00 0. -1.
     999901    1    3    3    0    0 -0.12076880287E+00 -0.19717971546E-01  0.38651123283E-01  0.88930748984E+00  0.88000000000E+00 0. -1.
        -11    1    4    4    0    0  0.93356197868E-02  0.84023325116E-02 -0.67569570151E-02  0.14271320105E-01  0.51100000000E-03 0. -1.
         11    1    4    4    0    0  0.10840873624E+00  0.34038639900E-01 -0.24250903061E-01  0.11618713577E+00  0.51100000000E-03 0.  1.
</event>
<event>
 8    1  0.1117354E+005  0.1043930E+01  0.7957747E-01            NaN
         13   -1    0    0    0    0  0.00000000000E+00  0.00000000000E+00  0.74505805969E-08  0.10566000000E+00  0.10566000000E+00 0.  1.
     999900   -1    0    0    0    0 -0.00000000000E+00 -0.00000000000E+00 -0.74505805969E-08  0.93827000000E+00  0.93827000000E+00 0. -1.
     999902    2    1    2    0    0  0.51934567690E-03  0.72413463972E-02  0.22686864960E-01  0.10201098266E+01  0.10198316811E+01 0.  0.
     999903    2    3    3    0    0  0.98258420742E-01 -0.70526419998E-01 -0.40566430425E-01  0.12904207856E+00  0.19430120847E-01 0.  0.
         14    1    1    2    0    0 -0.51934567690E-03 -0.72413463972E-02 -0.22686864960E-01  0.23820173368E-01  0.00000000000E+00 0. -1.
     999901    1    3    3    0    0 -0.97739075065E-01  0.77767766395E-01  0.63253295385E-01  0.89106774808E+00  0.88000000000E+00 0.  1.
        -11    1    4    4    0    0  0.59564802631E-01 -0.32187277268E-01 -0.17839342962E-01  0.70017782090E-01  0.51100000000E-03 0.  1.
         11    1    4    4    0    0  0.38693618111E-01 -0.38339142730E-01 -0.22727087463E-01  0.59024296466E-01  0.51100000000E-03 0. -1.
</event>
<event>
 8    1  0.1117354E+005  0.1043930E+01  0.7957747E-01            NaN
         13   -1    0    0    0    0  0.00000000000E+00  0.00000000000E+00  0.74505805969E-08  0.10566000000E+00  0.10566000000E+00 0. -1.
     999900   -1    0    0    0    0 -0.00000000000E+00 -0.00000000000E+00 -0.74505805969E-08  0.93827000000E+00  0.93827000000E+00 0. -1.
     999902    2    1    2    0    0  0.20102525716E-01  0.51567658227E-02  0.92245215789E-02  0.10212188668E+01  0.10209662964E+01 0.  0.
     999903    2    3    3    0    0  0.11697688774E-01  0.62438457138E-01  0.11519306952E+00  0.13297274852E+00  0.19414214675E-01 0.  0.
         14    1    1    2    0    0 -0.20102525716E-01 -0.51567658227E-02 -0.92245215789E-02  0.22711133223E-01  0.00000000000E+00 0.  1.
     999901    1    3    3    0    0  0.84048369425E-02 -0.57281691316E-01 -0.10596854794E+00  0.88824611826E+00  0.88000000000E+00 0. -1.
        -11    1    4    4    0    0  0.74820590901E-02  0.29025979015E-01  0.73472815533E-01  0.79353666641E-01  0.51100000000E-03 0.  1.
         11    1    4    4    0    0  0.42156296837E-02  0.33412478123E-01  0.41720253987E-01  0.53619081880E-01  0.51100000000E-03 0. -1.
</event>
<event>
 8    1  0.1117354E+005  0.1043930E+01  0.7957747E-01            NaN
         13   -1    0    0    0    0  0.00000000000E+00  0.00000000000E+00  0.74505805969E-08  0.10566000000E+00  0.10566000000E+00 0. -1.
     999900   -1    0    0    0    0 -0.00000000000E+00 -0.00000000000E+00 -0.74505805969E-08  0.93827000000E+00  0.93827000000E+00 0.  1.
     999902    2    1    2    0    0  0.17869721457E-01  0.46179689773E-02  0.13994071346E-01  0.10207678193E+01  0.10205049996E+01 0.  0.
     999903    2    3    3    0    0  0.11125626378E+00 -0.12281835887E-01  0.70895218452E-01  0.13383806433E+00  0.18912845908E-01 0.  0.
         14    1    1    2    0    0 -0.17869721457E-01 -0.46179689773E-02 -0.13994071346E-01  0.23162180711E-01  0.00000000000E+00 0. -1.
     999901    1    3    3    0    0 -0.93386542325E-01  0.16899804865E-01 -0.56901147106E-01  0.88692975496E+00  0.88000000000E+00 0.  1.
        -11    1    4    4    0    0  0.65701617149E-01 -0.17091157735E-02  0.32469114299E-01  0.73308444787E-01  0.51100000000E-03 0.  1.
         11    1    4    4    0    0  0.45554646634E-01 -0.10572720114E-01  0.38426104153E-01  0.60529619542E-01  0.51100000000E-03 0. -1.
</event>
<event>
 8    1  0.1117354E+005  0.1043930E+01  0.7957747E-01            NaN
         13   -1    0    0    0    0  0.00000000000E+00  0.00000000000E+00  0.74505805969E-08  0.10566000000E+00  0.10566000000E+00 0. -1.
     999900   -1    0    0    0    0 -0.00000000000E+00 -0.00000000000E+00 -0.74505805969E-08  0.93827000000E+00  0.93827000000E+00 0.  1.
     999902    2    1    2    0    0  0.13024433683E-01  0.20548062699E-02  0.19260371891E-01  0.10205886199E+01  0.10203216703E+01 0.  0.
     999903    2    3    3    0    0  0.48845161888E-02 -0.21828120473E-01 -0.12508260685E+00  0.12847228890E+00  0.18951124928E-01 0.  0.
         14    1    1    2    0    0 -0.13024433683E-01 -0.20548062699E-02 -0.19260371891E-01  0.23341380142E-01  0.00000000000E+00 0.  1.
     999901    1    3    3    0    0  0.81399174941E-02  0.23882926743E-01  0.14434297875E+00  0.89211633096E+00  0.88000000000E+00 0. -1.
        -11    1    4    4    0    0 -0.19262766884E-02 -0.21522816711E-01 -0.10651477023E+00  0.10868578371E+00  0.51100000000E-03 0.  1.
         11    1    4    4    0    0  0.68107928771E-02 -0.30530376282E-03 -0.18567836620E-01  0.19786505193E-01  0.51100000000E-03 0. -1.
</event>
<event>
 8    1  0.1117354E+005  0.1043930E+01  0.7957747E-01            NaN
         13   -1    0    0    0    0  0.00000000000E+00  0.00000000000E+00  0.74505805969E-08  0.10566000000E+00  0.10566000000E+00 0. -1.
     999900   -1    0    0    0    0 -0.00000000000E+00 -0.00000000000E+00 -0.74505805969E-08  0.93827000000E+00  0.93827000000E+00 0. -1.
     999902    2    1    2    0    0  0.61519504851E-04 -0.14759930625E-01 -0.15524420208E-01  0.10225088198E+01  0.10222844123E+01 0.  0.
     999903    2    3    3    0    0 -0.33639794168E-01 -0.11197133755E+00 -0.64615916949E-01  0.13515555804E+00  0.20557041599E-01 0.  0.
         14    1    1    2    0    0 -0.61519504851E-04  0.14759930625E-01  0.15524420208E-01  0.21421180161E-01  0.00000000000E+00 0. -1.
     999901    1    3    3    0    0  0.33701313673E-01  0.97211406929E-01  0.49091496741E-01  0.88735326180E+00  0.88000000000E+00 0. -1.
        -11    1    4    4    0    0 -0.33377831757E-01 -0.80080692557E-01 -0.49029293066E-01  0.99655053423E-01  0.51100000000E-03 0.  1.
         11    1    4    4    0    0 -0.26196241101E-03 -0.31890644997E-01 -0.15586623883E-01  0.35500504612E-01  0.51100000000E-03 0. -1.
</event>
<event>
 8    1  0.1117354E+005  0.1043930E+01  0.7957747E-01            NaN
         13   -1    0    0    0    0  0.00000000000E+00  0.00000000000E+00  0.74505805969E-08  0.10566000000E+00  0.10566000000E+00 0.  1.
     999900   -1    0    0    0    0 -0.00000000000E+00 -0.00000000000E+00 -0.74505805969E-08  0.93827000000E+00  0.93827000000E+00 0.  1.
     999902    2    1    2    0    0 -0.24256800833E-01 -0.10018682534E-02  0.34596131495E-02  0.10194072544E+01  0.10191122536E+01 0.  0.
     999903    2    3    3    0    0 -0.68161082128E-01  0.10859708149E+00 -0.18885522350E-01  0.13124126726E+00  0.20696571029E-01 0.  0.
         14    1    1    2    0    0  0.24256800833E-01  0.10018682534E-02 -0.34596131495E-02  0.24522745560E-01  0.00000000000E+00 0.  1.
     999901    1    3    3    0    0  0.43904281295E-01 -0.10959894975E+00  0.22345135499E-01  0.88816598718E+00  0.88000000000E+00 0. -1.
        -11    1    4    4    0    0 -0.55349692101E-01  0.86901481333E-01 -0.67038525325E-02  0.10325046554E+00  0.51100000000E-03 0.  1.
         11    1    4    4    0    0 -0.12811390027E-01  0.21695600159E-01 -0.12181669817E-01  0.27990801725E-01  0.51100000000E-03 0. -1.
</event>
<event>
 8    1  0.1117354E+005  0.1043930E+01  0.7957747E-01            NaN
         13   -1    0    0    0    0  0.00000000000E+00  0.00000000000E+00  0.74505805969E-08  0.10566000000E+00  0.10566000000E+00 0.  1.
     999900   -1    0    0    0    0 -0.00000000000E+00 -0.00000000000E+00 -0.74505805969E-08  0.93827000000E+00  0.93827000000E+00 0.  1.
     999902    2    1    2    0    0  0.17154583595E-01 -0.68661091047E-02  0.14722416850E-01  0.10203043201E+01  0.10200307509E+01 0.  0.
     999903    2    3    3    0    0  0.53137003706E-02  0.82302871713E-01 -0.96643855051E-01  0.12873617343E+00  0.20759805530E-01 0.  0.
         14    1    1    2    0    0 -0.17154583595E-01  0.68661091047E-02 -0.14722416850E-01  0.23625679894E-01  0.00000000000E+00 0. -1.
     999901    1    3    3    0    0  0.11840883225E-01 -0.89168980818E-01  0.11136627190E+00  0.89156814668E+00  0.88000000000E+00 0. -1.
        -11    1    4    4    0    0 -0.63303780186E-03  0.45737986200E-01 -0.38492170116E-01  0.59785218907E-01  0.51100000000E-03 0.  1.
         11    1    4    4    0    0  0.59467381725E-02  0.36564885514E-01 -0.58151684935E-01  0.68950954520E-01  0.51100000000E-03 0. -1.
</event>
<event>
 8    1  0.1117354E+005  0.1043930E+01  0.7957747E-01            NaN
         13   -1    0    0    0    0  0.00000000000E+00  0.00000000000E+00  0.74505805969E-08  0.10566000000E+00  0.10566000000E+00 0.  1.
     999900   -1    0    0    0    0 -0.00000000000E+00 -0.00000000000E+00 -0.74505805969E-08  0.93827000000E+00  0.93827000000E+00 0. -1.
     999902    2    1    2    0    0  0.15086849580E-01  0.76285639606E-02  0.12763964453E-01  0.10227468273E+01  0.10225274304E+01 0.  0.
     999903    2    3    3    0    0  0.12680474340E+00 -0.30473103284E-01 -0.22948335050E-01  0.13414793397E+00  0.21470657489E-01 0.  0.
         14    1    1    2    0    0 -0.15086849580E-01 -0.76285639606E-02 -0.12763964453E-01  0.21183172730E-01  0.00000000000E+00 0. -1.
     999901    1    3    3    0    0 -0.11171789382E+00  0.38101667245E-01  0.35712299503E-01  0.88859889330E+00  0.88000000000E+00 0.  1.
        -11    1    4    4    0    0  0.29920853943E-01 -0.13785607293E-01  0.99332724047E-03  0.32962831934E-01  0.51100000000E-03 0.  1.
         11    1    4    4    0    0  0.96883889458E-01 -0.16687495992E-01 -0.23941662291E-01  0.10118510203E+00  0.51100000000E-03 0. -1.
</event>
<event>
 8    1  0.1117354E+005  0.1043930E+01  0.7957747E-01            NaN
         13   -1    0    0    0    0  0.00000000000E+00  0.00000000000E+00  0.74505805969E-08  0.10566000000E+00  0.10566000000E+00 0. -1.
     999900   -1    0    0    0    0 -0.00000000000E+00 -0.00000000000E+00 -0.74505805969E-08  0.93827000000E+00  0.93827000000E+00 0. -1.
     999902    2    1    2    0    0 -0.16776679646E-01 -0.20444068839E-01 -0.59047003950E-02  0.10168323540E+01  0.10164712262E+01 0.  0.
     999903    2    3    3    0    0 -0.68538455506E-01 -0.10703424875E+00  0.22338395915E-01  0.13061860262E+00  0.20208046122E-01 0.  0.
         14    1    1    2    0    0  0.16776679646E-01  0.20444068839E-01  0.59047003950E-02  0.27097645975E-01  0.00000000000E+00 0. -1.
     999901    1    3    3    0    0  0.51761775860E-01  0.86590179913E-01 -0.28243096310E-01  0.88621375141E+00  0.88000000000E+00 0. -1.
        -11    1    4    4    0    0 -0.99438079789E-02 -0.29708166353E-01  0.95734672364E-02  0.32762278020E-01  0.51100000000E-03 0.  1.
         11    1    4    4    0    0 -0.58594647527E-01 -0.77326082400E-01  0.12764928679E-01  0.97856324595E-01  0.51100000000E-03 0. -1.
</event>
<event>
 8    1  0.1117354E+005  0.1043930E+01  0.7957747E-01            NaN
         13   -1    0    0    0    0  0.00000000000E+00  0.00000000000E+00  0.74505805969E-08  0.10566000000E+00  0.10566000000E+00 0. -1.
     999900   -1    0    0    0    0 -0.00000000000E+00 -0.00000000000E+00 -0.74505805969E-08  0.93827000000E+00  0.93827000000E+00 0. -1.
     999902    2    1    2    0    0  0.63042712345E-02  0.21230444797E-01 -0.66487931202E-02  0.10208068066E+01  0.10205448811E+01 0.  0.
     999903    2    3    3    0    0 -0.28140380892E-01 -0.12246883271E+00 -0.19223192378E-01  0.12839768972E+00  0.18053796751E-01 0.  0.
         14    1    1    2    0    0 -0.63042712345E-02 -0.21230444797E-01  0.66487931202E-02  0.23123193379E-01  0.00000000000E+00 0.  1.
     999901    1    3    3    0    0  0.34444652126E-01  0.14369927751E+00  0.12574399258E-01  0.89240911690E+00  0.88000000000E+00 0.  1.
        -11    1    4    4    0    0  0.93232543129E-03 -0.95917599921E-02 -0.52914796169E-02  0.11005996910E-01  0.51100000000E-03 0. -1.
         11    1    4    4    0    0 -0.29072706323E-01 -0.11287707272E+00 -0.13931712761E-01  0.11739169281E+00  0.51100000000E-03 0.  1.
</event>
<event>
 8    1  0.1117354E+005  0.1043930E+01  0.7957747E-01            NaN
         13   -1    0    0    0    0  0.00000000000E+00  0.00000000000E+00  0.74505805969E-08  0.10566000000E+00  0.10566000000E+00 0. -1.
     999900   -1    0    0    0    0 -0.00000000000E+00 -0.00000000000E+00 -0.74505805969E-08  0.93827000000E+00  0.93827000000E+00 0.  1.
     999902    2    1    2    0    0 -0.17883254561E-01 -0.13126440861E-01  0.63435557776E-02  0.10208571817E+01  0.10205964092E+01 0.  0.
     999903    2    3    3    0    0  0.29842418075E-02  0.96280891230E-01  0.85383131723E-01  0.13032213396E+00  0.20363293027E-01 0.  0.
         14    1    1    2    0    0  0.17883254561E-01  0.13126440861E-01 -0.63435557776E-02  0.23072818278E-01  0.00000000000E+00 0. -1.
     999901    1    3    3    0    0 -0.20867496368E-01 -0.10940733209E+00 -0.79039575945E-01  0.89053504776E+00  0.88000000000E+00 0.  1.
        -11    1    4    4    0    0  0.94633466751E-02  0.54715207038E-01  0.39986817438E-01  0.68428908374E-01  0.51100000000E-03 0.  1.
         11    1    4    4    0    0 -0.64791048676E-02  0.41565684193E-01  0.45396314285E-01  0.61893225590E-01  0.51100000000E-03 0. -1.
</event>
<event>
 8    1  0.1117354E+005  0.1043930E+01  0.7957747E-01            NaN
         13   -1    0    0    0    0  0.00000000000E+00  0.00000000000E+00  0.74505805969E-08  0.10566000000E+00  0.10566000000E+00 0. -1.
     999900   -1    0    0    0    0 -0.00000000000E+00 -0.00000000000E+00 -0.74505805969E-08  0.93827000000E+00  0.93827000000E+00 0. -1.
     999902    2    1    2    0    0  0.69752872422E-02 -0.23614690120E-01 -0.12881694334E-01  0.10161406806E+01  0.10157606197E+01 0.  0.
     999903    2    3    3    0    0 -0.48046836618E-01 -0.81591226569E-01 -0.85947757912E-01  0.12950244407E+00  0.20450896538E-01 0.  0.
         14    1    1    2    0    0 -0.69752872422E-02  0.23614690120E-01  0.12881694334E-01  0.27789319360E-01  0.00000000000E+00 0. -1.
     999901    1    3    3    0    0  0.55022123860E-01  0.57976536449E-01  0.73066063578E-01  0.88663823657E+00  0.88000000000E+00 0.  1.
        -11    1    4    4    0    0 -0.49534265942E-01 -0.78364900848E-01 -0.79521859602E-01  0.12214208310E+00  0.51100000000E-03 0. -1.
         11    1    4    4    0    0  0.14874293244E-02 -0.32263257213E-02 -0.64258983102E-02  0.73603609795E-02  0.51100000000E-03 0.  1.
</event>
<event>
 8    1  0.1117354E+005  0.1043930E+01  0.7957747E-01            NaN
         13   -1    0    0    0    0  0.00000000000E+00  0.00000000000E+00  0.74505805969E-08  0.10566000000E+00  0.10566000000E+00 0.  1.
     999900   -1    0    0    0    0 -0.00000000000E+00 -0.00000000000E+00 -0.74505805969E-08  0.93827000000E+00  0.93827000000E+00 0.  1.
     999902    2    1    2    0    0 -0.13995416336E-01 -0.29132998514E-03 -0.18665924080E-01  0.10205981918E+01  0.10203314637E+01 0.  0.
     999903    2    3    3    0    0 -0.23941115001E-01  0.89828475037E-01  0.88319252990E-01  0.12949419996E+00  0.18058944046E-01 0.  0.
         14    1    1    2    0    0  0.13995416336E-01  0.29132998514E-03  0.18665924080E-01  0.23331808188E-01  0.00000000000E+00 0.  1.
     999901    1    3    3    0    0  0.99456986646E-02 -0.90119805022E-01 -0.10698517707E+00  0.89110399185E+00  0.88000000000E+00 0.  1.
        -11    1    4    4    0    0 -0.25462102928E-01  0.77725344214E-01  0.81702047460E-01  0.11560723809E+00  0.51100000000E-03 0. -1.
         11    1    4    4    0    0  0.15209879273E-02  0.12103130823E-01  0.66172055299E-02  0.13886961871E-01  0.51100000000E-03 0.  1.
</event>
<event>
 8    1  0.1117354E+005  0.1043930E+01  0.7957747E-01            NaN
         13   -1    0    0    0    0  0.00000000000E+00  0.00000000000E+00  0.74505805969E-08  0.10566000000E+00  0.10566000000E+00 0.  1.
     999900   -1    0    0    0    0 -0.00000000000E+00 -0.00000000000E+00 -0.74505805969E-08  0.93827000000E+00  0.93827000000E+00 0.  1.
     999902    2    1    2    0    0  0.19732902425E-01  0.88209220617E-02  0.73362082182E-02  0.10211042239E+01  0.10208490682E+01 0.  0.
     999903    2    3    3    0    0 -0.50034622116E-01 -0.11632973995E+00  0.17975841669E-01  0.12945216311E+00  0.19966467965E-01 0.  0.
         14    1    1    2    0    0 -0.19732902425E-01 -0.88209220617E-02 -0.73362082182E-02  0.22825776113E-01  0.00000000000E+00 0.  1.
     999901    1    3    3    0    0  0.69767524541E-01  0.12515066201E+00 -0.10639633451E-01  0.89165206077E+00  0.88000000000E+00 0. -1.
        -11    1    4    4    0    0 -0.50937758379E-01 -0.10575483892E+00  0.14520037257E-01  0.11827862777E+00  0.51100000000E-03 0. -1.
         11    1    4    4    0    0  0.90313626311E-03 -0.10574901035E-01  0.34558044120E-02  0.11173535346E-01  0.51100000000E-03 0.  1.
</event>
<event>
 8    1  0.1117354E+005  0.1043930E+01  0.7957747E-01            NaN
         13   -1    0    0    0    0  0.00000000000E+00  0.00000000000E+00  0.74505805969E-08  0.10566000000E+00  0.10566000000E+00 0.  1.
     999900   -1    0    0    0    0 -0.00000000000E+00 -0.00000000000E+00 -0.74505805969E-08  0.93827000000E+00  0.93827000000E+00 0.  1.
     999902    2    1    2    0    0  0.14358490902E-01 -0.18713019455E-01 -0.38107708338E-02  0.10200372117E+01  0.10197573476E+01 0.  0.
     999903    2    3    3    0    0  0.10727500425E+00  0.60811471297E-01 -0.40004013744E-01  0.13084230961E+00  0.17703877852E-01 0.  0.
         14    1    1    2    0    0 -0.14358490902E-01  0.18713019455E-01  0.38107708338E-02  0.23892788294E-01  0.00000000000E+00 0. -1.
     999901    1    3    3    0    0 -0.92916513344E-01 -0.79524490752E-01  0.36193242910E-01  0.88919490210E+00  0.88000000000E+00 0.  1.
        -11    1    4    4    0    0  0.23696075141E-01  0.21849880229E-01 -0.12948996617E-01  0.34739874460E-01  0.51100000000E-03 0.  1.
         11    1    4    4    0    0  0.83578929105E-01  0.38961591068E-01 -0.27055017127E-01  0.96102435150E-01  0.51100000000E-03 0. -1.
</event>
<event>
 8    1  0.1117354E+005  0.1043930E+01  0.7957747E-01            NaN
         13   -1    0    0    0    0  0.00000000000E+00  0.00000000000E+00  0.74505805969E-08  0.10566000000E+00  0.10566000000E+00 0.  1.
     999900   -1    0    0    0    0 -0.00000000000E+00 -0.00000000000E+00 -0.74505805969E-08  0.93827000000E+00  0.93827000000E+00 0. -1.
     999902    2    1    2    0    0  0.92931464686E-03 -0.98548524460E-02  0.17176817508E-01  0.10241051469E+01  0.10239132419E+01 0.  0.
     999903    2    3    3    0    0  0.80691493037E-01  0.10392146162E+00  0.14078540024E-02  0.13306322026E+00  0.19825521412E-01 0.  0.
         14    1    1    2    0    0 -0.92931464686E-03  0.98548524460E-02 -0.17176817508E-01  0.19824853143E-01  0.00000000000E+00 0.  1.
     999901    1    3    3    0    0 -0.79762178390E-01 -0.11377631407E+00  0.15768963505E-01  0.89104192660E+00  0.88000000000E+00 0.  1.
        -11    1    4    4    0    0  0.23324273267E-01  0.37888320520E-01  0.85108623719E-02  0.45301682690E-01  0.51100000000E-03 0.  1.
         11    1    4    4    0    0  0.57367219770E-01  0.66033141100E-01 -0.71030083694E-02  0.87761537570E-01  0.51100000000E-03 0. -1.
</event>
<event>
 8    1  0.1117354E+005  0.1043930E+01  0.7957747E-01            NaN
         13   -1    0    0    0    0  0.00000000000E+00  0.00000000000E+00  0.74505805969E-08  0.10566000000E+00  0.10566000000E+00 0. -1.
     999900   -1    0    0    0    0 -0.00000000000E+00 -0.00000000000E+00 -0.74505805969E-08  0.93827000000E+00  0.93827000000E+00 0. -1.
     999902    2    1    2    0    0  0.71875290974E-02  0.15171181870E-01 -0.16952593312E-01  0.10200717571E+01  0.10197927112E+01 0.  0.
     999903    2    3    3    0    0  0.80110729303E-02 -0.12628526224E+00  0.12265298848E-01  0.12829583849E+00  0.17240645870E-01 0.  0.
         14    1    1    2    0    0 -0.71875290974E-02 -0.15171181870E-01  0.16952593312E-01  0.23858242892E-01  0.00000000000E+00 0. -1.
     999901    1    3    3    0    0 -0.82354383293E-03  0.14145644411E+00 -0.29217892160E-01  0.89177591862E+00  0.88000000000E+00 0.  1.
        -11    1    4    4    0    0  0.42861196467E-02 -0.83550200756E-01  0.16199933682E-01  0.85215643166E-01  0.51100000000E-03 0. -1.
         11    1    4    4    0    0  0.37249532836E-02 -0.42735061483E-01 -0.39346348340E-02  0.43080195324E-01  0.51100000000E-03 0.  1.
</event>
<event>
 8    1  0.1117354E+005  0.1043930E+01  0.7957747E-01            NaN
         13   -1    0    0    0    0  0.00000000000E+00  0.00000000000E+00  0.74505805969E-08  0.10566000000E+00  0.10566000000E+00 0.  1.
     999900   -1    0    0    0    0 -0.00000000000E+00 -0.00000000000E+00 -0.74505805969E-08  0.93827000000E+00  0.93827000000E+00 0. -1.
     999902    2    1    2    0    0 -0.26734662710E-02  0.60963036829E-02  0.22708775133E-01  0.10202656638E+01  0.10199911881E+01 0.  0.
     999903    2    3    3    0    0  0.86192847053E-01 -0.96271816229E-01 -0.30387417738E-03  0.12958837338E+00  0.97767423994E-02 0.  0.
         14    1    1    2    0    0  0.26734662710E-02 -0.60963036829E-02 -0.22708775133E-01  0.23664336216E-01  0.00000000000E+00 0. -1.
     999901    1    3    3    0    0 -0.88866313324E-01  0.10236811991E+00  0.23012649311E-01  0.89067729041E+00  0.88000000000E+00 0. -1.
        -11    1    4    4    0    0  0.51393900461E-01 -0.64408114886E-01 -0.36902326241E-03  0.82402278894E-01  0.51100000000E-03 0.  1.
         11    1    4    4    0    0  0.34798946592E-01 -0.31863701343E-01  0.65149085030E-04  0.47186094483E-01  0.51100000000E-03 0. -1.
</event>
<event>
 8    1  0.1117354E+005  0.1043930E+01  0.7957747E-01            NaN
         13   -1    0    0    0    0  0.00000000000E+00  0.00000000000E+00  0.74505805969E-08  0.10566000000E+00  0.10566000000E+00 0.  1.
     999900   -1    0    0    0    0 -0.00000000000E+00 -0.00000000000E+00 -0.74505805969E-08  0.93827000000E+00  0.93827000000E+00 0. -1.
     999902    2    1    2    0    0 -0.19232789016E-01  0.24910006208E-01  0.16241102006E-01  0.10085155682E+01  0.10078935804E+01 0.  0.
     999903    2    3    3    0    0 -0.42158979346E-01 -0.14073858878E-01 -0.10817278195E+00  0.11861435661E+00  0.19813172253E-01 0.  0.
         14    1    1    2    0    0  0.19232789016E-01 -0.24910006208E-01 -0.16241102006E-01  0.35414431762E-01  0.00000000000E+00 0.  1.
     999901    1    3    3    0    0  0.22926190330E-01  0.38983865086E-01  0.12441388396E+00  0.88990121163E+00  0.88000000000E+00 0.  1.
        -11    1    4    4    0    0 -0.15318646001E-01  0.13127905701E-02 -0.54828526043E-01  0.56945699780E-01  0.51100000000E-03 0.  1.
         11    1    4    4    0    0 -0.26840333345E-01 -0.15386649448E-01 -0.53344255910E-01  0.61668656827E-01  0.51100000000E-03 0. -1.
</event>
<event>
 8    1  0.1117354E+005  0.1043930E+01  0.7957747E-01            NaN
         13   -1    0    0    0    0  0.00000000000E+00  0.00000000000E+00  0.74505805969E-08  0.10566000000E+00  0.10566000000E+00 0.  1.
     999900   -1    0    0    0    0 -0.00000000000E+00 -0.00000000000E+00 -0.74505805969E-08  0.93827000000E+00  0.93827000000E+00 0. -1.
     999902    2    1    2    0    0 -0.29871500134E-01  0.23347369416E-02 -0.37476684483E-02  0.10137339318E+01  0.10132841072E+01 0.  0.
     999903    2    3    3    0    0 -0.26821087623E-01  0.33870194474E-01 -0.11672219023E+00  0.12594621354E+00  0.19282587921E-01 0.  0.
         14    1    1    2    0    0  0.29871500134E-01 -0.23347369416E-02  0.37476684483E-02  0.30196068215E-01  0.00000000000E+00 0. -1.
     999901    1    3    3    0    0 -0.30504125109E-02 -0.31535457532E-01  0.11297452178E+00  0.88778771825E+00  0.88000000000E+00 0.  1.
        -11    1    4    4    0    0 -0.32688672618E-02  0.19365919214E-01 -0.48640991075E-01  0.52458854867E-01  0.51100000000E-03 0.  1.
         11    1    4    4    0    0 -0.23552220362E-01  0.14504275260E-01 -0.68081199156E-01  0.73487358670E-01  0.51100000000E-03 0. -1.
</event>
<event>
 8    1  0.1117354E+005  0.1043930E+01  0.7957747E-01            NaN
         13   -1    0    0    0    0  0.00000000000E+00  0.00000000000E+00  0.74505805969E-08  0.10566000000E+00  0.10566000000E+00 0.  1.
     999900   -1    0    0    0    0 -0.00000000000E+00 -0.00000000000E+00 -0.74505805969E-08  0.93827000000E+00  0.93827000000E+00 0.  1.
     999902    2    1    2    0    0 -0.20196244563E-01  0.14809509951E-01 -0.82320947356E-02  0.10175675786E+01  0.10172260318E+01 0.  0.
     999903    2    3    3    0    0  0.11286642673E+00 -0.49340979930E-01 -0.10357361285E-01  0.12525290505E+00  0.20190411252E-01 0.  0.
         14    1    1    2    0    0  0.20196244563E-01 -0.14809509951E-01  0.82320947356E-02  0.26362421421E-01  0.00000000000E+00 0. -1.
     999901    1    3    3    0    0 -0.13306267129E+00  0.64150489881E-01  0.21252665498E-02  0.89231467353E+00  0.88000000000E+00 0. -1.
        -11    1    4    4    0    0  0.42084303648E-01 -0.29216818251E-01 -0.44032022081E-02  0.51423344825E-01  0.51100000000E-03 0.  1.
         11    1    4    4    0    0  0.70782123081E-01 -0.20124161679E-01 -0.59541590773E-02  0.73829560221E-01  0.51100000000E-03 0. -1.
</event>
<event>
 8    1  0.1117354E+005  0.1043930E+01  0.7957747E-01            NaN
         13   -1    0    0    0    0  0.00000000000E+00  0.00000000000E+00  0.74505805969E-08  0.10566000000E+00  0.10566000000E+00 0. -1.
     999900   -1    0    0    0    0 -0.00000000000E+00 -0.00000000000E+00 -0.74505805969E-08  0.93827000000E+00  0.93827000000E+00 0.  1.
     999902    2    1    2    0    0 -0.12779775671E-02 -0.20252657009E-01  0.12926924396E-01  0.10198694780E+01  0.10195856234E+01 0.  0.
     999903    2    3    3    0    0 -0.53760336547E-01  0.10421396198E+00  0.51450859803E-01  0.12872951662E+00  0.13167149154E-01 0.  0.
         14    1    1    2    0    0  0.12779775671E-02  0.20252657009E-01 -0.12926924396E-01  0.24060521959E-01  0.00000000000E+00 0.  1.
     999901    1    3    3    0    0  0.52482358980E-01 -0.12446661899E+00 -0.38523935406E-01  0.89113996142E+00  0.88000000000E+00 0.  1.
        -11    1    4    4    0    0 -0.26495851115E-02  0.12082015927E-01  0.81289730793E-02  0.14810021419E-01  0.51100000000E-03 0.  1.
         11    1    4    4    0    0 -0.51110751436E-01  0.92131946053E-01  0.43321886723E-01  0.11391949520E+00  0.51100000000E-03 0. -1.
</event>
<event>
 8    1  0.1117354E+005  0.1043930E+01  0.7957747E-01            NaN
         13   -1    0    0    0    0  0.00000000000E+00  0.00000000000E+00  0.74505805969E-08  0.10566000000E+00  0.10566000000E+00 0. -1.
     999900   -1    0    0    0    0 -0.00000000000E+00 -0.00000000000E+00 -0.74505805969E-08  0.93827000000E+00  0.93827000000E+00 0.  1.
     999902    2    1    2    0    0  0.42480126824E-02  0.13709007308E-01  0.17881837883E-01  0.10210009220E+01  0.10207434252E+01 0.  0.
     999903    2    3    3    0    0  0.93109961078E-01 -0.54339994787E-01  0.73806454089E-01  0.13215072354E+00  0.19852485516E-01 0.  0.
         14    1    1    2    0    0 -0.42480126824E-02 -0.13709007308E-01 -0.17881837883E-01  0.22929078028E-01  0.00000000000E+00 0.  1.
     999901    1    3    3    0    0 -0.88861948395E-01  0.68049002095E-01 -0.55924616206E-01  0.88885019843E+00  0.88000000000E+00 0.  1.
        -11    1    4    4    0    0  0.80332949965E-01 -0.43891988185E-01  0.53694964331E-01  0.10612869448E+00  0.51100000000E-03 0. -1.
         11    1    4    4    0    0  0.12777011113E-01 -0.10448006602E-01  0.20111489758E-01  0.26022029057E-01  0.51100000000E-03 0.  1.
</event>
<event>
 8    1  0.1117354E+005  0.1043930E+01  0.7957747E-01            NaN
         13   -1    0    0    0    0  0.00000000000E+00  0.00000000000E+00  0.74505805969E-08  0.10566000000E+00  0.10566000000E+00 0. -1.
     999900   -1    0    0    0    0 -0.00000000000E+00 -0.00000000000E+00 -0.74505805969E-08  0.93827000000E+00  0.93827000000E+00 0.  1.
     999902    2    1    2    0    0 -0.38283082675E-02  0.21873992475E-01 -0.78084507313E-02  0.10203906841E+01  0.10201191346E+01 0.  0.
     999903    2    3    3    0    0  0.91071595224E-01  0.68959675555E-01  0.61600351221E-01  0.13132340034E+00  0.20043949138E-01 0.  0.
         14    1    1    2    0    0  0.38283082675E-02 -0.21873992475E-01  0.78084507313E-02  0.23539315916E-01  0.00000000000E+00 0. -1.
     999901    1    3    3    0    0 -0.94899903492E-01 -0.47085683081E-01 -0.69408801953E-01  0.88906728374E+00  0.88000000000E+00 0.  1.
        -11    1    4    4    0    0  0.64039797383E-01  0.52434767625E-01  0.53710788572E-01  0.98669196991E-01  0.51100000000E-03 0. -1.
         11    1    4    4    0    0  0.27031797841E-01  0.16524907931E-01  0.78895626494E-02  0.32654203350E-01  0.51100000000E-03 0.  1.
</event>
<event>
 8    1  0.1117354E+005  0.1043930E+01  0.7957747E-01            NaN
         13   -1    0    0    0    0  0.00000000000E+00  0.00000000000E+00  0.74505805969E-08  0.10566000000E+00  0.10566000000E+00 0.  1.
     999900   -1    0    0    0    0 -0.00000000000E+00 -0.00000000000E+00 -0.74505805969E-08  0.93827000000E+00  0.93827000000E+00 0. -1.
     999902    2    1    2    0    0  0.11026817181E-01 -0.92071061649E-02 -0.18533861593E-01  0.10204807884E+01  0.10202113379E+01 0.  0.
     999903    2    3    3    0    0  0.74756252004E-02 -0.13024994411E+00 -0.16626891185E-02  0.13202785430E+00  0.20190514143E-01 0.  0.
         14    1    1    2    0    0 -0.11026817181E-01  0.92071061649E-02  0.18533861593E-01  0.23449211642E-01  0.00000000000E+00 0.  1.
     999901    1    3    3    0    0  0.35511919801E-02  0.12104283795E+00 -0.16871172475E-01  0.88845293406E+00  0.88000000000E+00 0.  1.
        -11    1    4    4    0    0  0.64129210192E-02 -0.95895653723E-01 -0.10078290559E-01  0.96638165445E-01  0.51100000000E-03 0.  1.
         11    1    4    4    0    0  0.10627041812E-02 -0.34354290390E-01  0.84156014406E-02  0.35389688851E-01  0.51100000000E-03 0. -1.
</event>
<event>
 8    1  0.1117354E+005  0.1043930E+01  0.7957747E-01            NaN
         13   -1    0    0    0    0  0.00000000000E+00  0.00000000000E+00  0.74505805969E-08  0.10566000000E+00  0.10566000000E+00 0. -1.
     999900   -1    0    0    0    0 -0.00000000000E+00 -0.00000000000E+00 -0.74505805969E-08  0.93827000000E+00  0.93827000000E+00 0.  1.
     999902    2    1    2    0    0  0.53783747990E-03  0.23695162833E-01 -0.29667778537E-02  0.10200437742E+01  0.10197640656E+01 0.  0.
     999903    2    3    3    0    0  0.67938388015E-01 -0.51771840860E-01 -0.93626427456E-01  0.12961844051E+00  0.27186101781E-01 0.  0.
         14    1    1    2    0    0 -0.53783747990E-03 -0.23695162833E-01  0.29667778537E-02  0.23886225772E-01  0.00000000000E+00 0. -1.
     999901    1    3    3    0    0 -0.67400550535E-01  0.75467003693E-01  0.90659649602E-01  0.89042533372E+00  0.88000000000E+00 0. -1.
        -11    1    4    4    0    0  0.29083226392E-01 -0.72177200271E-02 -0.24907684367E-01  0.38969005649E-01  0.51100000000E-03 0.  1.
         11    1    4    4    0    0  0.38855161623E-01 -0.44554120833E-01 -0.68718743089E-01  0.90649434862E-01  0.51100000000E-03 0. -1.
</event>
<event>
 8    1  0.1117354E+005  0.1043930E+01  0.7957747E-01            NaN
         13   -1    0    0    0    0  0.00000000000E+00  0.00000000000E+00  0.74505805969E-08  0.10566000000E+00  0.10566000000E+00 0.  1.
     999900   -1    0    0    0    0 -0.00000000000E+00 -0.00000000000E+00 -0.74505805969E-08  0.93827000000E+00  0.93827000000E+00 0.  1.
     999902    2    1    2    0    0  0.11954275240E-01  0.14779241695E-01 -0.13274804477E-01  0.10207448514E+01  0.10204815043E+01 0.  0.
     999903    2    3    3    0    0  0.87442729993E-01 -0.44332214376E-01  0.84835953015E-01  0.13011676304E+00  0.11029815982E-01 0.  0.
         14    1    1    2    0    0 -0.11954275240E-01 -0.14779241695E-01  0.13274804477E-01  0.23185148598E-01  0.00000000000E+00 0.  1.
     999901    1    3    3    0    0 -0.75488454753E-01  0.59111456071E-01 -0.98110757492E-01  0.89062808836E+00  0.88000000000E+00 0. -1.
        -11    1    4    4    0    0  0.63149796076E-02 -0.56173223872E-02  0.10359745450E-01  0.13379787930E-01  0.51100000000E-03 0. -1.
         11    1    4    4    0    0  0.81127750385E-01 -0.38714891989E-01  0.74476207565E-01  0.11673697511E+00  0.51100000000E-03 0.  1.
</event>
<event>
 8    1  0.1117354E+005  0.1043930E+01  0.7957747E-01            NaN
         13   -1    0    0    0    0  0.00000000000E+00  0.00000000000E+00  0.74505805969E-08  0.10566000000E+00  0.10566000000E+00 0. -1.
     999900   -1    0    0    0    0 -0.00000000000E+00 -0.00000000000E+00 -0.74505805969E-08  0.93827000000E+00  0.93827000000E+00 0.  1.
     999902    2    1    2    0    0  0.21667483636E-01 -0.57899523033E-02 -0.66977081601E-02  0.10205235332E+01  0.10202550755E+01 0.  0.
     999903    2    3    3    0    0 -0.92600337194E-02 -0.66189882568E-01  0.11007889162E+00  0.13021940695E+00  0.19310173152E-01 0.  0.
         14    1    1    2    0    0 -0.21667483636E-01  0.57899523033E-02  0.66977081601E-02  0.23406466828E-01  0.00000000000E+00 0. -1.
     999901    1    3    3    0    0  0.30927517355E-01  0.60399930265E-01 -0.11677659978E+00  0.89030412622E+00  0.88000000000E+00 0.  1.
        -11    1    4    4    0    0 -0.89341948424E-02 -0.15365618193E-01  0.19775514194E-01  0.26594250179E-01  0.51100000000E-03 0.  1.
         11    1    4    4    0    0 -0.32583887696E-03 -0.50824264375E-01  0.90303377429E-01  0.10362515677E+00  0.51100000000E-03 0. -1.
</event>
<event>
 8    1  0.1117354E+005  0.1043930E+01  0.7957747E-01            NaN
         13   -1    0    0    0    0  0.00000000000E+00  0.00000000000E+00  0.74505805969E-08  0.10566000000E+00  0.10566000000E+00 0. -1.
     999900   -1    0    0    0    0 -0.00000000000E+00 -0.00000000000E+00 -0.74505805969E-08  0.93827000000E+00  0.93827000000E+00 0.  1.
     999902    2    1    2    0    0  0.16871797257E-01 -0.76516083711E-02  0.14159720969E-01  0.10206125741E+01  0.10203461785E+01 0.  0.
     999903    2    3    3    0    0  0.10211754922E+00  0.29951810203E-01 -0.75298839717E-01  0.13118371836E+00  0.14633793362E-01 0.  0.
         14    1    1    2    0    0 -0.16871797257E-01  0.76516083711E-02 -0.14159720969E-01  0.23317425914E-01  0.00000000000E+00 0.  1.
     999901    1    3    3    0    0 -0.85245751958E-01 -0.37603418574E-01  0.89458560686E-01  0.88942885572E+00  0.88000000000E+00 0. -1.
        -11    1    4    4    0    0  0.61127397978E-01  0.24073127212E-01 -0.50982577026E-01  0.83159837172E-01  0.51100000000E-03 0. -1.
         11    1    4    4    0    0  0.40990151238E-01  0.58786829906E-02 -0.24316262691E-01  0.48023881189E-01  0.51100000000E-03 0.  1.
</event>
<event>
 8    1  0.1117354E+005  0.1043930E+01  0.7957747E-01            NaN
         13   -1    0    0    0    0  0.00000000000E+00  0.00000000000E+00  0.74505805969E-08  0.10566000000E+00  0.10566000000E+00 0. -1.
     999900   -1    0    0    0    0 -0.00000000000E+00 -0.00000000000E+00 -0.74505805969E-08  0.93827000000E+00  0.93827000000E+00 0. -1.
     999902    2    1    2    0    0  0.56885544672E-02 -0.21181211347E-01  0.89911649534E-02  0.10202267426E+01  0.10199513527E+01 0.  0.
     999903    2    3    3    0    0  0.70436117923E-01 -0.86478049997E-01  0.70194855545E-01  0.13332098891E+00  0.20185849010E-01 0.  0.
         14    1    1    2    0    0 -0.56885544672E-02  0.21181211347E-01 -0.89911649534E-02  0.23703257440E-01  0.00000000000E+00 0.  1.
     999901    1    3    3    0    0 -0.64747563455E-01  0.65296838650E-01 -0.61203690591E-01  0.88690575365E+00  0.88000000000E+00 0. -1.
        -11    1    4    4    0    0  0.21184392165E-01 -0.23526743085E-01  0.30946056645E-01  0.44274209812E-01  0.51100000000E-03 0. -1.
         11    1    4    4    0    0  0.49251725758E-01 -0.62951306912E-01  0.39248798900E-01  0.89046779100E-01  0.51100000000E-03 0.  1.
</event>
<event>
 8    1  0.1117354E+005  0.1043930E+01  0.7957747E-01            NaN
         13   -1    0    0    0    0  0.00000000000E+00  0.00000000000E+00  0.74505805969E-08  0.10566000000E+00  0.10566000000E+00 0. -1.
     999900   -1    0    0    0    0 -0.00000000000E+00 -0.00000000000E+00 -0.74505805969E-08  0.93827000000E+00  0.93827000000E+00 0. -1.
     999902    2    1    2    0    0  0.38872300980E-02 -0.22908846824E-01  0.45660007506E-02  0.10202493289E+01  0.10199744698E+01 0.  0.
     999903    2    3    3    0    0 -0.74567824163E-01  0.90526160639E-01 -0.47811703462E-01  0.12796791570E+00  0.18288857257E-01 0.  0.
         14    1    1    2    0    0 -0.38872300980E-02  0.22908846824E-01 -0.45660007506E-02  0.23680671094E-01  0.00000000000E+00 0.  1.
     999901    1    3    3    0    0  0.78455054261E-01 -0.11343500746E+00  0.52377704212E-01  0.89228141321E+00  0.88000000000E+00 0.  1.
        -11    1    4    4    0    0 -0.37696544543E-01  0.41815204208E-01 -0.32406232031E-01  0.64961263603E-01  0.51100000000E-03 0.  1.
         11    1    4    4    0    0 -0.36871279620E-01  0.48710956431E-01 -0.15405471430E-01  0.63006652095E-01  0.51100000000E-03 0. -1.
</event>
<event>
 8    1  0.1117354E+005  0.1043930E+01  0.7957747E-01            NaN
         13   -1    0    0    0    0  0.00000000000E+00  0.00000000000E+00  0.74505805969E-08  0.10566000000E+00  0.10566000000E+00 0.  1.
     999900   -1    0    0    0    0 -0.00000000000E+00 -0.00000000000E+00 -0.74505805969E-08  0.93827000000E+00  0.93827000000E+00 0.  1.
     999902    2    1    2    0    0 -0.12307232565E-01  0.11775485752E-01 -0.15328214427E-01  0.10210152843E+01  0.10207581136E+01 0.  0.
     999903    2    3    3    0    0 -0.60307184149E-01 -0.11253158595E+00  0.16035044108E-01  0.13043126389E+00  0.21327861193E-01 0.  0.
         14    1    1    2    0    0  0.12307232565E-01 -0.11775485752E-01  0.15328214427E-01  0.22914715700E-01  0.00000000000E+00 0. -1.
     999901    1    3    3    0    0  0.47999951585E-01  0.12430707170E+00 -0.31363258535E-01  0.89058402041E+00  0.88000000000E+00 0.  1.
        -11    1    4    4    0    0 -0.21762414880E-01 -0.27124956612E-01  0.11450670364E-01  0.36616184200E-01  0.51100000000E-03 0.  1.
         11    1    4    4    0    0 -0.38544769269E-01 -0.85406629340E-01  0.45843737443E-02  0.93815079688E-01  0.51100000000E-03 0. -1.
</event>
<event>
 8    1  0.1117354E+005  0.1043930E+01  0.7957747E-01            NaN
         13   -1    0    0    0    0  0.00000000000E+00  0.00000000000E+00  0.74505805969E-08  0.10566000000E+00  0.10566000000E+00 0. -1.
     999900   -1    0    0    0    0 -0.00000000000E+00 -0.00000000000E+00 -0.74505805969E-08  0.93827000000E+00  0.93827000000E+00 0. -1.
     999902    2    1    2    0    0 -0.68117712581E-02  0.23105471321E-01  0.73057176190E-03  0.10198302745E+01  0.10195454831E+01 0.  0.
     999903    2    3    3    0    0  0.17103222349E-01  0.81172571113E-01  0.10056118649E+00  0.13196211617E+00  0.20492470816E-01 0.  0.
         14    1    1    2    0    0  0.68117712581E-02 -0.23105471321E-01 -0.73057176190E-03  0.24099725470E-01  0.00000000000E+00 0. -1.
     999901    1    3    3    0    0 -0.23914993607E-01 -0.58067099792E-01 -0.99830614725E-01  0.88786815836E+00  0.88000000000E+00 0. -1.
        -11    1    4    4    0    0  0.49280920294E-02  0.59360611946E-01  0.79132676787E-01  0.99046504220E-01  0.51100000000E-03 0. -1.
         11    1    4    4    0    0  0.12175130319E-01  0.21811959167E-01  0.21428509700E-01  0.32915611948E-01  0.51100000000E-03 0.  1.
</event>
<event>
 8    1  0.1117354E+005  0.1043930E+01  0.7957747E-01            NaN
         13   -1    0    0    0    0  0.00000000000E+00  0.00000000000E+00  0.74505805969E-08  0.10566000000E+00  0.10566000000E+00 0. -1.
     999900   -1    0    0    0    0 -0.00000000000E+00 -0.00000000000E+00 -0.74505805969E-08  0.93827000000E+00  0.93827000000E+00 0.  1.
     999902    2    1    2    0    0  0.10046956326E-01 -0.16303685278E-01  0.13015463311E-01  0.10207750055E+01  0.10205123508E+01 0.  0.
     999903    2    3    3    0    0  0.10932301747E+00  0.68237656963E-01  0.13583818081E-01  0.13116649728E+00  0.20303446004E-01 0.  0.
         14    1    1    2    0    0 -0.10046956326E-01  0.16303685278E-01 -0.13015463311E-01  0.23154994499E-01  0.00000000000E+00 0.  1.
     999901    1    3    3    0    0 -0.99276061144E-01 -0.84541342240E-01 -0.56835477005E-03  0.88960850822E+00  0.88000000000E+00 0.  1.
        -11    1    4    4    0    0  0.24399481783E-01  0.60699530990E-02  0.42590526815E-02  0.25506463742E-01  0.51100000000E-03 0.  1.
         11    1    4    4    0    0  0.84923535687E-01  0.62167703864E-01  0.93247653999E-02  0.10566003354E+00  0.51100000000E-03 0. -1.
</event>
<event>
 8    1  0.1117354E+005  0.1043930E+01  0.7957747E-01            NaN
         13   -1    0    0    0    0  0.00000000000E+00  0.00000000000E+00  0.74505805969E-08  0.10566000000E+00  0.10566000000E+00 0.  1.
     999900   -1    0    0    0    0 -0.00000000000E+00 -0.00000000000E+00 -0.74505805969E-08  0.93827000000E+00  0.93827000000E+00 0.  1.
     999902    2    1    2    0    0 -0.74844608117E-02  0.22409652907E-01  0.87308970875E-02  0.10187419421E+01  0.10184305113E+01 0.  0.
     999903    2    3    3    0    0 -0.30359958020E-01 -0.92381138150E-01 -0.78539716782E-01  0.12671258488E+00  0.20774751948E-01 0.  0.
         14    1    1    2    0    0  0.74844608117E-02 -0.22409652907E-01 -0.87308970875E-02  0.25188057905E-01  0.00000000000E+00 0. -1.
     999901    1    3    3    0    0  0.22875497208E-01  0.11479079106E+00  0.87270613870E-01  0.89202935721E+00  0.88000000000E+00 0. -1.
        -11    1    4    4    0    0 -0.12445226464E-01 -0.34500954978E-01 -0.42793839020E-01  0.56362871957E-01  0.51100000000E-03 0.  1.
         11    1    4    4    0    0 -0.17914731555E-01 -0.57880183172E-01 -0.35745877763E-01  0.70349712926E-01  0.51100000000E-03 0. -1.
</event>
<event>
 8    1  0.1117354E+005  0.1043930E+01  0.7957747E-01            NaN
         13   -1    0    0    0    0  0.00000000000E+00  0.00000000000E+00  0.74505805969E-08  0.10566000000E+00  0.10566000000E+00 0. -1.
     999900   -1    0    0    0    0 -0.00000000000E+00 -0.00000000000E+00 -0.74505805969E-08  0.93827000000E+00  0.93827000000E+00 0.  1.
     999902    2    1    2    0    0  0.22150455017E-01  0.46321600497E-02 -0.48448588806E-02  0.10207875666E+01  0.10205252001E+01 0.  0.
     999903    2    3    3    0    0  0.10580697879E+00  0.77934314138E-01 -0.14385312304E-01  0.13373478354E+00  0.20228223760E-01 0.  0.
         14    1    1    2    0    0 -0.22150455017E-01 -0.46321600497E-02  0.48448588806E-02  0.23142433359E-01  0.00000000000E+00 0.  1.
     999901    1    3    3    0    0 -0.83656523773E-01 -0.73302154089E-01  0.95404534237E-02  0.88705278311E+00  0.88000000000E+00 0.  1.
        -11    1    4    4    0    0  0.72232828309E-01  0.51420630222E-01 -0.19070503451E-01  0.90695137250E-01  0.51100000000E-03 0. -1.
         11    1    4    4    0    0  0.33574150480E-01  0.26513683917E-01  0.46851911467E-02  0.43039646286E-01  0.51100000000E-03 0.  1.
</event>
<event>
 8    1  0.1117354E+005  0.1043930E+01  0.7957747E-01            NaN
         13   -1    0    0    0    0  0.00000000000E+00  0.00000000000E+00  0.74505805969E-08  0.10566000000E+00  0.10566000000E+00 0. -1.
     999900   -1    0    0    0    0 -0.00000000000E+00 -0.00000000000E+00 -0.74505805969E-08  0.93827000000E+00  0.93827000000E+00 0.  1.
     999902    2    1    2    0    0 -0.55354439150E-03 -0.18136306027E-01  0.15083074453E-01  0.10203348492E+01  0.10200619948E+01 0.  0.
     999903    2    3    3    0    0  0.12393701252E+00 -0.29700593427E-01 -0.20239004495E-01  0.13079604689E+00  0.21341983426E-01 0.  0.
         14    1    1    2    0    0  0.55354439150E-03  0.18136306027E-01 -0.15083074453E-01  0.23595150829E-01  0.00000000000E+00 0.  1.
     999901    1    3    3    0    0 -0.12449055691E+00  0.11564287400E-01  0.35322078948E-01  0.88953880228E+00  0.88000000000E+00 0. -1.
        -11    1    4    4    0    0  0.49770293416E-01 -0.32372243077E-02 -0.13976399643E-01  0.51799252851E-01  0.51100000000E-03 0. -1.
         11    1    4    4    0    0  0.74166719104E-01 -0.26463369119E-01 -0.62626048523E-02  0.78996794038E-01  0.51100000000E-03 0.  1.
</event>
<event>
 8    1  0.1117354E+005  0.1043930E+01  0.7957747E-01            NaN
         13   -1    0    0    0    0  0.00000000000E+00  0.00000000000E+00  0.74505805969E-08  0.10566000000E+00  0.10566000000E+00 0.  1.
     999900   -1    0    0    0    0 -0.00000000000E+00 -0.00000000000E+00 -0.74505805969E-08  0.93827000000E+00  0.93827000000E+00 0.  1.
     999902    2    1    2    0    0  0.12716960726E-01  0.11721466510E-01  0.16995863020E-01  0.10196818407E+01  0.10193934879E+01 0.  0.
     999903    2    3    3    0    0 -0.60604636268E-01  0.15806607700E-02 -0.11038405484E+00  0.12743493770E+00  0.19483412367E-01 0.  0.
         14    1    1    2    0    0 -0.12716960726E-01 -0.11721466510E-01 -0.16995863020E-01  0.24248159251E-01  0.00000000000E+00 0. -1.
     999901    1    3    3    0    0  0.73321596994E-01  0.10140805740E-01  0.12737991786E+00  0.89224690305E+00  0.88000000000E+00 0. -1.
        -11    1    4    4    0    0 -0.24751140985E-01 -0.53557489724E-02 -0.60691173481E-01  0.65764600558E-01  0.51100000000E-03 0.  1.
         11    1    4    4    0    0 -0.35853495283E-01  0.69364097424E-02 -0.49692881361E-01  0.61670337141E-01  0.51100000000E-03 0. -1.
</event>
<event>
 8    1  0.1117354E+005  0.1043930E+01  0.7957747E-01            NaN
         13   -1    0    0    0    0  0.00000000000E+00  0.00000000000E+00  0.74505805969E-08  0.10566000000E+00  0.10566000000E+00 0.  1.
     999900   -1    0    0    0    0 -0.00000000000E+00 -0.00000000000E+00 -0.74505805969E-08  0.93827000000E+00  0.93827000000E+00 0.  1.
     999902    2    1    2    0    0  0.23565240667E-01  0.43442753566E-03  0.16628582789E-02  0.10203021691E+01  0.10200285495E+01 0.  0.
     999903    2    3    3    0    0 -0.10844333575E+00  0.60914674466E-01  0.23445207248E-01  0.12813705253E+00  0.19971776421E-01 0.  0.
         14    1    1    2    0    0 -0.23565240667E-01 -0.43442753566E-03 -0.16628582789E-02  0.23627830892E-01  0.00000000000E+00 0. -1.
     999901    1    3    3    0    0  0.13200857642E+00 -0.60480246930E-01 -0.21782348969E-01  0.89216511658E+00  0.88000000000E+00 0. -1.
        -11    1    4    4    0    0 -0.70030347309E-01  0.36578977595E-01  0.24271695007E-01  0.82653780589E-01  0.51100000000E-03 0.  1.
         11    1    4    4    0    0 -0.38412988442E-01  0.24335696871E-01 -0.82648775850E-03  0.45483271939E-01  0.51100000000E-03 0. -1.
</event>
<event>
 8    1  0.1117354E+005  0.1043930E+01  0.7957747E-01            NaN
         13   -1    0    0    0    0  0.00000000000E+00  0.00000000000E+00  0.74505805969E-08  0.10566000000E+00  0.10566000000E+00 0.  1.
     999900   -1    0    0    0    0 -0.00000000000E+00 -0.00000000000E+00 -0.74505805969E-08  0.93827000000E+00  0.93827000000E+00 0. -1.
     999902    2    1    2    0    0  0.17930498823E-01 -0.18736537501E-01 -0.80302314114E-02  0.10167814228E+01  0.10164189179E+01 0.  0.
     999903    2    3    3    0    0 -0.47685045766E-01 -0.21996983885E-02  0.11472914806E+00  0.12568730211E+00  0.18863144885E-01 0.  0.
         14    1    1    2    0    0 -0.17930498823E-01  0.18736537501E-01  0.80302314114E-02  0.27148577165E-01  0.00000000000E+00 0.  1.
     999901    1    3    3    0    0  0.65615544589E-01 -0.16536839112E-01 -0.12275937947E+00  0.89109412072E+00  0.88000000000E+00 0. -1.
        -11    1    4    4    0    0 -0.21825377343E-01  0.30905123016E-02  0.32099969133E-01  0.38943131638E-01  0.51100000000E-03 0. -1.
         11    1    4    4    0    0 -0.25859668424E-01 -0.52902106900E-02  0.82629178927E-01  0.86744170474E-01  0.51100000000E-03 0.  1.
</event>
<event>
 8    1  0.1117354E+005  0.1043930E+01  0.7957747E-01            NaN
         13   -1    0    0    0    0  0.00000000000E+00  0.00000000000E+00  0.74505805969E-08  0.10566000000E+00  0.10566000000E+00 0.  1.
     999900   -1    0    0    0    0 -0.00000000000E+00 -0.00000000000E+00 -0.74505805969E-08  0.93827000000E+00  0.93827000000E+00 0. -1.
     999902    2    1    2    0    0 -0.26037500015E-02 -0.13457337345E-01  0.19214274131E-01  0.10203277168E+01  0.10200546955E+01 0.  0.
     999903    2    3    3    0    0 -0.86744572441E-01 -0.90448943683E-01  0.38815753222E-01  0.13275146461E+00  0.20264658797E-01 0.  0.
         14    1    1    2    0    0  0.26037500015E-02  0.13457337345E-01 -0.19214274131E-01  0.23602283213E-01  0.00000000000E+00 0. -1.
     999901    1    3    3    0    0  0.84140822440E-01  0.76991606339E-01 -0.19601479091E-01  0.88757625218E+00  0.88000000000E+00 0. -1.
        -11    1    4    4    0    0 -0.57009822655E-01 -0.66460641631E-01  0.18570854901E-01  0.89511309553E-01  0.51100000000E-03 0.  1.
         11    1    4    4    0    0 -0.29734749786E-01 -0.23988302052E-01  0.20244898322E-01  0.43240155056E-01  0.51100000000E-03 0. -1.
</event>
<event>
 7    1  0.1117354E+005  0.1043930E+01  0.7957747E-01            NaN
         13   -1    0    0    0    0  0.00000000000E+00  0.00000000000E+00  0.74505805969E-08  0.10566000000E+00  0.10566000000E+00 0. -1.
     999900   -1    0    0    0    0 -0.00000000000E+00 -0.00000000000E+00 -0.74505805969E-08  0.93827000000E+00  0.93827000000E+00 0.  1.
     999902    2    1    2    0    0 -0.23249106650E-01  0.36968707933E-03  0.12083324024E-01  0.10177257189E+01  0.10173883106E+01 0.  0.
         14    1    1    2    0    0  0.23249106650E-01 -0.36968707933E-03 -0.12083324024E-01  0.26204281102E-01  0.00000000000E+00 0.  1.
     999901    1    3    3    0    0 -0.81818466967E-01  0.88035298821E-01 -0.50396703051E-01  0.88959783220E+00  0.88000000000E+00 0.  1.
        -11    1    3    3    0    0  0.20388791983E-01 -0.44899993250E-01  0.98227612805E-02  0.50283794532E-01  0.51100000000E-03 0.  1.
         11    1    3    3    0    0  0.38180568334E-01 -0.42765618491E-01  0.52657265795E-01  0.77844092167E-01  0.51100000000E-03 0. -1.
</event>
<event>
 8    1  0.1117354E+005  0.1043930E+01  0.7957747E-01            NaN
         13   -1    0    0    0    0  0.00000000000E+00  0.00000000000E+00  0.74505805969E-08  0.10566000000E+00  0.10566000000E+00 0. -1.
     999900   -1    0    0    0    0 -0.00000000000E+00 -0.00000000000E+00 -0.74505805969E-08  0.93827000000E+00  0.93827000000E+00 0.  1.
     999902    2    1    2    0    0  0.12426065376E-01 -0.19756240469E-01 -0.13529312132E-02  0.10205516647E+01  0.10202838594E+01 0.  0.
     999903    2    3    3    0    0  0.13024345246E+00 -0.14100640895E-01  0.69860163678E-02  0.13264262626E+00  0.19572350269E-01 0.  0.
         14    1    1    2    0    0 -0.12426065376E-01  0.19756240469E-01  0.13529312132E-02  0.23378335293E-01  0.00000000000E+00 0. -1.
     999901    1    3    3    0    0 -0.11781738708E+00 -0.56555995741E-02 -0.83389475811E-02  0.88790903844E+00  0.88000000000E+00 0. -1.
        -11    1    4    4    0    0  0.65444428557E-01 -0.41056764549E-02  0.12819212568E-01  0.66816338872E-01  0.51100000000E-03 0. -1.
         11    1    4    4    0    0  0.64799023901E-01 -0.99949644397E-02 -0.58331962001E-02  0.65826287390E-01  0.51100000000E-03 0.  1.
</event>
<event>
 8    1  0.1117354E+005  0.1043930E+01  0.7957747E-01            NaN
         13   -1    0    0    0    0  0.00000000000E+00  0.00000000000E+00  0.74505805969E-08  0.10566000000E+00  0.10566000000E+00 0. -1.
     999900   -1    0    0    0    0 -0.00000000000E+00 -0.00000000000E+00 -0.74505805969E-08  0.93827000000E+00  0.93827000000E+00 0.  1.
     999902    2    1    2    0    0  0.22041166508E-01 -0.31154153218E-02  0.11917819555E-01  0.10186801830E+01  0.10183672039E+01 0.  0.
     999903    2    3    3    0    0 -0.11360479118E+00  0.29272580277E-01 -0.41725904909E-01  0.12608483392E+00  0.19834355767E-01 0.  0.
         14    1    1    2    0    0 -0.22041166508E-01  0.31154153218E-02 -0.11917819555E-01  0.25249816961E-01  0.00000000000E+00 0. -1.
     999901    1    3    3    0    0  0.13564595769E+00 -0.32387995598E-01  0.53643724463E-01  0.89259534912E+00  0.88000000000E+00 0. -1.
        -11    1    4    4    0    0 -0.10802796771E+00  0.26256356067E-01 -0.34382181365E-01  0.11636938411E+00  0.51100000000E-03 0.  1.
         11    1    4    4    0    0 -0.55768234677E-02  0.30162242093E-02 -0.73437235439E-02  0.97154498074E-02  0.51100000000E-03 0. -1.
</event>
<event>
 8    1  0.1117354E+005  0.1043930E+01  0.7957747E-01            NaN
         13   -1    0    0    0    0  0.00000000000E+00  0.00000000000E+00  0.74505805969E-08  0.10566000000E+00  0.10566000000E+00 0.  1.
     999900   -1    0    0    0    0 -0.00000000000E+00 -0.00000000000E+00 -0.74505805969E-08  0.93827000000E+00  0.93827000000E+00 0.  1.
     999902    2    1    2    0    0  0.16899505216E-01 -0.17531347030E-01  0.60077601533E-04  0.10195795377E+01  0.10192887170E+01 0.  0.
     999903    2    3    3    0    0  0.23404179583E-01 -0.24017865866E-02  0.12664511241E+00  0.13036922206E+00  0.20090429606E-01 0.  0.
         14    1    1    2    0    0 -0.16899505216E-01  0.17531347030E-01 -0.60077601533E-04  0.24350462307E-01  0.00000000000E+00 0.  1.
     999901    1    3    3    0    0 -0.65046743669E-02 -0.15129560443E-01 -0.12658503481E+00  0.88921031563E+00  0.88000000000E+00 0.  1.
        -11    1    4    4    0    0  0.19967717746E-01  0.47309972874E-02  0.11037775783E+00  0.11227022149E+00  0.51100000000E-03 0.  1.
         11    1    4    4    0    0  0.34364618366E-02 -0.71327838740E-02  0.16267354580E-01  0.18099000574E-01  0.51100000000E-03 0. -1.
</event>
<event>
 8    1  0.1117354E+005  0.1043930E+01  0.7957747E-01            NaN
         13   -1    0    0    0    0  0.00000000000E+00  0.00000000000E+00  0.74505805969E-08  0.10566000000E+00  0.10566000000E+00 0.  1.
     999900   -1    0    0    0    0 -0.00000000000E+00 -0.00000000000E+00 -0.74505805969E-08  0.93827000000E+00  0.93827000000E+00 0.  1.
     999902    2    1    2    0    0  0.12410064240E-01 -0.14133099464E-01  0.91781157355E-02  0.10230017415E+01  0.10227876471E+01 0.  0.
     999903    2    3    3    0    0  0.98215941747E-02  0.31695016557E-01 -0.12653625461E+00  0.13141590341E+00  0.12556996117E-01 0.  0.
         14    1    1    2    0    0 -0.12410064240E-01  0.14133099464E-01 -0.91781157355E-02  0.20928258488E-01  0.00000000000E+00 0.  1.
     999901    1    3    3    0    0  0.25884700652E-02 -0.45828116021E-01  0.13571437034E+00  0.89158583811E+00  0.88000000000E+00 0. -1.
        -11    1    4    4    0    0  0.22916893257E-02  0.17773783669E-01 -0.46674073287E-01  0.49998894629E-01  0.51100000000E-03 0.  1.
         11    1    4    4    0    0  0.75299048490E-02  0.13921232888E-01 -0.79862181318E-01  0.81417008776E-01  0.51100000000E-03 0. -1.
</event>
<event>
 8    1  0.1117354E+005  0.1043930E+01  0.7957747E-01            NaN
         13   -1    0    0    0    0  0.00000000000E+00  0.00000000000E+00  0.74505805969E-08  0.10566000000E+00  0.10566000000E+00 0. -1.
     999900   -1    0    0    0    0 -0.00000000000E+00 -0.00000000000E+00 -0.74505805969E-08  0.93827000000E+00  0.93827000000E+00 0.  1.
     999902    2    1    2    0    0  0.29601567307E-02  0.12406791254E-01 -0.20539432195E-01  0.10197523394E+01  0.10194656809E+01 0.  0.
     999903    2    3    3    0    0  0.11017318420E+00  0.67551094849E-01  0.33400227088E-02  0.13121097523E+00  0.22447345862E-01 0.  0.
         14    1    1    2    0    0 -0.29601567307E-02 -0.12406791254E-01  0.20539432195E-01  0.24177660598E-01  0.00000000000E+00 0. -1.
     999901    1    3    3    0    0 -0.10721302747E+00 -0.55144303594E-01 -0.23879454904E-01  0.88854136417E+00  0.88000000000E+00 0.  1.
        -11    1    4    4    0    0  0.59135510065E-01  0.23149029456E-01  0.24453648469E-02  0.63554126897E-01  0.51100000000E-03 0. -1.
         11    1    4    4    0    0  0.51037674138E-01  0.44402065393E-01  0.89465786188E-03  0.67656848332E-01  0.51100000000E-03 0.  1.
</event>
<event>
 8    1  0.1117354E+005  0.1043930E+01  0.7957747E-01            NaN
         13   -1    0    0    0    0  0.00000000000E+00  0.00000000000E+00  0.74505805969E-08  0.10566000000E+00  0.10566000000E+00 0. -1.
     999900   -1    0    0    0    0 -0.00000000000E+00 -0.00000000000E+00 -0.74505805969E-08  0.93827000000E+00  0.93827000000E+00 0. -1.
     999902    2    1    2    0    0  0.97407351127E-02  0.16609033594E-01  0.14261020869E-01  0.10199692272E+01  0.10196877492E+01 0.  0.
     999903    2    3    3    0    0 -0.94673647953E-01 -0.56132353170E-01  0.64986207373E-01  0.12937014944E+00  0.19987189113E-01 0.  0.
         14    1    1    2    0    0 -0.97407351127E-02 -0.16609033594E-01 -0.14261020869E-01  0.23960772810E-01  0.00000000000E+00 0.  1.
     999901    1    3    3    0    0  0.10441438307E+00  0.72741386764E-01 -0.50725186505E-01  0.89059907775E+00  0.88000000000E+00 0.  1.
        -11    1    4    4    0    0 -0.72883883522E-01 -0.33488134364E-01  0.42960036679E-01  0.90990886867E-01  0.51100000000E-03 0. -1.
         11    1    4    4    0    0 -0.21789764431E-01 -0.22644218806E-01  0.22026170695E-01  0.38379262575E-01  0.51100000000E-03 0.  1.
</event>
<event>
 8    1  0.1117354E+005  0.1043930E+01  0.7957747E-01            NaN
         13   -1    0    0    0    0  0.00000000000E+00  0.00000000000E+00  0.74505805969E-08  0.10566000000E+00  0.10566000000E+00 0. -1.
     999900   -1    0    0    0    0 -0.00000000000E+00 -0.00000000000E+00 -0.74505805969E-08  0.93827000000E+00  0.93827000000E+00 0. -1.
     999902    2    1    2    0    0  0.62265164343E-02 -0.13381273575E-01 -0.20184019622E-01  0.10189255476E+01  0.10186186966E+01 0.  0.
     999903    2    3    3    0    0 -0.60854284038E-01  0.10019594683E+00 -0.49665068605E-01  0.12860608193E+00  0.18177833260E-01 0.  0.
         14    1    1    2    0    0 -0.62265164343E-02  0.13381273575E-01  0.20184019622E-01  0.25004452353E-01  0.00000000000E+00 0. -1.
     999901    1    3    3    0    0  0.67080800473E-01 -0.11357722041E+00  0.29481048983E-01  0.89031946572E+00  0.88000000000E+00 0.  1.
        -11    1    4    4    0    0 -0.43926887325E-01  0.82992127777E-01 -0.34195848586E-01  0.99934387898E-01  0.51100000000E-03 0.  1.
         11    1    4    4    0    0 -0.16927396713E-01  0.17203819055E-01 -0.15469220019E-01  0.28671694031E-01  0.51100000000E-03 0. -1.
</event>
<event>
 8    1  0.1117354E+005  0.1043930E+01  0.7957747E-01            NaN
         13   -1    0    0    0    0  0.00000000000E+00  0.00000000000E+00  0.74505805969E-08  0.10566000000E+00  0.10566000000E+00 0. -1.
     999900   -1    0    0    0    0 -0.00000000000E+00 -0.00000000000E+00 -0.74505805969E-08  0.93827000000E+00  0.93827000000E+00 0. -1.
     999902    2    1    2    0    0  0.30698793707E-02  0.80890286096E-02  0.20368602067E-01  0.10218000092E+01  0.10215603371E+01 0.  0.
     999903    2    3    3    0    0  0.73057379296E-01  0.77686390276E-01  0.79421237708E-01  0.13431521683E+00  0.18981268879E-01 0.  0.
         14    1    1    2    0    0 -0.30698793707E-02 -0.80890286096E-02 -0.20368602067E-01  0.22129990813E-01  0.00000000000E+00 0.  1.
     999901    1    3    3    0    0 -0.69987499925E-01 -0.69597361666E-01 -0.59052635641E-01  0.88748479236E+00  0.88000000000E+00 0. -1.
        -11    1    4    4    0    0  0.28617885170E-01  0.24577226228E-01  0.38374122885E-01  0.53813175235E-01  0.51100000000E-03 0.  1.
         11    1    4    4    0    0  0.44439494126E-01  0.53109164048E-01  0.41047114822E-01  0.80502041591E-01  0.51100000000E-03 0. -1.
</event>
<event>
 8    1  0.1117354E+005  0.1043930E+01  0.7957747E-01            NaN
         13   -1    0    0    0    0  0.00000000000E+00  0.00000000000E+00  0.74505805969E-08  0.10566000000E+00  0.10566000000E+00 0.  1.
     999900   -1    0    0    0    0 -0.00000000000E+00 -0.00000000000E+00 -0.74505805969E-08  0.93827000000E+00  0.93827000000E+00 0.  1.
     999902    2    1    2    0    0  0.84246069221E-02  0.10985838179E-01 -0.18683976209E-01  0.10206758905E+01  0.10204109563E+01 0.  0.
     999903    2    3    3    0    0 -0.76241338624E-01  0.30950104890E-01  0.97558347578E-01  0.12877949958E+00  0.17201093588E-01 0.  0.
         14    1    1    2    0    0 -0.84246069221E-02 -0.10985838179E-01  0.18683976209E-01  0.23254109514E-01  0.00000000000E+00 0.  1.
     999901    1    3    3    0    0  0.84665945546E-01 -0.19964266711E-01 -0.11624232379E+00  0.89189639091E+00  0.88000000000E+00 0.  1.
        -11    1    4    4    0    0 -0.31816061970E-01  0.15859858643E-01  0.54649767037E-01  0.65197048044E-01  0.51100000000E-03 0.  1.
         11    1    4    4    0    0 -0.44425276655E-01  0.15090246247E-01  0.42908580542E-01  0.63582451531E-01  0.51100000000E-03 0. -1.
</event>
<event>
 8    1  0.1117354E+005  0.1043930E+01  0.7957747E-01            NaN
         13   -1    0    0    0    0  0.00000000000E+00  0.00000000000E+00  0.74505805969E-08  0.10566000000E+00  0.10566000000E+00 0.  1.
     999900   -1    0    0    0    0 -0.00000000000E+00 -0.00000000000E+00 -0.74505805969E-08  0.93827000000E+00  0.93827000000E+00 0.  1.
     999902    2    1    2    0    0  0.13881990222E-01  0.98586448823E-02 -0.68855851585E-02  0.10255638950E+01  0.10253994289E+01 0.  0.
     999903    2    3    3    0    0 -0.11713471817E+00  0.34950872873E-01 -0.52670740332E-01  0.13433369001E+00  0.18144631946E-01 0.  0.
         14    1    1    2    0    0 -0.13881990222E-01 -0.98586448823E-02  0.68855851585E-02  0.18366105042E-01  0.00000000000E+00 0.  1.
     999901    1    3    3    0    0  0.13101670839E+00 -0.25092227991E-01  0.45785155173E-01  0.89123020495E+00  0.88000000000E+00 0. -1.
        -11    1    4    4    0    0 -0.61161674301E-01  0.95229137424E-02 -0.30208726281E-01  0.68878621894E-01  0.51100000000E-03 0. -1.
         11    1    4    4    0    0 -0.55973043868E-01  0.25427959131E-01 -0.22462014050E-01  0.65455068112E-01  0.51100000000E-03 0.  1.
</event>
<event>
 8    1  0.1117354E+005  0.1043930E+01  0.7957747E-01            NaN
         13   -1    0    0    0    0  0.00000000000E+00  0.00000000000E+00  0.74505805969E-08  0.10566000000E+00  0.10566000000E+00 0. -1.
     999900   -1    0    0    0    0 -0.00000000000E+00 -0.00000000000E+00 -0.74505805969E-08  0.93827000000E+00  0.93827000000E+00 0. -1.
     999902    2    1    2    0    0 -0.13084377791E-01 -0.15267074494E-01  0.12166088610E-01  0.10204289741E+01  0.10201583176E+01 0.  0.
     999903    2    3    3    0    0 -0.58561128786E-01  0.70766338758E-02 -0.11414055419E+00  0.12996800124E+00  0.19599252167E-01 0.  0.
         14    1    1    2    0    0  0.13084377791E-01  0.15267074494E-01 -0.12166088610E-01  0.23501025889E-01  0.00000000000E+00 0.  1.
     999901    1    3    3    0    0  0.45476750995E-01 -0.22343708370E-01  0.12630664280E+00  0.89046097287E+00  0.88000000000E+00 0.  1.
        -11    1    4    4    0    0 -0.44028856962E-01  0.12695085735E-01 -0.93256056924E-01  0.10390697148E+00  0.51100000000E-03 0. -1.
         11    1    4    4    0    0 -0.14532271824E-01 -0.56184518591E-02 -0.20884497263E-01  0.26061029768E-01  0.51100000000E-03 0.  1.
</event>
<event>
 8    1  0.1117354E+005  0.1043930E+01  0.7957747E-01            NaN
         13   -1    0    0    0    0  0.00000000000E+00  0.00000000000E+00  0.74505805969E-08  0.10566000000E+00  0.10566000000E+00 0. -1.
     999900   -1    0    0    0    0 -0.00000000000E+00 -0.00000000000E+00 -0.74505805969E-08  0.93827000000E+00  0.93827000000E+00 0.  1.
     999902    2    1    2    0    0 -0.73144762008E-02 -0.20958658471E-01  0.86545241043E-02  0.10201042216E+01  0.10198259436E+01 0.  0.
     999903    2    3    3    0    0  0.83599995305E-01  0.82882357987E-01  0.47737281757E-01  0.12849003390E+00  0.19297571411E-01 0.  0.
         14    1    1    2    0    0  0.73144762008E-02  0.20958658471E-01 -0.86545241043E-02  0.23825778360E-01  0.00000000000E+00 0.  1.
     999901    1    3    3    0    0 -0.90914471506E-01 -0.10384101646E+00 -0.39082757652E-01  0.89161418774E+00  0.88000000000E+00 0.  1.
        -11    1    4    4    0    0  0.70872898984E-01  0.59850554275E-01  0.33983304619E-01  0.98793637302E-01  0.51100000000E-03 0. -1.
         11    1    4    4    0    0  0.12727096321E-01  0.23031803712E-01  0.13753977138E-01  0.29696396602E-01  0.51100000000E-03 0.  1.
</event>
<event>
 8    1  0.1117354E+005  0.1043930E+01  0.7957747E-01            NaN
         13   -1    0    0    0    0  0.00000000000E+00  0.00000000000E+00  0.74505805969E-08  0.10566000000E+00  0.10566000000E+00 0.  1.
     999900   -1    0    0    0    0 -0.00000000000E+00 -0.00000000000E+00 -0.74505805969E-08  0.93827000000E+00  0.93827000000E+00 0.  1.
     999902    2    1    2    0    0  0.15586973490E-01 -0.15228663251E-01  0.10818752584E-01  0.10196007720E+01  0.10193104645E+01 0.  0.
     999903    2    3    3    0    0  0.58062141000E-01  0.11166725478E+00  0.16741216389E-01  0.12946494561E+00  0.25300510054E-01 0.  0.
         14    1    1    2    0    0 -0.15586973490E-01  0.15228663251E-01 -0.10818752584E-01  0.24329227987E-01  0.00000000000E+00 0. -1.
     999901    1    3    3    0    0 -0.42475167510E-01 -0.12689591803E+00 -0.59224638049E-02  0.89013582640E+00  0.88000000000E+00 0. -1.
        -11    1    4    4    0    0  0.58033235136E-01  0.92714495225E-01  0.15379551915E-01  0.11045644274E+00  0.51100000000E-03 0.  1.
         11    1    4    4    0    0  0.28905864097E-04  0.18952759551E-01  0.13616644735E-02  0.19008502868E-01  0.51100000000E-03 0. -1.
</event>
<event>
 8    1  0.1117354E+005  0.1043930E+01  0.7957747E-01            NaN
         13   -1    0    0    0    0  0.00000000000E+00  0.00000000000E+00  0.74505805969E-08  0.10566000000E+00  0.10566000000E+00 0.  1.
     999900   -1    0    0    0    0 -0.00000000000E+00 -0.00000000000E+00 -0.74505805969E-08  0.93827000000E+00  0.93827000000E+00 0. -1.
     999902    2    1    2    0    0  0.19608023548E-04 -0.60548413729E-02  0.20951292605E-01  0.10221213286E+01  0.10218886398E+01 0.  0.
     999903    2    3    3    0    0 -0.22850972354E-01 -0.12952099856E+00  0.48440711513E-02  0.13306205156E+00  0.19600727892E-01 0.  0.
         14    1    1    2    0    0 -0.19608023548E-04  0.60548413729E-02 -0.20951292605E-01  0.21808671449E-01  0.00000000000E+00 0. -1.
     999901    1    3    3    0    0  0.22870580378E-01  0.12346615719E+00  0.16107221454E-01  0.88905927699E+00  0.88000000000E+00 0.  1.
        -11    1    4    4    0    0 -0.18039529087E-01 -0.49124717190E-01 -0.57908696703E-03  0.52337929950E-01  0.51100000000E-03 0.  1.
         11    1    4    4    0    0 -0.48114432674E-02 -0.80396281374E-01  0.54231581183E-02  0.80724121612E-01  0.51100000000E-03 0. -1.
</event>
<event>
 8    1  0.1117354E+005  0.1043930E+01  0.7957747E-01            NaN
         13   -1    0    0    0    0  0.00000000000E+00  0.00000000000E+00  0.74505805969E-08  0.10566000000E+00  0.10566000000E+00 0.  1.
     999900   -1    0    0    0    0 -0.00000000000E+00 -0.00000000000E+00 -0.74505805969E-08  0.93827000000E+00  0.93827000000E+00 0. -1.
     999902    2    1    2    0    0 -0.13886564968E-01 -0.82871310456E-02  0.22180937478E-01  0.10164799141E+01  0.10161092011E+01 0.  0.
     999903    2    3    3    0    0  0.73140762902E-01  0.76576505507E-02 -0.97883790697E-01  0.12393101864E+00  0.19221084551E-01 0.  0.
         14    1    1    2    0    0  0.13886564968E-01  0.82871310456E-02 -0.22180937478E-01  0.27450085883E-01  0.00000000000E+00 0. -1.
     999901    1    3    3    0    0 -0.87027327870E-01 -0.15944781596E-01  0.12006472818E+00  0.89254889547E+00  0.88000000000E+00 0.  1.
        -11    1    4    4    0    0  0.37108916303E-02  0.44693307038E-02 -0.12806077683E-01  0.14071331858E-01  0.51100000000E-03 0. -1.
         11    1    4    4    0    0  0.69429871271E-01  0.31883198470E-02 -0.85077713014E-01  0.10985968679E+00  0.51100000000E-03 0.  1.
</event>
<event>
 8    1  0.1117354E+005  0.1043930E+01  0.7957747E-01            NaN
         13   -1    0    0    0    0  0.00000000000E+00  0.00000000000E+00  0.74505805969E-08  0.10566000000E+00  0.10566000000E+00 0.  1.
     999900   -1    0    0    0    0 -0.00000000000E+00 -0.00000000000E+00 -0.74505805969E-08  0.93827000000E+00  0.93827000000E+00 0.  1.
     999902    2    1    2    0    0  0.19763553352E-01 -0.11474289979E-01  0.26837290656E-02  0.10209200071E+01  0.10206606689E+01 0.  0.
     999903    2    3    3    0    0  0.20795818296E-02  0.12605464578E+00 -0.22381534420E-01  0.12971004393E+00  0.20728338807E-01 0.  0.
         14    1    1    2    0    0 -0.19763553352E-01  0.11474289979E-01 -0.26837290656E-02  0.23009992901E-01  0.00000000000E+00 0.  1.
     999901    1    3    3    0    0  0.17683971523E-01 -0.13752893576E+00  0.25065263486E-01  0.89120996317E+00  0.88000000000E+00 0. -1.
        -11    1    4    4    0    0  0.92904788082E-02  0.99903225178E-01 -0.21208228756E-01  0.10255251087E+00  0.51100000000E-03 0.  1.
         11    1    4    4    0    0 -0.72108969785E-02  0.26151420602E-01 -0.11733056639E-02  0.27157533060E-01  0.51100000000E-03 0. -1.
</event>
<event>
 8    1  0.1117354E+005  0.1043930E+01  0.7957747E-01            NaN
         13   -1    0    0    0    0  0.00000000000E+00  0.00000000000E+00  0.74505805969E-08  0.10566000000E+00  0.10566000000E+00 0. -1.
     999900   -1    0    0    0    0 -0.00000000000E+00 -0.00000000000E+00 -0.74505805969E-08  0.93827000000E+00  0.93827000000E+00 0. -1.
     999902    2    1    2    0    0 -0.15352645850E-01 -0.14416178122E-01 -0.16204524483E-01  0.10173571466E+01  0.10170100526E+01 0.  0.
     999903    2    3    3    0    0 -0.65157916084E-01  0.97743046542E-01 -0.47827373407E-01  0.12827882538E+00  0.19202661734E-01 0.  0.
         14    1    1    2    0    0  0.15352645850E-01  0.14416178122E-01  0.16204524483E-01  0.26572853440E-01  0.00000000000E+00 0. -1.
     999901    1    3    3    0    0  0.49805270234E-01 -0.11215922466E+00  0.31622848923E-01  0.88907832118E+00  0.88000000000E+00 0.  1.
        -11    1    4    4    0    0 -0.44370938915E-01  0.74726748297E-01 -0.27347809981E-01  0.91109993761E-01  0.51100000000E-03 0.  1.
         11    1    4    4    0    0 -0.20786977169E-01  0.23016298245E-01 -0.20479563426E-01  0.37168831618E-01  0.51100000000E-03 0. -1.
</event>
<event>
 8    1  0.1117354E+005  0.1043930E+01  0.7957747E-01            NaN
         13   -1    0    0    0    0  0.00000000000E+00  0.00000000000E+00  0.74505805969E-08  0.10566000000E+00  0.10566000000E+00 0. -1.
     999900   -1    0    0    0    0 -0.00000000000E+00 -0.00000000000E+00 -0.74505805969E-08  0.93827000000E+00  0.93827000000E+00 0.  1.
     999902    2    1    2    0    0 -0.21821708686E-01 -0.67731080766E-02  0.41752009295E-02  0.10207029841E+01  0.10204386741E+01 0.  0.
     999903    2    3    3    0    0 -0.22021057897E-01  0.37397734212E-01  0.12315824598E+00  0.13159777773E+00  0.16324951319E-01 0.  0.
         14    1    1    2    0    0  0.21821708686E-01  0.67731080766E-02 -0.41752009295E-02  0.23227015861E-01  0.00000000000E+00 0. -1.
     999901    1    3    3    0    0  0.19934921140E-03 -0.44170842289E-01 -0.11898304505E+00  0.88910520641E+00  0.88000000000E+00 0.  1.
        -11    1    4    4    0    0 -0.14806791940E-01  0.23939331809E-01  0.55455821357E-01  0.62192780436E-01  0.51100000000E-03 0.  1.
         11    1    4    4    0    0 -0.72142659574E-02  0.13458402404E-01  0.67702424626E-01  0.69404997297E-01  0.51100000000E-03 0. -1.
</event>
<event>
 8    1  0.1117354E+005  0.1043930E+01  0.7957747E-01            NaN
         13   -1    0    0    0    0  0.00000000000E+00  0.00000000000E+00  0.74505805969E-08  0.10566000000E+00  0.10566000000E+00 0. -1.
     999900   -1    0    0    0    0 -0.00000000000E+00 -0.00000000000E+00 -0.74505805969E-08  0.93827000000E+00  0.93827000000E+00 0. -1.
     999902    2    1    2    0    0 -0.11962669329E-01  0.89093258534E-02 -0.18685376053E-01  0.10200213233E+01  0.10197410824E+01 0.  0.
     999903    2    3    3    0    0  0.64745159470E-02  0.10302093620E+00  0.76049208495E-01  0.12975643768E+00  0.19950397353E-01 0.  0.
         14    1    1    2    0    0  0.11962669329E-01 -0.89093258534E-02  0.18685376053E-01  0.23908676728E-01  0.00000000000E+00 0. -1.
     999901    1    3    3    0    0 -0.18437185276E-01 -0.94111610349E-01 -0.94734584548E-01  0.89026488559E+00  0.88000000000E+00 0. -1.
        -11    1    4    4    0    0  0.13638751910E-01  0.72919862937E-01  0.54044841493E-01  0.91784682695E-01  0.51100000000E-03 0.  1.
         11    1    4    4    0    0 -0.71642359633E-02  0.30101073266E-01  0.22004367002E-01  0.37971754988E-01  0.51100000000E-03 0. -1.
</event>
<event>
 8    1  0.1117354E+005  0.1043930E+01  0.7957747E-01            NaN
         13   -1    0    0    0    0  0.00000000000E+00  0.00000000000E+00  0.74505805969E-08  0.10566000000E+00  0.10566000000E+00 0.  1.
     999900   -1    0    0    0    0 -0.00000000000E+00 -0.00000000000E+00 -0.74505805969E-08  0.93827000000E+00  0.93827000000E+00 0. -1.
     999902    2    1    2    0    0  0.16142383576E-02 -0.22926502865E-01  0.54040572579E-02  0.10203199569E+01  0.10200467540E+01 0.  0.
     999903    2    3    3    0    0 -0.52209981979E-01 -0.12087823476E+00 -0.59553205280E-02  0.13317812839E+00  0.19066152754E-01 0.  0.
         14    1    1    2    0    0 -0.16142383576E-02  0.22926502865E-01 -0.54040572579E-02  0.23610043074E-01  0.00000000000E+00 0. -1.
     999901    1    3    3    0    0  0.53824220337E-01  0.97951731899E-01  0.11359377786E-01  0.88714182854E+00  0.88000000000E+00 0.  1.
        -11    1    4    4    0    0 -0.63197736673E-02 -0.10067969388E-01 -0.58084412556E-02  0.13240190996E-01  0.51100000000E-03 0. -1.
         11    1    4    4    0    0 -0.45890208312E-01 -0.11081026538E+00 -0.14687927242E-03  0.11993793739E+00  0.51100000000E-03 0.  1.
</event>
<event>
 8    1  0.1117354E+005  0.1043930E+01  0.7957747E-01            NaN
         13   -1    0    0    0    0  0.00000000000E+00  0.00000000000E+00  0.74505805969E-08  0.10566000000E+00  0.10566000000E+00 0.  1.
     999900   -1    0    0    0    0 -0.00000000000E+00 -0.00000000000E+00 -0.74505805969E-08  0.93827000000E+00  0.93827000000E+00 0.  1.
     999902    2    1    2    0    0 -0.23433112693E-01 -0.30942716226E-02 -0.22980358662E-02  0.10201820263E+01  0.10199055841E+01 0.  0.
     999903    2    3    3    0    0 -0.17616293643E-01  0.11120833423E+00  0.62433170788E-01  0.13041292690E+00  0.20784688698E-01 0.  0.
         14    1    1    2    0    0  0.23433112693E-01  0.30942716226E-02  0.22980358662E-02  0.23747973728E-01  0.00000000000E+00 0. -1.
     999901    1    3    3    0    0 -0.58168190499E-02 -0.11430260585E+00 -0.64731206654E-01  0.88976909937E+00  0.88000000000E+00 0.  1.
        -11    1    4    4    0    0 -0.50029228190E-02  0.32972529970E-01  0.29737081201E-01  0.44685255831E-01  0.51100000000E-03 0. -1.
         11    1    4    4    0    0 -0.12613370824E-01  0.78235804256E-01  0.32696089587E-01  0.85727671066E-01  0.51100000000E-03 0.  1.
</event>
<event>
 8    1  0.1117354E+005  0.1043930E+01  0.7957747E-01            NaN
         13   -1    0    0    0    0  0.00000000000E+00  0.00000000000E+00  0.74505805969E-08  0.10566000000E+00  0.10566000000E+00 0. -1.
     999900   -1    0    0    0    0 -0.00000000000E+00 -0.00000000000E+00 -0.74505805969E-08  0.93827000000E+00  0.93827000000E+00 0.  1.
     999902    2    1    2    0    0  0.12510223705E-01  0.68791391089E-03  0.20584444626E-01  0.10198323179E+01  0.10195475753E+01 0.  0.
     999903    2    3    3    0    0  0.94645894376E-01  0.87791384557E-01 -0.16222829069E-01  0.13096334082E+00  0.14934655362E-01 0.  0.
         14    1    1    2    0    0 -0.12510223705E-01 -0.68791391089E-03 -0.20584444626E-01  0.24097682114E-01  0.00000000000E+00 0.  1.
     999901    1    3    3    0    0 -0.82135670671E-01 -0.87103470646E-01  0.36807273695E-01  0.88886897707E+00  0.88000000000E+00 0. -1.
        -11    1    4    4    0    0  0.73173467841E-01  0.62624621278E-01 -0.67635795209E-02  0.96551575415E-01  0.51100000000E-03 0. -1.
         11    1    4    4    0    0  0.21472426535E-01  0.25166763278E-01 -0.94592495481E-02  0.34411765404E-01  0.51100000000E-03 0.  1.
</event>
<event>
 8    1  0.1117354E+005  0.1043930E+01  0.7957747E-01            NaN
         13   -1    0    0    0    0  0.00000000000E+00  0.00000000000E+00  0.74505805969E-08  0.10566000000E+00  0.10566000000E+00 0. -1.
     999900   -1    0    0    0    0 -0.00000000000E+00 -0.00000000000E+00 -0.74505805969E-08  0.93827000000E+00  0.93827000000E+00 0. -1.
     999902    2    1    2    0    0 -0.29338841029E-02  0.11561700851E-01  0.20812316900E-01  0.10199418125E+01  0.10196596824E+01 0.  0.
     999903    2    3    3    0    0  0.12506637091E+00 -0.10024014060E-01  0.29061774062E-01  0.13038121207E+00  0.20312453338E-01 0.  0.
         14    1    1    2    0    0  0.29338841029E-02 -0.11561700851E-01 -0.20812316900E-01  0.23988187452E-01  0.00000000000E+00 0.  1.
     999901    1    3    3    0    0 -0.12800025501E+00  0.21585714910E-01 -0.82494571614E-02  0.88956060047E+00  0.88000000000E+00 0.  1.
        -11    1    4    4    0    0  0.27589569380E-01  0.52921878533E-02  0.10385986037E-01  0.29955323697E-01  0.51100000000E-03 0. -1.
         11    1    4    4    0    0  0.97476801527E-01 -0.15316201913E-01  0.18675788025E-01  0.10042588838E+00  0.51100000000E-03 0.  1.
</event>
<event>
 8    1  0.1117354E+005  0.1043930E+01  0.7957747E-01            NaN
         13   -1    0    0    0    0  0.00000000000E+00  0.00000000000E+00  0.74505805969E-08  0.10566000000E+00  0.10566000000E+00 0.  1.
     999900   -1    0    0    0    0 -0.00000000000E+00 -0.00000000000E+00 -0.74505805969E-08  0.93827000000E+00  0.93827000000E+00 0.  1.
     999902    2    1    2    0    0  0.21251326406E-01 -0.11040830759E-01 -0.21668215678E-02  0.10198839206E+01  0.10196004108E+01 0.  0.
     999903    2    3    3    0    0 -0.63197097493E-01  0.74750585397E-01 -0.80375719821E-01  0.12825152150E+00  0.20166141995E-01 0.  0.
         14    1    1    2    0    0 -0.21251326406E-01  0.11040830759E-01  0.21668215678E-02  0.24046079380E-01  0.00000000000E+00 0. -1.
     999901    1    3    3    0    0  0.84448423899E-01 -0.85791416156E-01  0.78208898253E-01  0.89163239911E+00  0.88000000000E+00 0. -1.
        -11    1    4    4    0    0 -0.16287898907E-01  0.34202903519E-01 -0.28574739529E-01  0.47454305601E-01  0.51100000000E-03 0.  1.
         11    1    4    4    0    0 -0.46909198586E-01  0.40547681878E-01 -0.51800980292E-01  0.80797215904E-01  0.51100000000E-03 0. -1.
</event>
<event>
 8    1  0.1117354E+005  0.1043930E+01  0.7957747E-01            NaN
         13   -1    0    0    0    0  0.00000000000E+00  0.00000000000E+00  0.74505805969E-08  0.10566000000E+00  0.10566000000E+00 0.  1.
     999900   -1    0    0    0    0 -0.00000000000E+00 -0.00000000000E+00 -0.74505805969E-08  0.93827000000E+00  0.93827000000E+00 0.  1.
     999902    2    1    2    0    0 -0.55790077690E-02  0.12452888991E-01 -0.20317680598E-01  0.10194553618E+01  0.10191615312E+01 0.  0.
     999903    2    3    3    0    0 -0.90899358460E-01  0.82838942218E-02  0.88245460929E-01  0.12867879132E+00  0.20967920455E-01 0.  0.
         14    1    1    2    0    0  0.55790077690E-02 -0.12452888991E-01  0.20317680598E-01  0.24474638236E-01  0.00000000000E+00 0.  1.
     999901    1    3    3    0    0  0.85320350691E-01  0.41689947693E-02 -0.10856314153E+00  0.89077657045E+00  0.88000000000E+00 0.  1.
        -11    1    4    4    0    0 -0.67327614354E-01  0.12610278045E-01  0.73802082364E-01  0.10069277655E+00  0.51100000000E-03 0.  1.
         11    1    4    4    0    0 -0.23571744106E-01 -0.43263838230E-02  0.14443378565E-01  0.27986014768E-01  0.51100000000E-03 0. -1.
</event>
<event>
 8    1  0.1117354E+005  0.1043930E+01  0.7957747E-01            NaN
         13   -1    0    0    0    0  0.00000000000E+00  0.00000000000E+00  0.74505805969E-08  0.10566000000E+00  0.10566000000E+00 0.  1.
     999900   -1    0    0    0    0 -0.00000000000E+00 -0.00000000000E+00 -0.74505805969E-08  0.93827000000E+00  0.93827000000E+00 0. -1.
     999902    2    1    2    0    0  0.56390486773E-02  0.18747605180E-01 -0.12833459434E-01  0.10205212570E+01  0.10202527465E+01 0.  0.
     999903    2    3    3    0    0 -0.88207989517E-01 -0.38364275165E-01  0.83138932997E-01  0.12851243774E+00  0.18732256920E-01 0.  0.
         14    1    1    2    0    0 -0.56390486773E-02 -0.18747605180E-01  0.12833459434E-01  0.23408743046E-01  0.00000000000E+00 0.  1.
     999901    1    3    3    0    0  0.93847038194E-01  0.57111880344E-01 -0.95972392431E-01  0.89200881922E+00  0.88000000000E+00 0. -1.
        -11    1    4    4    0    0 -0.63089174470E-01 -0.33049265449E-01  0.52197601995E-01  0.88302597114E-01  0.51100000000E-03 0. -1.
         11    1    4    4    0    0 -0.25118815047E-01 -0.53150097152E-02  0.30941331002E-01  0.40209840622E-01  0.51100000000E-03 0.  1.
</event>
<event>
 8    1  0.1117354E+005  0.1043930E+01  0.7957747E-01            NaN
         13   -1    0    0    0    0  0.00000000000E+00  0.00000000000E+00  0.74505805969E-08  0.10566000000E+00  0.10566000000E+00 0.  1.
     999900   -1    0    0    0    0 -0.00000000000E+00 -0.00000000000E+00 -0.74505805969E-08  0.93827000000E+00  0.93827000000E+00 0. -1.
     999902    2    1    2    0    0  0.15168809902E-02 -0.12825772402E-01 -0.20677766199E-01  0.10195502670E+01  0.10192587383E+01 0.  0.
     999903    2    3    3    0    0  0.10904189173E+00 -0.14040273137E-01  0.64138375293E-01  0.12895671168E+00  0.20708425304E-01 0.  0.
         14    1    1    2    0    0 -0.15168809902E-02  0.12825772402E-01  0.20677766199E-01  0.24379732989E-01  0.00000000000E+00 0.  1.
     999901    1    3    3    0    0 -0.10752501074E+00  0.12145007352E-02 -0.84816141492E-01  0.89059355534E+00  0.88000000000E+00 0. -1.
        -11    1    4    4    0    0  0.36368849601E-01 -0.10016919126E-01  0.12613996991E-01  0.39779466201E-01  0.51100000000E-03 0.  1.
         11    1    4    4    0    0  0.72673042131E-01 -0.40233540105E-02  0.51524378302E-01  0.89177245475E-01  0.51100000000E-03 0. -1.
</event>
<event>
 8    1  0.1117354E+005  0.1043930E+01  0.7957747E-01            NaN
         13   -1    0    0    0    0  0.00000000000E+00  0.00000000000E+00  0.74505805969E-08  0.10566000000E+00  0.10566000000E+00 0. -1.
     999900   -1    0    0    0    0 -0.00000000000E+00 -0.00000000000E+00 -0.74505805969E-08  0.93827000000E+00  0.93827000000E+00 0. -1.
     999902    2    1    2    0    0 -0.11497026263E-01  0.24123072556E-02  0.51756668784E-02  0.10310930079E+01  0.10310130952E+01 0.  0.
     999903    2    3    3    0    0 -0.12833419765E+00 -0.34903230326E-01 -0.43154993801E-01  0.14127323583E+00  0.20195838596E-01 0.  0.
         14    1    1    2    0    0  0.11497026263E-01 -0.24123072556E-02 -0.51756668784E-02  0.12836992126E-01  0.00000000000E+00 0.  1.
     999901    1    3    3    0    0  0.11683717139E+00  0.37315537582E-01  0.48330660680E-01  0.88981977205E+00  0.88000000000E+00 0.  1.
        -11    1    4    4    0    0 -0.81221451423E-01 -0.18356627431E-01 -0.17336481160E-01  0.85057066972E-01  0.51100000000E-03 0. -1.
         11    1    4    4    0    0 -0.47112746231E-01 -0.16546602895E-01 -0.25818512642E-01  0.56216168856E-01  0.51100000000E-03 0.  1.
</event>
<event>
 8    1  0.1117354E+005  0.1043930E+01  0.7957747E-01            NaN
         13   -1    0    0    0    0  0.00000000000E+00  0.00000000000E+00  0.74505805969E-08  0.10566000000E+00  0.10566000000E+00 0.  1.
     999900   -1    0    0    0    0 -0.00000000000E+00 -0.00000000000E+00 -0.74505805969E-08  0.93827000000E+00  0.93827000000E+00 0. -1.
     999902    2    1    2    0    0 -0.13616148901E-01  0.29174180720E-02  0.18622569997E-01  0.10206768077E+01  0.10204118947E+01 0.  0.
     999903    2    3    3    0    0 -0.50729622609E-01  0.10408150481E+00  0.62381419378E-01  0.13302461270E+00  0.19941209773E-01 0.  0.
         14    1    1    2    0    0  0.13616148901E-01 -0.29174180720E-02 -0.18622569997E-01  0.23253192306E-01  0.00000000000E+00 0. -1.
     999901    1    3    3    0    0  0.37113473707E-01 -0.10116408674E+00 -0.43758849381E-01  0.88765219499E+00  0.88000000000E+00 0. -1.
        -11    1    4    4    0    0 -0.24427001428E-01  0.69511013480E-01  0.44282831147E-01  0.85963304085E-01  0.51100000000E-03 0.  1.
         11    1    4    4    0    0 -0.26302621180E-01  0.34570491330E-01  0.18098588231E-01  0.47061308617E-01  0.51100000000E-03 0. -1.
</event>
<event>
 8    1  0.1117354E+005  0.1043930E+01  0.7957747E-01            NaN
         13   -1    0    0    0    0  0.00000000000E+00  0.00000000000E+00  0.74505805969E-08  0.10566000000E+00  0.10566000000E+00 0.  1.
     999900   -1    0    0    0    0 -0.00000000000E+00 -0.00000000000E+00 -0.74505805969E-08  0.93827000000E+00  0.93827000000E+00 0. -1.
     999902    2    1    2    0    0  0.61196829643E-02 -0.60667217899E-02 -0.22139662388E-01  0.10201724689E+01  0.10198958016E+01 0.  0.
     999903    2    3    3    0    0  0.10522511511E-01 -0.11499612461E+00  0.56297250840E-01  0.12998296714E+00  0.19782804937E-01 0.  0.
         14    1    1    2    0    0 -0.61196829643E-02  0.60667217899E-02  0.22139662388E-01  0.23757531091E-01  0.00000000000E+00 0.  1.
     999901    1    3    3    0    0 -0.44028285468E-02  0.10892940282E+00 -0.78436913228E-01  0.89018950177E+00  0.88000000000E+00 0. -1.
        -11    1    4    4    0    0 -0.53427365369E-03 -0.49383369373E-01  0.33363194979E-01  0.59601732518E-01  0.51100000000E-03 0. -1.
         11    1    4    4    0    0  0.11056785165E-01 -0.65612755238E-01  0.22934055861E-01  0.70381234625E-01  0.51100000000E-03 0.  1.
</event>
<event>
 8    1  0.1117354E+005  0.1043930E+01  0.7957747E-01            NaN
         13   -1    0    0    0    0  0.00000000000E+00  0.00000000000E+00  0.74505805969E-08  0.10566000000E+00  0.10566000000E+00 0.  1.
     999900   -1    0    0    0    0 -0.00000000000E+00 -0.00000000000E+00 -0.74505805969E-08  0.93827000000E+00  0.93827000000E+00 0. -1.
     999902    2    1    2    0    0  0.17888702811E-01 -0.13983338222E-01  0.65748462597E-02  0.10202917251E+01  0.10200178608E+01 0.  0.
     999903    2    3    3    0    0  0.28598677413E-01 -0.77692305207E-01 -0.10025762825E+00  0.13147975758E+00  0.19528338204E-01 0.  0.
         14    1    1    2    0    0 -0.17888702811E-01  0.13983338222E-01 -0.65748462597E-02  0.23638274883E-01  0.00000000000E+00 0. -1.
     999901    1    3    3    0    0 -0.10709974602E-01  0.63708966985E-01  0.10683247451E+00  0.88881196754E+00  0.88000000000E+00 0.  1.
        -11    1    4    4    0    0  0.16778027101E-01 -0.29517156373E-01 -0.53140441407E-01  0.63062923716E-01  0.51100000000E-03 0. -1.
         11    1    4    4    0    0  0.11820650312E-01 -0.48175148834E-01 -0.47117186841E-01  0.68416833863E-01  0.51100000000E-03 0.  1.
</event>
<event>
 8    1  0.1117354E+005  0.1043930E+01  0.7957747E-01            NaN
         13   -1    0    0    0    0  0.00000000000E+00  0.00000000000E+00  0.74505805969E-08  0.10566000000E+00  0.10566000000E+00 0.  1.
     999900   -1    0    0    0    0 -0.00000000000E+00 -0.00000000000E+00 -0.74505805969E-08  0.93827000000E+00  0.93827000000E+00 0. -1.
     999902    2    1    2    0    0 -0.14256850469E-01  0.98782395800E-02 -0.17065753909E-01  0.10195973602E+01  0.10193069702E+01 0.  0.
     999903    2    3    3    0    0  0.96937243886E-01 -0.52577688813E-01  0.59810550413E-01  0.12708694807E+00  0.20311273153E-01 0.  0.
         14    1    1    2    0    0  0.14256850469E-01 -0.98782395800E-02  0.17065753909E-01  0.24332639786E-01  0.00000000000E+00 0.  1.
     999901    1    3    3    0    0 -0.11119409435E+00  0.62455928393E-01 -0.76876304321E-01  0.89251041214E+00  0.88000000000E+00 0. -1.
        -11    1    4    4    0    0  0.89346187076E-01 -0.41067522957E-01  0.52676308807E-01  0.11155418960E+00  0.51100000000E-03 0.  1.
         11    1    4    4    0    0  0.75910568099E-02 -0.11510165857E-01  0.71342416057E-02  0.15532758475E-01  0.51100000000E-03 0. -1.
</event>
<event>
 8    1  0.1117354E+005  0.1043930E+01  0.7957747E-01            NaN
         13   -1    0    0    0    0  0.00000000000E+00  0.00000000000E+00  0.74505805969E-08  0.10566000000E+00  0.10566000000E+00 0.  1.
     999900   -1    0    0    0    0 -0.00000000000E+00 -0.00000000000E+00 -0.74505805969E-08  0.93827000000E+00  0.93827000000E+00 0.  1.
     999902    2    1    2    0    0  0.14021638361E-01  0.50952036833E-02 -0.18545973947E-01  0.10201283069E+01  0.10198505979E+01 0.  0.
     999903    2    3    3    0    0 -0.16215486593E-01  0.11414778918E+00  0.56217012473E-01  0.12973723877E+00  0.19461214068E-01 0.  0.
         14    1    1    2    0    0 -0.14021638361E-01 -0.50952036833E-02  0.18545973947E-01  0.23801693061E-01  0.00000000000E+00 0.  1.
     999901    1    3    3    0    0  0.30237124954E-01 -0.10905258550E+00 -0.74762986421E-01  0.89039106816E+00  0.88000000000E+00 0. -1.
        -11    1    4    4    0    0  0.38121902483E-02  0.10391690172E-01  0.74665727464E-02  0.13361543650E-01  0.51100000000E-03 0.  1.
         11    1    4    4    0    0 -0.20027676841E-01  0.10375609901E+00  0.48750439727E-01  0.11637569512E+00  0.51100000000E-03 0. -1.
</event>
<event>
 8    1  0.1117354E+005  0.1043930E+01  0.7957747E-01            NaN
         13   -1    0    0    0    0  0.00000000000E+00  0.00000000000E+00  0.74505805969E-08  0.10566000000E+00  0.10566000000E+00 0. -1.
     999900   -1    0    0    0    0 -0.00000000000E+00 -0.00000000000E+00 -0.74505805969E-08  0.93827000000E+00  0.93827000000E+00 0.  1.
     999902    2    1    2    0    0  0.22170143120E-01  0.43676028677E-02 -0.75124800895E-02  0.10201176385E+01  0.10198396776E+01 0.  0.
     999903    2    3    3    0    0 -0.98119062892E-01 -0.16039488107E-01  0.77548536387E-01  0.12763720797E+00  0.19820839554E-01 0.  0.
         14    1    1    2    0    0 -0.22170143120E-01 -0.43676028677E-02  0.75124800895E-02  0.23812361451E-01  0.00000000000E+00 0.  1.
     999901    1    3    3    0    0  0.12028920601E+00  0.20407090975E-01 -0.85061016476E-01  0.89248043058E+00  0.88000000000E+00 0.  1.
        -11    1    4    4    0    0 -0.27356788116E-01 -0.55326223737E-02  0.33571884886E-01  0.43661611768E-01  0.51100000000E-03 0. -1.
         11    1    4    4    0    0 -0.70762274776E-01 -0.10506865734E-01  0.43976651501E-01  0.83975596201E-01  0.51100000000E-03 0.  1.
</event>
<event>
 8    1  0.1117354E+005  0.1043930E+01  0.7957747E-01            NaN
         13   -1    0    0    0    0  0.00000000000E+00  0.00000000000E+00  0.74505805969E-08  0.10566000000E+00  0.10566000000E+00 0. -1.
     999900   -1    0    0    0    0 -0.00000000000E+00 -0.00000000000E+00 -0.74505805969E-08  0.93827000000E+00  0.93827000000E+00 0.  1.
     999902    2    1    2    0    0 -0.18624945570E-01  0.12431375223E-01  0.75971378202E-02  0.10202837701E+01  0.10200097192E+01 0.  0.
     999903    2    3    3    0    0  0.87752813528E-01  0.86999389157E-01 -0.35042976136E-01  0.12972507146E+00  0.18197087478E-01 0.  0.
         14    1    1    2    0    0  0.18624945570E-01 -0.12431375223E-01 -0.75971378202E-02  0.23646229942E-01  0.00000000000E+00 0.  1.
     999901    1    3    3    0    0 -0.10637775910E+00 -0.74568013933E-01  0.42640113956E-01  0.89055869860E+00  0.88000000000E+00 0. -1.
        -11    1    4    4    0    0  0.25074037049E-01  0.31183156815E-01 -0.18901827411E-01  0.44256488828E-01  0.51100000000E-03 0.  1.
         11    1    4    4    0    0  0.62678776479E-01  0.55816232342E-01 -0.16141148725E-01  0.85468582631E-01  0.51100000000E-03 0. -1.
</event>
<event>
 8    1  0.1117354E+005  0.1043930E+01  0.7957747E-01            NaN
         13   -1    0    0    0    0  0.00000000000E+00  0.00000000000E+00  0.74505805969E-08  0.10566000000E+00  0.10566000000E+00 0. -1.
     999900   -1    0    0    0    0 -0.00000000000E+00 -0.00000000000E+00 -0.74505805969E-08  0.93827000000E+00  0.93827000000E+00 0.  1.
     999902    2    1    2    0    0  0.11876367431E-01 -0.55047770718E-02  0.20139159292E-01  0.10199104994E+01  0.10196276233E+01 0.  0.
     999903    2    3    3    0    0  0.63301049947E-01 -0.10751350010E+00  0.37393093498E-01  0.13235882436E+00  0.23546535165E-01 0.  0.
         14    1    1    2    0    0 -0.11876367431E-01  0.55047770718E-02 -0.20139159292E-01  0.24019500639E-01  0.00000000000E+00 0.  1.
     999901    1    3    3    0    0 -0.51424682516E-01  0.10200872302E+00 -0.17253934206E-01  0.88755167500E+00  0.88000000000E+00 0. -1.
        -11    1    4    4    0    0  0.39292563267E-01 -0.50385465131E-01  0.27668270687E-01  0.69630416833E-01  0.51100000000E-03 0. -1.
         11    1    4    4    0    0  0.24008486680E-01 -0.57128034964E-01  0.97248228118E-02  0.62728407530E-01  0.51100000000E-03 0.  1.
</event>
<event>
 8    1  0.1117354E+005  0.1043930E+01  0.7957747E-01            NaN
         13   -1    0    0    0    0  0.00000000000E+00  0.00000000000E+00  0.74505805969E-08  0.10566000000E+00  0.10566000000E+00 0.  1.
     999900   -1    0    0    0    0 -0.00000000000E+00 -0.00000000000E+00 -0.74505805969E-08  0.93827000000E+00  0.93827000000E+00 0.  1.
     999902    2    1    2    0    0 -0.22757614192E-02 -0.14163989876E-01 -0.18553614424E-01  0.10204771898E+01  0.10202076556E+01 0.  0.
     999903    2    3    3    0    0 -0.20279231134E-01 -0.10249950744E+00 -0.82578801338E-01  0.13355751295E+00  0.10047616256E-01 0.  0.
         14    1    1    2    0    0  0.22757614192E-02  0.14163989876E-01  0.18553614424E-01  0.23452810225E-01  0.00000000000E+00 0. -1.
     999901    1    3    3    0    0  0.18003469715E-01  0.88335517569E-01  0.64025186914E-01  0.88691967683E+00  0.88000000000E+00 0. -1.
        -11    1    4    4    0    0 -0.95846352465E-02 -0.59076049408E-01 -0.52935031695E-01  0.79901336334E-01  0.51100000000E-03 0. -1.
         11    1    4    4    0    0 -0.10694595887E-01 -0.43423458037E-01 -0.29643769643E-01  0.53656176613E-01  0.51100000000E-03 0.  1.
</event>
<event>
 8    1  0.1117354E+005  0.1043930E+01  0.7957747E-01            NaN
         13   -1    0    0    0    0  0.00000000000E+00  0.00000000000E+00  0.74505805969E-08  0.10566000000E+00  0.10566000000E+00 0. -1.
     999900   -1    0    0    0    0 -0.00000000000E+00 -0.00000000000E+00 -0.74505805969E-08  0.93827000000E+00  0.93827000000E+00 0.  1.
     999902    2    1    2    0    0 -0.64575416574E-02  0.89279758740E-02  0.20479657468E-01  0.10206743562E+01  0.10204093867E+01 0.  0.
     999903    2    3    3    0    0 -0.65471164573E-01  0.95601791805E-01  0.63235551232E-01  0.13341846049E+00  0.19379749063E-01 0.  0.
         14    1    1    2    0    0  0.64575416574E-02 -0.89279758740E-02 -0.20479657468E-01  0.23255643776E-01  0.00000000000E+00 0.  1.
     999901    1    3    3    0    0  0.59013622915E-01 -0.86673815931E-01 -0.42755893764E-01  0.88725589573E+00  0.88000000000E+00 0.  1.
        -11    1    4    4    0    0 -0.53180392474E-01  0.61927476434E-01  0.44045258589E-01  0.92754581593E-01  0.51100000000E-03 0. -1.
         11    1    4    4    0    0 -0.12290772098E-01  0.33674315371E-01  0.19190292642E-01  0.40663878900E-01  0.51100000000E-03 0.  1.
</event>
<event>
 8    1  0.1117354E+005  0.1043930E+01  0.7957747E-01            NaN
         13   -1    0    0    0    0  0.00000000000E+00  0.00000000000E+00  0.74505805969E-08  0.10566000000E+00  0.10566000000E+00 0.  1.
     999900   -1    0    0    0    0 -0.00000000000E+00 -0.00000000000E+00 -0.74505805969E-08  0.93827000000E+00  0.93827000000E+00 0. -1.
     999902    2    1    2    0    0 -0.13602430430E-01 -0.22222026182E-01  0.76253904842E-02  0.10167824192E+01  0.10164199412E+01 0.  0.
     999903    2    3    3    0    0  0.30543156094E-01  0.88100979873E-01  0.81809861987E-01  0.12570254948E+00  0.20337413520E-01 0.  0.
         14    1    1    2    0    0  0.13602430430E-01  0.22222026182E-01 -0.76253904842E-02  0.27147580762E-01  0.00000000000E+00 0. -1.
     999901    1    3    3    0    0 -0.44145586523E-01 -0.11032300605E+00 -0.74184471503E-01  0.89107986976E+00  0.88000000000E+00 0. -1.
        -11    1    4    4    0    0  0.28519905276E-01  0.53664843674E-01  0.48614169999E-01  0.77826082320E-01  0.51100000000E-03 0. -1.
         11    1    4    4    0    0  0.20232508171E-02  0.34436136199E-01  0.33195691988E-01  0.47876467160E-01  0.51100000000E-03 0.  1.
</event>
<event>
 8    1  0.1117354E+005  0.1043930E+01  0.7957747E-01            NaN
         13   -1    0    0    0    0  0.00000000000E+00  0.00000000000E+00  0.74505805969E-08  0.10566000000E+00  0.10566000000E+00 0. -1.
     999900   -1    0    0    0    0 -0.00000000000E+00 -0.00000000000E+00 -0.74505805969E-08  0.93827000000E+00  0.93827000000E+00 0.  1.
     999902    2    1    2    0    0 -0.21336090842E-01  0.18317577518E-02  0.97444603921E-02  0.10204025986E+01  0.10201313271E+01 0.  0.
     999903    2    3    3    0    0 -0.11892808675E+00 -0.49213206622E-01  0.28012435655E-01  0.13334932794E+00  0.20772991716E-01 0.  0.
         14    1    1    2    0    0  0.21336090842E-01 -0.18317577518E-02 -0.97444603921E-02  0.23527401412E-01  0.00000000000E+00 0.  1.
     999901    1    3    3    0    0  0.97591995912E-01  0.51044964374E-01 -0.18267975263E-01  0.88705327065E+00  0.88000000000E+00 0.  1.
        -11    1    4    4    0    0 -0.39297689262E-01 -0.59820709580E-02  0.77794468980E-02  0.40507708764E-01  0.51100000000E-03 0. -1.
         11    1    4    4    0    0 -0.79630397492E-01 -0.43231135664E-01  0.20232988757E-01  0.92841619172E-01  0.51100000000E-03 0.  1.
</event>
<event>
 8    1  0.1117354E+005  0.1043930E+01  0.7957747E-01            NaN
         13   -1    0    0    0    0  0.00000000000E+00  0.00000000000E+00  0.74505805969E-08  0.10566000000E+00  0.10566000000E+00 0. -1.
     999900   -1    0    0    0    0 -0.00000000000E+00 -0.00000000000E+00 -0.74505805969E-08  0.93827000000E+00  0.93827000000E+00 0.  1.
     999902    2    1    2    0    0  0.20498635176E-01 -0.11743976019E-01  0.68524763442E-02  0.10193317999E+01  0.10190349586E+01 0.  0.
     999903    2    3    3    0    0 -0.18506042055E-01  0.45618388988E-02  0.12729887015E+00  0.13012171322E+00  0.19062369796E-01 0.  0.
         14    1    1    2    0    0 -0.20498635176E-01  0.11743976019E-01 -0.68524763442E-02  0.24598200114E-01  0.00000000000E+00 0. -1.
     999901    1    3    3    0    0  0.39004677231E-01 -0.16305814918E-01 -0.12044639381E+00  0.88921008667E+00  0.88000000000E+00 0.  1.
        -11    1    4    4    0    0 -0.99467679238E-02 -0.40311543748E-02  0.95194100381E-01  0.95798571316E-01  0.51100000000E-03 0. -1.
         11    1    4    4    0    0 -0.85592741308E-02  0.85929932736E-02  0.32104769772E-01  0.34323141904E-01  0.51100000000E-03 0.  1.
</event>
<event>
 8    1  0.1117354E+005  0.1043930E+01  0.7957747E-01            NaN
         13   -1    0    0    0    0  0.00000000000E+00  0.00000000000E+00  0.74505805969E-08  0.10566000000E+00  0.10566000000E+00 0.  1.
     999900   -1    0    0    0    0 -0.00000000000E+00 -0.00000000000E+00 -0.74505805969E-08  0.93827000000E+00  0.93827000000E+00 0. -1.
     999902    2    1    2    0    0 -0.17251382008E-02 -0.56413011649E-02 -0.22037508913E-01  0.10211165790E+01  0.10208617025E+01 0.  0.
     999903    2    3    3    0    0  0.48576669172E-01  0.10780197860E+00  0.48858370990E-01  0.12958650356E+00  0.20604905005E-01 0.  0.
         14    1    1    2    0    0  0.17251382008E-02  0.56413011649E-02  0.22037508913E-01  0.22813421044E-01  0.00000000000E+00 0.  1.
     999901    1    3    3    0    0 -0.50301807373E-01 -0.11344327977E+00 -0.70895879903E-01  0.89153007540E+00  0.88000000000E+00 0. -1.
        -11    1    4    4    0    0  0.14075837944E-01  0.17497462126E-01  0.32507309957E-02  0.22696228049E-01  0.51100000000E-03 0.  1.
         11    1    4    4    0    0  0.34500831228E-01  0.90304516478E-01  0.45607639995E-01  0.10689027551E+00  0.51100000000E-03 0. -1.
</event>
<event>
 8    1  0.1117354E+005  0.1043930E+01  0.7957747E-01            NaN
         13   -1    0    0    0    0  0.00000000000E+00  0.00000000000E+00  0.74505805969E-08  0.10566000000E+00  0.10566000000E+00 0. -1.
     999900   -1    0    0    0    0 -0.00000000000E+00 -0.00000000000E+00 -0.74505805969E-08  0.93827000000E+00  0.93827000000E+00 0. -1.
     999902    2    1    2    0    0 -0.86817900675E-02  0.13086614228E-01 -0.20031138299E-01  0.10184765238E+01  0.10181584111E+01 0.  0.
     999903    2    3    3    0    0  0.55539286469E-01 -0.37483018264E-01 -0.10972251723E+00  0.13014878140E+00  0.20250568210E-01 0.  0.
         14    1    1    2    0    0  0.86817900675E-02 -0.13086614228E-01  0.20031138299E-01  0.25453476231E-01  0.00000000000E+00 0. -1.
     999901    1    3    3    0    0 -0.64221076537E-01  0.50569632491E-01  0.89691378935E-01  0.88832774237E+00  0.88000000000E+00 0.  1.
        -11    1    4    4    0    0  0.13465351843E-01 -0.13053095436E-01 -0.48130262684E-01  0.51657354827E-01  0.51100000000E-03 0.  1.
         11    1    4    4    0    0  0.42073934627E-01 -0.24429922828E-01 -0.61592254550E-01  0.78491426576E-01  0.51100000000E-03 0. -1.
</event>
<event>
 8    1  0.1117354E+005  0.1043930E+01  0.7957747E-01            NaN
         13   -1    0    0    0    0  0.00000000000E+00  0.00000000000E+00  0.74505805969E-08  0.10566000000E+00  0.10566000000E+00 0.  1.
     999900   -1    0    0    0    0 -0.00000000000E+00 -0.00000000000E+00 -0.74505805969E-08  0.93827000000E+00  0.93827000000E+00 0. -1.
     999902    2    1    2    0    0 -0.10809169179E-01  0.16941771947E-01  0.15559635250E-01  0.10185141777E+01  0.10181970173E+01 0.  0.
     999903    2    3    3    0    0  0.79348327482E-01  0.25880041763E-01 -0.93944682319E-01  0.12711109128E+00  0.19123089597E-01 0.  0.
         14    1    1    2    0    0  0.10809169179E-01 -0.16941771947E-01 -0.15559635250E-01  0.25415822319E-01  0.00000000000E+00 0. -1.
     999901    1    3    3    0    0 -0.90157496661E-01 -0.89382698158E-02  0.10950431757E+00  0.89140308640E+00  0.88000000000E+00 0. -1.
        -11    1    4    4    0    0  0.12827017255E-01 -0.28162129505E-02 -0.15736751768E-01  0.20502924285E-01  0.51100000000E-03 0. -1.
         11    1    4    4    0    0  0.66521310228E-01  0.28696254713E-01 -0.78207930551E-01  0.10660816700E+00  0.51100000000E-03 0.  1.
</event>
<event>
 8    1  0.1117354E+005  0.1043930E+01  0.7957747E-01            NaN
         13   -1    0    0    0    0  0.00000000000E+00  0.00000000000E+00  0.74505805969E-08  0.10566000000E+00  0.10566000000E+00 0. -1.
     999900   -1    0    0    0    0 -0.00000000000E+00 -0.00000000000E+00 -0.74505805969E-08  0.93827000000E+00  0.93827000000E+00 0. -1.
     999902    2    1    2    0    0 -0.95511309801E-02 -0.89504642648E-02 -0.20581348015E-01  0.10195388787E+01  0.10192470742E+01 0.  0.
     999903    2    3    3    0    0 -0.80709051522E-01  0.28902387102E-01  0.93476973138E-01  0.12852508044E+00  0.20771442357E-01 0.  0.
         14    1    1    2    0    0  0.95511309801E-02  0.89504642648E-02  0.20581348015E-01  0.24391121329E-01  0.00000000000E+00 0. -1.
     999901    1    3    3    0    0  0.71157920542E-01 -0.37852851367E-01 -0.11405832115E+00  0.89101379823E+00  0.88000000000E+00 0. -1.
        -11    1    4    4    0    0 -0.38237468377E-01  0.27864724618E-02  0.39948981825E-01  0.55371930493E-01  0.51100000000E-03 0. -1.
         11    1    4    4    0    0 -0.42471583145E-01  0.26115914640E-01  0.53527991313E-01  0.73153149948E-01  0.51100000000E-03 0.  1.
</event>
<event>
 8    1  0.1117354E+005  0.1043930E+01  0.7957747E-01            NaN
         13   -1    0    0    0    0  0.00000000000E+00  0.00000000000E+00  0.74505805969E-08  0.10566000000E+00  0.10566000000E+00 0.  1.
     999900   -1    0    0    0    0 -0.00000000000E+00 -0.00000000000E+00 -0.74505805969E-08  0.93827000000E+00  0.93827000000E+00 0.  1.
     999902    2    1    2    0    0 -0.18212617877E-01 -0.19221498355E-02 -0.15061559800E-01  0.10202183005E+01  0.10199427121E+01 0.  0.
     999903    2    3    3    0    0 -0.98888548554E-01 -0.78702919111E-01  0.32401003196E-01  0.13192972846E+00  0.19558469551E-01 0.  0.
         14    1    1    2    0    0  0.18212617877E-01  0.19221498355E-02  0.15061559800E-01  0.23711699507E-01  0.00000000000E+00 0.  1.
     999901    1    3    3    0    0  0.80675930677E-01  0.76780769275E-01 -0.47462562997E-01  0.88828857203E+00  0.88000000000E+00 0.  1.
        -11    1    4    4    0    0 -0.26376886154E-01 -0.20695661298E-01  0.17690925015E-01  0.37911482016E-01  0.51100000000E-03 0. -1.
         11    1    4    4    0    0 -0.72511662399E-01 -0.58007257813E-01  0.14710078181E-01  0.94018246442E-01  0.51100000000E-03 0.  1.
</event>
<event>
 8    1  0.1117354E+005  0.1043930E+01  0.7957747E-01            NaN
         13   -1    0    0    0    0  0.00000000000E+00  0.00000000000E+00  0.74505805969E-08  0.10566000000E+00  0.10566000000E+00 0.  1.
     999900   -1    0    0    0    0 -0.00000000000E+00 -0.00000000000E+00 -0.74505805969E-08  0.93827000000E+00  0.93827000000E+00 0. -1.
     999902    2    1    2    0    0  0.20273370576E-01 -0.10102565177E-01 -0.10357458434E-01  0.10190232073E+01  0.10187187780E+01 0.  0.
     999903    2    3    3    0    0  0.74468738562E-01 -0.56265423074E-01 -0.91937024365E-01  0.13238722058E+00  0.19041241216E-01 0.  0.
         14    1    1    2    0    0 -0.20273370576E-01  0.10102565177E-01  0.10357458434E-01  0.24906792706E-01  0.00000000000E+00 0. -1.
     999901    1    3    3    0    0 -0.54195367986E-01  0.46162857896E-01  0.81579565931E-01  0.88663598671E+00  0.88000000000E+00 0.  1.
        -11    1    4    4    0    0  0.40213532114E-01 -0.29177210449E-01 -0.61929861025E-01  0.79397774416E-01  0.51100000000E-03 0. -1.
         11    1    4    4    0    0  0.34255206448E-01 -0.27088212625E-01 -0.30007163340E-01  0.52989446163E-01  0.51100000000E-03 0.  1.
</event>
<event>
 8    1  0.1117354E+005  0.1043930E+01  0.7957747E-01            NaN
         13   -1    0    0    0    0  0.00000000000E+00  0.00000000000E+00  0.74505805969E-08  0.10566000000E+00  0.10566000000E+00 0. -1.
     999900   -1    0    0    0    0 -0.00000000000E+00 -0.00000000000E+00 -0.74505805969E-08  0.93827000000E+00  0.93827000000E+00 0. -1.
     999902    2    1    2    0    0  0.12246105927E-01  0.15978123135E-01  0.13738002860E-01  0.10195578796E+01  0.10192665351E+01 0.  0.
     999903    2    3    3    0    0 -0.10212794642E+00 -0.66530907357E-01 -0.30385647533E-01  0.12723727553E+00  0.20237530326E-01 0.  0.
         14    1    1    2    0    0 -0.12246105927E-01 -0.15978123135E-01 -0.13738002860E-01  0.24372120382E-01  0.00000000000E+00 0. -1.
     999901    1    3    3    0    0  0.11437405235E+00  0.82509030493E-01  0.44123650394E-01  0.89232060409E+00  0.88000000000E+00 0.  1.
        -11    1    4    4    0    0 -0.31048762506E-01 -0.11691506027E-01 -0.13824629401E-01  0.35945771175E-01  0.51100000000E-03 0.  1.
         11    1    4    4    0    0 -0.71079183914E-01 -0.54839401330E-01 -0.16561018133E-01  0.91291504351E-01  0.51100000000E-03 0. -1.
</event>
<event>
 8    1  0.1117354E+005  0.1043930E+01  0.7957747E-01            NaN
         13   -1    0    0    0    0  0.00000000000E+00  0.00000000000E+00  0.74505805969E-08  0.10566000000E+00  0.10566000000E+00 0. -1.
     999900   -1    0    0    0    0 -0.00000000000E+00 -0.00000000000E+00 -0.74505805969E-08  0.93827000000E+00  0.93827000000E+00 0. -1.
     999902    2    1    2    0    0  0.14493600269E-01 -0.39428196907E-02 -0.18894692046E-01  0.10197924843E+01  0.10195067883E+01 0.  0.
     999903    2    3    3    0    0 -0.23658092250E-02  0.11309844084E+00 -0.62380133546E-01  0.13081898641E+00  0.20626967077E-01 0.  0.
         14    1    1    2    0    0 -0.14493600269E-01  0.39428196907E-02  0.18894692046E-01  0.24137515684E-01  0.00000000000E+00 0. -1.
     999901    1    3    3    0    0  0.16859409494E-01 -0.11704126053E+00  0.43485441500E-01  0.88897349790E+00  0.88000000000E+00 0.  1.
        -11    1    4    4    0    0  0.85983873043E-02  0.31580458524E-01 -0.17964796514E-01  0.37339692816E-01  0.51100000000E-03 0.  1.
         11    1    4    4    0    0 -0.10964196529E-01  0.81517982316E-01 -0.44415337031E-01  0.93479293595E-01  0.51100000000E-03 0. -1.
</event>
<event>
 8    1  0.1117354E+005  0.1043930E+01  0.7957747E-01            NaN
         13   -1    0    0    0    0  0.00000000000E+00  0.00000000000E+00  0.74505805969E-08  0.10566000000E+00  0.10566000000E+00 0.  1.
     999900   -1    0    0    0    0 -0.00000000000E+00 -0.00000000000E+00 -0.74505805969E-08  0.93827000000E+00  0.93827000000E+00 0.  1.
     999902    2    1    2    0    0 -0.20341673799E-01  0.11486661617E-01  0.47415745960E-02  0.10200928521E+01  0.10198143053E+01 0.  0.
     999903    2    3    3    0    0 -0.11581648775E+00  0.61508235472E-01 -0.14102477344E-01  0.13331627587E+00  0.19432644641E-01 0.  0.
         14    1    1    2    0    0  0.20341673799E-01 -0.11486661617E-01 -0.47415745960E-02  0.23837147852E-01  0.00000000000E+00 0. -1.
     999901    1    3    3    0    0  0.95474813951E-01 -0.50021573855E-01  0.18844051940E-01  0.88677657628E+00  0.88000000000E+00 0. -1.
        -11    1    4    4    0    0 -0.93960293060E-01  0.47069865030E-01 -0.37911440986E-02  0.10516055706E+00  0.51100000000E-03 0. -1.
         11    1    4    4    0    0 -0.21856194691E-01  0.14438370442E-01 -0.10311333246E-01  0.28155718810E-01  0.51100000000E-03 0.  1.
</event>
<event>
 8    1  0.1117354E+005  0.1043930E+01  0.7957747E-01            NaN
         13   -1    0    0    0    0  0.00000000000E+00  0.00000000000E+00  0.74505805969E-08  0.10566000000E+00  0.10566000000E+00 0.  1.
     999900   -1    0    0    0    0 -0.00000000000E+00 -0.00000000000E+00 -0.74505805969E-08  0.93827000000E+00  0.93827000000E+00 0. -1.
     999902    2    1    2    0    0  0.22058825496E-01 -0.36579571170E-03  0.86457127087E-02  0.10202345587E+01  0.10199593526E+01 0.  0.
     999903    2    3    3    0    0  0.18606000634E-01 -0.50063841876E-01  0.11906567699E+00  0.13193596799E+00  0.19439462190E-01 0.  0.
         14    1    1    2    0    0 -0.22058825496E-01  0.36579571170E-03 -0.86457127087E-02  0.23695441270E-01  0.00000000000E+00 0.  1.
     999901    1    3    3    0    0  0.34528248612E-02  0.49698046164E-01 -0.11041996428E+00  0.88829859074E+00  0.88000000000E+00 0. -1.
        -11    1    4    4    0    0  0.16103182484E-01 -0.51350822020E-01  0.11058391381E+00  0.12298488738E+00  0.51100000000E-03 0. -1.
         11    1    4    4    0    0  0.25028181508E-02  0.12869801441E-02  0.84817631758E-02  0.89510806140E-02  0.51100000000E-03 0.  1.
</event>
<event>
 8    1  0.1117354E+005  0.1043930E+01  0.7957747E-01            NaN
         13   -1    0    0    0    0  0.00000000000E+00  0.00000000000E+00  0.74505805969E-08  0.10566000000E+00  0.10566000000E+00 0. -1.
     999900   -1    0    0    0    0 -0.00000000000E+00 -0.00000000000E+00 -0.74505805969E-08  0.93827000000E+00  0.93827000000E+00 0. -1.
     999902    2    1    2    0    0 -0.12783579083E-01  0.37654315775E-03  0.18547109537E-01  0.10214009754E+01  0.10211524840E+01 0.  0.
     999903    2    3    3    0    0  0.75195130313E-02  0.14905839220E-01  0.13137416403E+00  0.13384632340E+00  0.19414947724E-01 0.  0.
         14    1    1    2    0    0  0.12783579083E-01 -0.37654315775E-03 -0.18547109537E-01  0.22529024637E-01  0.00000000000E+00 0.  1.
     999901    1    3    3    0    0 -0.20303092114E-01 -0.14529296062E-01 -0.11282705449E+00  0.88755465196E+00  0.88000000000E+00 0. -1.
        -11    1    4    4    0    0 -0.44836902680E-02  0.12442499536E-01  0.62078531023E-01  0.63473808836E-01  0.51100000000E-03 0. -1.
         11    1    4    4    0    0  0.12003203299E-01  0.24633396837E-02  0.69295633004E-01  0.70372514565E-01  0.51100000000E-03 0.  1.
</event>
<event>
 8    1  0.1117354E+005  0.1043930E+01  0.7957747E-01            NaN
         13   -1    0    0    0    0  0.00000000000E+00  0.00000000000E+00  0.74505805969E-08  0.10566000000E+00  0.10566000000E+00 0.  1.
     999900   -1    0    0    0    0 -0.00000000000E+00 -0.00000000000E+00 -0.74505805969E-08  0.93827000000E+00  0.93827000000E+00 0. -1.
     999902    2    1    2    0    0 -0.10314776751E-01  0.17038726423E-01  0.13012059413E-01  0.10201386884E+01  0.10198612244E+01 0.  0.
     999903    2    3    3    0    0  0.52049204707E-01 -0.15259015470E-01  0.11767898012E+00  0.13115748803E+00  0.20297463882E-01 0.  0.
         14    1    1    2    0    0  0.10314776751E-01 -0.17038726423E-01 -0.13012059413E-01  0.23791311601E-01  0.00000000000E+00 0. -1.
     999901    1    3    3    0    0 -0.62363981459E-01  0.32297741893E-01 -0.10466692071E+00  0.88898120037E+00  0.88000000000E+00 0.  1.
        -11    1    4    4    0    0  0.20760164926E-01 -0.38649008930E-02  0.25298717671E-01  0.32957671997E-01  0.51100000000E-03 0.  1.
         11    1    4    4    0    0  0.31289039782E-01 -0.11394114577E-01  0.92380262452E-01  0.98199816035E-01  0.51100000000E-03 0. -1.
</event>
<event>
 8    1  0.1117354E+005  0.1043930E+01  0.7957747E-01            NaN
         13   -1    0    0    0    0  0.00000000000E+00  0.00000000000E+00  0.74505805969E-08  0.10566000000E+00  0.10566000000E+00 0. -1.
     999900   -1    0    0    0    0 -0.00000000000E+00 -0.00000000000E+00 -0.74505805969E-08  0.93827000000E+00  0.93827000000E+00 0.  1.
     999902    2    1    2    0    0  0.61152574308E-02  0.22882258801E-01 -0.47494558863E-02  0.10197731899E+01  0.10194870315E+01 0.  0.
     999903    2    3    3    0    0  0.96204705339E-01 -0.74748841386E-01 -0.38155841654E-01  0.12917567873E+00  0.19691447535E-01 0.  0.
         14    1    1    2    0    0 -0.61152574308E-02 -0.22882258801E-01  0.47494558863E-02  0.24156810065E-01  0.00000000000E+00 0. -1.
     999901    1    3    3    0    0 -0.90089447908E-01  0.97631100187E-01  0.33406385767E-01  0.89059751120E+00  0.88000000000E+00 0.  1.
        -11    1    4    4    0    0  0.37946343711E-01 -0.27729849817E-01 -0.49044428347E-02  0.47256578933E-01  0.51100000000E-03 0. -1.
         11    1    4    4    0    0  0.58258361628E-01 -0.47018991569E-01 -0.33251398819E-01  0.81919099801E-01  0.51100000000E-03 0.  1.
</event>
<event>
 8    1  0.1117354E+005  0.1043930E+01  0.7957747E-01            NaN
         13   -1    0    0    0    0  0.00000000000E+00  0.00000000000E+00  0.74505805969E-08  0.10566000000E+00  0.10566000000E+00 0. -1.
     999900   -1    0    0    0    0 -0.00000000000E+00 -0.00000000000E+00 -0.74505805969E-08  0.93827000000E+00  0.93827000000E+00 0. -1.
     999902    2    1    2    0    0 -0.14254971615E-03  0.28233470910E-01  0.65260333768E-02  0.10149517614E+01  0.10145379932E+01 0.  0.
     999903    2    3    3    0    0  0.29214831614E-01  0.11072481252E+00 -0.55409281840E-01  0.12844024961E+00  0.17697986106E-01 0.  0.
         14    1    1    2    0    0  0.14254971615E-03 -0.28233470910E-01 -0.65260333768E-02  0.28978238588E-01  0.00000000000E+00 0.  1.
     999901    1    3    3    0    0 -0.29357381331E-01 -0.82491341613E-01  0.61935315217E-01  0.88651151180E+00  0.88000000000E+00 0.  1.
        -11    1    4    4    0    0  0.89569398689E-02  0.64083285140E-01 -0.26332732261E-01  0.69861062943E-01  0.51100000000E-03 0.  1.
         11    1    4    4    0    0  0.20257891746E-01  0.46641527383E-01 -0.29076549579E-01  0.58579186671E-01  0.51100000000E-03 0. -1.
</event>
<event>
 8    1  0.1117354E+005  0.1043930E+01  0.7957747E-01            NaN
         13   -1    0    0    0    0  0.00000000000E+00  0.00000000000E+00  0.74505805969E-08  0.10566000000E+00  0.10566000000E+00 0.  1.
     999900   -1    0    0    0    0 -0.00000000000E+00 -0.00000000000E+00 -0.74505805969E-08  0.93827000000E+00  0.93827000000E+00 0.  1.
     999902    2    1    2    0    0 -0.62969033799E-02  0.19492230068E-01 -0.26147858478E-02  0.10232796942E+01  0.10230713061E+01 0.  0.
     999903    2    3    3    0    0  0.17227566718E-02 -0.12884006253E+00  0.45698088091E-02  0.13080089759E+00  0.22028664408E-01 0.  0.
         14    1    1    2    0    0  0.62969033799E-02 -0.19492230068E-01  0.26147858478E-02  0.20650305814E-01  0.00000000000E+00 0. -1.
     999901    1    3    3    0    0 -0.80196600517E-02  0.14833229259E+00 -0.71845946570E-02  0.89247879660E+00  0.88000000000E+00 0. -1.
        -11    1    4    4    0    0 -0.33689229104E-02 -0.47935385474E-01 -0.81505428509E-02  0.48742622949E-01  0.51100000000E-03 0. -1.
         11    1    4    4    0    0  0.50916795823E-02 -0.80904677051E-01  0.12720351660E-01  0.82058274641E-01  0.51100000000E-03 0.  1.
</event>
<event>
 8    1  0.1117354E+005  0.1043930E+01  0.7957747E-01            NaN
         13   -1    0    0    0    0  0.00000000000E+00  0.00000000000E+00  0.74505805969E-08  0.10566000000E+00  0.10566000000E+00 0.  1.
     999900   -1    0    0    0    0 -0.00000000000E+00 -0.00000000000E+00 -0.74505805969E-08  0.93827000000E+00  0.93827000000E+00 0.  1.
     999902    2    1    2    0    0 -0.19132533951E-01 -0.17111387350E-01 -0.42810859068E-02  0.10179072959E+01  0.10175746075E+01 0.  0.
     999903    2    3    3    0    0 -0.74656751243E-01  0.94688411374E-01 -0.40250209789E-01  0.12837038740E+00  0.17870400621E-01 0.  0.
         14    1    1    2    0    0  0.19132533951E-01  0.17111387350E-01  0.42810859068E-02  0.26022704106E-01  0.00000000000E+00 0. -1.
     999901    1    3    3    0    0  0.55524217293E-01 -0.11179979872E+00  0.35969123883E-01  0.88953690849E+00  0.88000000000E+00 0. -1.
        -11    1    4    4    0    0 -0.34254542140E-01  0.57578224180E-01 -0.23691426455E-01  0.71064550694E-01  0.51100000000E-03 0.  1.
         11    1    4    4    0    0 -0.40402209103E-01  0.37110187195E-01 -0.16558783335E-01  0.57305836706E-01  0.51100000000E-03 0. -1.
</event>
<event>
 8    1  0.1117354E+005  0.1043930E+01  0.7957747E-01            NaN
         13   -1    0    0    0    0  0.00000000000E+00  0.00000000000E+00  0.74505805969E-08  0.10566000000E+00  0.10566000000E+00 0.  1.
     999900   -1    0    0    0    0 -0.00000000000E+00 -0.00000000000E+00 -0.74505805969E-08  0.93827000000E+00  0.93827000000E+00 0. -1.
     999902    2    1    2    0    0 -0.12344397346E-02  0.18738917133E-01 -0.14704084595E-01  0.10200787744E+01  0.10197998946E+01 0.  0.
     999903    2    3    3    0    0 -0.12657321578E-03 -0.57881007403E-01 -0.11594427209E+00  0.13096606181E+00  0.18942230000E-01 0.  0.
         14    1    1    2    0    0  0.12344397346E-02 -0.18738917133E-01  0.14704084595E-01  0.23851225557E-01  0.00000000000E+00 0.  1.
     999901    1    3    3    0    0 -0.11078665188E-02  0.76619924536E-01  0.10124018749E+00  0.88911271263E+00  0.88000000000E+00 0.  1.
        -11    1    4    4    0    0 -0.83229959998E-02 -0.31396035573E-01 -0.52660230376E-01  0.61873615510E-01  0.51100000000E-03 0. -1.
         11    1    4    4    0    0  0.81964227840E-02 -0.26484971830E-01 -0.63284041711E-01  0.69092446299E-01  0.51100000000E-03 0.  1.
</event>
<event>
 8    1  0.1117354E+005  0.1043930E+01  0.7957747E-01            NaN
         13   -1    0    0    0    0  0.00000000000E+00  0.00000000000E+00  0.74505805969E-08  0.10566000000E+00  0.10566000000E+00 0.  1.
     999900   -1    0    0    0    0 -0.00000000000E+00 -0.00000000000E+00 -0.74505805969E-08  0.93827000000E+00  0.93827000000E+00 0.  1.
     999902    2    1    2    0    0  0.14559699313E-01  0.17115510809E-01 -0.71907493451E-02  0.10203369411E+01  0.10200641357E+01 0.  0.
     999903    2    3    3    0    0 -0.29051420271E-01  0.58519985905E-01  0.11105116125E+00  0.13039457790E+00  0.20045242890E-01 0.  0.
         14    1    1    2    0    0 -0.14559699313E-01 -0.17115510809E-01  0.71907493451E-02  0.23593058947E-01  0.00000000000E+00 0. -1.
     999901    1    3    3    0    0  0.43611119584E-01 -0.41404475096E-01 -0.11824191059E+00  0.88994236315E+00  0.88000000000E+00 0. -1.
        -11    1    4    4    0    0 -0.69744912746E-02  0.23010412767E-01  0.58401021561E-01  0.63159029953E-01  0.51100000000E-03 0. -1.
         11    1    4    4    0    0 -0.22076928996E-01  0.35509573138E-01  0.52650139684E-01  0.67235547950E-01  0.51100000000E-03 0.  1.
</event>
<event>
 8    1  0.1117354E+005  0.1043930E+01  0.7957747E-01            NaN
         13   -1    0    0    0    0  0.00000000000E+00  0.00000000000E+00  0.74505805969E-08  0.10566000000E+00  0.10566000000E+00 0. -1.
     999900   -1    0    0    0    0 -0.00000000000E+00 -0.00000000000E+00 -0.74505805969E-08  0.93827000000E+00  0.93827000000E+00 0. -1.
     999902    2    1    2    0    0 -0.13110755979E-01 -0.13900912869E-01 -0.10596672930E-01  0.10220801309E+01  0.10218465527E+01 0.  0.
     999903    2    3    3    0    0  0.73587825300E-01 -0.89598576565E-01 -0.61813287807E-01  0.13310885923E+00  0.21307578472E-01 0.  0.
         14    1    1    2    0    0  0.13110755979E-01  0.13900912869E-01  0.10596672930E-01  0.21849869064E-01  0.00000000000E+00 0. -1.
     999901    1    3    3    0    0 -0.86698581280E-01  0.75697663696E-01  0.51216614877E-01  0.88897127171E+00  0.88000000000E+00 0.  1.
        -11    1    4    4    0    0  0.28605809373E-01 -0.50759467749E-01 -0.26855053547E-01  0.64158171093E-01  0.51100000000E-03 0.  1.
         11    1    4    4    0    0  0.44982015928E-01 -0.38839108815E-01 -0.34958234259E-01  0.68950688133E-01  0.51100000000E-03 0. -1.
</event>
<event>
 8    1  0.1117354E+005  0.1043930E+01  0.7957747E-01            NaN
         13   -1    0    0    0    0  0.00000000000E+00  0.00000000000E+00  0.74505805969E-08  0.10566000000E+00  0.10566000000E+00 0. -1.
     999900   -1    0    0    0    0 -0.00000000000E+00 -0.00000000000E+00 -0.74505805969E-08  0.93827000000E+00  0.93827000000E+00 0.  1.
     999902    2    1    2    0    0 -0.18849065940E-01 -0.15079148006E-01 -0.48736246157E-02  0.10193043993E+01  0.10190068882E+01 0.  0.
     999903    2    3    3    0    0 -0.97815434058E-01  0.14412252192E-02  0.85110401163E-01  0.13104445150E+00  0.18945490566E-01 0.  0.
         14    1    1    2    0    0  0.18849065940E-01  0.15079148006E-01  0.48736246157E-02  0.24625600669E-01  0.00000000000E+00 0. -1.
     999901    1    3    3    0    0  0.78966368118E-01 -0.16520373225E-01 -0.89984025779E-01  0.88825994783E+00  0.88000000000E+00 0.  1.
        -11    1    4    4    0    0 -0.29999318083E-01  0.21996127122E-02  0.15445032459E-01  0.33817266746E-01  0.51100000000E-03 0.  1.
         11    1    4    4    0    0 -0.67816115975E-01 -0.75838749292E-03  0.69665368704E-01  0.97227184754E-01  0.51100000000E-03 0. -1.
</event>
<event>
 8    1  0.1117354E+005  0.1043930E+01  0.7957747E-01            NaN
         13   -1    0    0    0    0  0.00000000000E+00  0.00000000000E+00  0.74505805969E-08  0.10566000000E+00  0.10566000000E+00 0.  1.
     999900   -1    0    0    0    0 -0.00000000000E+00 -0.00000000000E+00 -0.74505805969E-08  0.93827000000E+00  0.93827000000E+00 0.  1.
     999902    2    1    2    0    0  0.14482750200E-02  0.24054927644E-01 -0.71789054909E-02  0.10187849462E+01  0.10184745912E+01 0.  0.
     999903    2    3    3    0    0  0.98701036276E-02 -0.35493547124E-01  0.12046071620E+00  0.12754489941E+00  0.19992658303E-01 0.  0.
         14    1    1    2    0    0 -0.14482750200E-02 -0.24054927644E-01  0.71789054909E-02  0.25145053759E-01  0.00000000000E+00 0.  1.
     999901    1    3    3    0    0 -0.84218286076E-02  0.59548474769E-01 -0.12763962169E+00  0.89124004683E+00  0.88000000000E+00 0.  1.
        -11    1    4    4    0    0  0.70374201937E-02 -0.28597895731E-01  0.11374893429E+00  0.11750083445E+00  0.51100000000E-03 0. -1.
         11    1    4    4    0    0  0.28326834340E-02 -0.68956513934E-02  0.67117819055E-02  0.10044064960E-01  0.51100000000E-03 0.  1.
</event>
<event>
 8    1  0.1117354E+005  0.1043930E+01  0.7957747E-01            NaN
         13   -1    0    0    0    0  0.00000000000E+00  0.00000000000E+00  0.74505805969E-08  0.10566000000E+00  0.10566000000E+00 0.  1.
     999900   -1    0    0    0    0 -0.00000000000E+00 -0.00000000000E+00 -0.74505805969E-08  0.93827000000E+00  0.93827000000E+00 0. -1.
     999902    2    1    2    0    0 -0.10577755845E-01 -0.19273519659E-01 -0.41721194296E-02  0.10215522419E+01  0.10213071129E+01 0.  0.
     999903    2    3    3    0    0  0.84142321401E-01 -0.61739178060E-01 -0.78784792558E-01  0.13231533520E+00  0.20215044711E-01 0.  0.
         14    1    1    2    0    0  0.10577755845E-01  0.19273519659E-01  0.41721194296E-02  0.22377758138E-01  0.00000000000E+00 0. -1.
     999901    1    3    3    0    0 -0.94720077246E-01  0.42465658401E-01  0.74612673128E-01  0.88923690666E+00  0.88000000000E+00 0.  1.
        -11    1    4    4    0    0  0.44094619679E-01 -0.20325865192E-01 -0.39354066028E-01  0.62501839288E-01  0.51100000000E-03 0. -1.
         11    1    4    4    0    0  0.40047701722E-01 -0.41413312868E-01 -0.39430726530E-01  0.69813495913E-01  0.51100000000E-03 0.  1.
</event>
<event>
 8    1  0.1117354E+005  0.1043930E+01  0.7957747E-01            NaN
         13   -1    0    0    0    0  0.00000000000E+00  0.00000000000E+00  0.74505805969E-08  0.10566000000E+00  0.10566000000E+00 0. -1.
     999900   -1    0    0    0    0 -0.00000000000E+00 -0.00000000000E+00 -0.74505805969E-08  0.93827000000E+00  0.93827000000E+00 0.  1.
     999902    2    1    2    0    0  0.15582705995E-01  0.22959409072E-01 -0.15450863504E-01  0.10121702082E+01  0.10116718075E+01 0.  0.
     999903    2    3    3    0    0 -0.52159334856E-01 -0.10645183365E+00 -0.71065548625E-02  0.12009068187E+00  0.17851600748E-01 0.  0.
         14    1    1    2    0    0 -0.15582705995E-01 -0.22959409072E-01  0.15450863504E-01  0.31759791783E-01  0.00000000000E+00 0. -1.
     999901    1    3    3    0    0  0.67742040851E-01  0.12941124272E+00 -0.83443086416E-02  0.89207952635E+00  0.88000000000E+00 0. -1.
        -11    1    4    4    0    0 -0.30604698119E-01 -0.47574562284E-01 -0.94075710907E-02  0.57347624522E-01  0.51100000000E-03 0. -1.
         11    1    4    4    0    0 -0.21554636737E-01 -0.58877271369E-01  0.23010162281E-02  0.62743057348E-01  0.51100000000E-03 0.  1.
</event>
<event>
 8    1  0.1117354E+005  0.1043930E+01  0.7957747E-01            NaN
         13   -1    0    0    0    0  0.00000000000E+00  0.00000000000E+00  0.74505805969E-08  0.10566000000E+00  0.10566000000E+00 0.  1.
     999900   -1    0    0    0    0 -0.00000000000E+00 -0.00000000000E+00 -0.74505805969E-08  0.93827000000E+00  0.93827000000E+00 0.  1.
     999902    2    1    2    0    0 -0.14187589105E-01 -0.27153342998E-02  0.18826809390E-01  0.10202000721E+01  0.10199240549E+01 0.  0.
     999903    2    3    3    0    0  0.82990020199E-01 -0.23624396524E-01  0.96358429188E-01  0.13121647908E+00  0.22076275590E-01 0.  0.
         14    1    1    2    0    0  0.14187589105E-01  0.27153342998E-02 -0.18826809390E-01  0.23729927871E-01  0.00000000000E+00 0. -1.
     999901    1    3    3    0    0 -0.97177609304E-01  0.20909062224E-01 -0.77531619797E-01  0.88898359304E+00  0.88000000000E+00 0.  1.
        -11    1    4    4    0    0  0.29017082708E-01 -0.15820637013E-01  0.48294923069E-01  0.58523024184E-01  0.51100000000E-03 0. -1.
         11    1    4    4    0    0  0.53972937491E-01 -0.78037595110E-02  0.48063506119E-01  0.72693454901E-01  0.51100000000E-03 0.  1.
</event>
<event>
 7    1  0.1117354E+005  0.1043930E+01  0.7957747E-01            NaN
         13   -1    0    0    0    0  0.00000000000E+00  0.00000000000E+00  0.74505805969E-08  0.10566000000E+00  0.10566000000E+00 0.  1.
     999900   -1    0    0    0    0 -0.00000000000E+00 -0.00000000000E+00 -0.74505805969E-08  0.93827000000E+00  0.93827000000E+00 0. -1.
     999903    2    1    2    0    0  0.89549408042E-01  0.94625095984E-02  0.19369288267E-01  0.94273731926E-01  0.20093074297E-01 0.  0.
         14    1    1    2    0    0  0.30326727072E-01  0.91109698990E-02  0.49398910316E-01  0.58676847971E-01  0.00000000000E+00 0.  1.
     999901    1    1    2    0    0 -0.11987613511E+00 -0.18573479497E-01 -0.68768198583E-01  0.89097942010E+00  0.88000000000E+00 0. -1.
        -11    1    3    3    0    0  0.68403111905E-01  0.28829983072E-02  0.67963028316E-02  0.68802240158E-01  0.51100000000E-03 0. -1.
         11    1    3    3    0    0  0.21146296137E-01  0.65795112912E-02  0.12572985435E-01  0.25471491768E-01  0.51100000000E-03 0.  1.
</event>
<event>
 8    1  0.1117354E+005  0.1043930E+01  0.7957747E-01            NaN
         13   -1    0    0    0    0  0.00000000000E+00  0.00000000000E+00  0.74505805969E-08  0.10566000000E+00  0.10566000000E+00 0. -1.
     999900   -1    0    0    0    0 -0.00000000000E+00 -0.00000000000E+00 -0.74505805969E-08  0.93827000000E+00  0.93827000000E+00 0.  1.
     999902    2    1    2    0    0  0.54511930685E-02  0.15890593977E-01  0.16625020460E-01  0.10202949035E+01  0.10200211136E+01 0.  0.
     999903    2    3    3    0    0  0.94429000990E-01 -0.22681006950E-01 -0.83024382952E-01  0.12937693738E+00  0.20348942393E-01 0.  0.
         14    1    1    2    0    0 -0.54511930685E-02 -0.15890593977E-01 -0.16625020460E-01  0.23635096532E-01  0.00000000000E+00 0.  1.
     999901    1    3    3    0    0 -0.88977807922E-01  0.38571600927E-01  0.99649403412E-01  0.89091796609E+00  0.88000000000E+00 0.  1.
        -11    1    4    4    0    0  0.67774735049E-01 -0.16233069809E-01 -0.46836396381E-01  0.83969258739E-01  0.51100000000E-03 0.  1.
         11    1    4    4    0    0  0.26654265942E-01 -0.64479371414E-02 -0.36187986572E-01  0.45407678639E-01  0.51100000000E-03 0. -1.
</event>
<event>
 8    1  0.1117354E+005  0.1043930E+01  0.7957747E-01            NaN
         13   -1    0    0    0    0  0.00000000000E+00  0.00000000000E+00  0.74505805969E-08  0.10566000000E+00  0.10566000000E+00 0. -1.
     999900   -1    0    0    0    0 -0.00000000000E+00 -0.00000000000E+00 -0.74505805969E-08  0.93827000000E+00  0.93827000000E+00 0. -1.
     999902    2    1    2    0    0 -0.13318855159E-01 -0.14641378014E-01  0.12208473939E-01  0.10206747062E+01  0.10204097448E+01 0.  0.
     999903    2    3    3    0    0 -0.34389519083E-01  0.11955451198E+00  0.29892773901E-01  0.13007645547E+00  0.23460306478E-01 0.  0.
         14    1    1    2    0    0  0.13318855159E-01  0.14641378014E-01 -0.12208473939E-01  0.23255293780E-01  0.00000000000E+00 0. -1.
     999901    1    3    3    0    0  0.21070663924E-01 -0.13419588999E+00 -0.17684299962E-01  0.89059825075E+00  0.88000000000E+00 0. -1.
        -11    1    4    4    0    0 -0.95957178887E-02  0.43530559601E-01  0.22028343938E-01  0.49724204153E-01  0.51100000000E-03 0. -1.
         11    1    4    4    0    0 -0.24793801194E-01  0.76023952376E-01  0.78644299622E-02  0.80352251319E-01  0.51100000000E-03 0.  1.
</event>
<event>
 8    1  0.1117354E+005  0.1043930E+01  0.7957747E-01            NaN
         13   -1    0    0    0    0  0.00000000000E+00  0.00000000000E+00  0.74505805969E-08  0.10566000000E+00  0.10566000000E+00 0. -1.
     999900   -1    0    0    0    0 -0.00000000000E+00 -0.00000000000E+00 -0.74505805969E-08  0.93827000000E+00  0.93827000000E+00 0. -1.
     999902    2    1    2    0    0  0.18877552637E-01  0.14172596893E-01 -0.39219142997E-03  0.10203211392E+01  0.10200479639E+01 0.  0.
     999903    2    3    3    0    0  0.12234263113E+00 -0.37447676495E-01  0.27211012500E-01  0.13232811443E+00  0.20006069090E-01 0.  0.
         14    1    1    2    0    0 -0.18877552637E-01 -0.14172596893E-01  0.39219142997E-03  0.23608860844E-01  0.00000000000E+00 0. -1.
     999901    1    3    3    0    0 -0.10346507850E+00  0.51620273388E-01 -0.27603203930E-01  0.88799302472E+00  0.88000000000E+00 0. -1.
        -11    1    4    4    0    0  0.47977589830E-01 -0.51684372057E-02  0.13461676437E-01  0.50100296631E-01  0.51100000000E-03 0. -1.
         11    1    4    4    0    0  0.74365041302E-01 -0.32279239290E-01  0.13749336063E-01  0.82227817800E-01  0.51100000000E-03 0.  1.
</event>
<event>
 8    1  0.1117354E+005  0.1043930E+01  0.7957747E-01            NaN
         13   -1    0    0    0    0  0.00000000000E+00  0.00000000000E+00  0.74505805969E-08  0.10566000000E+00  0.10566000000E+00 0.  1.
     999900   -1    0    0    0    0 -0.00000000000E+00 -0.00000000000E+00 -0.74505805969E-08  0.93827000000E+00  0.93827000000E+00 0.  1.
     999902    2    1    2    0    0 -0.20277286876E-01 -0.69960379045E-02 -0.10303524314E-01  0.10201334557E+01  0.10198558682E+01 0.  0.
     999903    2    3    3    0    0  0.77044507798E-01 -0.78549723533E-01  0.63965640960E-01  0.12878202633E+00  0.19679731557E-01 0.  0.
         14    1    1    2    0    0  0.20277286876E-01  0.69960379045E-02  0.10303524314E-01  0.23796544343E-01  0.00000000000E+00 0. -1.
     999901    1    3    3    0    0 -0.97321794674E-01  0.71553685629E-01 -0.74269165274E-01  0.89135142932E+00  0.88000000000E+00 0.  1.
        -11    1    4    4    0    0  0.12003991740E-01 -0.23573432214E-01  0.18047179544E-01  0.32027555863E-01  0.51100000000E-03 0. -1.
         11    1    4    4    0    0  0.65040516058E-01 -0.54976291319E-01  0.45918461416E-01  0.96754470471E-01  0.51100000000E-03 0.  1.
</event>
<event>
 8    1  0.1117354E+005  0.1043930E+01  0.7957747E-01            NaN
         13   -1    0    0    0    0  0.00000000000E+00  0.00000000000E+00  0.74505805969E-08  0.10566000000E+00  0.10566000000E+00 0. -1.
     999900   -1    0    0    0    0 -0.00000000000E+00 -0.00000000000E+00 -0.74505805969E-08  0.93827000000E+00  0.93827000000E+00 0.  1.
     999902    2    1    2    0    0 -0.16625626783E-01  0.11362247734E-01 -0.12904142416E-01  0.10200128716E+01  0.10197324302E+01 0.  0.
     999903    2    3    3    0    0 -0.12302573837E+00 -0.35033359729E-01  0.24283673179E-01  0.13161179676E+00  0.19217171182E-01 0.  0.
         14    1    1    2    0    0  0.16625626783E-01 -0.11362247734E-01  0.12904142416E-01  0.23917128402E-01  0.00000000000E+00 0. -1.
     999901    1    3    3    0    0  0.10640011159E+00  0.46395607463E-01 -0.37187815595E-01  0.88840107483E+00  0.88000000000E+00 0. -1.
        -11    1    4    4    0    0 -0.54007530578E-01 -0.74543252128E-02  0.16025247254E-01  0.56828249965E-01  0.51100000000E-03 0. -1.
         11    1    4    4    0    0 -0.69018207795E-01 -0.27579034516E-01  0.82584259243E-02  0.74783546799E-01  0.51100000000E-03 0.  1.
</event>
<event>
 8    1  0.1117354E+005  0.1043930E+01  0.7957747E-01            NaN
         13   -1    0    0    0    0  0.00000000000E+00  0.00000000000E+00  0.74505805969E-08  0.10566000000E+00  0.10566000000E+00 0.  1.
     999900   -1    0    0    0    0 -0.00000000000E+00 -0.00000000000E+00 -0.74505805969E-08  0.93827000000E+00  0.93827000000E+00 0.  1.
     999902    2    1    2    0    0  0.19092301933E-01 -0.31084868477E-02 -0.14703173182E-01  0.10196326342E+01  0.10193430957E+01 0.  0.
     999903    2    3    3    0    0 -0.36665399123E-02  0.41434134449E-01  0.11944227080E+00  0.12806266490E+00  0.20083801343E-01 0.  0.
         14    1    1    2    0    0 -0.19092301933E-01  0.31084868477E-02  0.14703173182E-01  0.24297365808E-01  0.00000000000E+00 0.  1.
     999901    1    3    3    0    0  0.22758841845E-01 -0.44542621297E-01 -0.13414544398E+00  0.89156996929E+00  0.88000000000E+00 0.  1.
        -11    1    4    4    0    0 -0.10053846639E-01  0.33252355046E-01  0.78918311906E-01  0.86227373980E-01  0.51100000000E-03 0.  1.
         11    1    4    4    0    0  0.63873067267E-02  0.81817794038E-02  0.40523958893E-01  0.41835290925E-01  0.51100000000E-03 0. -1.
</event>
<event>
 8    1  0.1117354E+005  0.1043930E+01  0.7957747E-01            NaN
         13   -1    0    0    0    0  0.00000000000E+00  0.00000000000E+00  0.74505805969E-08  0.10566000000E+00  0.10566000000E+00 0. -1.
     999900   -1    0    0    0    0 -0.00000000000E+00 -0.00000000000E+00 -0.74505805969E-08  0.93827000000E+00  0.93827000000E+00 0. -1.
     999902    2    1    2    0    0  0.16517317133E-01 -0.99455144124E-02 -0.13177266683E-01  0.10205767266E+01  0.10203095018E+01 0.  0.
     999903    2    3    3    0    0  0.64767009608E-01  0.10140929261E+00  0.45945213949E-01  0.13028273380E+00  0.19596374153E-01 0.  0.
         14    1    1    2    0    0 -0.16517317133E-01  0.99455144124E-02  0.13177266683E-01  0.23353273420E-01  0.00000000000E+00 0. -1.
     999901    1    3    3    0    0 -0.48249692476E-01 -0.11135480702E+00 -0.59122480632E-01  0.89029399278E+00  0.88000000000E+00 0. -1.
        -11    1    4    4    0    0  0.24324685564E-01  0.38610654307E-01  0.74178379339E-02  0.46235899412E-01  0.51100000000E-03 0. -1.
         11    1    4    4    0    0  0.40442324044E-01  0.62798638301E-01  0.38527376015E-01  0.84046834385E-01  0.51100000000E-03 0.  1.
</event>
<event>
 8    1  0.1117354E+005  0.1043930E+01  0.7957747E-01            NaN
         13   -1    0    0    0    0  0.00000000000E+00  0.00000000000E+00  0.74505805969E-08  0.10566000000E+00  0.10566000000E+00 0. -1.
     999900   -1    0    0    0    0 -0.00000000000E+00 -0.00000000000E+00 -0.74505805969E-08  0.93827000000E+00  0.93827000000E+00 0.  1.
     999902    2    1    2    0    0  0.73742327024E-02  0.98915176382E-02 -0.18361026279E-01  0.10218087723E+01  0.10215692920E+01 0.  0.
     999903    2    3    3    0    0 -0.32019198773E-01  0.12388593772E+00 -0.31852187753E-01  0.13347967692E+00  0.20719740124E-01 0.  0.
         14    1    1    2    0    0 -0.73742327024E-02 -0.98915176382E-02  0.18361026279E-01  0.22121227705E-01  0.00000000000E+00 0. -1.
     999901    1    3    3    0    0  0.39393431476E-01 -0.11399442008E+00  0.13491161473E-01  0.88832909538E+00  0.88000000000E+00 0.  1.
        -11    1    4    4    0    0 -0.77674353633E-02  0.69025787793E-01 -0.13616831212E-01  0.70785391471E-01  0.51100000000E-03 0.  1.
         11    1    4    4    0    0 -0.24251763410E-01  0.54860149928E-01 -0.18235356541E-01  0.62694285448E-01  0.51100000000E-03 0. -1.
</event>
<event>
 8    1  0.1117354E+005  0.1043930E+01  0.7957747E-01            NaN
         13   -1    0    0    0    0  0.00000000000E+00  0.00000000000E+00  0.74505805969E-08  0.10566000000E+00  0.10566000000E+00 0. -1.
     999900   -1    0    0    0    0 -0.00000000000E+00 -0.00000000000E+00 -0.74505805969E-08  0.93827000000E+00  0.93827000000E+00 0. -1.
     999902    2    1    2    0    0  0.22775615750E-01 -0.43167592898E-02 -0.58286677334E-02  0.10200273547E+01  0.10197472569E+01 0.  0.
     999903    2    3    3    0    0  0.65253985570E-01 -0.15744828985E-01  0.11055100418E+00  0.13127584800E+00  0.22490919692E-01 0.  0.
         14    1    1    2    0    0 -0.22775615750E-01  0.43167592898E-02  0.58286677334E-02  0.23902645274E-01  0.00000000000E+00 0. -1.
     999901    1    3    3    0    0 -0.42478369820E-01  0.11428069695E-01 -0.11637967192E+00  0.88875150673E+00  0.88000000000E+00 0. -1.
        -11    1    4    4    0    0  0.10086501756E-01  0.56911226606E-02  0.17163714415E-01  0.20711847053E-01  0.51100000000E-03 0.  1.
         11    1    4    4    0    0  0.55167483814E-01 -0.21435951646E-01  0.93387289768E-01  0.11056400094E+00  0.51100000000E-03 0. -1.
</event>
<event>
 8    1  0.1117354E+005  0.1043930E+01  0.7957747E-01            NaN
         13   -1    0    0    0    0  0.00000000000E+00  0.00000000000E+00  0.74505805969E-08  0.10566000000E+00  0.10566000000E+00 0.  1.
     999900   -1    0    0    0    0 -0.00000000000E+00 -0.00000000000E+00 -0.74505805969E-08  0.93827000000E+00  0.93827000000E+00 0. -1.
     999902    2    1    2    0    0 -0.16401367352E-01  0.31253508010E-02  0.17335648820E-01  0.10198614024E+01  0.10195773550E+01 0.  0.
     999903    2    3    3    0    0 -0.11915201130E+00  0.48608147473E-01  0.26800484789E-01  0.13266584184E+00  0.17944520307E-01 0.  0.
         14    1    1    2    0    0  0.16401367352E-01 -0.31253508010E-02 -0.17335648820E-01  0.24068597563E-01  0.00000000000E+00 0. -1.
     999901    1    3    3    0    0  0.10275064395E+00 -0.45482796672E-01 -0.94648359686E-02  0.88719556060E+00  0.88000000000E+00 0.  1.
        -11    1    4    4    0    0 -0.60593402042E-01  0.29548662991E-01  0.21911750796E-01  0.70887726720E-01  0.51100000000E-03 0. -1.
         11    1    4    4    0    0 -0.58558609256E-01  0.19059484482E-01  0.48887339931E-02  0.61778115120E-01  0.51100000000E-03 0.  1.
</event>
<event>
 8    1  0.1117354E+005  0.1043930E+01  0.7957747E-01            NaN
         13   -1    0    0    0    0  0.00000000000E+00  0.00000000000E+00  0.74505805969E-08  0.10566000000E+00  0.10566000000E+00 0.  1.
     999900   -1    0    0    0    0 -0.00000000000E+00 -0.00000000000E+00 -0.74505805969E-08  0.93827000000E+00  0.93827000000E+00 0. -1.
     999902    2    1    2    0    0 -0.19259958434E-01 -0.86257206715E-02  0.12086126436E-01  0.10196107996E+01  0.10193207342E+01 0.  0.
     999903    2    3    3    0    0 -0.21438882455E-01 -0.12287177610E+00  0.37373930787E-01  0.13186287257E+00  0.20830444474E-01 0.  0.
         14    1    1    2    0    0  0.19259958434E-01  0.86257206715E-02 -0.12086126436E-01  0.24319200402E-01  0.00000000000E+00 0.  1.
     999901    1    3    3    0    0  0.21789240209E-02  0.11424605543E+00 -0.25287804351E-01  0.88774792703E+00  0.88000000000E+00 0. -1.
        -11    1    4    4    0    0 -0.22958876583E-01 -0.12107172336E+00  0.34220688428E-01  0.12789366227E+00  0.51100000000E-03 0.  1.
         11    1    4    4    0    0  0.15199941285E-02 -0.18000527374E-02  0.31532423593E-02  0.39692102974E-02  0.51100000000E-03 0. -1.
</event>
<event>
 8    1  0.1117354E+005  0.1043930E+01  0.7957747E-01            NaN
         13   -1    0    0    0    0  0.00000000000E+00  0.00000000000E+00  0.74505805969E-08  0.10566000000E+00  0.10566000000E+00 0. -1.
     999900   -1    0    0    0    0 -0.00000000000E+00 -0.00000000000E+00 -0.74505805969E-08  0.93827000000E+00  0.93827000000E+00 0. -1.
     999902    2    1    2    0    0 -0.17832605784E-01 -0.19936557700E-01 -0.20009415257E-01  0.10105257359E+01  0.10099734739E+01 0.  0.
     999903    2    3    3    0    0 -0.25476709289E-01 -0.56265232626E-01  0.10245055326E+00  0.12127062692E+00  0.19889946482E-01 0.  0.
         14    1    1    2    0    0  0.17832605784E-01  0.19936557700E-01  0.20009415257E-01  0.33404264113E-01  0.00000000000E+00 0. -1.
     999901    1    3    3    0    0  0.76441035053E-02  0.36328674926E-01 -0.12245996852E+00  0.88925510897E+00  0.88000000000E+00 0.  1.
        -11    1    4    4    0    0 -0.39870718258E-03 -0.52006212314E-03  0.12425998502E-01  0.12453754124E-01  0.51100000000E-03 0.  1.
         11    1    4    4    0    0 -0.25078002106E-01 -0.55745170503E-01  0.90024554758E-01  0.10881687279E+00  0.51100000000E-03 0. -1.
</event>
<event>
 8    1  0.1117354E+005  0.1043930E+01  0.7957747E-01            NaN
         13   -1    0    0    0    0  0.00000000000E+00  0.00000000000E+00  0.74505805969E-08  0.10566000000E+00  0.10566000000E+00 0. -1.
     999900   -1    0    0    0    0 -0.00000000000E+00 -0.00000000000E+00 -0.74505805969E-08  0.93827000000E+00  0.93827000000E+00 0.  1.
     999902    2    1    2    0    0 -0.94339397344E-02 -0.21323567154E-01  0.14219725490E-02  0.10205694405E+01  0.10203020470E+01 0.  0.
     999903    2    3    3    0    0 -0.82912059451E-01  0.26419449019E-01 -0.95794204089E-01  0.13089005179E+00  0.19577518498E-01 0.  0.
         14    1    1    2    0    0  0.94339397344E-02  0.21323567154E-01 -0.14219725490E-02  0.23360559518E-01  0.00000000000E+00 0. -1.
     999901    1    3    3    0    0  0.73478119717E-01 -0.47743016173E-01  0.97216176638E-01  0.88967938870E+00  0.88000000000E+00 0. -1.
        -11    1    4    4    0    0 -0.52872946646E-01  0.26170689285E-01 -0.67036725454E-01  0.89300823878E-01  0.51100000000E-03 0. -1.
         11    1    4    4    0    0 -0.30039112806E-01  0.24875973401E-03 -0.28757478635E-01  0.41589227908E-01  0.51100000000E-03 0.  1.
</event>
<event>
 8    1  0.1117354E+005  0.1043930E+01  0.7957747E-01            NaN
         13   -1    0    0    0    0  0.00000000000E+00  0.00000000000E+00  0.74505805969E-08  0.10566000000E+00  0.10566000000E+00 0.  1.
     999900   -1    0    0    0    0 -0.00000000000E+00 -0.00000000000E+00 -0.74505805969E-08  0.93827000000E+00  0.93827000000E+00 0.  1.
     999902    2    1    2    0    0  0.21664331054E-01  0.84572204480E-02 -0.49695172486E-02  0.10201484122E+01  0.10198711776E+01 0.  0.
     999903    2    3    3    0    0  0.32607095357E-01  0.36714584682E-01 -0.12089199841E+00  0.13202891326E+00  0.20138899206E-01 0.  0.
         14    1    1    2    0    0 -0.21664331054E-01 -0.84572204480E-02  0.49695172486E-02  0.23781587824E-01  0.00000000000E+00 0.  1.
     999901    1    3    3    0    0 -0.10942764303E-01 -0.28257364234E-01  0.11592248116E+00  0.88811949892E+00  0.88000000000E+00 0. -1.
        -11    1    4    4    0    0  0.22202515459E-01  0.13008463805E-01 -0.44992318877E-01  0.51833789194E-01  0.51100000000E-03 0.  1.
         11    1    4    4    0    0  0.10404579898E-01  0.23706120878E-01 -0.75899679528E-01  0.80195124063E-01  0.51100000000E-03 0. -1.
</event>
<event>
 8    1  0.1117354E+005  0.1043930E+01  0.7957747E-01            NaN
         13   -1    0    0    0    0  0.00000000000E+00  0.00000000000E+00  0.74505805969E-08  0.10566000000E+00  0.10566000000E+00 0.  1.
     999900   -1    0    0    0    0 -0.00000000000E+00 -0.00000000000E+00 -0.74505805969E-08  0.93827000000E+00  0.93827000000E+00 0. -1.
     999902    2    1    2    0    0 -0.14219357970E-01 -0.64767763916E-02  0.39463421251E-02  0.10278144054E+01  0.10276880556E+01 0.  0.
     999903    2    3    3    0    0 -0.73421048047E-01 -0.11167287869E+00 -0.32191340308E-01  0.13883915706E+00  0.19456284620E-01 0.  0.
         14    1    1    2    0    0  0.14219357970E-01  0.64767763916E-02 -0.39463421251E-02  0.16115594611E-01  0.00000000000E+00 0.  1.
     999901    1    3    3    0    0  0.59201690077E-01  0.10519610230E+00  0.36137682433E-01  0.88897524833E+00  0.88000000000E+00 0.  1.
        -11    1    4    4    0    0 -0.31433149264E-01 -0.48246988221E-01 -0.23805607802E-01  0.62311979819E-01  0.51100000000E-03 0. -1.
         11    1    4    4    0    0 -0.41987898783E-01 -0.63425890470E-01 -0.83857325057E-02  0.76527177243E-01  0.51100000000E-03 0.  1.
</event>
<event>
 8    1  0.1117354E+005  0.1043930E+01  0.7957747E-01            NaN
         13   -1    0    0    0    0  0.00000000000E+00  0.00000000000E+00  0.74505805969E-08  0.10566000000E+00  0.10566000000E+00 0. -1.
     999900   -1    0    0    0    0 -0.00000000000E+00 -0.00000000000E+00 -0.74505805969E-08  0.93827000000E+00  0.93827000000E+00 0.  1.
     999902    2    1    2    0    0 -0.23485857390E-01 -0.38953904353E-02 -0.78400305804E-03  0.10201103815E+01  0.10198322491E+01 0.  0.
     999903    2    3    3    0    0 -0.16490111097E-01 -0.43152085333E-01  0.12101599328E+00  0.13082681163E+00  0.18350961252E-01 0.  0.
         14    1    1    2    0    0  0.23485857390E-01  0.38953904353E-02  0.78400305804E-03  0.23819618485E-01  0.00000000000E+00 0. -1.
     999901    1    3    3    0    0 -0.69957462929E-02  0.39256694898E-01 -0.12179999634E+00  0.88928356989E+00  0.88000000000E+00 0.  1.
        -11    1    4    4    0    0 -0.46143706613E-02 -0.13839296182E-01  0.63808158262E-01  0.65456555953E-01  0.51100000000E-03 0. -1.
         11    1    4    4    0    0 -0.11875740436E-01 -0.29312789151E-01  0.57207835018E-01  0.65370255677E-01  0.51100000000E-03 0.  1.
</event>
<event>
 8    1  0.1117354E+005  0.1043930E+01  0.7957747E-01            NaN
         13   -1    0    0    0    0  0.00000000000E+00  0.00000000000E+00  0.74505805969E-08  0.10566000000E+00  0.10566000000E+00 0.  1.
     999900   -1    0    0    0    0 -0.00000000000E+00 -0.00000000000E+00 -0.74505805969E-08  0.93827000000E+00  0.93827000000E+00 0. -1.
     999902    2    1    2    0    0 -0.22892557065E-01 -0.51904231682E-02 -0.65164346681E-02  0.10195686868E+01  0.10192776037E+01 0.  0.
     999903    2    3    3    0    0  0.61649669048E-01 -0.21377550840E-01 -0.10995763049E+00  0.12933866475E+00  0.19496879837E-01 0.  0.
         14    1    1    2    0    0  0.22892557065E-01  0.51904231682E-02  0.65164346681E-02  0.24361313233E-01  0.00000000000E+00 0.  1.
     999901    1    3    3    0    0 -0.84542226113E-01  0.16187127671E-01  0.10344119582E+00  0.89023002201E+00  0.88000000000E+00 0.  1.
        -11    1    4    4    0    0  0.29731212903E-01 -0.40806381431E-02 -0.64655896675E-01  0.71282836112E-01  0.51100000000E-03 0. -1.
         11    1    4    4    0    0  0.31918456145E-01 -0.17296912697E-01 -0.45301733818E-01  0.58055828643E-01  0.51100000000E-03 0.  1.
</event>
<event>
 8    1  0.1117354E+005  0.1043930E+01  0.7957747E-01            NaN
         13   -1    0    0    0    0  0.00000000000E+00  0.00000000000E+00  0.74505805969E-08  0.10566000000E+00  0.10566000000E+00 0.  1.
     999900   -1    0    0    0    0 -0.00000000000E+00 -0.00000000000E+00 -0.74505805969E-08  0.93827000000E+00  0.93827000000E+00 0. -1.
     999902    2    1    2    0    0 -0.13018081502E-01 -0.12113209305E-01 -0.16221063180E-01  0.10198608667E+01  0.10195768065E+01 0.  0.
     999903    2    3    3    0    0 -0.11126872333E+00 -0.34534293848E-01 -0.61068819498E-01  0.13297461985E+00  0.19480825615E-01 0.  0.
         14    1    1    2    0    0  0.13018081502E-01  0.12113209305E-01  0.16221063180E-01  0.24069133269E-01  0.00000000000E+00 0.  1.
     999901    1    3    3    0    0  0.98250641831E-01  0.22421084544E-01  0.44847756317E-01  0.88688624688E+00  0.88000000000E+00 0. -1.
        -11    1    4    4    0    0 -0.84364972400E-01 -0.20875862943E-01 -0.52773371330E-01  0.10167861164E+00  0.51100000000E-03 0. -1.
         11    1    4    4    0    0 -0.26903750933E-01 -0.13658430906E-01 -0.82954481678E-02  0.31296008218E-01  0.51100000000E-03 0.  1.
</event>
<event>
 8    1  0.1117354E+005  0.1043930E+01  0.7957747E-01            NaN
         13   -1    0    0    0    0  0.00000000000E+00  0.00000000000E+00  0.74505805969E-08  0.10566000000E+00  0.10566000000E+00 0. -1.
     999900   -1    0    0    0    0 -0.00000000000E+00 -0.00000000000E+00 -0.74505805969E-08  0.93827000000E+00  0.93827000000E+00 0. -1.
     999902    2    1    2    0    0 -0.14078560514E-01 -0.10972137452E-01 -0.16251728201E-01  0.10197905647E+01  0.10195048227E+01 0.  0.
     999903    2    3    3    0    0  0.49752751584E-01  0.87632568977E-01  0.74837960968E-01  0.12732507182E+00  0.21357670195E-01 0.  0.
         14    1    1    2    0    0  0.14078560514E-01  0.10972137452E-01  0.16251728201E-01  0.24139435286E-01  0.00000000000E+00 0. -1.
     999901    1    3    3    0    0 -0.63831312099E-01 -0.98604706429E-01 -0.91089689170E-01  0.89246549289E+00  0.88000000000E+00 0. -1.
        -11    1    4    4    0    0  0.70511576246E-03  0.16514670273E-01  0.10228351460E-01  0.19445097507E-01  0.51100000000E-03 0. -1.
         11    1    4    4    0    0  0.49047635822E-01  0.71117898704E-01  0.64609609509E-01  0.10787997431E+00  0.51100000000E-03 0.  1.
</event>
<event>
 8    1  0.1117354E+005  0.1043930E+01  0.7957747E-01            NaN
         13   -1    0    0    0    0  0.00000000000E+00  0.00000000000E+00  0.74505805969E-08  0.10566000000E+00  0.10566000000E+00 0. -1.
     999900   -1    0    0    0    0 -0.00000000000E+00 -0.00000000000E+00 -0.74505805969E-08  0.93827000000E+00  0.93827000000E+00 0. -1.
     999902    2    1    2    0    0  0.25617276797E-02  0.22783445521E-01  0.94735714851E-02  0.10191228157E+01  0.10188208464E+01 0.  0.
     999903    2    3    3    0    0 -0.38080899532E-01 -0.59033674077E-01 -0.10427998400E+00  0.12711063211E+00  0.18645861420E-01 0.  0.
         14    1    1    2    0    0 -0.25617276797E-02 -0.22783445521E-01 -0.94735714851E-02  0.24807184346E-01  0.00000000000E+00 0. -1.
     999901    1    3    3    0    0  0.40642627211E-01  0.81817119597E-01  0.11375355549E+00  0.89201218354E+00  0.88000000000E+00 0.  1.
        -11    1    4    4    0    0 -0.17762955764E-01 -0.23618735020E-01 -0.28660080412E-01  0.41170724692E-01  0.51100000000E-03 0. -1.
         11    1    4    4    0    0 -0.20317943768E-01 -0.35414939057E-01 -0.75619903588E-01  0.85939907418E-01  0.51100000000E-03 0.  1.
</event>
<event>
 8    1  0.1117354E+005  0.1043930E+01  0.7957747E-01            NaN
         13   -1    0    0    0    0  0.00000000000E+00  0.00000000000E+00  0.74505805969E-08  0.10566000000E+00  0.10566000000E+00 0. -1.
     999900   -1    0    0    0    0 -0.00000000000E+00 -0.00000000000E+00 -0.74505805969E-08  0.93827000000E+00  0.93827000000E+00 0. -1.
     999902    2    1    2    0    0  0.23033088148E-01  0.46366720627E-02 -0.39005956982E-02  0.10201132722E+01  0.10198352080E+01 0.  0.
     999903    2    3    3    0    0  0.34031434039E-01 -0.55384412016E-01 -0.11237235129E+00  0.13135592852E+00  0.20031550756E-01 0.  0.
         14    1    1    2    0    0 -0.23033088148E-01 -0.46366720627E-02  0.39005956982E-02  0.23816727825E-01  0.00000000000E+00 0.  1.
     999901    1    3    3    0    0 -0.10998345890E-01  0.60021084079E-01  0.10847175559E+00  0.88875734366E+00  0.88000000000E+00 0.  1.
        -11    1    4    4    0    0  0.19992067565E-01 -0.48262509510E-01 -0.87911801862E-01  0.10226288974E+00  0.51100000000E-03 0.  1.
         11    1    4    4    0    0  0.14039366474E-01 -0.71219025063E-02 -0.24460549425E-01  0.29093038780E-01  0.51100000000E-03 0. -1.
</event>
<event>
 8    1  0.1117354E+005  0.1043930E+01  0.7957747E-01            NaN
         13   -1    0    0    0    0  0.00000000000E+00  0.00000000000E+00  0.74505805969E-08  0.10566000000E+00  0.10566000000E+00 0. -1.
     999900   -1    0    0    0    0 -0.00000000000E+00 -0.00000000000E+00 -0.74505805969E-08  0.93827000000E+00  0.93827000000E+00 0.  1.
     999902    2    1    2    0    0 -0.13260433622E-01 -0.17804428388E-01  0.38995499124E-02  0.10213901850E+01  0.10211414529E+01 0.  0.
     999903    2    3    3    0    0  0.74026822352E-01 -0.92701969279E-02 -0.10507635304E+00  0.13034156368E+00  0.19544213349E-01 0.  0.
         14    1    1    2    0    0  0.13260433622E-01  0.17804428388E-01 -0.38995499124E-02  0.22539814986E-01  0.00000000000E+00 0.  1.
     999901    1    3    3    0    0 -0.87287255974E-01 -0.85342314605E-02  0.10897590295E+00  0.89104862134E+00  0.88000000000E+00 0. -1.
        -11    1    4    4    0    0  0.26444527055E-01 -0.40572839963E-02 -0.54433236413E-01  0.60654867175E-01  0.51100000000E-03 0. -1.
         11    1    4    4    0    0  0.47582295296E-01 -0.52129129316E-02 -0.50643116626E-01  0.69686696503E-01  0.51100000000E-03 0.  1.
</event>
<event>
 8    1  0.1117354E+005  0.1043930E+01  0.7957747E-01            NaN
         13   -1    0    0    0    0  0.00000000000E+00  0.00000000000E+00  0.74505805969E-08  0.10566000000E+00  0.10566000000E+00 0.  1.
     999900   -1    0    0    0    0 -0.00000000000E+00 -0.00000000000E+00 -0.74505805969E-08  0.93827000000E+00  0.93827000000E+00 0.  1.
     999902    2    1    2    0    0 -0.99627586007E-02 -0.19702918448E-01  0.10216451120E-01  0.10196022909E+01  0.10193120201E+01 0.  0.
     999903    2    3    3    0    0  0.10057440165E-01 -0.95897471014E-01 -0.86183773554E-01  0.13083943083E+00  0.19845321544E-01 0.  0.
         14    1    1    2    0    0  0.99627586007E-02  0.19702918448E-01 -0.10216451120E-01  0.24327709053E-01  0.00000000000E+00 0. -1.
     999901    1    3    3    0    0 -0.20020198766E-01  0.76194552567E-01  0.96400224674E-01  0.88876286011E+00  0.88000000000E+00 0. -1.
        -11    1    4    4    0    0  0.12088573616E-01 -0.37813454184E-01 -0.27874921367E-01  0.48510445180E-01  0.51100000000E-03 0. -1.
         11    1    4    4    0    0 -0.20311334508E-02 -0.58084016830E-01 -0.58308852188E-01  0.82328985653E-01  0.51100000000E-03 0.  1.
</event>
<event>
 8    1  0.1117354E+005  0.1043930E+01  0.7957747E-01            NaN
         13   -1    0    0    0    0  0.00000000000E+00  0.00000000000E+00  0.74505805969E-08  0.10566000000E+00  0.10566000000E+00 0. -1.
     999900   -1    0    0    0    0 -0.00000000000E+00 -0.00000000000E+00 -0.74505805969E-08  0.93827000000E+00  0.93827000000E+00 0.  1.
     999902    2    1    2    0    0 -0.21689789821E-01 -0.32272834239E-02  0.54395953891E-02  0.10213368254E+01  0.10210869010E+01 0.  0.
     999903    2    3    3    0    0  0.52771301145E-01 -0.10974782334E+00  0.43902575878E-01  0.13096023071E+00  0.19843157656E-01 0.  0.
         14    1    1    2    0    0  0.21689789821E-01  0.32272834239E-02 -0.54395953891E-02  0.22593174606E-01  0.00000000000E+00 0. -1.
     999901    1    3    3    0    0 -0.74461090967E-01  0.10652053992E+00 -0.38462980489E-01  0.89037659468E+00  0.88000000000E+00 0. -1.
        -11    1    4    4    0    0  0.40333355927E-01 -0.61956510039E-01  0.28416202408E-01  0.79203096006E-01  0.51100000000E-03 0.  1.
         11    1    4    4    0    0  0.12437945218E-01 -0.47791313304E-01  0.15486373469E-01  0.51757134704E-01  0.51100000000E-03 0. -1.
</event>
<event>
 8    1  0.1117354E+005  0.1043930E+01  0.7957747E-01            NaN
         13   -1    0    0    0    0  0.00000000000E+00  0.00000000000E+00  0.74505805969E-08  0.10566000000E+00  0.10566000000E+00 0.  1.
     999900   -1    0    0    0    0 -0.00000000000E+00 -0.00000000000E+00 -0.74505805969E-08  0.93827000000E+00  0.93827000000E+00 0.  1.
     999902    2    1    2    0    0  0.13281461586E-01 -0.17374546483E-01 -0.94532648110E-02  0.10201048808E+01  0.10198266184E+01 0.  0.
     999903    2    3    3    0    0  0.10557613668E+00 -0.22288524867E-01 -0.74861052589E-01  0.13285033285E+00  0.20048310787E-01 0.  0.
         14    1    1    2    0    0 -0.13281461586E-01  0.17374546483E-01  0.94532648110E-02  0.23825119159E-01  0.00000000000E+00 0. -1.
     999901    1    3    3    0    0 -0.92294675096E-01  0.49139783839E-02  0.65407787778E-01  0.88725454799E+00  0.88000000000E+00 0. -1.
        -11    1    4    4    0    0  0.17337088593E-01 -0.96804937039E-02 -0.19978675193E-01  0.28172596307E-01  0.51100000000E-03 0. -1.
         11    1    4    4    0    0  0.88239048088E-01 -0.12608031163E-01 -0.54882377396E-01  0.10467773654E+00  0.51100000000E-03 0.  1.
</event>
<event>
 8    1  0.1117354E+005  0.1043930E+01  0.7957747E-01            NaN
         13   -1    0    0    0    0  0.00000000000E+00  0.00000000000E+00  0.74505805969E-08  0.10566000000E+00  0.10566000000E+00 0. -1.
     999900   -1    0    0    0    0 -0.00000000000E+00 -0.00000000000E+00 -0.74505805969E-08  0.93827000000E+00  0.93827000000E+00 0. -1.
     999902    2    1    2    0    0  0.98701832452E-02  0.21070613299E-01 -0.77804866112E-02  0.10193957946E+01  0.10191005146E+01 0.  0.
     999903    2    3    3    0    0 -0.43164544140E-01  0.15521270847E-01 -0.12043831495E+00  0.13061277059E+00  0.21218398008E-01 0.  0.
         14    1    1    2    0    0 -0.98701832452E-02 -0.21070613299E-01  0.77804866112E-02  0.24534205388E-01  0.00000000000E+00 0. -1.
     999901    1    3    3    0    0  0.53034727385E-01  0.55493424520E-02  0.11265782833E+00  0.88878302403E+00  0.88000000000E+00 0.  1.
        -11    1    4    4    0    0 -0.83616586055E-02 -0.69285274635E-03 -0.72901538067E-02  0.11126762471E-01  0.51100000000E-03 0. -1.
         11    1    4    4    0    0 -0.34802885534E-01  0.16214123594E-01 -0.11314816114E+00  0.11948600812E+00  0.51100000000E-03 0.  1.
</event>
<event>
 8    1  0.1117354E+005  0.1043930E+01  0.7957747E-01            NaN
         13   -1    0    0    0    0  0.00000000000E+00  0.00000000000E+00  0.74505805969E-08  0.10566000000E+00  0.10566000000E+00 0.  1.
     999900   -1    0    0    0    0 -0.00000000000E+00 -0.00000000000E+00 -0.74505805969E-08  0.93827000000E+00  0.93827000000E+00 0. -1.
     999902    2    1    2    0    0  0.18363947797E-01  0.10812559323E-01  0.85507960984E-02  0.10209678108E+01  0.10207095613E+01 0.  0.
     999903    2    3    3    0    0 -0.81813573440E-01 -0.88001299138E-01 -0.40834752847E-01  0.12842165133E+00  0.19671147429E-01 0.  0.
         14    1    1    2    0    0 -0.18363947797E-01 -0.10812559323E-01 -0.85507960984E-02  0.22962189175E-01  0.00000000000E+00 0. -1.
     999901    1    3    3    0    0  0.10017752124E+00  0.98813858461E-01  0.49385548946E-01  0.89254615950E+00  0.88000000000E+00 0.  1.
        -11    1    4    4    0    0 -0.38390805384E-01 -0.36203727922E-01 -0.83498196800E-02  0.53427937104E-01  0.51100000000E-03 0. -1.
         11    1    4    4    0    0 -0.43422768056E-01 -0.51797571216E-01 -0.32484933167E-01  0.74993714225E-01  0.51100000000E-03 0.  1.
</event>
<event>
 8    1  0.1117354E+005  0.1043930E+01  0.7957747E-01            NaN
         13   -1    0    0    0    0  0.00000000000E+00  0.00000000000E+00  0.74505805969E-08  0.10566000000E+00  0.10566000000E+00 0. -1.
     999900   -1    0    0    0    0 -0.00000000000E+00 -0.00000000000E+00 -0.74505805969E-08  0.93827000000E+00  0.93827000000E+00 0.  1.
     999902    2    1    2    0    0 -0.21377562184E-01 -0.13965434719E-01 -0.13646072973E-01  0.10149774727E+01  0.10145644490E+01 0.  0.
     999903    2    3    3    0    0  0.90768149094E-01  0.80326378170E-01  0.55166268357E-03  0.12275038148E+00  0.19395048394E-01 0.  0.
         14    1    1    2    0    0  0.21377562184E-01  0.13965434719E-01  0.13646072973E-01  0.28952527340E-01  0.00000000000E+00 0. -1.
     999901    1    3    3    0    0 -0.11214571128E+00 -0.94291812889E-01 -0.14197735656E-01  0.89222709118E+00  0.88000000000E+00 0.  1.
        -11    1    4    4    0    0  0.51193989433E-01  0.35177317735E-01 -0.57391281211E-02  0.62381623493E-01  0.51100000000E-03 0.  1.
         11    1    4    4    0    0  0.39574159661E-01  0.45149060435E-01  0.62907908047E-02  0.60368757988E-01  0.51100000000E-03 0. -1.
</event>
<event>
 8    1  0.1117354E+005  0.1043930E+01  0.7957747E-01            NaN
         13   -1    0    0    0    0  0.00000000000E+00  0.00000000000E+00  0.74505805969E-08  0.10566000000E+00  0.10566000000E+00 0.  1.
     999900   -1    0    0    0    0 -0.00000000000E+00 -0.00000000000E+00 -0.74505805969E-08  0.93827000000E+00  0.93827000000E+00 0. -1.
     999902    2    1    2    0    0  0.68698463825E-02 -0.13631242273E-01  0.18151856065E-01  0.10202130138E+01  0.10199373011E+01 0.  0.
     999903    2    3    3    0    0  0.80398911802E-01 -0.94504169867E-01 -0.39052954887E-01  0.13160773346E+00  0.20010973966E-01 0.  0.
         14    1    1    2    0    0 -0.68698463825E-02  0.13631242273E-01 -0.18151856065E-01  0.23716986188E-01  0.00000000000E+00 0. -1.
     999901    1    3    3    0    0 -0.73529065419E-01  0.80872927594E-01  0.57204810952E-01  0.88860528036E+00  0.88000000000E+00 0. -1.
        -11    1    4    4    0    0  0.65315208177E-01 -0.65118133702E-01 -0.23991047313E-01  0.95300992798E-01  0.51100000000E-03 0.  1.
         11    1    4    4    0    0  0.15083703625E-01 -0.29386036165E-01 -0.15061907573E-01  0.36306740659E-01  0.51100000000E-03 0. -1.
</event>
<event>
 8    1  0.1117354E+005  0.1043930E+01  0.7957747E-01            NaN
         13   -1    0    0    0    0  0.00000000000E+00  0.00000000000E+00  0.74505805969E-08  0.10566000000E+00  0.10566000000E+00 0.  1.
     999900   -1    0    0    0    0 -0.00000000000E+00 -0.00000000000E+00 -0.74505805969E-08  0.93827000000E+00  0.93827000000E+00 0. -1.
     999902    2    1    2    0    0 -0.22068549594E-01 -0.30343515312E-02  0.68517376791E-02  0.10206238961E+01  0.10203577622E+01 0.  0.
     999903    2    3    3    0    0 -0.11087278007E+00  0.46004935268E-01  0.54486249688E-01  0.13351618575E+00  0.21180014723E-01 0.  0.
         14    1    1    2    0    0  0.22068549594E-01  0.30343515312E-02 -0.68517376791E-02  0.23306103914E-01  0.00000000000E+00 0. -1.
     999901    1    3    3    0    0  0.88804230474E-01 -0.49039286799E-01 -0.47634512009E-01  0.88710771033E+00  0.88000000000E+00 0. -1.
        -11    1    4    4    0    0 -0.66195247987E-01  0.20704201308E-01  0.40420185338E-01  0.80277813321E-01  0.51100000000E-03 0.  1.
         11    1    4    4    0    0 -0.44677532081E-01  0.25300733960E-01  0.14066064349E-01  0.53238372431E-01  0.51100000000E-03 0. -1.
</event>
<event>
 8    1  0.1117354E+005  0.1043930E+01  0.7957747E-01            NaN
         13   -1    0    0    0    0  0.00000000000E+00  0.00000000000E+00  0.74505805969E-08  0.10566000000E+00  0.10566000000E+00 0. -1.
     999900   -1    0    0    0    0 -0.00000000000E+00 -0.00000000000E+00 -0.74505805969E-08  0.93827000000E+00  0.93827000000E+00 0.  1.
     999902    2    1    2    0    0 -0.95980156308E-02  0.19718108015E-01 -0.44839237081E-02  0.10215462724E+01  0.10213010112E+01 0.  0.
     999903    2    3    3    0    0 -0.21288659130E-01  0.13085333327E+00  0.64955906721E-02  0.13441141281E+00  0.21176245179E-01 0.  0.
         14    1    1    2    0    0  0.95980156308E-02 -0.19718108015E-01  0.44839237081E-02  0.22383727562E-01  0.00000000000E+00 0. -1.
     999901    1    3    3    0    0  0.11690643499E-01 -0.11113522525E+00 -0.10979514380E-01  0.88713485963E+00  0.88000000000E+00 0.  1.
        -11    1    4    4    0    0 -0.15298513241E-01  0.80799725220E-01  0.14071300486E-01  0.83432024556E-01  0.51100000000E-03 0. -1.
         11    1    4    4    0    0 -0.59901458886E-02  0.50053608047E-01 -0.75757098144E-02  0.50979388251E-01  0.51100000000E-03 0.  1.
</event>
<event>
 8    1  0.1117354E+005  0.1043930E+01  0.7957747E-01            NaN
         13   -1    0    0    0    0  0.00000000000E+00  0.00000000000E+00  0.74505805969E-08  0.10566000000E+00  0.10566000000E+00 0. -1.
     999900   -1    0    0    0    0 -0.00000000000E+00 -0.00000000000E+00 -0.74505805969E-08  0.93827000000E+00  0.93827000000E+00 0.  1.
     999902    2    1    2    0    0 -0.23281136162E-01 -0.25293341068E-02  0.38807007894E-02  0.10201925050E+01  0.10199163096E+01 0.  0.
     999903    2    3    3    0    0 -0.82848442333E-01 -0.21406623177E-01 -0.99281268321E-01  0.13196561510E+00  0.15363769596E-01 0.  0.
         14    1    1    2    0    0  0.23281136162E-01  0.25293341068E-02 -0.38807007894E-02  0.23737495037E-01  0.00000000000E+00 0. -1.
     999901    1    3    3    0    0  0.59567306171E-01  0.18877289070E-01  0.10316196911E+00  0.88822688986E+00  0.88000000000E+00 0. -1.
        -11    1    4    4    0    0 -0.38554677536E-02 -0.46434743462E-02 -0.52280541186E-02  0.80012596802E-02  0.51100000000E-03 0. -1.
         11    1    4    4    0    0 -0.78992974580E-01 -0.16763148831E-01 -0.94053214202E-01  0.12396435542E+00  0.51100000000E-03 0.  1.
</event>
<event>
 8    1  0.1117354E+005  0.1043930E+01  0.7957747E-01            NaN
         13   -1    0    0    0    0  0.00000000000E+00  0.00000000000E+00  0.74505805969E-08  0.10566000000E+00  0.10566000000E+00 0. -1.
     999900   -1    0    0    0    0 -0.00000000000E+00 -0.00000000000E+00 -0.74505805969E-08  0.93827000000E+00  0.93827000000E+00 0. -1.
     999902    2    1    2    0    0  0.30326830532E-02  0.18482064576E-01 -0.16512602026E-01  0.10189610212E+01  0.10186550509E+01 0.  0.
     999903    2    3    3    0    0  0.98993454536E-01  0.62347390542E-01 -0.56956406451E-01  0.13173594388E+00  0.20577306061E-01 0.  0.
         14    1    1    2    0    0 -0.30326830532E-02 -0.18482064576E-01  0.16512602026E-01  0.24968978816E-01  0.00000000000E+00 0. -1.
     999901    1    3    3    0    0 -0.95960771483E-01 -0.43865325967E-01  0.40443804426E-01  0.88722507731E+00  0.88000000000E+00 0.  1.
        -11    1    4    4    0    0  0.54670223729E-01  0.46113181383E-01 -0.36328919617E-01  0.80220386320E-01  0.51100000000E-03 0. -1.
         11    1    4    4    0    0  0.44323230808E-01  0.16234209159E-01 -0.20627486834E-01  0.51515557556E-01  0.51100000000E-03 0.  1.
</event>
<event>
 8    1  0.1117354E+005  0.1043930E+01  0.7957747E-01            NaN
         13   -1    0    0    0    0  0.00000000000E+00  0.00000000000E+00  0.74505805969E-08  0.10566000000E+00  0.10566000000E+00 0.  1.
     999900   -1    0    0    0    0 -0.00000000000E+00 -0.00000000000E+00 -0.74505805969E-08  0.93827000000E+00  0.93827000000E+00 0.  1.
     999902    2    1    2    0    0 -0.21572783931E-01  0.10056232417E-01 -0.51572193640E-02  0.10195761558E+01  0.10192852534E+01 0.  0.
     999903    2    3    3    0    0 -0.64906690315E-01 -0.93841749871E-01  0.59560723162E-01  0.13004761197E+00  0.18594331614E-01 0.  0.
         14    1    1    2    0    0  0.21572783931E-01 -0.10056232417E-01  0.51572193640E-02  0.24353844225E-01  0.00000000000E+00 0. -1.
     999901    1    3    3    0    0  0.43333906384E-01  0.10389798229E+00 -0.64717942526E-01  0.88952854381E+00  0.88000000000E+00 0.  1.
        -11    1    4    4    0    0 -0.21916028334E-01 -0.21318162625E-01  0.96159247709E-02  0.32054695223E-01  0.51100000000E-03 0. -1.
         11    1    4    4    0    0 -0.42990661981E-01 -0.72523587246E-01  0.49944798391E-01  0.97992916743E-01  0.51100000000E-03 0.  1.
</event>
<event>
 8    1  0.1117354E+005  0.1043930E+01  0.7957747E-01            NaN
         13   -1    0    0    0    0  0.00000000000E+00  0.00000000000E+00  0.74505805969E-08  0.10566000000E+00  0.10566000000E+00 0. -1.
     999900   -1    0    0    0    0 -0.00000000000E+00 -0.00000000000E+00 -0.74505805969E-08  0.93827000000E+00  0.93827000000E+00 0. -1.
     999902    2    1    2    0    0 -0.21588352583E-01 -0.10821245722E-01 -0.25792909976E-02  0.10196440150E+01  0.10193547509E+01 0.  0.
     999903    2    3    3    0    0  0.59457570230E-01  0.76640093475E-01  0.80616584062E-01  0.12771381531E+00  0.20071831260E-01 0.  0.
         14    1    1    2    0    0  0.21588352583E-01  0.10821245722E-01  0.25792909976E-02  0.24285985018E-01  0.00000000000E+00 0. -1.
     999901    1    3    3    0    0 -0.81045922813E-01 -0.87461339197E-01 -0.83195875059E-01  0.89193019967E+00  0.88000000000E+00 0. -1.
        -11    1    4    4    0    0  0.43829131917E-01  0.40708823578E-01  0.50643203760E-01  0.78378545086E-01  0.51100000000E-03 0.  1.
         11    1    4    4    0    0  0.15628438312E-01  0.35931269897E-01  0.29973380302E-01  0.49335270225E-01  0.51100000000E-03 0. -1.
</event>
<event>
 8    1  0.1117354E+005  0.1043930E+01  0.7957747E-01            NaN
         13   -1    0    0    0    0  0.00000000000E+00  0.00000000000E+00  0.74505805969E-08  0.10566000000E+00  0.10566000000E+00 0.  1.
     999900   -1    0    0    0    0 -0.00000000000E+00 -0.00000000000E+00 -0.74505805969E-08  0.93827000000E+00  0.93827000000E+00 0.  1.
     999902    2    1    2    0    0 -0.20311165960E-01 -0.12424985689E-01  0.19581890868E-03  0.10201190345E+01  0.10198411065E+01 0.  0.
     999903    2    3    3    0    0  0.25117179054E-01 -0.10881597313E+00 -0.66042507371E-01  0.13121944916E+00  0.19625044323E-01 0.  0.
         14    1    1    2    0    0  0.20311165960E-01  0.12424985689E-01 -0.19581890868E-03  0.23810965480E-01  0.00000000000E+00 0. -1.
     999901    1    3    3    0    0 -0.45428345014E-01  0.96390987443E-01  0.66238326280E-01  0.88889958536E+00  0.88000000000E+00 0. -1.
        -11    1    4    4    0    0  0.27338332496E-01 -0.92935508562E-01 -0.52274819092E-01  0.11007865827E+00  0.51100000000E-03 0.  1.
         11    1    4    4    0    0 -0.22211534418E-02 -0.15880464571E-01 -0.13767688279E-01  0.21140790883E-01  0.51100000000E-03 0. -1.
</event>
<event>
 8    1  0.1117354E+005  0.1043930E+01  0.7957747E-01            NaN
         13   -1    0    0    0    0  0.00000000000E+00  0.00000000000E+00  0.74505805969E-08  0.10566000000E+00  0.10566000000E+00 0.  1.
     999900   -1    0    0    0    0 -0.00000000000E+00 -0.00000000000E+00 -0.74505805969E-08  0.93827000000E+00  0.93827000000E+00 0.  1.
     999902    2    1    2    0    0  0.18405638121E-01 -0.16097685106E-01  0.14774649502E-02  0.10194333496E+01  0.10191389838E+01 0.  0.
     999903    2    3    3    0    0  0.12628325654E+00 -0.34667821133E-01  0.58787215777E-02  0.13264036268E+00  0.20238274151E-01 0.  0.
         14    1    1    2    0    0 -0.18405638121E-01  0.16097685106E-01 -0.14774649502E-02  0.24496650446E-01  0.00000000000E+00 0. -1.
     999901    1    3    3    0    0 -0.10787761842E+00  0.18570136028E-01 -0.44012566274E-02  0.88679298687E+00  0.88000000000E+00 0.  1.
        -11    1    4    4    0    0  0.87420585621E-01 -0.32274639461E-01 -0.44547278338E-03  0.93190507616E-01  0.51100000000E-03 0.  1.
         11    1    4    4    0    0  0.38862670917E-01 -0.23931816725E-02  0.63241943611E-02  0.39449855065E-01  0.51100000000E-03 0. -1.
</event>
<event>
 8    1  0.1117354E+005  0.1043930E+01  0.7957747E-01            NaN
         13   -1    0    0    0    0  0.00000000000E+00  0.00000000000E+00  0.74505805969E-08  0.10566000000E+00  0.10566000000E+00 0. -1.
     999900   -1    0    0    0    0 -0.00000000000E+00 -0.00000000000E+00 -0.74505805969E-08  0.93827000000E+00  0.93827000000E+00 0. -1.
     999902    2    1    2    0    0 -0.76704800413E-02 -0.73019488329E-04  0.22850898228E-01  0.10198259517E+01  0.10195410568E+01 0.  0.
     999903    2    3    3    0    0 -0.92727871613E-02  0.46150170116E-01 -0.11682355431E+00  0.12761067309E+00  0.20516292602E-01 0.  0.
         14    1    1    2    0    0  0.76704800413E-02  0.73019488329E-04 -0.22850898228E-01  0.24104048327E-01  0.00000000000E+00 0.  1.
     999901    1    3    3    0    0  0.16023071200E-02 -0.46223189604E-01  0.13967445254E+00  0.89221527858E+00  0.88000000000E+00 0.  1.
        -11    1    4    4    0    0  0.49420625790E-04  0.16516984660E-01 -0.66047542952E-01  0.68083421445E-01  0.51100000000E-03 0. -1.
         11    1    4    4    0    0 -0.93222077871E-02  0.29633185457E-01 -0.50776011356E-01  0.59527251646E-01  0.51100000000E-03 0.  1.
</event>
<event>
 8    1  0.1117354E+005  0.1043930E+01  0.7957747E-01            NaN
         13   -1    0    0    0    0  0.00000000000E+00  0.00000000000E+00  0.74505805969E-08  0.10566000000E+00  0.10566000000E+00 0. -1.
     999900   -1    0    0    0    0 -0.00000000000E+00 -0.00000000000E+00 -0.74505805969E-08  0.93827000000E+00  0.93827000000E+00 0.  1.
     999902    2    1    2    0    0  0.14995895866E-01 -0.17879274268E-01 -0.21781294133E-02  0.10204930721E+01  0.10202239071E+01 0.  0.
     999903    2    3    3    0    0  0.66016483618E-01 -0.11189148593E+00  0.23845398300E-01  0.13363422184E+00  0.20288457133E-01 0.  0.
         14    1    1    2    0    0 -0.14995895866E-01  0.17879274268E-01  0.21781294133E-02  0.23436927890E-01  0.00000000000E+00 0. -1.
     999901    1    3    3    0    0 -0.51020587752E-01  0.94012211662E-01 -0.26023527713E-01  0.88685885027E+00  0.88000000000E+00 0. -1.
        -11    1    4    4    0    0  0.57249937024E-01 -0.80602066544E-01  0.15419219707E-01  0.10006129061E+00  0.51100000000E-03 0. -1.
         11    1    4    4    0    0  0.87665465933E-02 -0.31289419385E-01  0.84261785926E-02  0.33572931229E-01  0.51100000000E-03 0.  1.
</event>
<event>
 8    1  0.1117354E+005  0.1043930E+01  0.7957747E-01            NaN
         13   -1    0    0    0    0  0.00000000000E+00  0.00000000000E+00  0.74505805969E-08  0.10566000000E+00  0.10566000000E+00 0. -1.
     999900   -1    0    0    0    0 -0.00000000000E+00 -0.00000000000E+00 -0.74505805969E-08  0.93827000000E+00  0.93827000000E+00 0. -1.
     999902    2    1    2    0    0  0.21904386173E-01  0.45456983572E-02 -0.86593149303E-02  0.10199414769E+01  0.10196593387E+01 0.  0.
     999903    2    3    3    0    0  0.55228865546E-01 -0.11531628524E+00  0.19191199722E-01  0.13075473202E+00  0.19504475564E-01 0.  0.
         14    1    1    2    0    0 -0.21904386173E-01 -0.45456983572E-02  0.86593149303E-02  0.23988523136E-01  0.00000000000E+00 0. -1.
     999901    1    3    3    0    0 -0.33324479373E-01  0.11986198360E+00 -0.27850514652E-01  0.88918674484E+00  0.88000000000E+00 0. -1.
        -11    1    4    4    0    0  0.21730705642E-01 -0.36523327456E-01  0.14862004645E-01  0.45025740630E-01  0.51100000000E-03 0.  1.
         11    1    4    4    0    0  0.33498159904E-01 -0.78792957788E-01  0.43291950769E-02  0.85728991391E-01  0.51100000000E-03 0. -1.
</event>
<event>
 8    1  0.1117354E+005  0.1043930E+01  0.7957747E-01            NaN
         13   -1    0    0    0    0  0.00000000000E+00  0.00000000000E+00  0.74505805969E-08  0.10566000000E+00  0.10566000000E+00 0. -1.
     999900   -1    0    0    0    0 -0.00000000000E+00 -0.00000000000E+00 -0.74505805969E-08  0.93827000000E+00  0.93827000000E+00 0. -1.
     999902    2    1    2    0    0 -0.14535178883E-01  0.20343890868E-01 -0.25488754029E-02  0.10187975093E+01  0.10184874682E+01 0.  0.
     999903    2    3    3    0    0  0.35062219282E-01  0.12414254577E+00 -0.21022112484E-01  0.13111776802E+00  0.10450310350E-01 0.  0.
         14    1    1    2    0    0  0.14535178883E-01 -0.20343890868E-01  0.25488754029E-02  0.25132490658E-01  0.00000000000E+00 0. -1.
     999901    1    3    3    0    0 -0.49597398165E-01 -0.10379865490E+00  0.18473237081E-01  0.88767974132E+00  0.88000000000E+00 0.  1.
        -11    1    4    4    0    0  0.21979266256E-01  0.61659507787E-01 -0.78237770127E-02  0.65927654693E-01  0.51100000000E-03 0.  1.
         11    1    4    4    0    0  0.13082953026E-01  0.62483037983E-01 -0.13198335471E-01  0.65190113327E-01  0.51100000000E-03 0. -1.
</event>
<event>
 8    1  0.1117354E+005  0.1043930E+01  0.7957747E-01            NaN
         13   -1    0    0    0    0  0.00000000000E+00  0.00000000000E+00  0.74505805969E-08  0.10566000000E+00  0.10566000000E+00 0.  1.
     999900   -1    0    0    0    0 -0.00000000000E+00 -0.00000000000E+00 -0.74505805969E-08  0.93827000000E+00  0.93827000000E+00 0. -1.
     999902    2    1    2    0    0  0.87587302858E-02  0.20420495827E-01 -0.43323646582E-02  0.10212919482E+01  0.10210410188E+01 0.  0.
     999903    2    3    3    0    0 -0.10698291119E+00  0.75543950402E-02 -0.72189821726E-01  0.13103002123E+00  0.21332696326E-01 0.  0.
         14    1    1    2    0    0 -0.87587302858E-02 -0.20420495827E-01  0.43323646582E-02  0.22638051806E-01  0.00000000000E+00 0.  1.
     999901    1    3    3    0    0  0.11574164147E+00  0.12866100787E-01  0.67857457068E-01  0.89026192696E+00  0.88000000000E+00 0. -1.
        -11    1    4    4    0    0 -0.92102446775E-01  0.11212686579E-01 -0.54442521243E-01  0.10757710854E+00  0.51100000000E-03 0.  1.
         11    1    4    4    0    0 -0.14880464411E-01 -0.36582915389E-02 -0.17747300483E-01  0.23452912687E-01  0.51100000000E-03 0. -1.
</event>
<event>
 8    1  0.1117354E+005  0.1043930E+01  0.7957747E-01            NaN
         13   -1    0    0    0    0  0.00000000000E+00  0.00000000000E+00  0.74505805969E-08  0.10566000000E+00  0.10566000000E+00 0. -1.
     999900   -1    0    0    0    0 -0.00000000000E+00 -0.00000000000E+00 -0.74505805969E-08  0.93827000000E+00  0.93827000000E+00 0. -1.
     999902    2    1    2    0    0 -0.95363515145E-02  0.14020106072E-02  0.20628677622E-01  0.10211605034E+01  0.10209066185E+01 0.  0.
     999903    2    3    3    0    0 -0.11408036371E+00  0.33722799008E-01 -0.52486231012E-01  0.13137408314E+00  0.18782670682E-01 0.  0.
         14    1    1    2    0    0  0.95363515145E-02 -0.14020106072E-02 -0.20628677622E-01  0.22769496577E-01  0.00000000000E+00 0.  1.
     999901    1    3    3    0    0  0.10454401220E+00 -0.32320788401E-01  0.73114908634E-01  0.88978642028E+00  0.88000000000E+00 0. -1.
        -11    1    4    4    0    0 -0.43425582165E-01  0.21668229726E-01 -0.17293792543E-01  0.51523099164E-01  0.51100000000E-03 0.  1.
         11    1    4    4    0    0 -0.70654781548E-01  0.12054569282E-01 -0.35192438469E-01  0.79850983980E-01  0.51100000000E-03 0. -1.
</event>
<event>
 8    1  0.1117354E+005  0.1043930E+01  0.7957747E-01            NaN
         13   -1    0    0    0    0  0.00000000000E+00  0.00000000000E+00  0.74505805969E-08  0.10566000000E+00  0.10566000000E+00 0. -1.
     999900   -1    0    0    0    0 -0.00000000000E+00 -0.00000000000E+00 -0.74505805969E-08  0.93827000000E+00  0.93827000000E+00 0. -1.
     999902    2    1    2    0    0  0.59246928362E-02  0.21582437693E-01  0.41438062630E-02  0.10211687449E+01  0.10209150459E+01 0.  0.
     999903    2    3    3    0    0 -0.35044032810E-01 -0.11763783074E-01  0.12447798737E+00  0.13140994500E+00  0.20182504213E-01 0.  0.
         14    1    1    2    0    0 -0.59246928362E-02 -0.21582437693E-01 -0.41438062630E-02  0.22761255069E-01  0.00000000000E+00 0.  1.
     999901    1    3    3    0    0  0.40968725646E-01  0.33346220766E-01 -0.12033418111E+00  0.88975879994E+00  0.88000000000E+00 0. -1.
        -11    1    4    4    0    0 -0.11919537162E-01  0.27993912265E-02  0.62233915170E-01  0.63428962436E-01  0.51100000000E-03 0.  1.
         11    1    4    4    0    0 -0.23124495647E-01 -0.14563174300E-01  0.62244072200E-01  0.67980982559E-01  0.51100000000E-03 0. -1.
</event>
<event>
 8    1  0.1117354E+005  0.1043930E+01  0.7957747E-01            NaN
         13   -1    0    0    0    0  0.00000000000E+00  0.00000000000E+00  0.74505805969E-08  0.10566000000E+00  0.10566000000E+00 0. -1.
     999900   -1    0    0    0    0 -0.00000000000E+00 -0.00000000000E+00 -0.74505805969E-08  0.93827000000E+00  0.93827000000E+00 0.  1.
     999902    2    1    2    0    0 -0.42562406657E-02 -0.19783050935E-01 -0.13676396297E-01  0.10195060670E+01  0.10192134674E+01 0.  0.
     999903    2    3    3    0    0 -0.17144443889E-01  0.95649972937E-01 -0.83009082623E-01  0.12917022574E+00  0.18750737094E-01 0.  0.
         14    1    1    2    0    0  0.42562406657E-02  0.19783050935E-01  0.13676396297E-01  0.24423933028E-01  0.00000000000E+00 0.  1.
     999901    1    3    3    0    0  0.12888203223E-01 -0.11543302387E+00  0.69332686326E-01  0.89033584123E+00  0.88000000000E+00 0. -1.
        -11    1    4    4    0    0 -0.57393014258E-02  0.58229093666E-01 -0.59874058625E-01  0.83718163783E-01  0.51100000000E-03 0.  1.
         11    1    4    4    0    0 -0.11405142463E-01  0.37420879272E-01 -0.23135023997E-01  0.45452061960E-01  0.51100000000E-03 0. -1.
</event>
<event>
 8    1  0.1117354E+005  0.1043930E+01  0.7957747E-01            NaN
         13   -1    0    0    0    0  0.00000000000E+00  0.00000000000E+00  0.74505805969E-08  0.10566000000E+00  0.10566000000E+00 0. -1.
     999900   -1    0    0    0    0 -0.00000000000E+00 -0.00000000000E+00 -0.74505805969E-08  0.93827000000E+00  0.93827000000E+00 0. -1.
     999902    2    1    2    0    0 -0.20356067639E-01  0.52840484873E-02  0.54991723314E-02  0.10221922091E+01  0.10219610466E+01 0.  0.
     999903    2    3    3    0    0  0.73524985786E-01  0.43181434233E-01 -0.96048476561E-01  0.13058591197E+00  0.23596837875E-01 0.  0.
         14    1    1    2    0    0  0.20356067639E-01 -0.52840484873E-02 -0.54991723314E-02  0.21737790929E-01  0.00000000000E+00 0. -1.
     999901    1    3    3    0    0 -0.93881053424E-01 -0.37897385746E-01  0.10154764889E+00  0.89160629710E+00  0.88000000000E+00 0. -1.
        -11    1    4    4    0    0  0.13511321438E-01  0.19399041014E-01 -0.21365154234E-01  0.31868629335E-01  0.51100000000E-03 0. -1.
         11    1    4    4    0    0  0.60013664347E-01  0.23782393219E-01 -0.74683322327E-01  0.98717282633E-01  0.51100000000E-03 0.  1.
</event>
<event>
 8    1  0.1117354E+005  0.1043930E+01  0.7957747E-01            NaN
         13   -1    0    0    0    0  0.00000000000E+00  0.00000000000E+00  0.74505805969E-08  0.10566000000E+00  0.10566000000E+00 0.  1.
     999900   -1    0    0    0    0 -0.00000000000E+00 -0.00000000000E+00 -0.74505805969E-08  0.93827000000E+00  0.93827000000E+00 0. -1.
     999902    2    1    2    0    0 -0.19977085794E-01  0.44993338624E-02 -0.99454886574E-02  0.10211650992E+01  0.10209113180E+01 0.  0.
     999903    2    3    3    0    0  0.13652863325E-01  0.72870470270E-01 -0.10782826882E+00  0.13246569875E+00  0.20584452262E-01 0.  0.
         14    1    1    2    0    0  0.19977085794E-01 -0.44993338624E-02  0.99454886574E-02  0.22764900761E-01  0.00000000000E+00 0.  1.
     999901    1    3    3    0    0 -0.33629949119E-01 -0.68371136408E-01  0.97882780163E-01  0.88869940049E+00  0.88000000000E+00 0. -1.
        -11    1    4    4    0    0  0.36972825660E-02  0.24838421213E-01 -0.54482297318E-01  0.59993323868E-01  0.51100000000E-03 0.  1.
         11    1    4    4    0    0  0.99555807590E-02  0.48032049057E-01 -0.53345971503E-01  0.72472374885E-01  0.51100000000E-03 0. -1.
</event>
<event>
 8    1  0.1117354E+005  0.1043930E+01  0.7957747E-01            NaN
         13   -1    0    0    0    0  0.00000000000E+00  0.00000000000E+00  0.74505805969E-08  0.10566000000E+00  0.10566000000E+00 0.  1.
     999900   -1    0    0    0    0 -0.00000000000E+00 -0.00000000000E+00 -0.74505805969E-08  0.93827000000E+00  0.93827000000E+00 0.  1.
     999902    2    1    2    0    0  0.19021643186E-01 -0.92167034783E-02  0.91808361655E-02  0.10208852981E+01  0.10206251680E+01 0.  0.
     999903    2    3    3    0    0  0.19227741059E-01 -0.11511501694E+00 -0.58065783499E-01  0.13198901444E+00  0.20695206365E-01 0.  0.
         14    1    1    2    0    0 -0.19021643186E-01  0.92167034783E-02 -0.91808361655E-02  0.23044701890E-01  0.00000000000E+00 0.  1.
     999901    1    3    3    0    0 -0.20609787272E-03  0.10589831347E+00  0.67246619664E-01  0.88889628367E+00  0.88000000000E+00 0. -1.
        -11    1    4    4    0    0  0.14063887316E-01 -0.89661582256E-01 -0.54239819239E-01  0.10573178979E+00  0.51100000000E-03 0.  1.
         11    1    4    4    0    0  0.51638537425E-02 -0.25453434688E-01 -0.38259642594E-02  0.26257224652E-01  0.51100000000E-03 0. -1.
</event>
<event>
 8    1  0.1117354E+005  0.1043930E+01  0.7957747E-01            NaN
         13   -1    0    0    0    0  0.00000000000E+00  0.00000000000E+00  0.74505805969E-08  0.10566000000E+00  0.10566000000E+00 0. -1.
     999900   -1    0    0    0    0 -0.00000000000E+00 -0.00000000000E+00 -0.74505805969E-08  0.93827000000E+00  0.93827000000E+00 0.  1.
     999902    2    1    2    0    0  0.40549688247E-02  0.18744797310E-01  0.13095720621E-01  0.10207069921E+01  0.10204427743E+01 0.  0.
     999903    2    3    3    0    0 -0.77810066869E-02 -0.25156973985E-01 -0.12453181782E+00  0.12885005558E+00  0.20018635554E-01 0.  0.
         14    1    1    2    0    0 -0.40549688247E-02 -0.18744797310E-01 -0.13095720621E-01  0.23223007922E-01  0.00000000000E+00 0. -1.
     999901    1    3    3    0    0  0.11835975512E-01  0.43901771295E-01  0.13762753844E+00  0.89185693650E+00  0.88000000000E+00 0. -1.
        -11    1    4    4    0    0  0.33965401751E-02 -0.44736055511E-02 -0.58209254996E-01  0.58481861461E-01  0.51100000000E-03 0. -1.
         11    1    4    4    0    0 -0.11177546862E-01 -0.20683368434E-01 -0.66322562821E-01  0.70368194121E-01  0.51100000000E-03 0.  1.
</event>
<event>
 8    1  0.1117354E+005  0.1043930E+01  0.7957747E-01            NaN
         13   -1    0    0    0    0  0.00000000000E+00  0.00000000000E+00  0.74505805969E-08  0.10566000000E+00  0.10566000000E+00 0.  1.
     999900   -1    0    0    0    0 -0.00000000000E+00 -0.00000000000E+00 -0.74505805969E-08  0.93827000000E+00  0.93827000000E+00 0.  1.
     999902    2    1    2    0    0 -0.89185754268E-02  0.44030832217E-02 -0.21592002677E-01  0.10201572696E+01  0.10198802440E+01 0.  0.
     999903    2    3    3    0    0 -0.11138616978E+00 -0.60921133425E-01 -0.28934963024E-01  0.13177628141E+00  0.20235931892E-01 0.  0.
         14    1    1    2    0    0  0.89185754268E-02 -0.44030832217E-02  0.21592002677E-01  0.23772730367E-01  0.00000000000E+00 0.  1.
     999901    1    3    3    0    0  0.10246759436E+00  0.65324216647E-01  0.73429603470E-02  0.88838098823E+00  0.88000000000E+00 0.  1.
        -11    1    4    4    0    0 -0.50582907547E-01 -0.25746000792E-01 -0.28133531377E-02  0.56830125546E-01  0.51100000000E-03 0.  1.
         11    1    4    4    0    0 -0.60803262237E-01 -0.35175132633E-01 -0.26121609887E-01  0.74946155861E-01  0.51100000000E-03 0. -1.
</event>
<event>
 8    1  0.1117354E+005  0.1043930E+01  0.7957747E-01            NaN
         13   -1    0    0    0    0  0.00000000000E+00  0.00000000000E+00  0.74505805969E-08  0.10566000000E+00  0.10566000000E+00 0. -1.
     999900   -1    0    0    0    0 -0.00000000000E+00 -0.00000000000E+00 -0.74505805969E-08  0.93827000000E+00  0.93827000000E+00 0. -1.
     999902    2    1    2    0    0 -0.15718900933E-01  0.97734889418E-02  0.15174597849E-01  0.10199952271E+01  0.10197143669E+01 0.  0.
     999903    2    3    3    0    0 -0.12323402274E+00  0.23149749977E-01 -0.34853789309E-01  0.13194046232E+00  0.21701697706E-01 0.  0.
         14    1    1    2    0    0  0.15718900933E-01 -0.97734889418E-02 -0.15174597849E-01  0.23934772874E-01  0.00000000000E+00 0.  1.
     999901    1    3    3    0    0  0.10751512181E+00 -0.13376261035E-01  0.50028387159E-01  0.88805476481E+00  0.88000000000E+00 0.  1.
        -11    1    4    4    0    0 -0.36461325899E-02  0.51257933443E-02 -0.15312625079E-02  0.64941455281E-02  0.51100000000E-03 0.  1.
         11    1    4    4    0    0 -0.11958789015E+00  0.18023956633E-01 -0.33322526801E-01  0.12544631679E+00  0.51100000000E-03 0. -1.
</event>
<event>
 8    1  0.1117354E+005  0.1043930E+01  0.7957747E-01            NaN
         13   -1    0    0    0    0  0.00000000000E+00  0.00000000000E+00  0.74505805969E-08  0.10566000000E+00  0.10566000000E+00 0. -1.
     999900   -1    0    0    0    0 -0.00000000000E+00 -0.00000000000E+00 -0.74505805969E-08  0.93827000000E+00  0.93827000000E+00 0. -1.
     999902    2    1    2    0    0  0.62701773430E-02  0.21802252428E-01 -0.18910923740E-01  0.10143956747E+01  0.10139656348E+01 0.  0.
     999903    2    3    3    0    0 -0.75088205605E-01  0.81450258447E-01 -0.60046879970E-01  0.12767743421E+00  0.20579509009E-01 0.  0.
         14    1    1    2    0    0 -0.62701773430E-02 -0.21802252428E-01  0.18910923740E-01  0.29534325310E-01  0.00000000000E+00 0.  1.
     999901    1    3    3    0    0  0.81358382948E-01 -0.59648006019E-01  0.41135956231E-01  0.88671824048E+00  0.88000000000E+00 0. -1.
        -11    1    4    4    0    0 -0.28901293572E-01  0.19577240699E-01 -0.24657521500E-01  0.42741169977E-01  0.51100000000E-03 0. -1.
         11    1    4    4    0    0 -0.46186912033E-01  0.61873017748E-01 -0.35389358470E-01  0.84936264236E-01  0.51100000000E-03 0.  1.
</event>
<event>
 8    1  0.1117354E+005  0.1043930E+01  0.7957747E-01            NaN
         13   -1    0    0    0    0  0.00000000000E+00  0.00000000000E+00  0.74505805969E-08  0.10566000000E+00  0.10566000000E+00 0. -1.
     999900   -1    0    0    0    0 -0.00000000000E+00 -0.00000000000E+00 -0.74505805969E-08  0.93827000000E+00  0.93827000000E+00 0.  1.
     999902    2    1    2    0    0  0.19549829648E-01  0.14406642737E-01  0.42352186621E-02  0.10192787471E+01  0.10189806082E+01 0.  0.
     999903    2    3    3    0    0  0.87274688504E-02 -0.80206040713E-01 -0.97694322691E-01  0.12829147737E+00  0.20133176587E-01 0.  0.
         14    1    1    2    0    0 -0.19549829648E-01 -0.14406642737E-01 -0.42352186621E-02  0.24651252936E-01  0.00000000000E+00 0.  1.
     999901    1    3    3    0    0  0.10822360798E-01  0.94612683449E-01  0.10192954135E+00  0.89098726970E+00  0.88000000000E+00 0. -1.
        -11    1    4    4    0    0  0.13746329119E-01 -0.41817256698E-01 -0.58319857107E-01  0.73069223179E-01  0.51100000000E-03 0. -1.
         11    1    4    4    0    0 -0.50188602688E-02 -0.38388784015E-01 -0.39374465584E-01  0.55222254187E-01  0.51100000000E-03 0.  1.
</event>
<event>
 8    1  0.1117354E+005  0.1043930E+01  0.7957747E-01            NaN
         13   -1    0    0    0    0  0.00000000000E+00  0.00000000000E+00  0.74505805969E-08  0.10566000000E+00  0.10566000000E+00 0.  1.
     999900   -1    0    0    0    0 -0.00000000000E+00 -0.00000000000E+00 -0.74505805969E-08  0.93827000000E+00  0.93827000000E+00 0. -1.
     999902    2    1    2    0    0  0.53968204678E-02  0.16048633443E-01  0.17084742958E-01  0.10198764608E+01  0.10195927729E+01 0.  0.
     999903    2    3    3    0    0 -0.46506021706E-01 -0.18122851484E-01 -0.11591082473E+00  0.12771648835E+00  0.19619742740E-01 0.  0.
         14    1    1    2    0    0 -0.53968204678E-02 -0.16048633443E-01 -0.17084742958E-01  0.24053539209E-01  0.00000000000E+00 0. -1.
     999901    1    3    3    0    0  0.51902842174E-01  0.34171484927E-01  0.13299556769E+00  0.89215997244E+00  0.88000000000E+00 0.  1.
        -11    1    4    4    0    0 -0.44960316196E-01 -0.12471641042E-01 -0.92817675775E-01  0.10388625472E+00  0.51100000000E-03 0.  1.
         11    1    4    4    0    0 -0.15457055098E-02 -0.56512104420E-02 -0.23093148955E-01  0.23830233625E-01  0.51100000000E-03 0. -1.
</event>
<event>
 8    1  0.1117354E+005  0.1043930E+01  0.7957747E-01            NaN
         13   -1    0    0    0    0  0.00000000000E+00  0.00000000000E+00  0.74505805969E-08  0.10566000000E+00  0.10566000000E+00 0. -1.
     999900   -1    0    0    0    0 -0.00000000000E+00 -0.00000000000E+00 -0.74505805969E-08  0.93827000000E+00  0.93827000000E+00 0. -1.
     999902    2    1    2    0    0 -0.10829821975E-01  0.21937515908E-01  0.53935292054E-02  0.10188774591E+01  0.10185694119E+01 0.  0.
     999903    2    3    3    0    0 -0.10440973222E+00 -0.45164757450E-01  0.58837975955E-01  0.12976766634E+00  0.20892398525E-01 0.  0.
         14    1    1    2    0    0  0.10829821975E-01 -0.21937515908E-01 -0.53935292054E-02  0.25052540899E-01  0.00000000000E+00 0. -1.
     999901    1    3    3    0    0  0.93579910243E-01  0.67102273358E-01 -0.53444446749E-01  0.88910979276E+00  0.88000000000E+00 0. -1.
        -11    1    4    4    0    0 -0.52436552279E-01 -0.29910737158E-01  0.39994056439E-01  0.72415674296E-01  0.51100000000E-03 0. -1.
         11    1    4    4    0    0 -0.51973179938E-01 -0.15254020292E-01  0.18843919516E-01  0.57351992047E-01  0.51100000000E-03 0.  1.
</event>
<event>
 8    1  0.1117354E+005  0.1043930E+01  0.7957747E-01            NaN
         13   -1    0    0    0    0  0.00000000000E+00  0.00000000000E+00  0.74505805969E-08  0.10566000000E+00  0.10566000000E+00 0. -1.
     999900   -1    0    0    0    0 -0.00000000000E+00 -0.00000000000E+00 -0.74505805969E-08  0.93827000000E+00  0.93827000000E+00 0. -1.
     999902    2    1    2    0    0 -0.25316840158E-02  0.18602965339E-01  0.44663426304E-02  0.10246316073E+01  0.10244498537E+01 0.  0.
     999903    2    3    3    0    0 -0.43464430921E-01 -0.11778020683E+00 -0.36958543864E-01  0.13222369575E+00  0.18863665551E-01 0.  0.
         14    1    1    2    0    0  0.25316840158E-02 -0.18602965339E-01 -0.44663426304E-02  0.19298392676E-01  0.00000000000E+00 0.  1.
     999901    1    3    3    0    0  0.40932746905E-01  0.13638317217E+00  0.41424886495E-01  0.89240791157E+00  0.88000000000E+00 0.  1.
        -11    1    4    4    0    0 -0.14623783851E-01 -0.18804500215E-01 -0.81235859216E-02  0.25173757202E-01  0.51100000000E-03 0.  1.
         11    1    4    4    0    0 -0.28840647070E-01 -0.98975706611E-01 -0.28834957943E-01  0.10704993855E+00  0.51100000000E-03 0. -1.
</event>
<event>
 8    1  0.1117354E+005  0.1043930E+01  0.7957747E-01            NaN
         13   -1    0    0    0    0  0.00000000000E+00  0.00000000000E+00  0.74505805969E-08  0.10566000000E+00  0.10566000000E+00 0.  1.
     999900   -1    0    0    0    0 -0.00000000000E+00 -0.00000000000E+00 -0.74505805969E-08  0.93827000000E+00  0.93827000000E+00 0. -1.
     999902    2    1    2    0    0 -0.83623490363E-02 -0.20476341119E-03 -0.21787100280E-01  0.10205922934E+01  0.10203254289E+01 0.  0.
     999903    2    3    3    0    0  0.71910451598E-01  0.67428998743E-01 -0.85860778731E-01  0.13204095300E+00  0.18573018723E-01 0.  0.
         14    1    1    2    0    0  0.83623490363E-02  0.20476341119E-03  0.21787100280E-01  0.23337706572E-01  0.00000000000E+00 0.  1.
     999901    1    3    3    0    0 -0.80272800634E-01 -0.67633762154E-01  0.64073678451E-01  0.88855134043E+00  0.88000000000E+00 0.  1.
        -11    1    4    4    0    0  0.11425969867E-01  0.21457788950E-01 -0.19590649221E-01  0.31225696981E-01  0.51100000000E-03 0. -1.
         11    1    4    4    0    0  0.60484481730E-01  0.45971209793E-01 -0.66270129510E-01  0.10081525602E+00  0.51100000000E-03 0.  1.
</event>
<event>
 8    1  0.1117354E+005  0.1043930E+01  0.7957747E-01            NaN
         13   -1    0    0    0    0  0.00000000000E+00  0.00000000000E+00  0.74505805969E-08  0.10566000000E+00  0.10566000000E+00 0.  1.
     999900   -1    0    0    0    0 -0.00000000000E+00 -0.00000000000E+00 -0.74505805969E-08  0.93827000000E+00  0.93827000000E+00 0.  1.
     999902    2    1    2    0    0  0.16034373820E-01 -0.11317337252E-01 -0.12709179876E-01  0.10205482439E+01  0.10202803593E+01 0.  0.
     999903    2    3    3    0    0  0.15071737411E-01  0.77649345186E-01  0.99905281503E-01  0.12892163247E+00  0.19574063731E-01 0.  0.
         14    1    1    2    0    0 -0.16034373820E-01  0.11317337252E-01  0.12709179876E-01  0.23381756122E-01  0.00000000000E+00 0.  1.
     999901    1    3    3    0    0  0.96263640887E-03 -0.88966682438E-01 -0.11261446138E+00  0.89162661140E+00  0.88000000000E+00 0.  1.
        -11    1    4    4    0    0  0.38997977784E-02  0.24655731140E-01  0.46941255218E-01  0.53168186570E-01  0.51100000000E-03 0. -1.
         11    1    4    4    0    0  0.11171939632E-01  0.52993614046E-01  0.52964026286E-01  0.75753445903E-01  0.51100000000E-03 0.  1.
</event>
<event>
 8    1  0.1117354E+005  0.1043930E+01  0.7957747E-01            NaN
         13   -1    0    0    0    0  0.00000000000E+00  0.00000000000E+00  0.74505805969E-08  0.10566000000E+00  0.10566000000E+00 0.  1.
     999900   -1    0    0    0    0 -0.00000000000E+00 -0.00000000000E+00 -0.74505805969E-08  0.93827000000E+00  0.93827000000E+00 0.  1.
     999902    2    1    2    0    0  0.18094303637E-01  0.15447889757E-01  0.18666313091E-02  0.10200652680E+01  0.10197860685E+01 0.  0.
     999903    2    3    3    0    0  0.12037343921E+00  0.84977762902E-02 -0.50943593290E-01  0.13254160887E+00  0.20249723824E-01 0.  0.
         14    1    1    2    0    0 -0.18094303637E-01 -0.15447889757E-01 -0.18666313091E-02  0.23864732022E-01  0.00000000000E+00 0. -1.
     999901    1    3    3    0    0 -0.10227913558E+00  0.69501134673E-02  0.52810224599E-01  0.88752365911E+00  0.88000000000E+00 0. -1.
        -11    1    4    4    0    0  0.65111659777E-01  0.80285385803E-02 -0.37862869216E-01  0.75748555477E-01  0.51100000000E-03 0. -1.
         11    1    4    4    0    0  0.55261779436E-01  0.46923770990E-03 -0.13080724075E-01  0.56793053394E-01  0.51100000000E-03 0.  1.
</event>
<event>
 8    1  0.1117354E+005  0.1043930E+01  0.7957747E-01            NaN
         13   -1    0    0    0    0  0.00000000000E+00  0.00000000000E+00  0.74505805969E-08  0.10566000000E+00  0.10566000000E+00 0.  1.
     999900   -1    0    0    0    0 -0.00000000000E+00 -0.00000000000E+00 -0.74505805969E-08  0.93827000000E+00  0.93827000000E+00 0. -1.
     999902    2    1    2    0    0 -0.20354277189E-02 -0.62058843002E-02  0.23172768849E-01  0.10198544277E+01  0.10195702136E+01 0.  0.
     999903    2    3    3    0    0  0.99568364074E-01  0.63631199633E-01  0.52244138350E-01  0.13078429923E+00  0.20305029954E-01 0.  0.
         14    1    1    2    0    0  0.20354277189E-02  0.62058843002E-02 -0.23172768849E-01  0.24075572310E-01  0.00000000000E+00 0. -1.
     999901    1    3    3    0    0 -0.10160379179E+00 -0.69837083933E-01 -0.29071369502E-01  0.88907012846E+00  0.88000000000E+00 0.  1.
        -11    1    4    4    0    0  0.61434959038E-01  0.44354053603E-01  0.23695567436E-01  0.79393181698E-01  0.51100000000E-03 0.  1.
         11    1    4    4    0    0  0.38133405036E-01  0.19277146030E-01  0.28548570915E-01  0.51391117530E-01  0.51100000000E-03 0. -1.
</event>
<event>
 8    1  0.1117354E+005  0.1043930E+01  0.7957747E-01            NaN
         13   -1    0    0    0    0  0.00000000000E+00  0.00000000000E+00  0.74505805969E-08  0.10566000000E+00  0.10566000000E+00 0.  1.
     999900   -1    0    0    0    0 -0.00000000000E+00 -0.00000000000E+00 -0.74505805969E-08  0.93827000000E+00  0.93827000000E+00 0.  1.
     999902    2    1    2    0    0  0.46804986292E-02 -0.16206756420E-01 -0.15772718433E-01  0.10208357438E+01  0.10205744810E+01 0.  0.
     999903    2    3    3    0    0  0.51225443265E-01 -0.12085611041E+00 -0.12522848553E-01  0.13340772939E+00  0.20262158459E-01 0.  0.
         14    1    1    2    0    0 -0.46804986292E-02  0.16206756420E-01  0.15772718433E-01  0.23094256166E-01  0.00000000000E+00 0. -1.
     999901    1    3    3    0    0 -0.46544944636E-01  0.10464935399E+00 -0.32498698805E-02  0.88742801444E+00  0.88000000000E+00 0. -1.
        -11    1    4    4    0    0  0.11109162723E-01 -0.48938324256E-01 -0.89583404618E-02  0.50979270907E-01  0.51100000000E-03 0. -1.
         11    1    4    4    0    0  0.40116280542E-01 -0.71917786151E-01 -0.35645080911E-02  0.82428458485E-01  0.51100000000E-03 0.  1.
</event>
<event>
 8    1  0.1117354E+005  0.1043930E+01  0.7957747E-01            NaN
         13   -1    0    0    0    0  0.00000000000E+00  0.00000000000E+00  0.74505805969E-08  0.10566000000E+00  0.10566000000E+00 0.  1.
     999900   -1    0    0    0    0 -0.00000000000E+00 -0.00000000000E+00 -0.74505805969E-08  0.93827000000E+00  0.93827000000E+00 0. -1.
     999902    2    1    2    0    0 -0.50689226488E-04  0.53932532145E-02  0.22533201602E-01  0.10207603016E+01  0.10204973094E+01 0.  0.
     999903    2    3    3    0    0  0.60136406628E-01  0.96820267797E-01 -0.59579269720E-01  0.13018529440E+00  0.20198263255E-01 0.  0.
         14    1    1    2    0    0  0.50689226488E-04 -0.53932532145E-02 -0.22533201602E-01  0.23169698403E-01  0.00000000000E+00 0. -1.
     999901    1    3    3    0    0 -0.60187095855E-01 -0.91427014582E-01  0.82112471322E-01  0.89057500720E+00  0.88000000000E+00 0.  1.
        -11    1    4    4    0    0  0.56675516703E-01  0.80256859173E-01 -0.55209841352E-01  0.11270166521E+00  0.51100000000E-03 0. -1.
         11    1    4    4    0    0  0.34608899257E-02  0.16563408624E-01 -0.43694283676E-02  0.17483629188E-01  0.51100000000E-03 0.  1.
</event>
<event>
 8    1  0.1117354E+005  0.1043930E+01  0.7957747E-01            NaN
         13   -1    0    0    0    0  0.00000000000E+00  0.00000000000E+00  0.74505805969E-08  0.10566000000E+00  0.10566000000E+00 0.  1.
     999900   -1    0    0    0    0 -0.00000000000E+00 -0.00000000000E+00 -0.74505805969E-08  0.93827000000E+00  0.93827000000E+00 0. -1.
     999902    2    1    2    0    0 -0.11434454758E-01 -0.17061542268E-01 -0.15821282275E-01  0.10180040294E+01  0.10176738416E+01 0.  0.
     999903    2    3    3    0    0  0.58063981059E-01 -0.11066224966E+00  0.26414772287E-01  0.12931116381E+00  0.20151364560E-01 0.  0.
         14    1    1    2    0    0  0.11434454758E-01  0.17061542268E-01  0.15821282275E-01  0.25925970628E-01  0.00000000000E+00 0. -1.
     999901    1    3    3    0    0 -0.69498435817E-01  0.93600707391E-01 -0.42236054562E-01  0.88869286557E+00  0.88000000000E+00 0. -1.
        -11    1    4    4    0    0  0.22871500998E-01 -0.50354064799E-01  0.20163141734E-02  0.55344051564E-01  0.51100000000E-03 0. -1.
         11    1    4    4    0    0  0.35192480062E-01 -0.60308184860E-01  0.24398458113E-01  0.73967112241E-01  0.51100000000E-03 0.  1.
</event>
<event>
 8    1  0.1117354E+005  0.1043930E+01  0.7957747E-01            NaN
         13   -1    0    0    0    0  0.00000000000E+00  0.00000000000E+00  0.74505805969E-08  0.10566000000E+00  0.10566000000E+00 0. -1.
     999900   -1    0    0    0    0 -0.00000000000E+00 -0.00000000000E+00 -0.74505805969E-08  0.93827000000E+00  0.93827000000E+00 0. -1.
     999902    2    1    2    0    0 -0.20748894458E-01 -0.15650417834E-02  0.13038449546E-01  0.10193746107E+01  0.10190788143E+01 0.  0.
     999903    2    3    3    0    0 -0.50049613408E-02  0.64145612007E-01 -0.10933575283E+00  0.12834082523E+00  0.19425534618E-01 0.  0.
         14    1    1    2    0    0  0.20748894458E-01  0.15650417834E-02 -0.13038449546E-01  0.24555389298E-01  0.00000000000E+00 0.  1.
     999901    1    3    3    0    0 -0.15743933117E-01 -0.65710653790E-01  0.12237420238E+00  0.89103378548E+00  0.88000000000E+00 0.  1.
        -11    1    4    4    0    0  0.61591026163E-02  0.89088641622E-02 -0.16821050027E-01  0.20012777186E-01  0.51100000000E-03 0.  1.
         11    1    4    4    0    0 -0.11164063957E-01  0.55236747844E-01 -0.92514702804E-01  0.10832804804E+00  0.51100000000E-03 0. -1.
</event>
<event>
 8    1  0.1117354E+005  0.1043930E+01  0.7957747E-01            NaN
         13   -1    0    0    0    0  0.00000000000E+00  0.00000000000E+00  0.74505805969E-08  0.10566000000E+00  0.10566000000E+00 0. -1.
     999900   -1    0    0    0    0 -0.00000000000E+00 -0.00000000000E+00 -0.74505805969E-08  0.93827000000E+00  0.93827000000E+00 0.  1.
     999902    2    1    2    0    0  0.21752276368E-02 -0.22053305647E-01 -0.10113712541E-01  0.10195708726E+01  0.10192798424E+01 0.  0.
     999903    2    3    3    0    0 -0.82146414189E-01 -0.21925080458E-01  0.95421449039E-01  0.12926315837E+00  0.19364107485E-01 0.  0.
         14    1    1    2    0    0 -0.21752276368E-02  0.22053305647E-01  0.10113712541E-01  0.24359127378E-01  0.00000000000E+00 0. -1.
     999901    1    3    3    0    0  0.84321641826E-01 -0.12822518982E-03 -0.10553516158E+00  0.89030771425E+00  0.88000000000E+00 0.  1.
        -11    1    4    4    0    0 -0.24677976825E-01 -0.15007052584E-01  0.37942380228E-01  0.47687519393E-01  0.51100000000E-03 0. -1.
         11    1    4    4    0    0 -0.57468437364E-01 -0.69180278735E-02  0.57479068810E-01  0.81575638980E-01  0.51100000000E-03 0.  1.
</event>
<event>
 8    1  0.1117354E+005  0.1043930E+01  0.7957747E-01            NaN
         13   -1    0    0    0    0  0.00000000000E+00  0.00000000000E+00  0.74505805969E-08  0.10566000000E+00  0.10566000000E+00 0.  1.
     999900   -1    0    0    0    0 -0.00000000000E+00 -0.00000000000E+00 -0.74505805969E-08  0.93827000000E+00  0.93827000000E+00 0.  1.
     999902    2    1    2    0    0 -0.15400056661E-02  0.23182577484E-01  0.62283091745E-03  0.10206879813E+01  0.10204233257E+01 0.  0.
     999903    2    3    3    0    0  0.63966400500E-01 -0.10713384261E+00 -0.22793497263E-01  0.12837537740E+00  0.19782148028E-01 0.  0.
         14    1    1    2    0    0  0.15400056661E-02 -0.23182577484E-01 -0.62283091745E-03  0.23242018729E-01  0.00000000000E+00 0. -1.
     999901    1    3    3    0    0 -0.65506406166E-01  0.13031642009E+00  0.23416328181E-01  0.89231260387E+00  0.88000000000E+00 0.  1.
        -11    1    4    4    0    0  0.22756288218E-01 -0.34680932803E-01  0.16332090849E-02  0.41515590403E-01  0.51100000000E-03 0. -1.
         11    1    4    4    0    0  0.41210112282E-01 -0.72452909807E-01 -0.24426706348E-01  0.86859787001E-01  0.51100000000E-03 0.  1.
</event>
<event>
 8    1  0.1117354E+005  0.1043930E+01  0.7957747E-01            NaN
         13   -1    0    0    0    0  0.00000000000E+00  0.00000000000E+00  0.74505805969E-08  0.10566000000E+00  0.10566000000E+00 0.  1.
     999900   -1    0    0    0    0 -0.00000000000E+00 -0.00000000000E+00 -0.74505805969E-08  0.93827000000E+00  0.93827000000E+00 0.  1.
     999902    2    1    2    0    0  0.60814461388E-02  0.71435921861E-02  0.21651033706E-01  0.10203337682E+01  0.10200608885E+01 0.  0.
     999903    2    3    3    0    0  0.64347028641E-01 -0.10131234924E+00  0.49692179354E-01  0.13132090257E+00  0.19264852977E-01 0.  0.
         14    1    1    2    0    0 -0.60814461388E-02 -0.71435921861E-02 -0.21651033706E-01  0.23596231839E-01  0.00000000000E+00 0. -1.
     999901    1    3    3    0    0 -0.58265582502E-01  0.10845594142E+00 -0.28041145649E-01  0.88901286559E+00  0.88000000000E+00 0.  1.
        -11    1    4    4    0    0  0.29773130196E-01 -0.35434506986E-01  0.26769422987E-01  0.53468745030E-01  0.51100000000E-03 0. -1.
         11    1    4    4    0    0  0.34573898445E-01 -0.65877842252E-01  0.22922756367E-01  0.77852157542E-01  0.51100000000E-03 0.  1.
</event>
<event>
 8    1  0.1117354E+005  0.1043930E+01  0.7957747E-01            NaN
         13   -1    0    0    0    0  0.00000000000E+00  0.00000000000E+00  0.74505805969E-08  0.10566000000E+00  0.10566000000E+00 0. -1.
     999900   -1    0    0    0    0 -0.00000000000E+00 -0.00000000000E+00 -0.74505805969E-08  0.93827000000E+00  0.93827000000E+00 0.  1.
     999902    2    1    2    0    0 -0.16280234047E-02 -0.58028604798E-02  0.20695525244E-01  0.10223747590E+01  0.10221475037E+01 0.  0.
     999903    2    3    3    0    0  0.33404433031E-01  0.82323026935E-01  0.98185364113E-01  0.13389396563E+00  0.19856772052E-01 0.  0.
         14    1    1    2    0    0  0.16280234047E-02  0.58028604798E-02 -0.20695525244E-01  0.21555241012E-01  0.00000000000E+00 0.  1.
     999901    1    3    3    0    0 -0.35032456436E-01 -0.88125887415E-01 -0.77489838869E-01  0.88848079336E+00  0.88000000000E+00 0.  1.
        -11    1    4    4    0    0  0.13355539370E-01  0.13086191102E-01  0.24370262001E-01  0.30721159165E-01  0.51100000000E-03 0. -1.
         11    1    4    4    0    0  0.20048893661E-01  0.69236835833E-01  0.73815102112E-01  0.10317280647E+00  0.51100000000E-03 0.  1.
</event>
<event>
 8    1  0.1117354E+005  0.1043930E+01  0.7957747E-01            NaN
         13   -1    0    0    0    0  0.00000000000E+00  0.00000000000E+00  0.74505805969E-08  0.10566000000E+00  0.10566000000E+00 0. -1.
     999900   -1    0    0    0    0 -0.00000000000E+00 -0.00000000000E+00 -0.74505805969E-08  0.93827000000E+00  0.93827000000E+00 0.  1.
     999902    2    1    2    0    0  0.17666936595E-01 -0.15736107142E-01  0.22135713490E-02  0.10201677271E+01  0.10198909480E+01 0.  0.
     999903    2    3    3    0    0 -0.45785893980E-01  0.42078229850E-01  0.11147664314E+00  0.12926527555E+00  0.20384895950E-01 0.  0.
         14    1    1    2    0    0 -0.17666936595E-01  0.15736107142E-01 -0.22135713490E-02  0.23762272929E-01  0.00000000000E+00 0.  1.
     999901    1    3    3    0    0  0.63452830575E-01 -0.57814336992E-01 -0.10926307179E+00  0.89090245152E+00  0.88000000000E+00 0.  1.
        -11    1    4    4    0    0 -0.60696775234E-02  0.15207069893E-01  0.39653494453E-01  0.42904040640E-01  0.51100000000E-03 0.  1.
         11    1    4    4    0    0 -0.39716216457E-01  0.26871159957E-01  0.71823148685E-01  0.86361234910E-01  0.51100000000E-03 0. -1.
</event>
<event>
 8    1  0.1117354E+005  0.1043930E+01  0.7957747E-01            NaN
         13   -1    0    0    0    0  0.00000000000E+00  0.00000000000E+00  0.74505805969E-08  0.10566000000E+00  0.10566000000E+00 0. -1.
     999900   -1    0    0    0    0 -0.00000000000E+00 -0.00000000000E+00 -0.74505805969E-08  0.93827000000E+00  0.93827000000E+00 0.  1.
     999902    2    1    2    0    0  0.20177081548E-01 -0.34712851639E-02 -0.12018735798E-01  0.10201894345E+01  0.10199131668E+01 0.  0.
     999903    2    3    3    0    0  0.88762965080E-01  0.83752531271E-01 -0.47599271611E-01  0.13250818984E+00  0.19984475301E-01 0.  0.
         14    1    1    2    0    0 -0.20177081548E-01  0.34712851639E-02  0.12018735798E-01  0.23740565509E-01  0.00000000000E+00 0. -1.
     999901    1    3    3    0    0 -0.68585883532E-01 -0.87223816435E-01  0.35580535813E-01  0.88768124465E+00  0.88000000000E+00 0.  1.
        -11    1    4    4    0    0  0.47777531427E-02  0.81036400848E-02  0.99176324909E-03  0.94731527518E-02  0.51100000000E-03 0. -1.
         11    1    4    4    0    0  0.83985211938E-01  0.75648891186E-01 -0.48591034860E-01  0.12303503709E+00  0.51100000000E-03 0.  1.
</event>
<event>
 8    1  0.1117354E+005  0.1043930E+01  0.7957747E-01            NaN
         13   -1    0    0    0    0  0.00000000000E+00  0.00000000000E+00  0.74505805969E-08  0.10566000000E+00  0.10566000000E+00 0. -1.
     999900   -1    0    0    0    0 -0.00000000000E+00 -0.00000000000E+00 -0.74505805969E-08  0.93827000000E+00  0.93827000000E+00 0.  1.
     999902    2    1    2    0    0  0.13353105048E-02 -0.66629683998E-02  0.21540793158E-01  0.10213427476E+01  0.10210929556E+01 0.  0.
     999903    2    3    3    0    0 -0.69205341422E-02 -0.11210651554E+00 -0.64120365203E-01  0.13087975865E+00  0.20058050049E-01 0.  0.
         14    1    1    2    0    0 -0.13353105048E-02  0.66629683998E-02 -0.21540793158E-01  0.22587252421E-01  0.00000000000E+00 0.  1.
     999901    1    3    3    0    0  0.82558446470E-02  0.10544354714E+00  0.85661158361E-01  0.89046298893E+00  0.88000000000E+00 0.  1.
        -11    1    4    4    0    0  0.24015321934E-03 -0.73965334786E-01 -0.51261675674E-01  0.89994160574E-01  0.51100000000E-03 0. -1.
         11    1    4    4    0    0 -0.71606873615E-02 -0.38141180750E-01 -0.12858689528E-01  0.40885598075E-01  0.51100000000E-03 0.  1.
</event>
<event>
 8    1  0.1117354E+005  0.1043930E+01  0.7957747E-01            NaN
         13   -1    0    0    0    0  0.00000000000E+00  0.00000000000E+00  0.74505805969E-08  0.10566000000E+00  0.10566000000E+00 0.  1.
     999900   -1    0    0    0    0 -0.00000000000E+00 -0.00000000000E+00 -0.74505805969E-08  0.93827000000E+00  0.93827000000E+00 0. -1.
     999902    2    1    2    0    0  0.12223182608E-01  0.66331794387E-02  0.20003237543E-01  0.10195674309E+01  0.10192763174E+01 0.  0.
     999903    2    3    3    0    0  0.11706819428E+00  0.55537651922E-01 -0.94033274739E-02  0.13150838443E+00  0.20411754310E-01 0.  0.
         14    1    1    2    0    0 -0.12223182608E-01 -0.66331794387E-02 -0.20003237543E-01  0.24362569132E-01  0.00000000000E+00 0. -1.
     999901    1    3    3    0    0 -0.10484501167E+00 -0.48904472483E-01  0.29406565017E-01  0.88805904644E+00  0.88000000000E+00 0.  1.
        -11    1    4    4    0    0  0.89055581648E-01  0.32853484299E-01 -0.35737626588E-02  0.94990951957E-01  0.51100000000E-03 0.  1.
         11    1    4    4    0    0  0.28012612631E-01  0.22684167623E-01 -0.58295648150E-02  0.36517432469E-01  0.51100000000E-03 0. -1.
</event>
<event>
 8    1  0.1117354E+005  0.1043930E+01  0.7957747E-01            NaN
         13   -1    0    0    0    0  0.00000000000E+00  0.00000000000E+00  0.74505805969E-08  0.10566000000E+00  0.10566000000E+00 0.  1.
     999900   -1    0    0    0    0 -0.00000000000E+00 -0.00000000000E+00 -0.74505805969E-08  0.93827000000E+00  0.93827000000E+00 0. -1.
     999902    2    1    2    0    0 -0.76645863309E-02 -0.16296298476E-01 -0.14731869918E-01  0.10206632164E+01  0.10203979901E+01 0.  0.
     999903    2    3    3    0    0 -0.10670571312E+00  0.82246938967E-02  0.71792113488E-01  0.13055264823E+00  0.20883764027E-01 0.  0.
         14    1    1    2    0    0  0.76645863309E-02  0.16296298476E-01  0.14731869918E-01  0.23266783597E-01  0.00000000000E+00 0.  1.
     999901    1    3    3    0    0  0.99041126788E-01 -0.24520992373E-01 -0.86523983406E-01  0.89011056817E+00  0.88000000000E+00 0. -1.
        -11    1    4    4    0    0 -0.97178572103E-01  0.12089973341E-02  0.64557977558E-01  0.11667531932E+00  0.51100000000E-03 0. -1.
         11    1    4    4    0    0 -0.95271410156E-02  0.70156965626E-02  0.72341359300E-02  0.13877328916E-01  0.51100000000E-03 0.  1.
</event>
<event>
 8    1  0.1117354E+005  0.1043930E+01  0.7957747E-01            NaN
         13   -1    0    0    0    0  0.00000000000E+00  0.00000000000E+00  0.74505805969E-08  0.10566000000E+00  0.10566000000E+00 0. -1.
     999900   -1    0    0    0    0 -0.00000000000E+00 -0.00000000000E+00 -0.74505805969E-08  0.93827000000E+00  0.93827000000E+00 0. -1.
     999902    2    1    2    0    0 -0.12096548570E-02 -0.15890668312E-01 -0.16826675934E-01  0.10207542880E+01  0.10204911576E+01 0.  0.
     999903    2    3    3    0    0  0.64342816727E-01  0.48342200916E-01 -0.10299384072E+00  0.13179547662E+00  0.16892305312E-01 0.  0.
         14    1    1    2    0    0  0.12096548570E-02  0.15890668312E-01  0.16826675934E-01  0.23175712012E-01  0.00000000000E+00 0. -1.
     999901    1    3    3    0    0 -0.65552471584E-01 -0.64232869227E-01  0.86167164781E-01  0.88895881137E+00  0.88000000000E+00 0. -1.
        -11    1    4    4    0    0  0.24714394225E-01  0.14520223122E-01 -0.25222787887E-01  0.38184922564E-01  0.51100000000E-03 0. -1.
         11    1    4    4    0    0  0.39628422502E-01  0.33821977793E-01 -0.77771052828E-01  0.93610554057E-01  0.51100000000E-03 0.  1.
</event>
<event>
 8    1  0.1117354E+005  0.1043930E+01  0.7957747E-01            NaN
         13   -1    0    0    0    0  0.00000000000E+00  0.00000000000E+00  0.74505805969E-08  0.10566000000E+00  0.10566000000E+00 0.  1.
     999900   -1    0    0    0    0 -0.00000000000E+00 -0.00000000000E+00 -0.74505805969E-08  0.93827000000E+00  0.93827000000E+00 0.  1.
     999902    2    1    2    0    0  0.24065711027E-01 -0.31490264146E-02 -0.43298421335E-02  0.10192759466E+01  0.10189777392E+01 0.  0.
     999903    2    3    3    0    0  0.70367430723E-01 -0.98360000983E-01 -0.48669656673E-01  0.13182172354E+00  0.19543956028E-01 0.  0.
         14    1    1    2    0    0 -0.24065711027E-01  0.31490264146E-02  0.43298421335E-02  0.24654053368E-01  0.00000000000E+00 0.  1.
     999901    1    3    3    0    0 -0.46301719696E-01  0.95210974569E-01  0.44339814539E-01  0.88745422309E+00  0.88000000000E+00 0.  1.
        -11    1    4    4    0    0  0.27360536786E-01 -0.52637722827E-01 -0.29035027129E-01  0.66050153360E-01  0.51100000000E-03 0.  1.
         11    1    4    4    0    0  0.43006893937E-01 -0.45722278157E-01 -0.19634629544E-01  0.65771570182E-01  0.51100000000E-03 0. -1.
</event>
<event>
 8    1  0.1117354E+005  0.1043930E+01  0.7957747E-01            NaN
         13   -1    0    0    0    0  0.00000000000E+00  0.00000000000E+00  0.74505805969E-08  0.10566000000E+00  0.10566000000E+00 0.  1.
     999900   -1    0    0    0    0 -0.00000000000E+00 -0.00000000000E+00 -0.74505805969E-08  0.93827000000E+00  0.93827000000E+00 0.  1.
     999902    2    1    2    0    0 -0.27190168568E-01  0.73115943749E-02 -0.39942469838E-02  0.10154920203E+01  0.10150937517E+01 0.  0.
     999903    2    3    3    0    0  0.83900119935E-02  0.36813347416E-01 -0.11935196610E+00  0.12676050516E+00  0.19942893654E-01 0.  0.
         14    1    1    2    0    0  0.27190168568E-01 -0.73115943749E-02  0.39942469838E-02  0.28437979675E-01  0.00000000000E+00 0. -1.
     999901    1    3    3    0    0 -0.35580180561E-01 -0.29501753041E-01  0.11535771912E+00  0.88873151516E+00  0.88000000000E+00 0. -1.
        -11    1    4    4    0    0 -0.64629333083E-02  0.88607357673E-02 -0.33841214578E-01  0.35577676574E-01  0.51100000000E-03 0. -1.
         11    1    4    4    0    0  0.14852945302E-01  0.27952611648E-01 -0.85510751526E-01  0.91182828589E-01  0.51100000000E-03 0.  1.
</event>
<event>
 8    1  0.1117354E+005  0.1043930E+01  0.7957747E-01            NaN
         13   -1    0    0    0    0  0.00000000000E+00  0.00000000000E+00  0.74505805969E-08  0.10566000000E+00  0.10566000000E+00 0. -1.
     999900   -1    0    0    0    0 -0.00000000000E+00 -0.00000000000E+00 -0.74505805969E-08  0.93827000000E+00  0.93827000000E+00 0.  1.
     999902    2    1    2    0    0 -0.13312921061E-01 -0.14605264535E-01  0.13785320099E-01  0.10198347169E+01  0.10195500317E+01 0.  0.
     999903    2    3    3    0    0 -0.51120684379E-02  0.11662667244E+00 -0.48437645123E-01  0.12789258159E+00  0.19554871348E-01 0.  0.
         14    1    1    2    0    0  0.13312921061E-01  0.14605264535E-01 -0.13785320099E-01  0.24095283138E-01  0.00000000000E+00 0.  1.
     999901    1    3    3    0    0 -0.82008526227E-02 -0.13123193697E+00  0.62222965222E-01  0.89194213527E+00  0.88000000000E+00 0. -1.
        -11    1    4    4    0    0  0.63313450363E-02  0.49665394529E-01 -0.15639947905E-01  0.52455756931E-01  0.51100000000E-03 0. -1.
         11    1    4    4    0    0 -0.11443413474E-01  0.66961277911E-01 -0.32797697218E-01  0.75436824663E-01  0.51100000000E-03 0.  1.
</event>
<event>
 8    1  0.1117354E+005  0.1043930E+01  0.7957747E-01            NaN
         13   -1    0    0    0    0  0.00000000000E+00  0.00000000000E+00  0.74505805969E-08  0.10566000000E+00  0.10566000000E+00 0.  1.
     999900   -1    0    0    0    0 -0.00000000000E+00 -0.00000000000E+00 -0.74505805969E-08  0.93827000000E+00  0.93827000000E+00 0. -1.
     999902    2    1    2    0    0 -0.16352734158E-02 -0.71801664000E-02  0.22653800287E-01  0.10201093456E+01  0.10198311887E+01 0.  0.
     999903    2    3    3    0    0  0.52491383006E-01 -0.11817506411E+00 -0.65208047394E-02  0.13100827157E+00  0.19998881426E-01 0.  0.
         14    1    1    2    0    0  0.16352734158E-02  0.71801664000E-02 -0.22653800287E-01  0.23820654401E-01  0.00000000000E+00 0. -1.
     999901    1    3    3    0    0 -0.54126656422E-01  0.11099489771E+00  0.29174605026E-01  0.88910107402E+00  0.88000000000E+00 0.  1.
        -11    1    4    4    0    0  0.15114445577E-01 -0.54880851360E-01  0.22992961688E-02  0.56972819791E-01  0.51100000000E-03 0.  1.
         11    1    4    4    0    0  0.37376937430E-01 -0.63294212753E-01 -0.88201009082E-02  0.74035451783E-01  0.51100000000E-03 0. -1.
</event>
<event>
 8    1  0.1117354E+005  0.1043930E+01  0.7957747E-01            NaN
         13   -1    0    0    0    0  0.00000000000E+00  0.00000000000E+00  0.74505805969E-08  0.10566000000E+00  0.10566000000E+00 0. -1.
     999900   -1    0    0    0    0 -0.00000000000E+00 -0.00000000000E+00 -0.74505805969E-08  0.93827000000E+00  0.93827000000E+00 0. -1.
     999902    2    1    2    0    0  0.31209602165E-02 -0.17515665917E-01  0.15962535814E-01  0.10200272492E+01  0.10197471489E+01 0.  0.
     999903    2    3    3    0    0  0.88147304219E-01 -0.39675645090E-01  0.88560312694E-01  0.13267670910E+00  0.20397943471E-01 0.  0.
         14    1    1    2    0    0 -0.31209602165E-02  0.17515665917E-01 -0.15962535814E-01  0.23902750779E-01  0.00000000000E+00 0.  1.
     999901    1    3    3    0    0 -0.85026344002E-01  0.22159979172E-01 -0.72597776880E-01  0.88735054012E+00  0.88000000000E+00 0. -1.
        -11    1    4    4    0    0  0.76216016006E-01 -0.25763490020E-01  0.72613380611E-01  0.10837713171E+00  0.51100000000E-03 0.  1.
         11    1    4    4    0    0  0.11931288213E-01 -0.13912155069E-01  0.15946932083E-01  0.24299577382E-01  0.51100000000E-03 0. -1.
</event>
<event>
 8    1  0.1117354E+005  0.1043930E+01  0.7957747E-01            NaN
         13   -1    0    0    0    0  0.00000000000E+00  0.00000000000E+00  0.74505805969E-08  0.10566000000E+00  0.10566000000E+00 0.  1.
     999900   -1    0    0    0    0 -0.00000000000E+00 -0.00000000000E+00 -0.74505805969E-08  0.93827000000E+00  0.93827000000E+00 0.  1.
     999902    2    1    2    0    0 -0.20459443084E-01 -0.90139224784E-02 -0.21700977553E-02  0.10214678333E+01  0.10212208309E+01 0.  0.
     999903    2    3    3    0    0  0.11685164716E+00  0.10351668066E-02 -0.51894718885E-01  0.12937598955E+00  0.19740967760E-01 0.  0.
         14    1    1    2    0    0  0.20459443084E-01  0.90139224784E-02  0.21700977553E-02  0.22462166726E-01  0.00000000000E+00 0.  1.
     999901    1    3    3    0    0 -0.13731109025E+00 -0.10049089285E-01  0.49724621130E-01  0.89209184373E+00  0.88000000000E+00 0. -1.
        -11    1    4    4    0    0  0.71221204160E-01 -0.48719845017E-02 -0.40073084078E-01  0.81867633064E-01  0.51100000000E-03 0.  1.
         11    1    4    4    0    0  0.45630443002E-01  0.59071513083E-02 -0.11821634808E-01  0.47508356482E-01  0.51100000000E-03 0. -1.
</event>
<event>
 8    1  0.1117354E+005  0.1043930E+01  0.7957747E-01            NaN
         13   -1    0    0    0    0  0.00000000000E+00  0.00000000000E+00  0.74505805969E-08  0.10566000000E+00  0.10566000000E+00 0.  1.
     999900   -1    0    0    0    0 -0.00000000000E+00 -0.00000000000E+00 -0.74505805969E-08  0.93827000000E+00  0.93827000000E+00 0.  1.
     999902    2    1    2    0    0  0.21340681202E-01  0.52090150517E-02  0.95383129398E-02  0.10199813481E+01  0.10197001582E+01 0.  0.
     999903    2    3    3    0    0  0.43034035544E-01 -0.10015456307E+00  0.70276838529E-01  0.13135248652E+00  0.20779243568E-01 0.  0.
         14    1    1    2    0    0 -0.21340681202E-01 -0.52090150517E-02 -0.95383129398E-02  0.23948651856E-01  0.00000000000E+00 0.  1.
     999901    1    3    3    0    0 -0.21693354342E-01  0.10536357812E+00 -0.60738525589E-01  0.88862886162E+00  0.88000000000E+00 0.  1.
        -11    1    4    4    0    0  0.60966989912E-02 -0.36294022998E-01  0.18286572739E-01  0.41098487898E-01  0.51100000000E-03 0. -1.
         11    1    4    4    0    0  0.36937336552E-01 -0.63860540071E-01  0.51990265790E-01  0.90253998624E-01  0.51100000000E-03 0.  1.
</event>
<event>
 8    1  0.1117354E+005  0.1043930E+01  0.7957747E-01            NaN
         13   -1    0    0    0    0  0.00000000000E+00  0.00000000000E+00  0.74505805969E-08  0.10566000000E+00  0.10566000000E+00 0. -1.
     999900   -1    0    0    0    0 -0.00000000000E+00 -0.00000000000E+00 -0.74505805969E-08  0.93827000000E+00  0.93827000000E+00 0.  1.
     999902    2    1    2    0    0  0.19218336299E-01  0.34592967025E-02  0.13576926922E-01  0.10201467259E+01  0.10198694515E+01 0.  0.
     999903    2    3    3    0    0  0.79063061990E-01 -0.97460339796E-01 -0.32118933051E-01  0.13118425431E+00  0.20692924239E-01 0.  0.
         14    1    1    2    0    0 -0.19218336299E-01 -0.34592967025E-02 -0.13576926922E-01  0.23783274132E-01  0.00000000000E+00 0.  1.
     999901    1    3    3    0    0 -0.59844725691E-01  0.10091963650E+00  0.45695859973E-01  0.88896247156E+00  0.88000000000E+00 0. -1.
        -11    1    4    4    0    0  0.28435290281E-01 -0.49793399838E-01 -0.99652297515E-02  0.58202365294E-01  0.51100000000E-03 0. -1.
         11    1    4    4    0    0  0.50627771709E-01 -0.47666939958E-01 -0.22153703299E-01  0.72981889014E-01  0.51100000000E-03 0.  1.
</event>
<event>
 8    1  0.1117354E+005  0.1043930E+01  0.7957747E-01            NaN
         13   -1    0    0    0    0  0.00000000000E+00  0.00000000000E+00  0.74505805969E-08  0.10566000000E+00  0.10566000000E+00 0. -1.
     999900   -1    0    0    0    0 -0.00000000000E+00 -0.00000000000E+00 -0.74505805969E-08  0.93827000000E+00  0.93827000000E+00 0.  1.
     999902    2    1    2    0    0 -0.18204611378E-01  0.51024984905E-02  0.14357408830E-01  0.10201901905E+01  0.10199139406E+01 0.  0.
     999903    2    3    3    0    0 -0.89909619071E-01  0.40802128965E-01  0.87654224958E-01  0.13351748032E+00  0.19877149399E-01 0.  0.
         14    1    1    2    0    0  0.18204611378E-01 -0.51024984905E-02 -0.14357408830E-01  0.23739809489E-01  0.00000000000E+00 0. -1.
     999901    1    3    3    0    0  0.71705007693E-01 -0.35699630475E-01 -0.73296816128E-01  0.88667271019E+00  0.88000000000E+00 0.  1.
        -11    1    4    4    0    0 -0.58726115463E-01  0.19906165919E-01  0.64171685496E-01  0.89237203112E-01  0.51100000000E-03 0.  1.
         11    1    4    4    0    0 -0.31183503608E-01  0.20895963047E-01  0.23482539462E-01  0.44280277206E-01  0.51100000000E-03 0. -1.
</event>
<event>
 8    1  0.1117354E+005  0.1043930E+01  0.7957747E-01            NaN
         13   -1    0    0    0    0  0.00000000000E+00  0.00000000000E+00  0.74505805969E-08  0.10566000000E+00  0.10566000000E+00 0. -1.
     999900   -1    0    0    0    0 -0.00000000000E+00 -0.00000000000E+00 -0.74505805969E-08  0.93827000000E+00  0.93827000000E+00 0.  1.
     999902    2    1    2    0    0  0.18373811767E-01 -0.73564659672E-02 -0.12348629601E-01  0.10206018367E+01  0.10203351929E+01 0.  0.
     999903    2    3    3    0    0  0.29391750410E-01  0.86983092556E-01 -0.92201708468E-01  0.13189611404E+00  0.21575367217E-01 0.  0.
         14    1    1    2    0    0 -0.18373811767E-01  0.73564659672E-02  0.12348629601E-01  0.23328163310E-01  0.00000000000E+00 0. -1.
     999901    1    3    3    0    0 -0.11017938642E-01 -0.94339558524E-01  0.79853078866E-01  0.88870572265E+00  0.88000000000E+00 0.  1.
        -11    1    4    4    0    0  0.13998488354E-01  0.65054590219E-01 -0.56760583986E-01  0.87464749472E-01  0.51100000000E-03 0. -1.
         11    1    4    4    0    0  0.15393262056E-01  0.21928502337E-01 -0.35441124481E-01  0.44431364563E-01  0.51100000000E-03 0.  1.
</event>
<event>
 8    1  0.1117354E+005  0.1043930E+01  0.7957747E-01            NaN
         13   -1    0    0    0    0  0.00000000000E+00  0.00000000000E+00  0.74505805969E-08  0.10566000000E+00  0.10566000000E+00 0. -1.
     999900   -1    0    0    0    0 -0.00000000000E+00 -0.00000000000E+00 -0.74505805969E-08  0.93827000000E+00  0.93827000000E+00 0. -1.
     999902    2    1    2    0    0 -0.30160207402E-02 -0.83488490539E-02  0.21314093154E-01  0.10208412532E+01  0.10205801164E+01 0.  0.
     999903    2    3    3    0    0 -0.79226081729E-01 -0.61075965845E-01 -0.80955839689E-01  0.13008468634E+00  0.19003473671E-01 0.  0.
         14    1    1    2    0    0  0.30160207402E-02  0.83488490539E-02 -0.21314093154E-01  0.23088746796E-01  0.00000000000E+00 0.  1.
     999901    1    3    3    0    0  0.76210060988E-01  0.52727116791E-01  0.10226993284E+00  0.89075656686E+00  0.88000000000E+00 0.  1.
        -11    1    4    4    0    0 -0.44559074633E-01 -0.30373773714E-01 -0.54856831554E-01  0.76926005687E-01  0.51100000000E-03 0.  1.
         11    1    4    4    0    0 -0.34667007096E-01 -0.30702192130E-01 -0.26099008135E-01  0.53158680657E-01  0.51100000000E-03 0. -1.
</event>
<event>
 8    1  0.1117354E+005  0.1043930E+01  0.7957747E-01            NaN
         13   -1    0    0    0    0  0.00000000000E+00  0.00000000000E+00  0.74505805969E-08  0.10566000000E+00  0.10566000000E+00 0.  1.
     999900   -1    0    0    0    0 -0.00000000000E+00 -0.00000000000E+00 -0.74505805969E-08  0.93827000000E+00  0.93827000000E+00 0. -1.
     999902    2    1    2    0    0  0.95253328868E-02  0.20247059860E-01 -0.34746284518E-02  0.10212860506E+01  0.10210349890E+01 0.  0.
     999903    2    3    3    0    0 -0.10534428842E+00  0.43039252478E-02 -0.74989330769E-01  0.13080103331E+00  0.19224143972E-01 0.  0.
         14    1    1    2    0    0 -0.95253328868E-02 -0.20247059860E-01  0.34746284518E-02  0.22643949357E-01  0.00000000000E+00 0. -1.
     999901    1    3    3    0    0  0.11486962131E+00  0.15943134612E-01  0.71514702318E-01  0.89048501733E+00  0.88000000000E+00 0.  1.
        -11    1    4    4    0    0 -0.34012308571E-01  0.83234416105E-02 -0.17796402753E-01  0.39282182812E-01  0.51100000000E-03 0.  1.
         11    1    4    4    0    0 -0.71331979849E-01 -0.40195163627E-02 -0.57192928017E-01  0.91518850502E-01  0.51100000000E-03 0. -1.
</event>
<event>
 8    1  0.1117354E+005  0.1043930E+01  0.7957747E-01            NaN
         13   -1    0    0    0    0  0.00000000000E+00  0.00000000000E+00  0.74505805969E-08  0.10566000000E+00  0.10566000000E+00 0. -1.
     999900   -1    0    0    0    0 -0.00000000000E+00 -0.00000000000E+00 -0.74505805969E-08  0.93827000000E+00  0.93827000000E+00 0. -1.
     999902    2    1    2    0    0  0.31492032482E-02 -0.65406788898E-02  0.22268907014E-01  0.10205077418E+01  0.10202389175E+01 0.  0.
     999903    2    3    3    0    0 -0.18655449260E-02  0.10104653927E+00  0.80922107076E-01  0.13200318066E+00  0.25740414437E-01 0.  0.
         14    1    1    2    0    0 -0.31492032482E-02  0.65406788898E-02 -0.22268907014E-01  0.23422258240E-01  0.00000000000E+00 0.  1.
     999901    1    3    3    0    0  0.50147481742E-02 -0.10758721816E+00 -0.58653200062E-01  0.88850456110E+00  0.88000000000E+00 0.  1.
        -11    1    4    4    0    0 -0.88252492978E-02  0.37164598040E-01  0.42436669659E-01  0.57098374980E-01  0.51100000000E-03 0. -1.
         11    1    4    4    0    0  0.69597043717E-02  0.63881941232E-01  0.38485437417E-01  0.74904805684E-01  0.51100000000E-03 0.  1.
</event>
<event>
 8    1  0.1117354E+005  0.1043930E+01  0.7957747E-01            NaN
         13   -1    0    0    0    0  0.00000000000E+00  0.00000000000E+00  0.74505805969E-08  0.10566000000E+00  0.10566000000E+00 0.  1.
     999900   -1    0    0    0    0 -0.00000000000E+00 -0.00000000000E+00 -0.74505805969E-08  0.93827000000E+00  0.93827000000E+00 0. -1.
     999902    2    1    2    0    0  0.23023377755E-01  0.42239655846E-02 -0.10853956496E-02  0.10204972048E+01  0.10202281358E+01 0.  0.
     999903    2    3    3    0    0  0.55379772379E-01  0.63474261867E-01  0.99714420663E-01  0.13217398834E+00  0.20762861009E-01 0.  0.
         14    1    1    2    0    0 -0.23023377755E-01 -0.42239655846E-02  0.10853956496E-02  0.23432795229E-01  0.00000000000E+00 0.  1.
     999901    1    3    3    0    0 -0.32356394623E-01 -0.59250296282E-01 -0.10079981631E+00  0.88832321643E+00  0.88000000000E+00 0. -1.
        -11    1    4    4    0    0  0.38274352528E-01  0.28318285813E-01  0.52648450697E-01  0.70985715849E-01  0.51100000000E-03 0.  1.
         11    1    4    4    0    0  0.17105419851E-01  0.35155976054E-01  0.47065969966E-01  0.61188272491E-01  0.51100000000E-03 0. -1.
</event>
<event>
 8    1  0.1117354E+005  0.1043930E+01  0.7957747E-01            NaN
         13   -1    0    0    0    0  0.00000000000E+00  0.00000000000E+00  0.74505805969E-08  0.10566000000E+00  0.10566000000E+00 0.  1.
     999900   -1    0    0    0    0 -0.00000000000E+00 -0.00000000000E+00 -0.74505805969E-08  0.93827000000E+00  0.93827000000E+00 0. -1.
     999902    2    1    2    0    0  0.18756284799E-01 -0.56080233946E-02  0.10710901710E-01  0.10216147236E+01  0.10213709766E+01 0.  0.
     999903    2    3    3    0    0 -0.47626778283E-01 -0.78635421671E-01  0.92788789262E-01  0.13230235350E+00  0.21031257187E-01 0.  0.
         14    1    1    2    0    0 -0.18756284799E-01  0.56080233946E-02 -0.10710901710E-01  0.22315276411E-01  0.00000000000E+00 0.  1.
     999901    1    3    3    0    0  0.66383063081E-01  0.73027398277E-01 -0.82077887551E-01  0.88931237009E+00  0.88000000000E+00 0. -1.
        -11    1    4    4    0    0 -0.33004656101E-01 -0.69315050662E-01  0.72328789531E-01  0.10547795262E+00  0.51100000000E-03 0.  1.
         11    1    4    4    0    0 -0.14622122181E-01 -0.93203710095E-02  0.20459999730E-01  0.26824400884E-01  0.51100000000E-03 0. -1.
</event>
<event>
 8    1  0.1117354E+005  0.1043930E+01  0.7957747E-01            NaN
         13   -1    0    0    0    0  0.00000000000E+00  0.00000000000E+00  0.74505805969E-08  0.10566000000E+00  0.10566000000E+00 0.  1.
     999900   -1    0    0    0    0 -0.00000000000E+00 -0.00000000000E+00 -0.74505805969E-08  0.93827000000E+00  0.93827000000E+00 0. -1.
     999902    2    1    2    0    0  0.17074520810E-01 -0.11452780185E-01 -0.94517398657E-02  0.10213016810E+01  0.10210509697E+01 0.  0.
     999903    2    3    3    0    0 -0.11500463166E+00 -0.55167515995E-01 -0.90107607837E-02  0.13037178750E+00  0.25418281663E-01 0.  0.
         14    1    1    2    0    0 -0.17074520810E-01  0.11452780185E-01  0.94517398657E-02  0.22628319013E-01  0.00000000000E+00 0.  1.
     999901    1    3    3    0    0  0.13207915247E+00  0.43714735809E-01 -0.44097908201E-03  0.89092989349E+00  0.88000000000E+00 0.  1.
        -11    1    4    4    0    0 -0.67313760335E-01 -0.18300481467E-01 -0.59616142149E-02  0.70013226732E-01  0.51100000000E-03 0. -1.
         11    1    4    4    0    0 -0.47690871322E-01 -0.36867034528E-01 -0.30491465688E-02  0.60358560769E-01  0.51100000000E-03 0.  1.
</event>
<event>
 7    1  0.1117354E+005  0.1043930E+01  0.7957747E-01            NaN
         13   -1    0    0    0    0  0.00000000000E+00  0.00000000000E+00  0.74505805969E-08  0.10566000000E+00  0.10566000000E+00 0.  1.
     999900   -1    0    0    0    0 -0.00000000000E+00 -0.00000000000E+00 -0.74505805969E-08  0.93827000000E+00  0.93827000000E+00 0. -1.
     999903    2    1    2    0    0  0.84521193299E-01  0.52774690819E-01 -0.42008387300E-01  0.10990591634E+00  0.19636846362E-01 0.  0.
         14    1    1    2    0    0 -0.26529802653E-01  0.37425791002E-01  0.99123916316E-02  0.46933738066E-01  0.00000000000E+00 0. -1.
     999901    1    1    2    0    0 -0.57991390646E-01 -0.90200481821E-01  0.32095995668E-01  0.88709034559E+00  0.88000000000E+00 0.  1.
        -11    1    3    3    0    0  0.17235609827E-01  0.10946937152E-01 -0.17714397025E-01  0.27036321164E-01  0.51100000000E-03 0. -1.
         11    1    3    3    0    0  0.67285583473E-01  0.41827753668E-01 -0.24293990275E-01  0.82869595176E-01  0.51100000000E-03 0.  1.
</event>
<event>
 8    1  0.1117354E+005  0.1043930E+01  0.7957747E-01            NaN
         13   -1    0    0    0    0  0.00000000000E+00  0.00000000000E+00  0.74505805969E-08  0.10566000000E+00  0.10566000000E+00 0.  1.
     999900   -1    0    0    0    0 -0.00000000000E+00 -0.00000000000E+00 -0.74505805969E-08  0.93827000000E+00  0.93827000000E+00 0.  1.
     999902    2    1    2    0    0  0.22994356120E-01 -0.36366494725E-02  0.73221837527E-02  0.10195254921E+01  0.10192333633E+01 0.  0.
     999903    2    3    3    0    0 -0.55617587954E-02  0.55260099297E-01 -0.11441631933E+00  0.12873677309E+00  0.19936170151E-01 0.  0.
         14    1    1    2    0    0 -0.22994356120E-01  0.36366494725E-02 -0.73221837527E-02  0.24404507937E-01  0.00000000000E+00 0.  1.
     999901    1    3    3    0    0  0.28556114915E-01 -0.58896748769E-01  0.12173850309E+00  0.89078871897E+00  0.88000000000E+00 0. -1.
        -11    1    4    4    0    0 -0.12290135421E-01  0.23383048821E-01 -0.52022941476E-01  0.58347767409E-01  0.51100000000E-03 0.  1.
         11    1    4    4    0    0  0.67283766261E-02  0.31877050476E-01 -0.62393377859E-01  0.70389005681E-01  0.51100000000E-03 0. -1.
</event>
<event>
 8    1  0.1117354E+005  0.1043930E+01  0.7957747E-01            NaN
         13   -1    0    0    0    0  0.00000000000E+00  0.00000000000E+00  0.74505805969E-08  0.10566000000E+00  0.10566000000E+00 0. -1.
     999900   -1    0    0    0    0 -0.00000000000E+00 -0.00000000000E+00 -0.74505805969E-08  0.93827000000E+00  0.93827000000E+00 0.  1.
     999902    2    1    2    0    0  0.47578103150E-02 -0.20914484378E-01 -0.92742653118E-02  0.10205619788E+01  0.10202944125E+01 0.  0.
     999903    2    3    3    0    0 -0.21175350676E-01 -0.10287332349E+00 -0.80318089581E-01  0.13352364533E+00  0.18607852845E-01 0.  0.
         14    1    1    2    0    0 -0.47578103150E-02  0.20914484378E-01  0.92742653118E-02  0.23368021158E-01  0.00000000000E+00 0. -1.
     999901    1    3    3    0    0  0.25933160991E-01  0.81958839109E-01  0.71043824270E-01  0.88703833351E+00  0.88000000000E+00 0. -1.
        -11    1    4    4    0    0 -0.65873281914E-02 -0.68760463328E-01 -0.46082428973E-01  0.83037615517E-01  0.51100000000E-03 0.  1.
         11    1    4    4    0    0 -0.14588022484E-01 -0.34112860159E-01 -0.34235660609E-01  0.50486029816E-01  0.51100000000E-03 0. -1.
</event>
<event>
 8    1  0.1117354E+005  0.1043930E+01  0.7957747E-01            NaN
         13   -1    0    0    0    0  0.00000000000E+00  0.00000000000E+00  0.74505805969E-08  0.10566000000E+00  0.10566000000E+00 0. -1.
     999900   -1    0    0    0    0 -0.00000000000E+00 -0.00000000000E+00 -0.74505805969E-08  0.93827000000E+00  0.93827000000E+00 0. -1.
     999902    2    1    2    0    0  0.22803752636E-01  0.93004744130E-03  0.51016292131E-02  0.10205440482E+01  0.10202760663E+01 0.  0.
     999903    2    3    3    0    0  0.51539220360E-02 -0.69548824871E-01 -0.10813297045E+00  0.13031887299E+00  0.20655929068E-01 0.  0.
         14    1    1    2    0    0 -0.22803752636E-01 -0.93004744130E-03 -0.51016292131E-02  0.23385951833E-01  0.00000000000E+00 0.  1.
     999901    1    3    3    0    0  0.17649830600E-01  0.70478872312E-01  0.11323459966E+00  0.89022517518E+00  0.88000000000E+00 0. -1.
        -11    1    4    4    0    0 -0.27680552449E-02 -0.51983969657E-01 -0.89319888881E-01  0.10338422946E+00  0.51100000000E-03 0.  1.
         11    1    4    4    0    0  0.79219772809E-02 -0.17564855214E-01 -0.18813081567E-01  0.26934643524E-01  0.51100000000E-03 0. -1.
</event>
<event>
 8    1  0.1117354E+005  0.1043930E+01  0.7957747E-01            NaN
         13   -1    0    0    0    0  0.00000000000E+00  0.00000000000E+00  0.74505805969E-08  0.10566000000E+00  0.10566000000E+00 0. -1.
     999900   -1    0    0    0    0 -0.00000000000E+00 -0.00000000000E+00 -0.74505805969E-08  0.93827000000E+00  0.93827000000E+00 0. -1.
     999902    2    1    2    0    0  0.17862724102E-01  0.81154897966E-02 -0.13680357337E-01  0.10200115915E+01  0.10197311197E+01 0.  0.
     999903    2    3    3    0    0  0.93182270700E-01  0.40528060338E-01 -0.84314585504E-01  0.13338156552E+00  0.18874147514E-01 0.  0.
         14    1    1    2    0    0 -0.17862724102E-01 -0.81154897966E-02  0.13680357337E-01  0.23918408473E-01  0.00000000000E+00 0.  1.
     999901    1    3    3    0    0 -0.75319546598E-01 -0.32412570541E-01  0.70634228167E-01  0.88663002601E+00  0.88000000000E+00 0.  1.
        -11    1    4    4    0    0  0.66625698707E-01  0.24095493974E-01 -0.67737209670E-01  0.98021259189E-01  0.51100000000E-03 0.  1.
         11    1    4    4    0    0  0.26556571993E-01  0.16432566364E-01 -0.16577375833E-01  0.35360306331E-01  0.51100000000E-03 0. -1.
</event>
<event>
 8    1  0.1117354E+005  0.1043930E+01  0.7957747E-01            NaN
         13   -1    0    0    0    0  0.00000000000E+00  0.00000000000E+00  0.74505805969E-08  0.10566000000E+00  0.10566000000E+00 0.  1.
     999900   -1    0    0    0    0 -0.00000000000E+00 -0.00000000000E+00 -0.74505805969E-08  0.93827000000E+00  0.93827000000E+00 0.  1.
     999902    2    1    2    0    0 -0.20152402055E-01  0.89621004063E-02 -0.78431810249E-02  0.10205215818E+01  0.10202530789E+01 0.  0.
     999903    2    3    3    0    0  0.39811921294E-01  0.89995130505E-01  0.82565070314E-01  0.13016450518E+00  0.21016540665E-01 0.  0.
         14    1    1    2    0    0  0.20152402055E-01 -0.89621004063E-02  0.78431810249E-02  0.23408418163E-01  0.00000000000E+00 0.  1.
     999901    1    3    3    0    0 -0.59964323349E-01 -0.81033030098E-01 -0.90408251339E-01  0.89035707666E+00  0.88000000000E+00 0.  1.
        -11    1    4    4    0    0  0.13919216793E-01  0.57026468279E-01  0.48287006512E-01  0.76010912370E-01  0.51100000000E-03 0. -1.
         11    1    4    4    0    0  0.25892704501E-01  0.32968662226E-01  0.34278063802E-01  0.54153592811E-01  0.51100000000E-03 0.  1.
</event>
<event>
 8    1  0.1117354E+005  0.1043930E+01  0.7957747E-01            NaN
         13   -1    0    0    0    0  0.00000000000E+00  0.00000000000E+00  0.74505805969E-08  0.10566000000E+00  0.10566000000E+00 0.  1.
     999900   -1    0    0    0    0 -0.00000000000E+00 -0.00000000000E+00 -0.74505805969E-08  0.93827000000E+00  0.93827000000E+00 0. -1.
     999902    2    1    2    0    0 -0.23310872844E-01 -0.14757767119E-02  0.39328903389E-02  0.10202436677E+01  0.10199686756E+01 0.  0.
     999903    2    3    3    0    0  0.10991496310E+00  0.54850412164E-01 -0.29116848720E-01  0.12782333618E+00  0.20028668591E-01 0.  0.
         14    1    1    2    0    0  0.23310872844E-01  0.14757767119E-02 -0.39328903389E-02  0.23686332263E-01  0.00000000000E+00 0. -1.
     999901    1    3    3    0    0 -0.13322583595E+00 -0.56326188875E-01  0.33049739059E-01  0.89242033155E+00  0.88000000000E+00 0. -1.
        -11    1    4    4    0    0  0.81619410704E-01  0.50089388717E-01 -0.22449525506E-01  0.98361157893E-01  0.51100000000E-03 0.  1.
         11    1    4    4    0    0  0.28295552399E-01  0.47610234471E-02 -0.66673232136E-02  0.29462178291E-01  0.51100000000E-03 0. -1.
</event>
<event>
 8    1  0.1117354E+005  0.1043930E+01  0.7957747E-01            NaN
         13   -1    0    0    0    0  0.00000000000E+00  0.00000000000E+00  0.74505805969E-08  0.10566000000E+00  0.10566000000E+00 0.  1.
     999900   -1    0    0    0    0 -0.00000000000E+00 -0.00000000000E+00 -0.74505805969E-08  0.93827000000E+00  0.93827000000E+00 0. -1.
     999902    2    1    2    0    0 -0.10541747475E-01 -0.14428334111E-01  0.14510887097E-01  0.10209110706E+01  0.10206515287E+01 0.  0.
     999903    2    3    3    0    0  0.11483999664E+00  0.29069536557E-01  0.50118182901E-01  0.13024810069E+00  0.20481032488E-01 0.  0.
         14    1    1    2    0    0  0.10541747475E-01  0.14428334111E-01 -0.14510887097E-01  0.23018929371E-01  0.00000000000E+00 0. -1.
     999901    1    3    3    0    0 -0.12538174411E+00 -0.43497870668E-01 -0.35607295804E-01  0.89066296994E+00  0.88000000000E+00 0. -1.
        -11    1    4    4    0    0  0.69834829568E-01  0.93778622355E-02  0.36029389518E-01  0.79140544293E-01  0.51100000000E-03 0.  1.
         11    1    4    4    0    0  0.45005167071E-01  0.19691674322E-01  0.14088793383E-01  0.51107556395E-01  0.51100000000E-03 0. -1.
</event>
<event>
 8    1  0.1117354E+005  0.1043930E+01  0.7957747E-01            NaN
         13   -1    0    0    0    0  0.00000000000E+00  0.00000000000E+00  0.74505805969E-08  0.10566000000E+00  0.10566000000E+00 0.  1.
     999900   -1    0    0    0    0 -0.00000000000E+00 -0.00000000000E+00 -0.74505805969E-08  0.93827000000E+00  0.93827000000E+00 0. -1.
     999902    2    1    2    0    0 -0.11036212984E-01  0.37558776976E-02  0.20255840233E-01  0.10205589992E+01  0.10202913639E+01 0.  0.
     999903    2    3    3    0    0  0.19982194875E-01 -0.38086624280E-02 -0.12485541339E+00  0.12810359986E+00  0.20195643673E-01 0.  0.
         14    1    1    2    0    0  0.11036212984E-01 -0.37558776976E-02 -0.20255840233E-01  0.23371000789E-01  0.00000000000E+00 0. -1.
     999901    1    3    3    0    0 -0.31018407859E-01  0.75645401257E-02  0.14511125363E+00  0.89245539935E+00  0.88000000000E+00 0.  1.
        -11    1    4    4    0    0  0.59703439971E-02 -0.58328284656E-02 -0.91275195339E-01  0.91657456328E-01  0.51100000000E-03 0.  1.
         11    1    4    4    0    0  0.14011850878E-01  0.20241660376E-02 -0.33580218054E-01  0.36446143537E-01  0.51100000000E-03 0. -1.
</event>
<event>
 8    1  0.1117354E+005  0.1043930E+01  0.7957747E-01            NaN
         13   -1    0    0    0    0  0.00000000000E+00  0.00000000000E+00  0.74505805969E-08  0.10566000000E+00  0.10566000000E+00 0.  1.
     999900   -1    0    0    0    0 -0.00000000000E+00 -0.00000000000E+00 -0.74505805969E-08  0.93827000000E+00  0.93827000000E+00 0. -1.
     999902    2    1    2    0    0  0.72677526248E-02  0.11336061499E-02 -0.22639842017E-01  0.10201252161E+01  0.10198474340E+01 0.  0.
     999903    2    3    3    0    0  0.19736385607E-01 -0.89221760216E-01  0.87983977125E-01  0.12852149894E+00  0.20653039664E-01 0.  0.
         14    1    1    2    0    0 -0.72677526248E-02 -0.11336061499E-02  0.22639842017E-01  0.23804783924E-01  0.00000000000E+00 0.  1.
     999901    1    3    3    0    0 -0.12468632982E-01  0.90355366366E-01 -0.11062381914E+00  0.89160371713E+00  0.88000000000E+00 0. -1.
        -11    1    4    4    0    0  0.17292822441E-01 -0.56158197276E-01  0.67725512813E-01  0.89664881844E-01  0.51100000000E-03 0.  1.
         11    1    4    4    0    0  0.24435631657E-02 -0.33063562940E-01  0.20258464312E-01  0.38856617100E-01  0.51100000000E-03 0. -1.
</event>
<event>
 8    1  0.1117354E+005  0.1043930E+01  0.7957747E-01            NaN
         13   -1    0    0    0    0  0.00000000000E+00  0.00000000000E+00  0.74505805969E-08  0.10566000000E+00  0.10566000000E+00 0.  1.
     999900   -1    0    0    0    0 -0.00000000000E+00 -0.00000000000E+00 -0.74505805969E-08  0.93827000000E+00  0.93827000000E+00 0. -1.
     999902    2    1    2    0    0 -0.13713087189E-01 -0.15646923012E-01  0.13047229834E-01  0.10193718004E+01  0.10190759355E+01 0.  0.
     999903    2    3    3    0    0  0.86444866376E-01 -0.66048656495E-01  0.69199587928E-01  0.13048202226E+00  0.20045827921E-01 0.  0.
         14    1    1    2    0    0  0.13713087189E-01  0.15646923012E-01 -0.13047229834E-01  0.24558199575E-01  0.00000000000E+00 0. -1.
     999901    1    3    3    0    0 -0.10015795357E+00  0.50401733483E-01 -0.56152358094E-01  0.88888977816E+00  0.88000000000E+00 0. -1.
        -11    1    4    4    0    0  0.32274073723E-01 -0.23858481008E-01  0.37206205925E-01  0.54730300849E-01  0.51100000000E-03 0.  1.
         11    1    4    4    0    0  0.54170792653E-01 -0.42190175487E-01  0.31993382003E-01  0.75751721414E-01  0.51100000000E-03 0. -1.
</event>
<event>
 8    1  0.1117354E+005  0.1043930E+01  0.7957747E-01            NaN
         13   -1    0    0    0    0  0.00000000000E+00  0.00000000000E+00  0.74505805969E-08  0.10566000000E+00  0.10566000000E+00 0.  1.
     999900   -1    0    0    0    0 -0.00000000000E+00 -0.00000000000E+00 -0.74505805969E-08  0.93827000000E+00  0.93827000000E+00 0.  1.
     999902    2    1    2    0    0  0.25111879958E-01 -0.16554192594E-02  0.55454368113E-02  0.10181598856E+01  0.10178337064E+01 0.  0.
     999903    2    3    3    0    0  0.10820054501E+00 -0.37426009888E-01 -0.60518419431E-01  0.13105916158E+00  0.20148463650E-01 0.  0.
         14    1    1    2    0    0 -0.25111879958E-01  0.16554192594E-02 -0.55454368113E-02  0.25770114423E-01  0.00000000000E+00 0. -1.
     999901    1    3    3    0    0 -0.83088665050E-01  0.35770590629E-01  0.66063856242E-01  0.88710072400E+00  0.88000000000E+00 0. -1.
        -11    1    4    4    0    0  0.39295719402E-01 -0.21275263771E-01 -0.30934585014E-01  0.54350713729E-01  0.51100000000E-03 0. -1.
         11    1    4    4    0    0  0.68904825606E-01 -0.16150746117E-01 -0.29583834417E-01  0.76708447851E-01  0.51100000000E-03 0.  1.
</event>
<event>
 8    1  0.1117354E+005  0.1043930E+01  0.7957747E-01            NaN
         13   -1    0    0    0    0  0.00000000000E+00  0.00000000000E+00  0.74505805969E-08  0.10566000000E+00  0.10566000000E+00 0.  1.
     999900   -1    0    0    0    0 -0.00000000000E+00 -0.00000000000E+00 -0.74505805969E-08  0.93827000000E+00  0.93827000000E+00 0. -1.
     999902    2    1    2    0    0 -0.22790717263E-01  0.54985955445E-02  0.34426747279E-02  0.10202339380E+01  0.10199587172E+01 0.  0.
     999903    2    3    3    0    0 -0.10948840990E+00  0.45001041953E-01  0.58126731465E-01  0.13340403363E+00  0.20127433969E-01 0.  0.
         14    1    1    2    0    0  0.22790717263E-01 -0.54985955445E-02 -0.34426747279E-02  0.23696062027E-01  0.00000000000E+00 0. -1.
     999901    1    3    3    0    0  0.86697692636E-01 -0.39502446409E-01 -0.54684056737E-01  0.88682990435E+00  0.88000000000E+00 0. -1.
        -11    1    4    4    0    0 -0.60331607384E-01  0.14143811679E-01  0.32184072275E-01  0.69828546366E-01  0.51100000000E-03 0.  1.
         11    1    4    4    0    0 -0.49156802515E-01  0.30857230274E-01  0.25942659190E-01  0.63575487261E-01  0.51100000000E-03 0. -1.
</event>
<event>
 8    1  0.1117354E+005  0.1043930E+01  0.7957747E-01            NaN
         13   -1    0    0    0    0  0.00000000000E+00  0.00000000000E+00  0.74505805969E-08  0.10566000000E+00  0.10566000000E+00 0.  1.
     999900   -1    0    0    0    0 -0.00000000000E+00 -0.00000000000E+00 -0.74505805969E-08  0.93827000000E+00  0.93827000000E+00 0.  1.
     999902    2    1    2    0    0  0.21565946224E-01 -0.83456614836E-02 -0.49904049795E-02  0.10202731988E+01  0.10199989000E+01 0.  0.
     999903    2    3    3    0    0  0.89574285758E-01 -0.56635867555E-01 -0.77784577643E-01  0.13333685956E+00  0.22295816565E-01 0.  0.
         14    1    1    2    0    0 -0.21565946224E-01  0.83456614836E-02  0.49904049795E-02  0.23656801221E-01  0.00000000000E+00 0.  1.
     999901    1    3    3    0    0 -0.68008339534E-01  0.48290206071E-01  0.72794172663E-01  0.88693633922E+00  0.88000000000E+00 0. -1.
        -11    1    4    4    0    0  0.47866378804E-01 -0.17484576945E-01 -0.39885804170E-01  0.64715061199E-01  0.51100000000E-03 0. -1.
         11    1    4    4    0    0  0.41707906954E-01 -0.39151290610E-01 -0.37898773473E-01  0.68621798364E-01  0.51100000000E-03 0.  1.
</event>
<event>
 8    1  0.1117354E+005  0.1043930E+01  0.7957747E-01            NaN
         13   -1    0    0    0    0  0.00000000000E+00  0.00000000000E+00  0.74505805969E-08  0.10566000000E+00  0.10566000000E+00 0. -1.
     999900   -1    0    0    0    0 -0.00000000000E+00 -0.00000000000E+00 -0.74505805969E-08  0.93827000000E+00  0.93827000000E+00 0. -1.
     999902    2    1    2    0    0  0.43082154031E-02 -0.11872577382E-02  0.22727173241E-01  0.10207676447E+01  0.10205048210E+01 0.  0.
     999903    2    3    3    0    0  0.63189930689E-01  0.53752418265E-01 -0.96752566480E-01  0.12904973378E+00  0.20260425931E-01 0.  0.
         14    1    1    2    0    0 -0.43082154031E-02  0.11872577382E-02 -0.22727173241E-01  0.23162355330E-01  0.00000000000E+00 0.  1.
     999901    1    3    3    0    0 -0.58881715286E-01 -0.54939676004E-01  0.11947973972E+00  0.89171791089E+00  0.88000000000E+00 0. -1.
        -11    1    4    4    0    0  0.40108163266E-01  0.21423866524E-01 -0.47250522085E-01  0.65578348376E-01  0.51100000000E-03 0.  1.
         11    1    4    4    0    0  0.23081767423E-01  0.32328551742E-01 -0.49502044395E-01  0.63471385406E-01  0.51100000000E-03 0. -1.
</event>
<event>
 8    1  0.1117354E+005  0.1043930E+01  0.7957747E-01            NaN
         13   -1    0    0    0    0  0.00000000000E+00  0.00000000000E+00  0.74505805969E-08  0.10566000000E+00  0.10566000000E+00 0. -1.
     999900   -1    0    0    0    0 -0.00000000000E+00 -0.00000000000E+00 -0.74505805969E-08  0.93827000000E+00  0.93827000000E+00 0. -1.
     999902    2    1    2    0    0 -0.20538602112E-01 -0.15545448490E-02 -0.12149905680E-01  0.10200161757E+01  0.10197358127E+01 0.  0.
     999903    2    3    3    0    0  0.74849531297E-01  0.78053251296E-01 -0.68131771566E-01  0.12952739611E+00  0.20991561942E-01 0.  0.
         14    1    1    2    0    0  0.20538602112E-01  0.15545448490E-02  0.12149905680E-01  0.23913824338E-01  0.00000000000E+00 0. -1.
     999901    1    3    3    0    0 -0.95388133409E-01 -0.79607796145E-01  0.55981865885E-01  0.89048877955E+00  0.88000000000E+00 0.  1.
        -11    1    4    4    0    0  0.27593024197E-01  0.16077786464E-01 -0.15662993652E-01  0.35573314339E-01  0.51100000000E-03 0.  1.
         11    1    4    4    0    0  0.47256507100E-01  0.61975464832E-01 -0.52468777914E-01  0.93954081769E-01  0.51100000000E-03 0. -1.
</event>
<event>
 8    1  0.1117354E+005  0.1043930E+01  0.7957747E-01            NaN
         13   -1    0    0    0    0  0.00000000000E+00  0.00000000000E+00  0.74505805969E-08  0.10566000000E+00  0.10566000000E+00 0. -1.
     999900   -1    0    0    0    0 -0.00000000000E+00 -0.00000000000E+00 -0.74505805969E-08  0.93827000000E+00  0.93827000000E+00 0. -1.
     999902    2    1    2    0    0  0.12194141735E-01  0.19454790388E-01 -0.31735388723E-02  0.10207511883E+01  0.10204879868E+01 0.  0.
     999903    2    3    3    0    0 -0.11060851207E+00 -0.33058967776E-01  0.53831769398E-01  0.12884996524E+00  0.19424619717E-01 0.  0.
         14    1    1    2    0    0 -0.12194141735E-01 -0.19454790388E-01  0.31735388723E-02  0.23178811675E-01  0.00000000000E+00 0.  1.
     999901    1    3    3    0    0  0.12280265381E+00  0.52513758164E-01 -0.57005308271E-01  0.89190122309E+00  0.88000000000E+00 0. -1.
        -11    1    4    4    0    0 -0.43849495710E-01 -0.10815050188E-01  0.11057098098E-01  0.46500151870E-01  0.51100000000E-03 0. -1.
         11    1    4    4    0    0 -0.66759016363E-01 -0.22243917588E-01  0.42774671301E-01  0.82349813365E-01  0.51100000000E-03 0.  1.
</event>
<event>
 8    1  0.1117354E+005  0.1043930E+01  0.7957747E-01            NaN
         13   -1    0    0    0    0  0.00000000000E+00  0.00000000000E+00  0.74505805969E-08  0.10566000000E+00  0.10566000000E+00 0.  1.
     999900   -1    0    0    0    0 -0.00000000000E+00 -0.00000000000E+00 -0.74505805969E-08  0.93827000000E+00  0.93827000000E+00 0.  1.
     999902    2    1    2    0    0 -0.29008437681E-02 -0.22038066303E-01  0.79597952253E-02  0.10203196294E+01  0.10200464188E+01 0.  0.
     999903    2    3    3    0    0  0.51035696956E-01 -0.53368911906E-01  0.10875093375E+00  0.13237276953E+00  0.15585294296E-01 0.  0.
         14    1    1    2    0    0  0.29008437681E-02  0.22038066303E-01 -0.79597952253E-02  0.23610370624E-01  0.00000000000E+00 0. -1.
     999901    1    3    3    0    0 -0.53936540724E-01  0.31330845603E-01 -0.10079113853E+00  0.88794685985E+00  0.88000000000E+00 0.  1.
        -11    1    4    4    0    0  0.23354772691E-01 -0.19024202078E-01  0.56154024484E-01  0.63725201129E-01  0.51100000000E-03 0.  1.
         11    1    4    4    0    0  0.27680924265E-01 -0.34344709828E-01  0.52596909268E-01  0.68647568398E-01  0.51100000000E-03 0. -1.
</event>
<event>
 8    1  0.1117354E+005  0.1043930E+01  0.7957747E-01            NaN
         13   -1    0    0    0    0  0.00000000000E+00  0.00000000000E+00  0.74505805969E-08  0.10566000000E+00  0.10566000000E+00 0. -1.
     999900   -1    0    0    0    0 -0.00000000000E+00 -0.00000000000E+00 -0.74505805969E-08  0.93827000000E+00  0.93827000000E+00 0. -1.
     999902    2    1    2    0    0  0.10761579501E-01  0.19401582395E-01 -0.87304489980E-02  0.10200877322E+01  0.10198090643E+01 0.  0.
     999903    2    3    3    0    0 -0.15130237644E-01  0.11798561186E+00 -0.55704817199E-01  0.13295990134E+00  0.20634437446E-01 0.  0.
         14    1    1    2    0    0 -0.10761579501E-01 -0.19401582395E-01  0.87304489980E-02  0.23842267771E-01  0.00000000000E+00 0. -1.
     999901    1    3    3    0    0  0.25891817145E-01 -0.98584029468E-01  0.46974368202E-01  0.88712783088E+00  0.88000000000E+00 0.  1.
        -11    1    4    4    0    0 -0.19345337544E-01  0.76633958788E-01 -0.39299835715E-01  0.88270855510E-01  0.51100000000E-03 0.  1.
         11    1    4    4    0    0  0.42150998996E-02  0.41351653074E-01 -0.16404981484E-01  0.44689045834E-01  0.51100000000E-03 0. -1.
</event>
<event>
 8    1  0.1117354E+005  0.1043930E+01  0.7957747E-01            NaN
         13   -1    0    0    0    0  0.00000000000E+00  0.00000000000E+00  0.74505805969E-08  0.10566000000E+00  0.10566000000E+00 0. -1.
     999900   -1    0    0    0    0 -0.00000000000E+00 -0.00000000000E+00 -0.74505805969E-08  0.93827000000E+00  0.93827000000E+00 0.  1.
     999902    2    1    2    0    0 -0.13227258053E-01 -0.76567942366E-02 -0.16721948264E-01  0.10212758523E+01  0.10210245620E+01 0.  0.
     999903    2    3    3    0    0  0.76878803284E-02  0.95039256286E-01 -0.89111490300E-01  0.13210535820E+00  0.20479360895E-01 0.  0.
         14    1    1    2    0    0  0.13227258053E-01  0.76567942366E-02  0.16721948264E-01  0.22654147684E-01  0.00000000000E+00 0. -1.
     999901    1    3    3    0    0 -0.20915138381E-01 -0.10269605052E+00  0.72389542037E-01  0.88917049411E+00  0.88000000000E+00 0. -1.
        -11    1    4    4    0    0 -0.25907726477E-02  0.50041897535E-02 -0.11398368960E-01  0.12725484429E-01  0.51100000000E-03 0. -1.
         11    1    4    4    0    0  0.10278652976E-01  0.90035066533E-01 -0.77713121340E-01  0.11937987377E+00  0.51100000000E-03 0.  1.
</event>
<event>
 8    1  0.1117354E+005  0.1043930E+01  0.7957747E-01            NaN
         13   -1    0    0    0    0  0.00000000000E+00  0.00000000000E+00  0.74505805969E-08  0.10566000000E+00  0.10566000000E+00 0. -1.
     999900   -1    0    0    0    0 -0.00000000000E+00 -0.00000000000E+00 -0.74505805969E-08  0.93827000000E+00  0.93827000000E+00 0.  1.
     999902    2    1    2    0    0  0.30486095121E-03 -0.16753048256E-01  0.17933316312E-01  0.10193869480E+01  0.10190914524E+01 0.  0.
     999903    2    3    3    0    0  0.83461748654E-01  0.75287284191E-01 -0.56975471819E-01  0.12753616606E+00  0.19627292574E-01 0.  0.
         14    1    1    2    0    0 -0.30486095122E-03  0.16753048256E-01 -0.17933316312E-01  0.24543051970E-01  0.00000000000E+00 0.  1.
     999901    1    3    3    0    0 -0.83156887703E-01 -0.92040332447E-01  0.74908788131E-01  0.89185078197E+00  0.88000000000E+00 0. -1.
        -11    1    4    4    0    0  0.22189486369E-01  0.13645412124E-01 -0.21023554776E-01  0.33478673119E-01  0.51100000000E-03 0. -1.
         11    1    4    4    0    0  0.61272262285E-01  0.61641872067E-01 -0.35951917043E-01  0.94057492936E-01  0.51100000000E-03 0.  1.
</event>
<event>
 8    1  0.1117354E+005  0.1043930E+01  0.7957747E-01            NaN
         13   -1    0    0    0    0  0.00000000000E+00  0.00000000000E+00  0.74505805969E-08  0.10566000000E+00  0.10566000000E+00 0. -1.
     999900   -1    0    0    0    0 -0.00000000000E+00 -0.00000000000E+00 -0.74505805969E-08  0.93827000000E+00  0.93827000000E+00 0.  1.
     999902    2    1    2    0    0 -0.89585632097E-02 -0.10485767144E-01  0.21696559828E-01  0.10182210935E+01  0.10178964816E+01 0.  0.
     999903    2    3    3    0    0  0.12405118697E+00 -0.21451039977E-01 -0.81160554940E-02  0.12765912319E+00  0.19548331662E-01 0.  0.
         14    1    1    2    0    0  0.89585632097E-02  0.10485767144E-01 -0.21696559828E-01  0.25708906545E-01  0.00000000000E+00 0.  1.
     999901    1    3    3    0    0 -0.13300975018E+00  0.10965272832E-01  0.29812615322E-01  0.89056197027E+00  0.88000000000E+00 0.  1.
        -11    1    4    4    0    0  0.41831871586E-01 -0.16653342435E-01 -0.37181915517E-02  0.45181028807E-01  0.51100000000E-03 0. -1.
         11    1    4    4    0    0  0.82219315388E-01 -0.47976975420E-02 -0.43978639423E-02  0.82478094382E-01  0.51100000000E-03 0.  1.
</event>
<event>
 8    1  0.1117354E+005  0.1043930E+01  0.7957747E-01            NaN
         13   -1    0    0    0    0  0.00000000000E+00  0.00000000000E+00  0.74505805969E-08  0.10566000000E+00  0.10566000000E+00 0.  1.
     999900   -1    0    0    0    0 -0.00000000000E+00 -0.00000000000E+00 -0.74505805969E-08  0.93827000000E+00  0.93827000000E+00 0.  1.
     999902    2    1    2    0    0  0.23300578357E-03  0.21927861503E-01  0.96106108052E-02  0.10199873760E+01  0.10197063293E+01 0.  0.
     999903    2    3    3    0    0 -0.10822411084E+00 -0.65217617762E-01  0.18135342904E-01  0.12901602311E+00  0.18720249011E-01 0.  0.
         14    1    1    2    0    0 -0.23300578357E-03 -0.21927861503E-01 -0.96106108052E-02  0.23942623955E-01  0.00000000000E+00 0. -1.
     999901    1    3    3    0    0  0.10845711662E+00  0.87145479265E-01 -0.85247320988E-02  0.89097135294E+00  0.88000000000E+00 0. -1.
        -11    1    4    4    0    0 -0.84596238998E-01 -0.48391730136E-01  0.21519976346E-01  0.99808084347E-01  0.51100000000E-03 0.  1.
         11    1    4    4    0    0 -0.23627871838E-01 -0.16825887625E-01 -0.33846334415E-02  0.29207938758E-01  0.51100000000E-03 0. -1.
</event>
<event>
 8    1  0.1117354E+005  0.1043930E+01  0.7957747E-01            NaN
         13   -1    0    0    0    0  0.00000000000E+00  0.00000000000E+00  0.74505805969E-08  0.10566000000E+00  0.10566000000E+00 0. -1.
     999900   -1    0    0    0    0 -0.00000000000E+00 -0.00000000000E+00 -0.74505805969E-08  0.93827000000E+00  0.93827000000E+00 0. -1.
     999902    2    1    2    0    0 -0.19478497902E-01 -0.29362308424E-02 -0.12557903633E-01  0.10205690438E+01  0.10203016411E+01 0.  0.
     999903    2    3    3    0    0  0.10687874129E+00  0.65621280166E-01  0.18669664885E-01  0.12835749641E+00  0.19946747833E-01 0.  0.
         14    1    1    2    0    0  0.19478497902E-01  0.29362308424E-02  0.12557903633E-01  0.23360956225E-01  0.00000000000E+00 0. -1.
     999901    1    3    3    0    0 -0.12635723919E+00 -0.68557511009E-01 -0.31227568518E-01  0.89221154736E+00  0.88000000000E+00 0.  1.
        -11    1    4    4    0    0  0.98608607370E-01  0.53248990674E-01  0.17421995778E-01  0.11341472353E+00  0.51100000000E-03 0.  1.
         11    1    4    4    0    0  0.82701339151E-02  0.12372289493E-01  0.12476691067E-02  0.14942772884E-01  0.51100000000E-03 0. -1.
</event>
<event>
 8    1  0.1117354E+005  0.1043930E+01  0.7957747E-01            NaN
         13   -1    0    0    0    0  0.00000000000E+00  0.00000000000E+00  0.74505805969E-08  0.10566000000E+00  0.10566000000E+00 0.  1.
     999900   -1    0    0    0    0 -0.00000000000E+00 -0.00000000000E+00 -0.74505805969E-08  0.93827000000E+00  0.93827000000E+00 0.  1.
     999902    2    1    2    0    0 -0.21548930082E-02 -0.14131192002E-01 -0.19806843573E-01  0.10195036781E+01  0.10192110205E+01 0.  0.
     999903    2    3    3    0    0 -0.64727184891E-01  0.23785742015E-02  0.10842190715E+00  0.12785886279E+00  0.19932705869E-01 0.  0.
         14    1    1    2    0    0  0.21548930082E-02  0.14131192002E-01  0.19806843573E-01  0.24426321941E-01  0.00000000000E+00 0. -1.
     999901    1    3    3    0    0  0.62572291883E-01 -0.16509766203E-01 -0.12822875072E+00  0.89164481527E+00  0.88000000000E+00 0.  1.
        -11    1    4    4    0    0 -0.21739252940E-02  0.43918875267E-02  0.11162688009E-01  0.12201694629E-01  0.51100000000E-03 0. -1.
         11    1    4    4    0    0 -0.62553259597E-01 -0.20133133251E-02  0.97259219142E-01  0.11565716816E+00  0.51100000000E-03 0.  1.
</event>
<event>
 8    1  0.1117354E+005  0.1043930E+01  0.7957747E-01            NaN
         13   -1    0    0    0    0  0.00000000000E+00  0.00000000000E+00  0.74505805969E-08  0.10566000000E+00  0.10566000000E+00 0. -1.
     999900   -1    0    0    0    0 -0.00000000000E+00 -0.00000000000E+00 -0.74505805969E-08  0.93827000000E+00  0.93827000000E+00 0. -1.
     999902    2    1    2    0    0 -0.57570224835E-02  0.22169927632E-01  0.63764366965E-02  0.10201537946E+01  0.10198766870E+01 0.  0.
     999903    2    3    3    0    0  0.11703023659E+00  0.22166029565E-01  0.49788730472E-01  0.13056886988E+00  0.19542337527E-01 0.  0.
         14    1    1    2    0    0  0.57570224835E-02 -0.22169927632E-01 -0.63764366965E-02  0.23776205417E-01  0.00000000000E+00 0.  1.
     999901    1    3    3    0    0 -0.12278725908E+00  0.38980676262E-05 -0.43412293776E-01  0.88958492470E+00  0.88000000000E+00 0.  1.
        -11    1    4    4    0    0  0.52813633919E-01  0.13845145239E-01  0.13130763815E-01  0.56157333037E-01  0.51100000000E-03 0.  1.
         11    1    4    4    0    0  0.64216602674E-01  0.83208843258E-02  0.36657966657E-01  0.74411536843E-01  0.51100000000E-03 0. -1.
</event>
<event>
 8    1  0.1117354E+005  0.1043930E+01  0.7957747E-01            NaN
         13   -1    0    0    0    0  0.00000000000E+00  0.00000000000E+00  0.74505805969E-08  0.10566000000E+00  0.10566000000E+00 0.  1.
     999900   -1    0    0    0    0 -0.00000000000E+00 -0.00000000000E+00 -0.74505805969E-08  0.93827000000E+00  0.93827000000E+00 0. -1.
     999902    2    1    2    0    0  0.13398099290E-01 -0.17444068851E-01 -0.47814060019E-02  0.10214207475E+01  0.10211726970E+01 0.  0.
     999903    2    3    3    0    0  0.10901281727E-01  0.12521498179E+00  0.24923341827E-01  0.12943408236E+00  0.18286035695E-01 0.  0.
         14    1    1    2    0    0 -0.13398099290E-01  0.17444068851E-01  0.47814060019E-02  0.22509252454E-01  0.00000000000E+00 0.  1.
     999901    1    3    3    0    0  0.24968175627E-02 -0.14265905064E+00 -0.29704747829E-01  0.89198666519E+00  0.88000000000E+00 0.  1.
        -11    1    4    4    0    0  0.84290025548E-02  0.26209551042E-01  0.99082972993E-02  0.29264724947E-01  0.51100000000E-03 0. -1.
         11    1    4    4    0    0  0.24722791721E-02  0.99005430745E-01  0.15015044528E-01  0.10016935741E+00  0.51100000000E-03 0.  1.
</event>
<event>
 8    1  0.1117354E+005  0.1043930E+01  0.7957747E-01            NaN
         13   -1    0    0    0    0  0.00000000000E+00  0.00000000000E+00  0.74505805969E-08  0.10566000000E+00  0.10566000000E+00 0.  1.
     999900   -1    0    0    0    0 -0.00000000000E+00 -0.00000000000E+00 -0.74505805969E-08  0.93827000000E+00  0.93827000000E+00 0. -1.
     999902    2    1    2    0    0  0.21144128776E-01  0.49659923077E-02  0.84376116364E-02  0.10206291727E+01  0.10203631607E+01 0.  0.
     999903    2    3    3    0    0 -0.30439190804E-01  0.87783559167E-01 -0.88520104129E-01  0.12994382600E+00  0.20422817704E-01 0.  0.
         14    1    1    2    0    0 -0.21144128776E-01 -0.49659923077E-02 -0.84376116364E-02  0.23300827269E-01  0.00000000000E+00 0. -1.
     999901    1    3    3    0    0  0.51583319580E-01 -0.82817566859E-01  0.96957715765E-01  0.89068534673E+00  0.88000000000E+00 0.  1.
        -11    1    4    4    0    0 -0.13370478224E-01  0.56199146939E-01 -0.65291407537E-01  0.87179945078E-01  0.51100000000E-03 0. -1.
         11    1    4    4    0    0 -0.17068712580E-01  0.31584412228E-01 -0.23228696592E-01  0.42763880919E-01  0.51100000000E-03 0.  1.
</event>
<event>
 8    1  0.1117354E+005  0.1043930E+01  0.7957747E-01            NaN
         13   -1    0    0    0    0  0.00000000000E+00  0.00000000000E+00  0.74505805969E-08  0.10566000000E+00  0.10566000000E+00 0. -1.
     999900   -1    0    0    0    0 -0.00000000000E+00 -0.00000000000E+00 -0.74505805969E-08  0.93827000000E+00  0.93827000000E+00 0.  1.
     999902    2    1    2    0    0  0.30899513804E-01  0.37260464355E-02  0.10836621559E-01  0.10109740333E+01  0.10104367374E+01 0.  0.
     999903    2    3    3    0    0 -0.60384278854E-01  0.53891866113E-01 -0.85778064738E-01  0.11957976705E+00  0.19769924932E-01 0.  0.
         14    1    1    2    0    0 -0.30899513804E-01 -0.37260464355E-02 -0.10836621559E-01  0.32955966716E-01  0.00000000000E+00 0. -1.
     999901    1    3    3    0    0  0.91283792658E-01 -0.50165819677E-01  0.96614686297E-01  0.89139426623E+00  0.88000000000E+00 0. -1.
        -11    1    4    4    0    0 -0.22305874913E-01  0.23674488610E-01 -0.21523853138E-01  0.39007317794E-01  0.51100000000E-03 0.  1.
         11    1    4    4    0    0 -0.38078403941E-01  0.30217377503E-01 -0.64254211600E-01  0.80572449257E-01  0.51100000000E-03 0. -1.
</event>
<event>
 8    1  0.1117354E+005  0.1043930E+01  0.7957747E-01            NaN
         13   -1    0    0    0    0  0.00000000000E+00  0.00000000000E+00  0.74505805969E-08  0.10566000000E+00  0.10566000000E+00 0.  1.
     999900   -1    0    0    0    0 -0.00000000000E+00 -0.00000000000E+00 -0.74505805969E-08  0.93827000000E+00  0.93827000000E+00 0. -1.
     999902    2    1    2    0    0 -0.85960779551E-02 -0.14556397237E-01  0.15900693738E-01  0.10207219557E+01  0.10204580822E+01 0.  0.
     999903    2    3    3    0    0 -0.12890078693E+00 -0.39813788146E-03  0.23071954007E-01  0.13239481652E+00  0.19506434728E-01 0.  0.
         14    1    1    2    0    0  0.85960779551E-02  0.14556397237E-01 -0.15900693738E-01  0.23208044254E-01  0.00000000000E+00 0. -1.
     999901    1    3    3    0    0  0.12030470897E+00 -0.14158259356E-01 -0.71712602689E-02  0.88832713922E+00  0.88000000000E+00 0.  1.
        -11    1    4    4    0    0 -0.85554310268E-01  0.89028829254E-02  0.16178839292E-01  0.87526094919E-01  0.51100000000E-03 0. -1.
         11    1    4    4    0    0 -0.43346476659E-01 -0.93010208068E-02  0.68931147152E-02  0.44868721603E-01  0.51100000000E-03 0.  1.
</event>
<event>
 8    1  0.1117354E+005  0.1043930E+01  0.7957747E-01            NaN
         13   -1    0    0    0    0  0.00000000000E+00  0.00000000000E+00  0.74505805969E-08  0.10566000000E+00  0.10566000000E+00 0.  1.
     999900   -1    0    0    0    0 -0.00000000000E+00 -0.00000000000E+00 -0.74505805969E-08  0.93827000000E+00  0.93827000000E+00 0.  1.
     999902    2    1    2    0    0  0.22203311333E-01  0.99128047869E-02  0.48564542279E-02  0.10191341157E+01  0.10188324248E+01 0.  0.
     999903    2    3    3    0    0  0.53066568926E-01 -0.96824742349E-01 -0.64871048118E-01  0.12941091756E+00  0.18650502184E-01 0.  0.
         14    1    1    2    0    0 -0.22203311333E-01 -0.99128047869E-02 -0.48564542279E-02  0.24795884348E-01  0.00000000000E+00 0. -1.
     999901    1    3    3    0    0 -0.30863257593E-01  0.10673754714E+00  0.69727502345E-01  0.88972319809E+00  0.88000000000E+00 0. -1.
        -11    1    4    4    0    0  0.21607075147E-01 -0.47230636702E-01 -0.40317874013E-01  0.65752496725E-01  0.51100000000E-03 0. -1.
         11    1    4    4    0    0  0.31459493779E-01 -0.49594105647E-01 -0.24553174105E-01  0.63658420836E-01  0.51100000000E-03 0.  1.
</event>
<event>
 8    1  0.1117354E+005  0.1043930E+01  0.7957747E-01            NaN
         13   -1    0    0    0    0  0.00000000000E+00  0.00000000000E+00  0.74505805969E-08  0.10566000000E+00  0.10566000000E+00 0. -1.
     999900   -1    0    0    0    0 -0.00000000000E+00 -0.00000000000E+00 -0.74505805969E-08  0.93827000000E+00  0.93827000000E+00 0. -1.
     999902    2    1    2    0    0 -0.17865568311E-03  0.23752277334E-01 -0.18382511472E-02  0.10201060254E+01  0.10198277901E+01 0.  0.
     999903    2    3    3    0    0 -0.11745361263E+00  0.16327558766E-01 -0.51783342792E-01  0.13089117281E+00  0.19724204222E-01 0.  0.
         14    1    1    2    0    0  0.17865568311E-03 -0.23752277334E-01  0.18382511472E-02  0.23823974557E-01  0.00000000000E+00 0. -1.
     999901    1    3    3    0    0  0.11727495695E+00  0.74247185682E-02  0.49945091645E-01  0.88921485264E+00  0.88000000000E+00 0. -1.
        -11    1    4    4    0    0 -0.75588805872E-01  0.13252664032E-01 -0.23459261704E-01  0.80248979793E-01  0.51100000000E-03 0. -1.
         11    1    4    4    0    0 -0.41864806760E-01  0.30748947337E-02 -0.28324081088E-01  0.50642193012E-01  0.51100000000E-03 0.  1.
</event>
<event>
 8    1  0.1117354E+005  0.1043930E+01  0.7957747E-01            NaN
         13   -1    0    0    0    0  0.00000000000E+00  0.00000000000E+00  0.74505805969E-08  0.10566000000E+00  0.10566000000E+00 0.  1.
     999900   -1    0    0    0    0 -0.00000000000E+00 -0.00000000000E+00 -0.74505805969E-08  0.93827000000E+00  0.93827000000E+00 0.  1.
     999902    2    1    2    0    0  0.84298007690E-02  0.69848670935E-02  0.20799298783E-01  0.10204255166E+01  0.10201547795E+01 0.  0.
     999903    2    3    3    0    0  0.33624360699E-01  0.92383874274E-01  0.87797983916E-01  0.13339869623E+00  0.20526770744E-01 0.  0.
         14    1    1    2    0    0 -0.84298007690E-02 -0.69848670935E-02 -0.20799298783E-01  0.23504483384E-01  0.00000000000E+00 0. -1.
     999901    1    3    3    0    0 -0.25194559930E-01 -0.85399007181E-01 -0.66998685134E-01  0.88702682039E+00  0.88000000000E+00 0.  1.
        -11    1    4    4    0    0  0.21059778775E-01  0.34217930632E-01  0.27580631442E-01  0.48737392324E-01  0.51100000000E-03 0. -1.
         11    1    4    4    0    0  0.12564581925E-01  0.58165943642E-01  0.60217352475E-01  0.84661303904E-01  0.51100000000E-03 0.  1.
</event>
<event>
 8    1  0.1117354E+005  0.1043930E+01  0.7957747E-01            NaN
         13   -1    0    0    0    0  0.00000000000E+00  0.00000000000E+00  0.74505805969E-08  0.10566000000E+00  0.10566000000E+00 0.  1.
     999900   -1    0    0    0    0 -0.00000000000E+00 -0.00000000000E+00 -0.74505805969E-08  0.93827000000E+00  0.93827000000E+00 0. -1.
     999902    2    1    2    0    0 -0.61326745505E-02 -0.53489056376E-02 -0.22937290413E-01  0.10195919684E+01  0.10193014482E+01 0.  0.
     999903    2    3    3    0    0 -0.11092102606E+00  0.63913762363E-01 -0.16874162023E-01  0.13065176949E+00  0.19917441727E-01 0.  0.
         14    1    1    2    0    0  0.61326745505E-02  0.53489056376E-02  0.22937290413E-01  0.24338031558E-01  0.00000000000E+00 0.  1.
     999901    1    3    3    0    0  0.10478835151E+00 -0.69262668001E-01 -0.60631283901E-02  0.88894019895E+00  0.88000000000E+00 0.  1.
        -11    1    4    4    0    0 -0.42348774138E-01  0.13525946857E-01 -0.61426277546E-02  0.44881654450E-01  0.51100000000E-03 0.  1.
         11    1    4    4    0    0 -0.68572251920E-01  0.50387815506E-01 -0.10731534268E-01  0.85770115038E-01  0.51100000000E-03 0. -1.
</event>
<event>
 8    1  0.1117354E+005  0.1043930E+01  0.7957747E-01            NaN
         13   -1    0    0    0    0  0.00000000000E+00  0.00000000000E+00  0.74505805969E-08  0.10566000000E+00  0.10566000000E+00 0.  1.
     999900   -1    0    0    0    0 -0.00000000000E+00 -0.00000000000E+00 -0.74505805969E-08  0.93827000000E+00  0.93827000000E+00 0.  1.
     999902    2    1    2    0    0  0.19292225725E-01  0.88792017407E-02  0.10377920468E-01  0.10202924995E+01  0.10200186533E+01 0.  0.
     999903    2    3    3    0    0 -0.10831438445E+00 -0.61597072837E-01 -0.20197230164E-01  0.12777628559E+00  0.19815291883E-01 0.  0.
         14    1    1    2    0    0 -0.19292225725E-01 -0.88792017407E-02 -0.10377920468E-01  0.23637500506E-01  0.00000000000E+00 0. -1.
     999901    1    3    3    0    0  0.12760661018E+00  0.70476274578E-01  0.30575150631E-01  0.89251621390E+00  0.88000000000E+00 0.  1.
        -11    1    4    4    0    0 -0.40198126225E-01 -0.12240497043E-01 -0.79634057215E-02  0.42771439905E-01  0.51100000000E-03 0. -1.
         11    1    4    4    0    0 -0.68116258227E-01 -0.49356575795E-01 -0.12233824442E-01  0.85004845688E-01  0.51100000000E-03 0.  1.
</event>
<event>
 8    1  0.1117354E+005  0.1043930E+01  0.7957747E-01            NaN
         13   -1    0    0    0    0  0.00000000000E+00  0.00000000000E+00  0.74505805969E-08  0.10566000000E+00  0.10566000000E+00 0.  1.
     999900   -1    0    0    0    0 -0.00000000000E+00 -0.00000000000E+00 -0.74505805969E-08  0.93827000000E+00  0.93827000000E+00 0. -1.
     999902    2    1    2    0    0 -0.11880757823E-01 -0.56276219211E-02 -0.19292757106E-01  0.10205840579E+01  0.10203170028E+01 0.  0.
     999903    2    3    3    0    0 -0.81735073781E-01  0.24846841527E-01  0.95616831786E-01  0.12984698560E+00  0.20485930029E-01 0.  0.
         14    1    1    2    0    0  0.11880757823E-01  0.56276219211E-02  0.19292757106E-01  0.23345942082E-01  0.00000000000E+00 0.  1.
     999901    1    3    3    0    0  0.69854315958E-01 -0.30474463448E-01 -0.11490958889E+00  0.89073707232E+00  0.88000000000E+00 0. -1.
        -11    1    4    4    0    0 -0.51751911277E-01  0.25070977045E-01  0.68258626086E-01  0.89254217643E-01  0.51100000000E-03 0. -1.
         11    1    4    4    0    0 -0.29983162503E-01 -0.22413551740E-03  0.27358205700E-01  0.40592767959E-01  0.51100000000E-03 0.  1.
</event>
<event>
 8    1  0.1117354E+005  0.1043930E+01  0.7957747E-01            NaN
         13   -1    0    0    0    0  0.00000000000E+00  0.00000000000E+00  0.74505805969E-08  0.10566000000E+00  0.10566000000E+00 0. -1.
     999900   -1    0    0    0    0 -0.00000000000E+00 -0.00000000000E+00 -0.74505805969E-08  0.93827000000E+00  0.93827000000E+00 0.  1.
     999902    2    1    2    0    0 -0.21064509757E-01  0.11035652883E-01  0.91783301122E-03  0.10201320668E+01  0.10198544465E+01 0.  0.
     999903    2    3    3    0    0 -0.11651768795E+00 -0.10655761246E-01 -0.60782619412E-01  0.13255740940E+00  0.13675639355E-01 0.  0.
         14    1    1    2    0    0  0.21064509757E-01 -0.11035652883E-01 -0.91783301122E-03  0.23797933173E-01  0.00000000000E+00 0.  1.
     999901    1    3    3    0    0  0.95453178193E-01  0.21691414129E-01  0.61700452423E-01  0.88757465743E+00  0.88000000000E+00 0. -1.
        -11    1    4    4    0    0 -0.69158014190E-01 -0.11445809615E-01 -0.41109438690E-01  0.81265518855E-01  0.51100000000E-03 0.  1.
         11    1    4    4    0    0 -0.47359673761E-01  0.79004836943E-03 -0.19673180722E-01  0.51291890547E-01  0.51100000000E-03 0. -1.
</event>
<event>
 8    1  0.1117354E+005  0.1043930E+01  0.7957747E-01            NaN
         13   -1    0    0    0    0  0.00000000000E+00  0.00000000000E+00  0.74505805969E-08  0.10566000000E+00  0.10566000000E+00 0. -1.
     999900   -1    0    0    0    0 -0.00000000000E+00 -0.00000000000E+00 -0.74505805969E-08  0.93827000000E+00  0.93827000000E+00 0.  1.
     999902    2    1    2    0    0  0.15498391563E-02 -0.21422991927E-01 -0.55098954977E-03  0.10224439540E+01  0.10222181709E+01 0.  0.
     999903    2    3    3    0    0 -0.83083881500E-01 -0.26085692181E-01 -0.98408491896E-01  0.13297180814E+00  0.20343937193E-01 0.  0.
         14    1    1    2    0    0 -0.15498391563E-02  0.21422991927E-01  0.55098954977E-03  0.21486046030E-01  0.00000000000E+00 0. -1.
     999901    1    3    3    0    0  0.84633720656E-01  0.46627002540E-02  0.97857502347E-01  0.88947214583E+00  0.88000000000E+00 0. -1.
        -11    1    4    4    0    0 -0.58604414087E-01 -0.11673903860E-01 -0.55800972250E-01  0.81760424454E-01  0.51100000000E-03 0.  1.
         11    1    4    4    0    0 -0.24479467413E-01 -0.14411788321E-01 -0.42607519646E-01  0.51211383684E-01  0.51100000000E-03 0. -1.
</event>
<event>
 8    1  0.1117354E+005  0.1043930E+01  0.7957747E-01            NaN
         13   -1    0    0    0    0  0.00000000000E+00  0.00000000000E+00  0.74505805969E-08  0.10566000000E+00  0.10566000000E+00 0.  1.
     999900   -1    0    0    0    0 -0.00000000000E+00 -0.00000000000E+00 -0.74505805969E-08  0.93827000000E+00  0.93827000000E+00 0. -1.
     999902    2    1    2    0    0 -0.14024691771E-01 -0.49820032719E-02 -0.20781253524E-01  0.10183688413E+01  0.10180479970E+01 0.  0.
     999903    2    3    3    0    0  0.72866238531E-01 -0.63739050753E-01 -0.84193511436E-01  0.12987374348E+00  0.20161512092E-01 0.  0.
         14    1    1    2    0    0  0.14024691771E-01  0.49820032719E-02  0.20781253524E-01  0.25561158696E-01  0.00000000000E+00 0.  1.
     999901    1    3    3    0    0 -0.86890930302E-01  0.58757047481E-01  0.63412257913E-01  0.88849509782E+00  0.88000000000E+00 0.  1.
        -11    1    4    4    0    0  0.43404544844E-01 -0.50270747740E-01 -0.58873279662E-01  0.88754868997E-01  0.51100000000E-03 0. -1.
         11    1    4    4    0    0  0.29461693687E-01 -0.13468303013E-01 -0.25320231774E-01  0.41118874486E-01  0.51100000000E-03 0.  1.
</event>
<event>
 8    1  0.1117354E+005  0.1043930E+01  0.7957747E-01            NaN
         13   -1    0    0    0    0  0.00000000000E+00  0.00000000000E+00  0.74505805969E-08  0.10566000000E+00  0.10566000000E+00 0. -1.
     999900   -1    0    0    0    0 -0.00000000000E+00 -0.00000000000E+00 -0.74505805969E-08  0.93827000000E+00  0.93827000000E+00 0. -1.
     999902    2    1    2    0    0  0.10274471706E-01 -0.17807811804E-01  0.12059456340E-01  0.10200948701E+01  0.10198163710E+01 0.  0.
     999903    2    3    3    0    0  0.61915274516E-01 -0.20338261668E-01  0.11435727051E+00  0.13266148191E+00  0.16563132528E-01 0.  0.
         14    1    1    2    0    0 -0.10274471706E-01  0.17807811804E-01 -0.12059456340E-01  0.23835129899E-01  0.00000000000E+00 0.  1.
     999901    1    3    3    0    0 -0.51640802810E-01  0.25304498637E-02 -0.10229781417E+00  0.88743338819E+00  0.88000000000E+00 0. -1.
        -11    1    4    4    0    0  0.19650682493E-01 -0.33912601097E-02  0.49911358047E-01  0.53749927913E-01  0.51100000000E-03 0. -1.
         11    1    4    4    0    0  0.42264592023E-01 -0.16947001558E-01  0.64445912460E-01  0.78911553998E-01  0.51100000000E-03 0.  1.
</event>
<event>
 8    1  0.1117354E+005  0.1043930E+01  0.7957747E-01            NaN
         13   -1    0    0    0    0  0.00000000000E+00  0.00000000000E+00  0.74505805969E-08  0.10566000000E+00  0.10566000000E+00 0. -1.
     999900   -1    0    0    0    0 -0.00000000000E+00 -0.00000000000E+00 -0.74505805969E-08  0.93827000000E+00  0.93827000000E+00 0.  1.
     999902    2    1    2    0    0  0.22154028243E-02 -0.93386290662E-02 -0.21631541598E-01  0.10202648020E+01  0.10199903062E+01 0.  0.
     999903    2    3    3    0    0  0.20388983936E-01 -0.11186532905E+00 -0.65976757538E-01  0.13301709061E+00  0.20274401335E-01 0.  0.
         14    1    1    2    0    0 -0.22154028243E-02  0.93386290662E-02  0.21631541598E-01  0.23665197958E-01  0.00000000000E+00 0. -1.
     999901    1    3    3    0    0 -0.18173581112E-01  0.10252669999E+00  0.44345215941E-01  0.88724771143E+00  0.88000000000E+00 0. -1.
        -11    1    4    4    0    0  0.11886878374E-02 -0.62627398605E-01 -0.36623311640E-01  0.72561230084E-01  0.51100000000E-03 0. -1.
         11    1    4    4    0    0  0.19200296099E-01 -0.49237930448E-01 -0.29353445898E-01  0.60455860528E-01  0.51100000000E-03 0.  1.
</event>
<event>
 8    1  0.1117354E+005  0.1043930E+01  0.7957747E-01            NaN
         13   -1    0    0    0    0  0.00000000000E+00  0.00000000000E+00  0.74505805969E-08  0.10566000000E+00  0.10566000000E+00 0. -1.
     999900   -1    0    0    0    0 -0.00000000000E+00 -0.00000000000E+00 -0.74505805969E-08  0.93827000000E+00  0.93827000000E+00 0. -1.
     999902    2    1    2    0    0 -0.75637514011E-02  0.87867908290E-02  0.20497692191E-01  0.10203806176E+01  0.10201088331E+01 0.  0.
     999903    2    3    3    0    0 -0.30394643836E-01 -0.36199271223E-01  0.12266571247E+00  0.13303440564E+00  0.20421911242E-01 0.  0.
         14    1    1    2    0    0  0.75637514011E-02 -0.87867908290E-02 -0.20497692191E-01  0.23549382444E-01  0.00000000000E+00 0. -1.
     999901    1    3    3    0    0  0.22830892435E-01  0.44986062052E-01 -0.10216802028E+00  0.88734621191E+00  0.88000000000E+00 0. -1.
        -11    1    4    4    0    0 -0.31358269828E-01 -0.32737395769E-01  0.96508800624E-01  0.10662686288E+00  0.51100000000E-03 0. -1.
         11    1    4    4    0    0  0.96362599216E-03 -0.34618754538E-02  0.26156911844E-01  0.26407542766E-01  0.51100000000E-03 0.  1.
</event>
<event>
 8    1  0.1117354E+005  0.1043930E+01  0.7957747E-01            NaN
         13   -1    0    0    0    0  0.00000000000E+00  0.00000000000E+00  0.74505805969E-08  0.10566000000E+00  0.10566000000E+00 0.  1.
     999900   -1    0    0    0    0 -0.00000000000E+00 -0.00000000000E+00 -0.74505805969E-08  0.93827000000E+00  0.93827000000E+00 0. -1.
     999902    2    1    2    0    0 -0.14604310540E-01 -0.18602147511E-01  0.12931806318E-02  0.10202446017E+01  0.10199696315E+01 0.  0.
     999903    2    3    3    0    0 -0.80142617958E-01  0.10053261859E+00 -0.41039459464E-02  0.12978545537E+00  0.17256171044E-01 0.  0.
         14    1    1    2    0    0  0.14604310540E-01  0.18602147511E-01 -0.12931806318E-02  0.23685398340E-01  0.00000000000E+00 0.  1.
     999901    1    3    3    0    0  0.65538307417E-01 -0.11913476610E+00  0.53971265782E-02  0.89045914629E+00  0.88000000000E+00 0.  1.
        -11    1    4    4    0    0 -0.55798785451E-01  0.81278615605E-01 -0.51680714974E-02  0.98725315378E-01  0.51100000000E-03 0.  1.
         11    1    4    4    0    0 -0.24343832507E-01  0.19254002989E-01  0.10641255511E-02  0.31060139993E-01  0.51100000000E-03 0. -1.
</event>
<event>
 8    1  0.1117354E+005  0.1043930E+01  0.7957747E-01            NaN
         13   -1    0    0    0    0  0.00000000000E+00  0.00000000000E+00  0.74505805969E-08  0.10566000000E+00  0.10566000000E+00 0.  1.
     999900   -1    0    0    0    0 -0.00000000000E+00 -0.00000000000E+00 -0.74505805969E-08  0.93827000000E+00  0.93827000000E+00 0. -1.
     999902    2    1    2    0    0  0.14897298671E-01  0.93152920243E-02  0.12056040020E-01  0.10226214976E+01  0.10223994694E+01 0.  0.
     999903    2    3    3    0    0  0.11441222151E+00 -0.52037983783E-02 -0.65298594339E-01  0.13352208623E+00  0.21142496103E-01 0.  0.
         14    1    1    2    0    0 -0.14897298671E-01 -0.93152920243E-02 -0.12056040020E-01  0.21308502392E-01  0.00000000000E+00 0. -1.
     999901    1    3    3    0    0 -0.99514922835E-01  0.14519090403E-01  0.77354634360E-01  0.88909941138E+00  0.88000000000E+00 0.  1.
        -11    1    4    4    0    0  0.10901849763E+00 -0.48449881898E-02 -0.66722431873E-01  0.12790875956E+00  0.51100000000E-03 0. -1.
         11    1    4    4    0    0  0.53937238786E-02 -0.35881018841E-03  0.14238375336E-02  0.56133266743E-02  0.51100000000E-03 0.  1.
</event>
<event>
 8    1  0.1117354E+005  0.1043930E+01  0.7957747E-01            NaN
         13   -1    0    0    0    0  0.00000000000E+00  0.00000000000E+00  0.74505805969E-08  0.10566000000E+00  0.10566000000E+00 0.  1.
     999900   -1    0    0    0    0 -0.00000000000E+00 -0.00000000000E+00 -0.74505805969E-08  0.93827000000E+00  0.93827000000E+00 0. -1.
     999902    2    1    2    0    0  0.11189144712E-01 -0.21584083304E-01  0.29244512137E-02  0.10194428191E+01  0.10191486837E+01 0.  0.
     999903    2    3    3    0    0 -0.10452245247E+00  0.66198195269E-01  0.20215692062E-01  0.12737001429E+00  0.22523370239E-01 0.  0.
         14    1    1    2    0    0 -0.11189144712E-01  0.21584083304E-01 -0.29244512137E-02  0.24487180858E-01  0.00000000000E+00 0. -1.
     999901    1    3    3    0    0  0.11571159718E+00 -0.87782278573E-01 -0.17291240849E-01  0.89207280486E+00  0.88000000000E+00 0.  1.
        -11    1    4    4    0    0 -0.85846561918E-01  0.63330579357E-01  0.14757546926E-01  0.10769605744E+00  0.51100000000E-03 0. -1.
         11    1    4    4    0    0 -0.18675890550E-01  0.28676159125E-02  0.54581451365E-02  0.19673956851E-01  0.51100000000E-03 0.  1.
</event>
<event>
 8    1  0.1117354E+005  0.1043930E+01  0.7957747E-01            NaN
         13   -1    0    0    0    0  0.00000000000E+00  0.00000000000E+00  0.74505805969E-08  0.10566000000E+00  0.10566000000E+00 0. -1.
     999900   -1    0    0    0    0 -0.00000000000E+00 -0.00000000000E+00 -0.74505805969E-08  0.93827000000E+00  0.93827000000E+00 0. -1.
     999902    2    1    2    0    0  0.25675753616E-02  0.20826195393E-01 -0.42278540334E-02  0.10225244491E+01  0.10223003724E+01 0.  0.
     999903    2    3    3    0    0  0.12429222637E+00  0.42850431718E-01 -0.14128593167E-01  0.13381753329E+00  0.20562053301E-01 0.  0.
         14    1    1    2    0    0 -0.25675753616E-02 -0.20826195393E-01  0.42278540334E-02  0.21405550857E-01  0.00000000000E+00 0. -1.
     999901    1    3    3    0    0 -0.12172465101E+00 -0.22024236325E-01  0.99007391333E-02  0.88870691585E+00  0.88000000000E+00 0. -1.
        -11    1    4    4    0    0  0.66318353445E-01  0.12446963193E-01 -0.10091489917E-01  0.68228661032E-01  0.51100000000E-03 0. -1.
         11    1    4    4    0    0  0.57973872927E-01  0.30403468524E-01 -0.40371032496E-02  0.65588872258E-01  0.51100000000E-03 0.  1.
</event>
<event>
 8    1  0.1117354E+005  0.1043930E+01  0.7957747E-01            NaN
         13   -1    0    0    0    0  0.00000000000E+00  0.00000000000E+00  0.74505805969E-08  0.10566000000E+00  0.10566000000E+00 0. -1.
     999900   -1    0    0    0    0 -0.00000000000E+00 -0.00000000000E+00 -0.74505805969E-08  0.93827000000E+00  0.93827000000E+00 0. -1.
     999902    2    1    2    0    0  0.16718877350E-01  0.14898197649E-01  0.44571592805E-02  0.10210970540E+01  0.10208417362E+01 0.  0.
     999903    2    3    3    0    0 -0.47572626530E-01 -0.18510617635E-02 -0.11931422660E+00  0.12995548776E+00  0.19645938644E-01 0.  0.
         14    1    1    2    0    0 -0.16718877350E-01 -0.14898197649E-01 -0.44571592805E-02  0.22832945975E-01  0.00000000000E+00 0. -1.
     999901    1    3    3    0    0  0.64291503879E-01  0.16749259413E-01  0.12377138588E+00  0.89114156626E+00  0.88000000000E+00 0.  1.
        -11    1    4    4    0    0 -0.14016087986E-01  0.60540054305E-02 -0.22595445599E-01  0.27274841650E-01  0.51100000000E-03 0. -1.
         11    1    4    4    0    0 -0.33556538544E-01 -0.79050671940E-02 -0.96718781001E-01  0.10268064611E+00  0.51100000000E-03 0.  1.
</event>
<event>
 8    1  0.1117354E+005  0.1043930E+01  0.7957747E-01            NaN
         13   -1    0    0    0    0  0.00000000000E+00  0.00000000000E+00  0.74505805969E-08  0.10566000000E+00  0.10566000000E+00 0.  1.
     999900   -1    0    0    0    0 -0.00000000000E+00 -0.00000000000E+00 -0.74505805969E-08  0.93827000000E+00  0.93827000000E+00 0. -1.
     999902    2    1    2    0    0 -0.60438567323E-02  0.22615343663E-01  0.31514532608E-02  0.10203098046E+01  0.10200363639E+01 0.  0.
     999903    2    3    3    0    0  0.47208930995E-01  0.61782657503E-01  0.10481812797E+00  0.13199339103E+00  0.19739184090E-01 0.  0.
         14    1    1    2    0    0  0.60438567323E-02 -0.22615343663E-01 -0.31514532608E-02  0.23620195402E-01  0.00000000000E+00 0.  1.
     999901    1    3    3    0    0 -0.53252787727E-01 -0.39167313840E-01 -0.10166667471E+00  0.88831641357E+00  0.88000000000E+00 0. -1.
        -11    1    4    4    0    0  0.25511641777E-01  0.18692446210E-01  0.47563035960E-01  0.57120529779E-01  0.51100000000E-03 0. -1.
         11    1    4    4    0    0  0.21697289218E-01  0.43090211294E-01  0.57255092014E-01  0.74872861247E-01  0.51100000000E-03 0.  1.
</event>
<event>
 8    1  0.1117354E+005  0.1043930E+01  0.7957747E-01            NaN
         13   -1    0    0    0    0  0.00000000000E+00  0.00000000000E+00  0.74505805969E-08  0.10566000000E+00  0.10566000000E+00 0.  1.
     999900   -1    0    0    0    0 -0.00000000000E+00 -0.00000000000E+00 -0.74505805969E-08  0.93827000000E+00  0.93827000000E+00 0. -1.
     999902    2    1    2    0    0  0.15023011713E-01  0.19706171008E-01 -0.16017065477E-02  0.10190987793E+01  0.10187962173E+01 0.  0.
     999903    2    3    3    0    0 -0.39146597895E-01 -0.11479889687E+00  0.30634853432E-01  0.12664981400E+00  0.19759511426E-01 0.  0.
         14    1    1    2    0    0 -0.15023011713E-01 -0.19706171008E-01  0.16017065477E-02  0.24831220683E-01  0.00000000000E+00 0.  1.
     999901    1    3    3    0    0  0.54169609608E-01  0.13450506788E+00 -0.32236559980E-01  0.89244896531E+00  0.88000000000E+00 0. -1.
        -11    1    4    4    0    0 -0.39701766474E-01 -0.93685829371E-01  0.24754250060E-01  0.10472009789E+00  0.51100000000E-03 0. -1.
         11    1    4    4    0    0  0.55516857857E-03 -0.21113067504E-01  0.58806033717E-02  0.21929716108E-01  0.51100000000E-03 0.  1.
</event>
<event>
 8    1  0.1117354E+005  0.1043930E+01  0.7957747E-01            NaN
         13   -1    0    0    0    0  0.00000000000E+00  0.00000000000E+00  0.74505805969E-08  0.10566000000E+00  0.10566000000E+00 0. -1.
     999900   -1    0    0    0    0 -0.00000000000E+00 -0.00000000000E+00 -0.74505805969E-08  0.93827000000E+00  0.93827000000E+00 0.  1.
     999902    2    1    2    0    0 -0.32630787079E-02  0.21892821672E-01 -0.17163972594E-01  0.10159202646E+01  0.10155340657E+01 0.  0.
     999903    2    3    3    0    0  0.11206558511E+00 -0.46343909341E-01  0.21641662542E-01  0.12493046134E+00  0.20803973491E-01 0.  0.
         14    1    1    2    0    0  0.32630787079E-02 -0.21892821672E-01  0.17163972594E-01  0.28009735425E-01  0.00000000000E+00 0. -1.
     999901    1    3    3    0    0 -0.11532866382E+00  0.68236731013E-01 -0.38805635136E-01  0.89098980324E+00  0.88000000000E+00 0.  1.
        -11    1    4    4    0    0  0.23710950543E-01 -0.29406118878E-02  0.96057234037E-02  0.25756308296E-01  0.51100000000E-03 0.  1.
         11    1    4    4    0    0  0.88354634567E-01 -0.43403297453E-01  0.12035939138E-01  0.99174153040E-01  0.51100000000E-03 0. -1.
</event>
<event>
 8    1  0.1117354E+005  0.1043930E+01  0.7957747E-01            NaN
         13   -1    0    0    0    0  0.00000000000E+00  0.00000000000E+00  0.74505805969E-08  0.10566000000E+00  0.10566000000E+00 0. -1.
     999900   -1    0    0    0    0 -0.00000000000E+00 -0.00000000000E+00 -0.74505805969E-08  0.93827000000E+00  0.93827000000E+00 0. -1.
     999902    2    1    2    0    0  0.38405773337E-02 -0.12836595003E-01 -0.19071820536E-01  0.10206220069E+01  0.10203558293E+01 0.  0.
     999903    2    3    3    0    0  0.16500090363E-01 -0.20725325698E-01 -0.12943423907E+00  0.13360320280E+00  0.19869611153E-01 0.  0.
         14    1    1    2    0    0 -0.38405773337E-02  0.12836595003E-01  0.19071820536E-01  0.23307993137E-01  0.00000000000E+00 0. -1.
     999901    1    3    3    0    0 -0.12659513029E-01  0.78887306954E-02  0.11036241853E+00  0.88701880407E+00  0.88000000000E+00 0.  1.
        -11    1    4    4    0    0  0.11903805202E-01 -0.36606879156E-02 -0.82744720949E-01  0.83678259902E-01  0.51100000000E-03 0.  1.
         11    1    4    4    0    0  0.45962851601E-02 -0.17064637783E-01 -0.46689518119E-01  0.49924942896E-01  0.51100000000E-03 0. -1.
</event>
<event>
 8    1  0.1117354E+005  0.1043930E+01  0.7957747E-01            NaN
         13   -1    0    0    0    0  0.00000000000E+00  0.00000000000E+00  0.74505805969E-08  0.10566000000E+00  0.10566000000E+00 0.  1.
     999900   -1    0    0    0    0 -0.00000000000E+00 -0.00000000000E+00 -0.74505805969E-08  0.93827000000E+00  0.93827000000E+00 0.  1.
     999902    2    1    2    0    0 -0.10551873297E-01  0.10283645681E-01 -0.17756244614E-01  0.10208566469E+01  0.10205958622E+01 0.  0.
     999903    2    3    3    0    0  0.57199451621E-01  0.55069089286E-01 -0.10580601167E+00  0.13274137319E+00  0.10999008679E-01 0.  0.
         14    1    1    2    0    0  0.10551873297E-01 -0.10283645681E-01  0.17756244614E-01  0.23073353058E-01  0.00000000000E+00 0.  1.
     999901    1    3    3    0    0 -0.67751324918E-01 -0.44785443605E-01  0.88049767053E-01  0.88811527375E+00  0.88000000000E+00 0. -1.
        -11    1    4    4    0    0  0.40917327915E-01  0.32985789384E-01 -0.65508182079E-01  0.83987338720E-01  0.51100000000E-03 0.  1.
         11    1    4    4    0    0  0.16282123706E-01  0.22083299902E-01 -0.40297829588E-01  0.48754034473E-01  0.51100000000E-03 0. -1.
</event>
<event>
 8    1  0.1117354E+005  0.1043930E+01  0.7957747E-01            NaN
         13   -1    0    0    0    0  0.00000000000E+00  0.00000000000E+00  0.74505805969E-08  0.10566000000E+00  0.10566000000E+00 0. -1.
     999900   -1    0    0    0    0 -0.00000000000E+00 -0.00000000000E+00 -0.74505805969E-08  0.93827000000E+00  0.93827000000E+00 0.  1.
     999902    2    1    2    0    0  0.16851463261E-01 -0.14359470810E-02 -0.17301829584E-01  0.10197352265E+01  0.10194481571E+01 0.  0.
     999903    2    3    3    0    0  0.23371581236E-01  0.95515647960E-01  0.80973375360E-01  0.12894897849E+00  0.20041998974E-01 0.  0.
         14    1    1    2    0    0 -0.16851463261E-01  0.14359470810E-02  0.17301829584E-01  0.24194773506E-01  0.00000000000E+00 0. -1.
     999901    1    3    3    0    0 -0.65201179754E-02 -0.96951595041E-01 -0.98275204944E-01  0.89078624800E+00  0.88000000000E+00 0. -1.
        -11    1    4    4    0    0  0.23504478628E-01  0.95290972543E-01  0.76503074810E-01  0.12444200071E+00  0.51100000000E-03 0.  1.
         11    1    4    4    0    0 -0.13289739200E-03  0.22467541672E-03  0.44703005501E-02  0.45069777865E-02  0.51100000000E-03 0. -1.
</event>
<event>
 8    1  0.1117354E+005  0.1043930E+01  0.7957747E-01            NaN
         13   -1    0    0    0    0  0.00000000000E+00  0.00000000000E+00  0.74505805969E-08  0.10566000000E+00  0.10566000000E+00 0. -1.
     999900   -1    0    0    0    0 -0.00000000000E+00 -0.00000000000E+00 -0.74505805969E-08  0.93827000000E+00  0.93827000000E+00 0. -1.
     999902    2    1    2    0    0  0.34499227999E-02 -0.99175849631E-02 -0.21193606244E-01  0.10202777400E+01  0.10200035477E+01 0.  0.
     999903    2    3    3    0    0  0.99305610558E-01 -0.76037513073E-01  0.33262511986E-01  0.13093774504E+00  0.19874372708E-01 0.  0.
         14    1    1    2    0    0 -0.34499227999E-02  0.99175849631E-02  0.21193606244E-01  0.23652260028E-01  0.00000000000E+00 0. -1.
     999901    1    3    3    0    0 -0.95855687758E-01  0.66119928110E-01 -0.54456118229E-01  0.88933999493E+00  0.88000000000E+00 0. -1.
        -11    1    4    4    0    0  0.46885912827E-01 -0.47285890287E-01  0.13326400621E-01  0.67912431236E-01  0.51100000000E-03 0. -1.
         11    1    4    4    0    0  0.52419697731E-01 -0.28751622786E-01  0.19936111365E-01  0.63025313807E-01  0.51100000000E-03 0.  1.
</event>
<event>
 8    1  0.1117354E+005  0.1043930E+01  0.7957747E-01            NaN
         13   -1    0    0    0    0  0.00000000000E+00  0.00000000000E+00  0.74505805969E-08  0.10566000000E+00  0.10566000000E+00 0. -1.
     999900   -1    0    0    0    0 -0.00000000000E+00 -0.00000000000E+00 -0.74505805969E-08  0.93827000000E+00  0.93827000000E+00 0. -1.
     999902    2    1    2    0    0 -0.14463314742E-01  0.87699559855E-02  0.10115286004E-01  0.10242216614E+01  0.10240320273E+01 0.  0.
     999903    2    3    3    0    0 -0.37458988042E-01  0.37486981587E-02 -0.12647717905E+00  0.13337290004E+00  0.19355234963E-01 0.  0.
         14    1    1    2    0    0  0.14463314742E-01 -0.87699559855E-02 -0.10115286004E-01  0.19708338648E-01  0.00000000000E+00 0. -1.
     999901    1    3    3    0    0  0.22995673299E-01  0.50212578268E-02  0.13659246506E+00  0.89084876131E+00  0.88000000000E+00 0.  1.
        -11    1    4    4    0    0 -0.25407777521E-01  0.37278762152E-02 -0.10996187695E+00  0.11292177701E+00  0.51100000000E-03 0.  1.
         11    1    4    4    0    0 -0.12051210521E-01  0.20821943564E-04 -0.16515302100E-01  0.20451123026E-01  0.51100000000E-03 0. -1.
</event>
<event>
 8    1  0.1117354E+005  0.1043930E+01  0.7957747E-01            NaN
         13   -1    0    0    0    0  0.00000000000E+00  0.00000000000E+00  0.74505805969E-08  0.10566000000E+00  0.10566000000E+00 0. -1.
     999900   -1    0    0    0    0 -0.00000000000E+00 -0.00000000000E+00 -0.74505805969E-08  0.93827000000E+00  0.93827000000E+00 0. -1.
     999902    2    1    2    0    0  0.17008874508E-02 -0.22026592630E-01  0.84716411621E-02  0.10202692201E+01  0.10199948279E+01 0.  0.
     999903    2    3    3    0    0 -0.86825632909E-01  0.64351553077E-01 -0.66473130427E-01  0.12846495479E+00  0.20118514508E-01 0.  0.
         14    1    1    2    0    0 -0.17008874508E-02  0.22026592630E-01 -0.84716411621E-02  0.23660779889E-01  0.00000000000E+00 0.  1.
     999901    1    3    3    0    0  0.88526520360E-01 -0.86378145706E-01  0.74944771589E-01  0.89180426532E+00  0.88000000000E+00 0. -1.
        -11    1    4    4    0    0 -0.12073396088E-01  0.12921156871E-01 -0.19359098514E-01  0.26225159756E-01  0.51100000000E-03 0.  1.
         11    1    4    4    0    0 -0.74752236821E-01  0.51430396206E-01 -0.47114031913E-01  0.10223979503E+00  0.51100000000E-03 0. -1.
</event>
<event>
 8    1  0.1117354E+005  0.1043930E+01  0.7957747E-01            NaN
         13   -1    0    0    0    0  0.00000000000E+00  0.00000000000E+00  0.74505805969E-08  0.10566000000E+00  0.10566000000E+00 0.  1.
     999900   -1    0    0    0    0 -0.00000000000E+00 -0.00000000000E+00 -0.74505805969E-08  0.93827000000E+00  0.93827000000E+00 0.  1.
     999902    2    1    2    0    0 -0.13372733502E-01 -0.19897454554E-01 -0.28164188487E-02  0.10197914227E+01  0.10195057013E+01 0.  0.
     999903    2    3    3    0    0 -0.15344742405E-01 -0.11313064886E+00  0.63731252929E-01  0.13236542017E+00  0.20613758174E-01 0.  0.
         14    1    1    2    0    0  0.13372733502E-01  0.19897454554E-01  0.28164188487E-02  0.24138577302E-01  0.00000000000E+00 0.  1.
     999901    1    3    3    0    0  0.19720089030E-02  0.93233194308E-01 -0.66547671777E-01  0.88742600253E+00  0.88000000000E+00 0.  1.
        -11    1    4    4    0    0 -0.15464499640E-01 -0.11002468330E+00  0.65269182941E-01  0.12886003665E+00  0.51100000000E-03 0.  1.
         11    1    4    4    0    0  0.11975723505E-03 -0.31059655644E-02 -0.15379300122E-02  0.35053835175E-02  0.51100000000E-03 0. -1.
</event>
<event>
 8    1  0.1117354E+005  0.1043930E+01  0.7957747E-01            NaN
         13   -1    0    0    0    0  0.00000000000E+00  0.00000000000E+00  0.74505805969E-08  0.10566000000E+00  0.10566000000E+00 0. -1.
     999900   -1    0    0    0    0 -0.00000000000E+00 -0.00000000000E+00 -0.74505805969E-08  0.93827000000E+00  0.93827000000E+00 0.  1.
     999902    2    1    2    0    0 -0.98353635619E-02 -0.84399076438E-02  0.17150907629E-01  0.10224330223E+01  0.10222070069E+01 0.  0.
     999903    2    3    3    0    0  0.11064478438E+00 -0.41581465920E-01 -0.52223062330E-01  0.13090255360E+00  0.20903197836E-01 0.  0.
         14    1    1    2    0    0  0.98353635619E-02  0.84399076438E-02 -0.17150907629E-01  0.21496977693E-01  0.00000000000E+00 0. -1.
     999901    1    3    3    0    0 -0.12048014794E+00  0.33141558276E-01  0.69373969959E-01  0.89153046871E+00  0.88000000000E+00 0. -1.
        -11    1    4    4    0    0  0.85116988615E-01 -0.40516734757E-01 -0.37863680174E-01  0.10158950213E+00  0.51100000000E-03 0.  1.
         11    1    4    4    0    0  0.25527795766E-01 -0.10647311631E-02 -0.14359382157E-01  0.29313051463E-01  0.51100000000E-03 0. -1.
</event>
<event>
 8    1  0.1117354E+005  0.1043930E+01  0.7957747E-01            NaN
         13   -1    0    0    0    0  0.00000000000E+00  0.00000000000E+00  0.74505805969E-08  0.10566000000E+00  0.10566000000E+00 0. -1.
     999900   -1    0    0    0    0 -0.00000000000E+00 -0.00000000000E+00 -0.74505805969E-08  0.93827000000E+00  0.93827000000E+00 0. -1.
     999902    2    1    2    0    0 -0.12232492669E-01 -0.15691899828E-01 -0.11495991555E-01  0.10209511528E+01  0.10206925242E+01 0.  0.
     999903    2    3    3    0    0 -0.44993541556E-01  0.11234565970E+00  0.42372278673E-01  0.12945314746E+00  0.17797228812E-01 0.  0.
         14    1    1    2    0    0  0.12232492669E-01  0.15691899828E-01  0.11495991555E-01  0.22978847206E-01  0.00000000000E+00 0. -1.
     999901    1    3    3    0    0  0.32761048887E-01 -0.12803755952E+00 -0.53868270228E-01  0.89149800533E+00  0.88000000000E+00 0.  1.
        -11    1    4    4    0    0 -0.10010755240E-01  0.47973859494E-01  0.18747196723E-01  0.52473087590E-01  0.51100000000E-03 0.  1.
         11    1    4    4    0    0 -0.34982786315E-01  0.64371800203E-01  0.23625081949E-01  0.76980059872E-01  0.51100000000E-03 0. -1.
</event>
<event>
 8    1  0.1117354E+005  0.1043930E+01  0.7957747E-01            NaN
         13   -1    0    0    0    0  0.00000000000E+00  0.00000000000E+00  0.74505805969E-08  0.10566000000E+00  0.10566000000E+00 0. -1.
     999900   -1    0    0    0    0 -0.00000000000E+00 -0.00000000000E+00 -0.74505805969E-08  0.93827000000E+00  0.93827000000E+00 0. -1.
     999902    2    1    2    0    0 -0.14275993185E-01  0.17084024847E-01  0.85997052456E-02  0.10200632278E+01  0.10197839800E+01 0.  0.
     999903    2    3    3    0    0 -0.82138933209E-01 -0.67417468424E-01 -0.71766730403E-01  0.12977976450E+00  0.20010104530E-01 0.  0.
         14    1    1    2    0    0  0.14275993185E-01 -0.17084024847E-01 -0.85997052456E-02  0.23866772230E-01  0.00000000000E+00 0.  1.
     999901    1    3    3    0    0  0.67862940025E-01  0.84501493270E-01  0.80366435649E-01  0.89028346327E+00  0.88000000000E+00 0. -1.
        -11    1    4    4    0    0 -0.25484424682E-01 -0.28530675238E-01 -0.16809637792E-01  0.41788519651E-01  0.51100000000E-03 0. -1.
         11    1    4    4    0    0 -0.56654508527E-01 -0.38886793186E-01 -0.54957092611E-01  0.87991244849E-01  0.51100000000E-03 0.  1.
</event>
<event>
 8    1  0.1117354E+005  0.1043930E+01  0.7957747E-01            NaN
         13   -1    0    0    0    0  0.00000000000E+00  0.00000000000E+00  0.74505805969E-08  0.10566000000E+00  0.10566000000E+00 0. -1.
     999900   -1    0    0    0    0 -0.00000000000E+00 -0.00000000000E+00 -0.74505805969E-08  0.93827000000E+00  0.93827000000E+00 0.  1.
     999902    2    1    2    0    0 -0.23166310810E-01  0.21457066280E-02  0.60742889717E-02  0.10198846470E+01  0.10196011545E+01 0.  0.
     999903    2    3    3    0    0 -0.10561626627E+00  0.36314452934E-01 -0.68029399652E-01  0.13227163729E+00  0.19855770437E-01 0.  0.
         14    1    1    2    0    0  0.23166310810E-01 -0.21457066280E-02 -0.60742889717E-02  0.24045352981E-01  0.00000000000E+00 0.  1.
     999901    1    3    3    0    0  0.82449955465E-01 -0.34168746306E-01  0.74103688624E-01  0.88761300973E+00  0.88000000000E+00 0. -1.
        -11    1    4    4    0    0 -0.25732465218E-01  0.68602510797E-03 -0.18990068938E-01  0.31992409036E-01  0.51100000000E-03 0.  1.
         11    1    4    4    0    0 -0.79883801056E-01  0.35628427826E-01 -0.49039330714E-01  0.10027922825E+00  0.51100000000E-03 0. -1.
</event>
<event>
 8    1  0.1117354E+005  0.1043930E+01  0.7957747E-01            NaN
         13   -1    0    0    0    0  0.00000000000E+00  0.00000000000E+00  0.74505805969E-08  0.10566000000E+00  0.10566000000E+00 0.  1.
     999900   -1    0    0    0    0 -0.00000000000E+00 -0.00000000000E+00 -0.74505805969E-08  0.93827000000E+00  0.93827000000E+00 0.  1.
     999902    2    1    2    0    0  0.21526577977E-01 -0.20468455920E-02 -0.11361138640E-01  0.10195034037E+01  0.10192107395E+01 0.  0.
     999903    2    3    3    0    0  0.17538618295E-01  0.12651814119E+00 -0.16008874610E-01  0.13014045129E+00  0.19126155245E-01 0.  0.
         14    1    1    2    0    0 -0.21526577977E-01  0.20468455920E-02  0.11361138640E-01  0.24426596314E-01  0.00000000000E+00 0.  1.
     999901    1    3    3    0    0  0.39879596828E-02 -0.12856498678E+00  0.46477359692E-02  0.88936295240E+00  0.88000000000E+00 0. -1.
        -11    1    4    4    0    0  0.15931882512E-01  0.65760775468E-01 -0.16430207675E-02  0.67685043464E-01  0.51100000000E-03 0.  1.
         11    1    4    4    0    0  0.16067357828E-02  0.60757365718E-01 -0.14365853842E-01  0.62455407824E-01  0.51100000000E-03 0. -1.
</event>
<event>
 8    1  0.1117354E+005  0.1043930E+01  0.7957747E-01            NaN
         13   -1    0    0    0    0  0.00000000000E+00  0.00000000000E+00  0.74505805969E-08  0.10566000000E+00  0.10566000000E+00 0. -1.
     999900   -1    0    0    0    0 -0.00000000000E+00 -0.00000000000E+00 -0.74505805969E-08  0.93827000000E+00  0.93827000000E+00 0. -1.
     999902    2    1    2    0    0 -0.28649000604E-02  0.98976749016E-02  0.21177051461E-01  0.10203792223E+01  0.10201074052E+01 0.  0.
     999903    2    3    3    0    0  0.72989162481E-02  0.94946354142E-01  0.91309511972E-01  0.13344340558E+00  0.20040737813E-01 0.  0.
         14    1    1    2    0    0  0.28649000604E-02 -0.98976749016E-02 -0.21177051461E-01  0.23550777681E-01  0.00000000000E+00 0.  1.
     999901    1    3    3    0    0 -0.10163816308E-01 -0.85048679240E-01 -0.70132460511E-01  0.88693581674E+00  0.88000000000E+00 0. -1.
        -11    1    4    4    0    0  0.71124425177E-02  0.79541847884E-01  0.65080718235E-01  0.10302064555E+00  0.51100000000E-03 0.  1.
         11    1    4    4    0    0  0.18647373032E-03  0.15404506258E-01  0.26228793737E-01  0.30422760022E-01  0.51100000000E-03 0. -1.
</event>
<event>
 8    1  0.1117354E+005  0.1043930E+01  0.7957747E-01            NaN
         13   -1    0    0    0    0  0.00000000000E+00  0.00000000000E+00  0.74505805969E-08  0.10566000000E+00  0.10566000000E+00 0. -1.
     999900   -1    0    0    0    0 -0.00000000000E+00 -0.00000000000E+00 -0.74505805969E-08  0.93827000000E+00  0.93827000000E+00 0.  1.
     999902    2    1    2    0    0  0.19109586745E-01 -0.80190157250E-02 -0.90362554812E-02  0.10213217088E+01  0.10210714461E+01 0.  0.
     999903    2    3    3    0    0  0.10861950745E+00 -0.36227102846E-01 -0.67722534982E-01  0.13438777579E+00  0.19056026823E-01 0.  0.
         14    1    1    2    0    0 -0.19109586745E-01  0.80190157250E-02  0.90362554812E-02  0.22608291220E-01  0.00000000000E+00 0. -1.
     999901    1    3    3    0    0 -0.89509920707E-01  0.28208087121E-01  0.58686279501E-01  0.88693393299E+00  0.88000000000E+00 0. -1.
        -11    1    4    4    0    0  0.64497120861E-01 -0.27671955677E-01 -0.32812578916E-01  0.77476074929E-01  0.51100000000E-03 0.  1.
         11    1    4    4    0    0  0.44122386591E-01 -0.85551471689E-02 -0.34909956066E-01  0.56911700863E-01  0.51100000000E-03 0. -1.
</event>
<event>
 8    1  0.1117354E+005  0.1043930E+01  0.7957747E-01            NaN
         13   -1    0    0    0    0  0.00000000000E+00  0.00000000000E+00  0.74505805969E-08  0.10566000000E+00  0.10566000000E+00 0. -1.
     999900   -1    0    0    0    0 -0.00000000000E+00 -0.00000000000E+00 -0.74505805969E-08  0.93827000000E+00  0.93827000000E+00 0. -1.
     999902    2    1    2    0    0 -0.58813578203E-02  0.98574598267E-02 -0.20665332102E-01  0.10202907142E+01  0.10200168261E+01 0.  0.
     999903    2    3    3    0    0  0.27867574519E-01  0.11802163179E+00  0.44400905219E-01  0.13064354041E+00  0.19763273664E-01 0.  0.
         14    1    1    2    0    0  0.58813578203E-02 -0.98574598267E-02  0.20665332102E-01  0.23639285838E-01  0.00000000000E+00 0. -1.
     999901    1    3    3    0    0 -0.33748932339E-01 -0.10816417196E+00 -0.65066237321E-01  0.88964717375E+00  0.88000000000E+00 0. -1.
        -11    1    4    4    0    0  0.27200404557E-01  0.89801426402E-01  0.27673986248E-01  0.97827750806E-01  0.51100000000E-03 0.  1.
         11    1    4    4    0    0  0.66716996202E-03  0.28220205388E-01  0.16726918970E-01  0.32815789602E-01  0.51100000000E-03 0. -1.
</event>
<event>
 8    1  0.1117354E+005  0.1043930E+01  0.7957747E-01            NaN
         13   -1    0    0    0    0  0.00000000000E+00  0.00000000000E+00  0.74505805969E-08  0.10566000000E+00  0.10566000000E+00 0. -1.
     999900   -1    0    0    0    0 -0.00000000000E+00 -0.00000000000E+00 -0.74505805969E-08  0.93827000000E+00  0.93827000000E+00 0. -1.
     999902    2    1    2    0    0  0.14323981985E-01  0.37193017302E-02  0.18275914785E-01  0.10204136498E+01  0.10201426361E+01 0.  0.
     999903    2    3    3    0    0  0.74330812214E-01  0.14905544932E-01 -0.10362896440E+00  0.12991561428E+00  0.19795445317E-01 0.  0.
         14    1    1    2    0    0 -0.14323981985E-01 -0.37193017302E-02 -0.18275914785E-01  0.23516350195E-01  0.00000000000E+00 0.  1.
     999901    1    3    3    0    0 -0.60006830229E-01 -0.11186243202E-01  0.12190487919E+00  0.89049803553E+00  0.88000000000E+00 0.  1.
        -11    1    4    4    0    0  0.41950150757E-01  0.98610690919E-03 -0.45199687042E-01  0.61677065309E-01  0.51100000000E-03 0. -1.
         11    1    4    4    0    0  0.32380661458E-01  0.13919438023E-01 -0.58429277360E-01  0.68238548967E-01  0.51100000000E-03 0.  1.
</event>
<event>
 8    1  0.1117354E+005  0.1043930E+01  0.7957747E-01            NaN
         13   -1    0    0    0    0  0.00000000000E+00  0.00000000000E+00  0.74505805969E-08  0.10566000000E+00  0.10566000000E+00 0.  1.
     999900   -1    0    0    0    0 -0.00000000000E+00 -0.00000000000E+00 -0.74505805969E-08  0.93827000000E+00  0.93827000000E+00 0. -1.
     999902    2    1    2    0    0 -0.48189122368E-02 -0.13257073961E-01 -0.19288912220E-01  0.10200336810E+01  0.10197537332E+01 0.  0.
     999903    2    3    3    0    0 -0.27592110005E-02 -0.12933519262E+00  0.15100940060E-01  0.13174260603E+00  0.19820962620E-01 0.  0.
         14    1    1    2    0    0  0.48189122368E-02  0.13257073961E-01  0.19288912220E-01  0.23896318959E-01  0.00000000000E+00 0.  1.
     999901    1    3    3    0    0 -0.20597012363E-02  0.11607811866E+00 -0.34389852280E-01  0.88829107501E+00  0.88000000000E+00 0. -1.
        -11    1    4    4    0    0 -0.95094245072E-02 -0.10267555861E+00  0.15241416011E-01  0.10423656448E+00  0.51100000000E-03 0.  1.
         11    1    4    4    0    0  0.67502135067E-02 -0.26659634003E-01 -0.14047595170E-03  0.27506041556E-01  0.51100000000E-03 0. -1.
</event>
<event>
 8    1  0.1117354E+005  0.1043930E+01  0.7957747E-01            NaN
         13   -1    0    0    0    0  0.00000000000E+00  0.00000000000E+00  0.74505805969E-08  0.10566000000E+00  0.10566000000E+00 0. -1.
     999900   -1    0    0    0    0 -0.00000000000E+00 -0.00000000000E+00 -0.74505805969E-08  0.93827000000E+00  0.93827000000E+00 0. -1.
     999902    2    1    2    0    0  0.10099123070E-01 -0.16679420126E-01 -0.13347711823E-01  0.10203004263E+01  0.10200267659E+01 0.  0.
     999903    2    3    3    0    0  0.73030627241E-01 -0.10924231886E+00 -0.83561864401E-02  0.13319661063E+00  0.20103593877E-01 0.  0.
         14    1    1    2    0    0 -0.10099123070E-01  0.16679420126E-01  0.13347711823E-01  0.23629573704E-01  0.00000000000E+00 0.  1.
     999901    1    3    3    0    0 -0.62931504170E-01  0.92562898735E-01 -0.49915253831E-02  0.88710381566E+00  0.88000000000E+00 0.  1.
        -11    1    4    4    0    0  0.36455488568E-01 -0.38518809620E-01  0.84244942692E-03  0.53044058887E-01  0.51100000000E-03 0. -1.
         11    1    4    4    0    0  0.36575138673E-01 -0.70723509241E-01 -0.91986358670E-02  0.80152551745E-01  0.51100000000E-03 0.  1.
</event>
<event>
 8    1  0.1117354E+005  0.1043930E+01  0.7957747E-01            NaN
         13   -1    0    0    0    0  0.00000000000E+00  0.00000000000E+00  0.74505805969E-08  0.10566000000E+00  0.10566000000E+00 0. -1.
     999900   -1    0    0    0    0 -0.00000000000E+00 -0.00000000000E+00 -0.74505805969E-08  0.93827000000E+00  0.93827000000E+00 0.  1.
     999902    2    1    2    0    0 -0.12531806179E-01 -0.12117516872E-01 -0.16662244210E-01  0.10198154657E+01  0.10195303200E+01 0.  0.
     999903    2    3    3    0    0  0.91630322003E-01  0.77129940376E-03  0.86129216970E-01  0.12763725762E+00  0.21824681045E-01 0.  0.
         14    1    1    2    0    0  0.12531806179E-01  0.12117516872E-01  0.16662244210E-01  0.24114534276E-01  0.00000000000E+00 0. -1.
     999901    1    3    3    0    0 -0.10416212818E+00 -0.12888816276E-01 -0.10279146118E+00  0.89217820811E+00  0.88000000000E+00 0.  1.
        -11    1    4    4    0    0  0.63735558707E-01 -0.38050644787E-02  0.71302215045E-01  0.95712940352E-01  0.51100000000E-03 0.  1.
         11    1    4    4    0    0  0.27894763295E-01  0.45763638824E-02  0.14827001924E-01  0.31924317264E-01  0.51100000000E-03 0. -1.
</event>
<event>
 8    1  0.1117354E+005  0.1043930E+01  0.7957747E-01            NaN
         13   -1    0    0    0    0  0.00000000000E+00  0.00000000000E+00  0.74505805969E-08  0.10566000000E+00  0.10566000000E+00 0. -1.
     999900   -1    0    0    0    0 -0.00000000000E+00 -0.00000000000E+00 -0.74505805969E-08  0.93827000000E+00  0.93827000000E+00 0.  1.
     999902    2    1    2    0    0 -0.87095203528E-02  0.14668078757E-01 -0.17021280340E-01  0.10198316128E+01  0.10195468534E+01 0.  0.
     999903    2    3    3    0    0  0.36987847027E-01  0.11764323765E+00  0.38696729488E-01  0.13090156534E+00  0.20730430374E-01 0.  0.
         14    1    1    2    0    0  0.87095203528E-02 -0.14668078757E-01  0.17021280340E-01  0.24098387158E-01  0.00000000000E+00 0. -1.
     999901    1    3    3    0    0 -0.45697367380E-01 -0.10297515889E+00 -0.55718009828E-01  0.88893004750E+00  0.88000000000E+00 0. -1.
        -11    1    4    4    0    0  0.24904864178E-01  0.45275793006E-01  0.16512627639E-01  0.54250139950E-01  0.51100000000E-03 0. -1.
         11    1    4    4    0    0  0.12082982849E-01  0.72367444641E-01  0.22184101849E-01  0.76651425389E-01  0.51100000000E-03 0.  1.
</event>
<event>
 8    1  0.1117354E+005  0.1043930E+01  0.7957747E-01            NaN
         13   -1    0    0    0    0  0.00000000000E+00  0.00000000000E+00  0.74505805969E-08  0.10566000000E+00  0.10566000000E+00 0. -1.
     999900   -1    0    0    0    0 -0.00000000000E+00 -0.00000000000E+00 -0.74505805969E-08  0.93827000000E+00  0.93827000000E+00 0. -1.
     999902    2    1    2    0    0  0.27732864685E-03  0.23449462581E-01  0.78263092517E-03  0.10204658419E+01  0.10201960437E+01 0.  0.
     999903    2    3    3    0    0  0.11185995671E-01  0.53846545196E-01 -0.11814850060E+00  0.13187842595E+00  0.20205793970E-01 0.  0.
         14    1    1    2    0    0 -0.27732864685E-03 -0.23449462581E-01 -0.78263092517E-03  0.23464158150E-01  0.00000000000E+00 0.  1.
     999901    1    3    3    0    0 -0.10908667024E-01 -0.30397082615E-01  0.11893113152E+00  0.88858741590E+00  0.88000000000E+00 0.  1.
        -11    1    4    4    0    0  0.69009367637E-02  0.36093558151E-01 -0.55065254737E-01  0.66202804083E-01  0.51100000000E-03 0. -1.
         11    1    4    4    0    0  0.42850589075E-02  0.17752987045E-01 -0.63083245858E-01  0.65675621869E-01  0.51100000000E-03 0.  1.
</event>
<event>
 8    1  0.1117354E+005  0.1043930E+01  0.7957747E-01            NaN
         13   -1    0    0    0    0  0.00000000000E+00  0.00000000000E+00  0.74505805969E-08  0.10566000000E+00  0.10566000000E+00 0. -1.
     999900   -1    0    0    0    0 -0.00000000000E+00 -0.00000000000E+00 -0.74505805969E-08  0.93827000000E+00  0.93827000000E+00 0.  1.
     999902    2    1    2    0    0  0.78254146492E-02  0.17648839427E-01 -0.15100874501E-01  0.10194196949E+01  0.10191249968E+01 0.  0.
     999903    2    3    3    0    0  0.68540734990E-01  0.89626079051E-01 -0.67507231858E-01  0.13284567119E+00  0.18975763542E-01 0.  0.
         14    1    1    2    0    0 -0.78254146492E-02 -0.17648839427E-01  0.15100874501E-01  0.24510305144E-01  0.00000000000E+00 0. -1.
     999901    1    3    3    0    0 -0.60715320341E-01 -0.71977239624E-01  0.52406357357E-01  0.88657402367E+00  0.88000000000E+00 0. -1.
        -11    1    4    4    0    0  0.39760290963E-01  0.48235041692E-01 -0.47888221224E-01  0.78746700486E-01  0.51100000000E-03 0. -1.
         11    1    4    4    0    0  0.28780444027E-01  0.41391037358E-01 -0.19619010634E-01  0.54098970704E-01  0.51100000000E-03 0.  1.
</event>
<event>
 8    1  0.1117354E+005  0.1043930E+01  0.7957747E-01            NaN
         13   -1    0    0    0    0  0.00000000000E+00  0.00000000000E+00  0.74505805969E-08  0.10566000000E+00  0.10566000000E+00 0.  1.
     999900   -1    0    0    0    0 -0.00000000000E+00 -0.00000000000E+00 -0.74505805969E-08  0.93827000000E+00  0.93827000000E+00 0. -1.
     999902    2    1    2    0    0  0.15163339088E-01  0.19382296357E-01 -0.13677498466E-01  0.10157755292E+01  0.10153852724E+01 0.  0.
     999903    2    3    3    0    0 -0.17963882320E-01  0.12553754372E+00 -0.13230364221E-01  0.12877691063E+00  0.18057525375E-01 0.  0.
         14    1    1    2    0    0 -0.15163339088E-01 -0.19382296357E-01  0.13677498466E-01  0.28154470846E-01  0.00000000000E+00 0.  1.
     999901    1    3    3    0    0  0.33127221407E-01 -0.10615524736E+00 -0.44713424510E-03  0.88699861853E+00  0.88000000000E+00 0.  1.
        -11    1    4    4    0    0 -0.78062084225E-02  0.20694438398E-01  0.25347949094E-02  0.22268430047E-01  0.51100000000E-03 0. -1.
         11    1    4    4    0    0 -0.10157673897E-01  0.10484310532E+00 -0.15765159130E-01  0.10650848058E+00  0.51100000000E-03 0.  1.
</event>
<event>
 8    1  0.1117354E+005  0.1043930E+01  0.7957747E-01            NaN
         13   -1    0    0    0    0  0.00000000000E+00  0.00000000000E+00  0.74505805969E-08  0.10566000000E+00  0.10566000000E+00 0.  1.
     999900   -1    0    0    0    0 -0.00000000000E+00 -0.00000000000E+00 -0.74505805969E-08  0.93827000000E+00  0.93827000000E+00 0. -1.
     999902    2    1    2    0    0  0.15992052138E-01  0.14527051642E-02  0.18263221356E-01  0.10196112554E+01  0.10193212010E+01 0.  0.
     999903    2    3    3    0    0  0.87937723517E-01  0.86640793127E-01  0.42032278404E-01  0.13225667125E+00  0.22032803092E-01 0.  0.
         14    1    1    2    0    0 -0.15992052138E-01 -0.14527051642E-02 -0.18263221356E-01  0.24318744585E-01  0.00000000000E+00 0. -1.
     999901    1    3    3    0    0 -0.71945671379E-01 -0.85188087962E-01 -0.23769057048E-01  0.88735458416E+00  0.88000000000E+00 0.  1.
        -11    1    4    4    0    0  0.25542619328E-01  0.13541001193E-01  0.14109616378E-01  0.32173382023E-01  0.51100000000E-03 0.  1.
         11    1    4    4    0    0  0.62395104189E-01  0.73099791934E-01  0.27922662026E-01  0.10008328923E+00  0.51100000000E-03 0. -1.
</event>
<event>
 8    1  0.1117354E+005  0.1043930E+01  0.7957747E-01            NaN
         13   -1    0    0    0    0  0.00000000000E+00  0.00000000000E+00  0.74505805969E-08  0.10566000000E+00  0.10566000000E+00 0.  1.
     999900   -1    0    0    0    0 -0.00000000000E+00 -0.00000000000E+00 -0.74505805969E-08  0.93827000000E+00  0.93827000000E+00 0. -1.
     999902    2    1    2    0    0 -0.12305227049E-01 -0.49076771709E-02 -0.16498729678E-01  0.10227707942E+01  0.10225518987E+01 0.  0.
     999903    2    3    3    0    0 -0.11229963341E+00 -0.31350346373E-01  0.62253166712E-01  0.13322037000E+00  0.16678079465E-01 0.  0.
         14    1    1    2    0    0  0.12305227049E-01  0.49076771709E-02  0.16498729678E-01  0.21159205772E-01  0.00000000000E+00 0.  1.
     999901    1    3    3    0    0  0.99994406366E-01  0.26442669202E-01 -0.78751896389E-01  0.88955042423E+00  0.88000000000E+00 0. -1.
        -11    1    4    4    0    0 -0.31789124416E-01 -0.13519358051E-01  0.25488894313E-01  0.42933277625E-01  0.51100000000E-03 0.  1.
         11    1    4    4    0    0 -0.80510508998E-01 -0.17830988322E-01  0.36764272398E-01  0.90287092376E-01  0.51100000000E-03 0. -1.
</event>
<event>
 8    1  0.1117354E+005  0.1043930E+01  0.7957747E-01            NaN
         13   -1    0    0    0    0  0.00000000000E+00  0.00000000000E+00  0.74505805969E-08  0.10566000000E+00  0.10566000000E+00 0.  1.
     999900   -1    0    0    0    0 -0.00000000000E+00 -0.00000000000E+00 -0.74505805969E-08  0.93827000000E+00  0.93827000000E+00 0. -1.
     999902    2    1    2    0    0  0.82578871032E-02 -0.18673455034E-01  0.11632956434E-02  0.10234789883E+01  0.10232746433E+01 0.  0.
     999903    2    3    3    0    0  0.23304298729E-01  0.11831987122E+00 -0.48142316086E-01  0.13138896523E+00  0.20067269906E-01 0.  0.
         14    1    1    2    0    0 -0.82578871032E-02  0.18673455034E-01 -0.11632956434E-02  0.20451011688E-01  0.00000000000E+00 0.  1.
     999901    1    3    3    0    0 -0.15046411626E-01 -0.13699332625E+00  0.49305611730E-01  0.89209002309E+00  0.88000000000E+00 0. -1.
        -11    1    4    4    0    0  0.86876051693E-02  0.51314338346E-01 -0.31423222612E-01  0.60797334184E-01  0.51100000000E-03 0. -1.
         11    1    4    4    0    0  0.14616693560E-01  0.67005532870E-01 -0.16719093474E-01  0.70591631043E-01  0.51100000000E-03 0.  1.
</event>
<event>
 8    1  0.1117354E+005  0.1043930E+01  0.7957747E-01            NaN
         13   -1    0    0    0    0  0.00000000000E+00  0.00000000000E+00  0.74505805969E-08  0.10566000000E+00  0.10566000000E+00 0.  1.
     999900   -1    0    0    0    0 -0.00000000000E+00 -0.00000000000E+00 -0.74505805969E-08  0.93827000000E+00  0.93827000000E+00 0.  1.
     999902    2    1    2    0    0  0.13447679282E-01 -0.18822585116E-01  0.22377669470E-02  0.10206891440E+01  0.10204245152E+01 0.  0.
     999903    2    3    3    0    0 -0.10849827192E+00 -0.67010833918E-01  0.20978847770E-01  0.13077670420E+00  0.20002685684E-01 0.  0.
         14    1    1    2    0    0 -0.13447679282E-01  0.18822585116E-01 -0.22377669470E-02  0.23240856039E-01  0.00000000000E+00 0.  1.
     999901    1    3    3    0    0  0.12194595120E+00  0.48188248802E-01 -0.18741080823E-01  0.88991243976E+00  0.88000000000E+00 0.  1.
        -11    1    4    4    0    0 -0.84865526163E-01 -0.46946782703E-01  0.23097173150E-01  0.99699039442E-01  0.51100000000E-03 0.  1.
         11    1    4    4    0    0 -0.23632745758E-01 -0.20064051214E-01 -0.21183253800E-02  0.31077664755E-01  0.51100000000E-03 0. -1.
</event>
<event>
 8    1  0.1117354E+005  0.1043930E+01  0.7957747E-01            NaN
         13   -1    0    0    0    0  0.00000000000E+00  0.00000000000E+00  0.74505805969E-08  0.10566000000E+00  0.10566000000E+00 0. -1.
     999900   -1    0    0    0    0 -0.00000000000E+00 -0.00000000000E+00 -0.74505805969E-08  0.93827000000E+00  0.93827000000E+00 0. -1.
     999902    2    1    2    0    0  0.23422085042E-02  0.15189603904E-01 -0.21229831924E-01  0.10177209220E+01  0.10173833885E+01 0.  0.
     999903    2    3    3    0    0 -0.97395191017E-01  0.51123332741E-01 -0.66836958393E-01  0.13018568790E+00  0.19537552144E-01 0.  0.
         14    1    1    2    0    0 -0.23422085042E-02 -0.15189603904E-01  0.21229831924E-01  0.26209078026E-01  0.00000000000E+00 0.  1.
     999901    1    3    3    0    0  0.99737399522E-01 -0.35933728837E-01  0.45607126469E-01  0.88753523407E+00  0.88000000000E+00 0.  1.
        -11    1    4    4    0    0 -0.78711150578E-01  0.37691188653E-01 -0.43898789266E-01  0.97690510018E-01  0.51100000000E-03 0.  1.
         11    1    4    4    0    0 -0.18684040439E-01  0.13432144088E-01 -0.22938169128E-01  0.32495177886E-01  0.51100000000E-03 0. -1.
</event>
<event>
 8    1  0.1117354E+005  0.1043930E+01  0.7957747E-01            NaN
         13   -1    0    0    0    0  0.00000000000E+00  0.00000000000E+00  0.74505805969E-08  0.10566000000E+00  0.10566000000E+00 0.  1.
     999900   -1    0    0    0    0 -0.00000000000E+00 -0.00000000000E+00 -0.74505805969E-08  0.93827000000E+00  0.93827000000E+00 0. -1.
     999902    2    1    2    0    0  0.16985754753E-01  0.55282318095E-02  0.16226744942E-01  0.10197973569E+01  0.10195117776E+01 0.  0.
     999903    2    3    3    0    0 -0.81161845477E-01  0.68896555110E-01 -0.68189704804E-01  0.12807170805E+00  0.20458399128E-01 0.  0.
         14    1    1    2    0    0 -0.16985754753E-01 -0.55282318095E-02 -0.16226744942E-01  0.24132643098E-01  0.00000000000E+00 0.  1.
     999901    1    3    3    0    0  0.98147600230E-01 -0.63368323300E-01  0.84416449747E-01  0.89172564885E+00  0.88000000000E+00 0.  1.
        -11    1    4    4    0    0 -0.22054442014E-01  0.12097788562E-01 -0.24770332832E-01  0.35307016446E-01  0.51100000000E-03 0. -1.
         11    1    4    4    0    0 -0.59107403462E-01  0.56798766548E-01 -0.43419371972E-01  0.92764691606E-01  0.51100000000E-03 0.  1.
</event>
<event>
 8    1  0.1117354E+005  0.1043930E+01  0.7957747E-01            NaN
         13   -1    0    0    0    0  0.00000000000E+00  0.00000000000E+00  0.74505805969E-08  0.10566000000E+00  0.10566000000E+00 0. -1.
     999900   -1    0    0    0    0 -0.00000000000E+00 -0.00000000000E+00 -0.74505805969E-08  0.93827000000E+00  0.93827000000E+00 0.  1.
     999902    2    1    2    0    0  0.92154347410E-02  0.14472631237E-01  0.15247571462E-01  0.10209763570E+01  0.10207183019E+01 0.  0.
     999903    2    3    3    0    0 -0.50578072705E-01 -0.80138807393E-01  0.88101389987E-01  0.13090092943E+00  0.19819902108E-01 0.  0.
         14    1    1    2    0    0 -0.92154347410E-02 -0.14472631237E-01 -0.15247571462E-01  0.22953643019E-01  0.00000000000E+00 0.  1.
     999901    1    3    3    0    0  0.59793507446E-01  0.94611438630E-01 -0.72853818525E-01  0.89007542755E+00  0.88000000000E+00 0.  1.
        -11    1    4    4    0    0 -0.67851810298E-02 -0.53141703068E-02  0.23271171777E-02  0.89417941721E-02  0.51100000000E-03 0.  1.
         11    1    4    4    0    0 -0.43792891675E-01 -0.74824637087E-01  0.85774272809E-01  0.12195913526E+00  0.51100000000E-03 0. -1.
</event>
<event>
 7    1  0.1117354E+005  0.1043930E+01  0.7957747E-01            NaN
         13   -1    0    0    0    0  0.00000000000E+00  0.00000000000E+00  0.74505805969E-08  0.10566000000E+00  0.10566000000E+00 0. -1.
     999900   -1    0    0    0    0 -0.00000000000E+00 -0.00000000000E+00 -0.74505805969E-08  0.93827000000E+00  0.93827000000E+00 0. -1.
     999902    2    1    2    0    0  0.20971543289E-01 -0.54661212076E-02 -0.10374995398E-01  0.10199024192E+01  0.10196193506E+01 0.  0.
         14    1    1    2    0    0 -0.20971543289E-01  0.54661212076E-02  0.10374995398E-01  0.24027580788E-01  0.00000000000E+00 0. -1.
     999901    1    3    3    0    0 -0.20224888464E-01  0.94569463872E-01  0.55154833990E-01  0.88701436591E+00  0.88000000000E+00 0.  1.
        -11    1    3    3    0    0 -0.46640085834E-02 -0.30728084419E-01 -0.27456251012E-01  0.41473786767E-01  0.51100000000E-03 0. -1.
         11    1    3    3    0    0  0.45860440337E-01 -0.69307500660E-01 -0.38073578376E-01  0.91414266540E-01  0.51100000000E-03 0.  1.
</event>
<event>
 8    1  0.1117354E+005  0.1043930E+01  0.7957747E-01            NaN
         13   -1    0    0    0    0  0.00000000000E+00  0.00000000000E+00  0.74505805969E-08  0.10566000000E+00  0.10566000000E+00 0. -1.
     999900   -1    0    0    0    0 -0.00000000000E+00 -0.00000000000E+00 -0.74505805969E-08  0.93827000000E+00  0.93827000000E+00 0.  1.
     999902    2    1    2    0    0 -0.16654093002E-01 -0.11397678146E-01 -0.10248462923E-01  0.10212960239E+01  0.10210451859E+01 0.  0.
     999903    2    3    3    0    0 -0.11991498138E+00 -0.56661169632E-01 -0.89775072265E-02  0.13410201467E+00  0.17682301811E-01 0.  0.
         14    1    1    2    0    0  0.16654093002E-01  0.11397678146E-01  0.10248462923E-01  0.22633976079E-01  0.00000000000E+00 0. -1.
     999901    1    3    3    0    0  0.10326088838E+00  0.45263491486E-01 -0.12709556967E-02  0.88719400926E+00  0.88000000000E+00 0. -1.
        -11    1    4    4    0    0 -0.73172192779E-01 -0.42994561556E-01 -0.19290338968E-02  0.84892192881E-01  0.51100000000E-03 0.  1.
         11    1    4    4    0    0 -0.46742788603E-01 -0.13666608077E-01 -0.70484733297E-02  0.49209821784E-01  0.51100000000E-03 0. -1.
</event>
<event>
 8    1  0.1117354E+005  0.1043930E+01  0.7957747E-01            NaN
         13   -1    0    0    0    0  0.00000000000E+00  0.00000000000E+00  0.74505805969E-08  0.10566000000E+00  0.10566000000E+00 0.  1.
     999900   -1    0    0    0    0 -0.00000000000E+00 -0.00000000000E+00 -0.74505805969E-08  0.93827000000E+00  0.93827000000E+00 0.  1.
     999902    2    1    2    0    0  0.14383025848E-01  0.13976433624E-01 -0.12061605489E-01  0.10205271272E+01  0.10202587529E+01 0.  0.
     999903    2    3    3    0    0 -0.12237044008E+00 -0.83234597730E-02  0.33324016556E-01  0.12853012585E+00  0.19123247192E-01 0.  0.
         14    1    1    2    0    0 -0.14383025848E-01 -0.13976433624E-01  0.12061605489E-01  0.23402872822E-01  0.00000000000E+00 0.  1.
     999901    1    3    3    0    0  0.13675346593E+00  0.22299893397E-01 -0.45385622044E-01  0.89199700133E+00  0.88000000000E+00 0. -1.
        -11    1    4    4    0    0 -0.36950213008E-01 -0.59313465224E-02  0.18817110343E-02  0.37474005262E-01  0.51100000000E-03 0.  1.
         11    1    4    4    0    0 -0.85420227074E-01 -0.23921132506E-02  0.31442305521E-01  0.91056120588E-01  0.51100000000E-03 0. -1.
</event>
<event>
 8    1  0.1117354E+005  0.1043930E+01  0.7957747E-01            NaN
         13   -1    0    0    0    0  0.00000000000E+00  0.00000000000E+00  0.74505805969E-08  0.10566000000E+00  0.10566000000E+00 0. -1.
     999900   -1    0    0    0    0 -0.00000000000E+00 -0.00000000000E+00 -0.74505805969E-08  0.93827000000E+00  0.93827000000E+00 0. -1.
     999902    2    1    2    0    0 -0.18790223095E-01 -0.75735328069E-02 -0.12722346826E-01  0.10200074376E+01  0.10197268672E+01 0.  0.
     999903    2    3    3    0    0  0.43421894757E-01  0.44590013941E-01 -0.11300302988E+00  0.13059887085E+00  0.20313788848E-01 0.  0.
         14    1    1    2    0    0  0.18790223095E-01  0.75735328069E-02  0.12722346826E-01  0.23922562402E-01  0.00000000000E+00 0. -1.
     999901    1    3    3    0    0 -0.62212117852E-01 -0.52163546748E-01  0.10028068305E+00  0.88940856675E+00  0.88000000000E+00 0.  1.
        -11    1    4    4    0    0  0.31259970795E-01  0.18312578779E-01 -0.56777346164E-01  0.67353281094E-01  0.51100000000E-03 0.  1.
         11    1    4    4    0    0  0.12161923962E-01  0.26277435163E-01 -0.56225683713E-01  0.63245589753E-01  0.51100000000E-03 0. -1.
</event>
<event>
 8    1  0.1117354E+005  0.1043930E+01  0.7957747E-01            NaN
         13   -1    0    0    0    0  0.00000000000E+00  0.00000000000E+00  0.74505805969E-08  0.10566000000E+00  0.10566000000E+00 0. -1.
     999900   -1    0    0    0    0 -0.00000000000E+00 -0.00000000000E+00 -0.74505805969E-08  0.93827000000E+00  0.93827000000E+00 0.  1.
     999902    2    1    2    0    0 -0.20709154550E-01 -0.99172152477E-02  0.36394789751E-02  0.10206820743E+01  0.10204172827E+01 0.  0.
     999903    2    3    3    0    0  0.11047490157E-01  0.11096049858E+00  0.63442506419E-01  0.12984184833E+00  0.19991865145E-01 0.  0.
         14    1    1    2    0    0  0.20709154550E-01  0.99172152477E-02 -0.36394789751E-02  0.23247925663E-01  0.00000000000E+00 0. -1.
     999901    1    3    3    0    0 -0.31756644707E-01 -0.12087771383E+00 -0.59803027444E-01  0.89084022601E+00  0.88000000000E+00 0. -1.
        -11    1    4    4    0    0 -0.13181256356E-02  0.26132114674E-01  0.23875139256E-01  0.35424684445E-01  0.51100000000E-03 0.  1.
         11    1    4    4    0    0  0.12365615793E-01  0.84828383909E-01  0.39567367163E-01  0.94417163883E-01  0.51100000000E-03 0. -1.
</event>
<event>
 8    1  0.1117354E+005  0.1043930E+01  0.7957747E-01            NaN
         13   -1    0    0    0    0  0.00000000000E+00  0.00000000000E+00  0.74505805969E-08  0.10566000000E+00  0.10566000000E+00 0.  1.
     999900   -1    0    0    0    0 -0.00000000000E+00 -0.00000000000E+00 -0.74505805969E-08  0.93827000000E+00  0.93827000000E+00 0. -1.
     999902    2    1    2    0    0 -0.63682555626E-02 -0.57191709735E-02  0.21937488324E-01  0.10203818156E+01  0.10201100591E+01 0.  0.
     999903    2    3    3    0    0 -0.86415400863E-01  0.75801579616E-01 -0.56330959110E-01  0.12955123230E+00  0.19920940161E-01 0.  0.
         14    1    1    2    0    0  0.63682555626E-02  0.57191709735E-02 -0.21937488324E-01  0.23548184421E-01  0.00000000000E+00 0. -1.
     999901    1    3    3    0    0  0.80047145300E-01 -0.81520750589E-01  0.78268447434E-01  0.89083058328E+00  0.88000000000E+00 0. -1.
        -11    1    4    4    0    0 -0.43126382426E-01  0.43152384127E-01 -0.39876418894E-01  0.72886233418E-01  0.51100000000E-03 0.  1.
         11    1    4    4    0    0 -0.43289018436E-01  0.32649195488E-01 -0.16454540216E-01  0.56664998879E-01  0.51100000000E-03 0. -1.
</event>
<event>
 8    1  0.1117354E+005  0.1043930E+01  0.7957747E-01            NaN
         13   -1    0    0    0    0  0.00000000000E+00  0.00000000000E+00  0.74505805969E-08  0.10566000000E+00  0.10566000000E+00 0.  1.
     999900   -1    0    0    0    0 -0.00000000000E+00 -0.00000000000E+00 -0.74505805969E-08  0.93827000000E+00  0.93827000000E+00 0.  1.
     999902    2    1    2    0    0  0.97475844813E-02 -0.21725526748E-01  0.38732589217E-02  0.10198049912E+01  0.10195195947E+01 0.  0.
     999903    2    3    3    0    0  0.20357705366E-01 -0.72649484596E-01 -0.10623205276E+00  0.13141937457E+00  0.17129483335E-01 0.  0.
         14    1    1    2    0    0 -0.97475844813E-02  0.21725526748E-01 -0.38732589217E-02  0.24125008816E-01  0.00000000000E+00 0. -1.
     999901    1    3    3    0    0 -0.10610120884E-01  0.50923957848E-01  0.11010531168E+00  0.88838561661E+00  0.88000000000E+00 0.  1.
        -11    1    4    4    0    0  0.56442691067E-03 -0.26488905092E-01 -0.44990529623E-01  0.52214840299E-01  0.51100000000E-03 0.  1.
         11    1    4    4    0    0  0.19793278455E-01 -0.46160579504E-01 -0.61241523135E-01  0.79204534270E-01  0.51100000000E-03 0. -1.
</event>
<event>
 8    1  0.1117354E+005  0.1043930E+01  0.7957747E-01            NaN
         13   -1    0    0    0    0  0.00000000000E+00  0.00000000000E+00  0.74505805969E-08  0.10566000000E+00  0.10566000000E+00 0.  1.
     999900   -1    0    0    0    0 -0.00000000000E+00 -0.00000000000E+00 -0.74505805969E-08  0.93827000000E+00  0.93827000000E+00 0. -1.
     999902    2    1    2    0    0  0.26185649474E-01  0.21593770022E-02 -0.20075183666E-01  0.10108639427E+01  0.10103229912E+01 0.  0.
     999903    2    3    3    0    0 -0.62916153820E-01  0.84209303523E-01 -0.58151132539E-01  0.12175140780E+00  0.19804087342E-01 0.  0.
         14    1    1    2    0    0 -0.26185649474E-01 -0.21593770022E-02  0.20075183666E-01  0.33066057319E-01  0.00000000000E+00 0. -1.
     999901    1    3    3    0    0  0.89101803294E-01 -0.82049926520E-01  0.38075948872E-01  0.88911253488E+00  0.88000000000E+00 0.  1.
        -11    1    4    4    0    0 -0.26181687212E-01  0.42349845560E-01 -0.37568959393E-01  0.62375299559E-01  0.51100000000E-03 0. -1.
         11    1    4    4    0    0 -0.36734466608E-01  0.41859457962E-01 -0.20582173146E-01  0.59376108245E-01  0.51100000000E-03 0.  1.
</event>
<event>
 8    1  0.1117354E+005  0.1043930E+01  0.7957747E-01            NaN
         13   -1    0    0    0    0  0.00000000000E+00  0.00000000000E+00  0.74505805969E-08  0.10566000000E+00  0.10566000000E+00 0. -1.
     999900   -1    0    0    0    0 -0.00000000000E+00 -0.00000000000E+00 -0.74505805969E-08  0.93827000000E+00  0.93827000000E+00 0.  1.
     999902    2    1    2    0    0  0.20484823587E-01 -0.15713741824E-03  0.11594348876E-01  0.10203910617E+01  0.10201195210E+01 0.  0.
     999903    2    3    3    0    0 -0.10617106763E+00 -0.21033412812E-01  0.67932243686E-01  0.12929539231E+00  0.19692858701E-01 0.  0.
         14    1    1    2    0    0 -0.20484823587E-01  0.15713741824E-03 -0.11594348876E-01  0.23538938282E-01  0.00000000000E+00 0.  1.
     999901    1    3    3    0    0  0.12665589121E+00  0.20876275394E-01 -0.56337894810E-01  0.89109566941E+00  0.88000000000E+00 0.  1.
        -11    1    4    4    0    0 -0.40452881268E-01 -0.17825853003E-01  0.27824219696E-01  0.52236433271E-01  0.51100000000E-03 0.  1.
         11    1    4    4    0    0 -0.65718186359E-01 -0.32075598097E-02  0.40108023990E-01  0.77058959035E-01  0.51100000000E-03 0. -1.
</event>
<event>
 8    1  0.1117354E+005  0.1043930E+01  0.7957747E-01            NaN
         13   -1    0    0    0    0  0.00000000000E+00  0.00000000000E+00  0.74505805969E-08  0.10566000000E+00  0.10566000000E+00 0. -1.
     999900   -1    0    0    0    0 -0.00000000000E+00 -0.00000000000E+00 -0.74505805969E-08  0.93827000000E+00  0.93827000000E+00 0.  1.
     999902    2    1    2    0    0  0.20107769367E-01  0.11479312865E-01 -0.19272516043E-02  0.10206961602E+01  0.10204316930E+01 0.  0.
     999903    2    3    3    0    0 -0.34563945387E-02  0.99116304444E-01  0.84693117765E-01  0.13179875302E+00  0.19026261621E-01 0.  0.
         14    1    1    2    0    0 -0.20107769367E-01 -0.11479312865E-01  0.19272516043E-02  0.23233839793E-01  0.00000000000E+00 0. -1.
     999901    1    3    3    0    0  0.23564163906E-01 -0.87636991579E-01 -0.86620369369E-01  0.88889740719E+00  0.88000000000E+00 0.  1.
        -11    1    4    4    0    0  0.54082729894E-03  0.34597590713E-01  0.18353935633E-01  0.39171594958E-01  0.51100000000E-03 0. -1.
         11    1    4    4    0    0 -0.39972218376E-02  0.64518713731E-01  0.66339182132E-01  0.92627158063E-01  0.51100000000E-03 0.  1.
</event>
<event>
 8    1  0.1117354E+005  0.1043930E+01  0.7957747E-01            NaN
         13   -1    0    0    0    0  0.00000000000E+00  0.00000000000E+00  0.74505805969E-08  0.10566000000E+00  0.10566000000E+00 0.  1.
     999900   -1    0    0    0    0 -0.00000000000E+00 -0.00000000000E+00 -0.74505805969E-08  0.93827000000E+00  0.93827000000E+00 0. -1.
     999902    2    1    2    0    0 -0.11501488845E-01  0.14142676214E-01 -0.13927487051E-01  0.10209893280E+01  0.10207315678E+01 0.  0.
     999903    2    3    3    0    0  0.10314558809E+00 -0.51514281008E-01 -0.56568247109E-01  0.13010604569E+00  0.20853849871E-01 0.  0.
         14    1    1    2    0    0  0.11501488845E-01 -0.14142676214E-01  0.13927487051E-01  0.22940671997E-01  0.00000000000E+00 0.  1.
     999901    1    3    3    0    0 -0.11464707694E+00  0.65656957222E-01  0.42640760059E-01  0.89088328231E+00  0.88000000000E+00 0.  1.
        -11    1    4    4    0    0  0.78126779442E-02 -0.74299674051E-02  0.30158991400E-04  0.10793719603E-01  0.51100000000E-03 0.  1.
         11    1    4    4    0    0  0.95332910146E-01 -0.44084313603E-01 -0.56598406101E-01  0.11931232609E+00  0.51100000000E-03 0. -1.
</event>
<event>
 8    1  0.1117354E+005  0.1043930E+01  0.7957747E-01            NaN
         13   -1    0    0    0    0  0.00000000000E+00  0.00000000000E+00  0.74505805969E-08  0.10566000000E+00  0.10566000000E+00 0. -1.
     999900   -1    0    0    0    0 -0.00000000000E+00 -0.00000000000E+00 -0.74505805969E-08  0.93827000000E+00  0.93827000000E+00 0. -1.
     999902    2    1    2    0    0  0.13445919523E-01 -0.19646626201E-01 -0.41861566245E-02  0.10197575657E+01  0.10194710326E+01 0.  0.
     999903    2    3    3    0    0 -0.10467190713E+00 -0.70458836197E-01  0.22733358552E-01  0.13000571155E+00  0.21541209434E-01 0.  0.
         14    1    1    2    0    0 -0.13445919523E-01  0.19646626201E-01  0.41861566245E-02  0.24172434304E-01  0.00000000000E+00 0. -1.
     999901    1    3    3    0    0  0.11811782665E+00  0.50812209996E-01 -0.26919515177E-01  0.88975185415E+00  0.88000000000E+00 0. -1.
        -11    1    4    4    0    0 -0.96019825399E-01 -0.66322222594E-01  0.14967748455E-01  0.11765516858E+00  0.51100000000E-03 0. -1.
         11    1    4    4    0    0 -0.86520817325E-02 -0.41366136025E-02  0.77656100972E-02  0.12350542967E-01  0.51100000000E-03 0.  1.
</event>
<event>
 8    1  0.1117354E+005  0.1043930E+01  0.7957747E-01            NaN
         13   -1    0    0    0    0  0.00000000000E+00  0.00000000000E+00  0.74505805969E-08  0.10566000000E+00  0.10566000000E+00 0.  1.
     999900   -1    0    0    0    0 -0.00000000000E+00 -0.00000000000E+00 -0.74505805969E-08  0.93827000000E+00  0.93827000000E+00 0. -1.
     999902    2    1    2    0    0 -0.20751109602E-01 -0.13810151972E-01 -0.29037816607E-02  0.10188349647E+01  0.10185258586E+01 0.  0.
     999903    2    3    3    0    0 -0.10584358048E+00 -0.74465740626E-01  0.19323756111E-01  0.13237352030E+00  0.20033254089E-01 0.  0.
         14    1    1    2    0    0  0.20751109602E-01  0.13810151972E-01  0.29037816607E-02  0.25095035269E-01  0.00000000000E+00 0.  1.
     999901    1    3    3    0    0  0.85092470878E-01  0.60655588653E-01 -0.22227537772E-01  0.88646144444E+00  0.88000000000E+00 0. -1.
        -11    1    4    4    0    0 -0.86550856017E-01 -0.67398968244E-01  0.21222880523E-01  0.11173335839E+00  0.51100000000E-03 0. -1.
         11    1    4    4    0    0 -0.19292724463E-01 -0.70667723815E-02 -0.18991244116E-02  0.20640161909E-01  0.51100000000E-03 0.  1.
</event>
<event>
 8    1  0.1117354E+005  0.1043930E+01  0.7957747E-01            NaN
         13   -1    0    0    0    0  0.00000000000E+00  0.00000000000E+00  0.74505805969E-08  0.10566000000E+00  0.10566000000E+00 0.  1.
     999900   -1    0    0    0    0 -0.00000000000E+00 -0.00000000000E+00 -0.74505805969E-08  0.93827000000E+00  0.93827000000E+00 0. -1.
     999902    2    1    2    0    0  0.59933613945E-02  0.16156424577E-01  0.18132013502E-01  0.10189155972E+01  0.10186084988E+01 0.  0.
     999903    2    3    3    0    0 -0.11465181617E+00  0.42112964933E-01  0.39075488238E-01  0.13005811140E+00  0.21672050933E-01 0.  0.
         14    1    1    2    0    0 -0.59933613945E-02 -0.16156424577E-01 -0.18132013502E-01  0.25014402843E-01  0.00000000000E+00 0. -1.
     999901    1    3    3    0    0  0.12064517757E+00 -0.25956540356E-01 -0.20943474736E-01  0.88885748576E+00  0.88000000000E+00 0. -1.
        -11    1    4    4    0    0 -0.19257060506E-01 -0.11331791653E-02  0.54466660204E-02  0.20051078926E-01  0.51100000000E-03 0. -1.
         11    1    4    4    0    0 -0.95394755668E-01  0.43246144099E-01  0.33628822218E-01  0.11000703247E+00  0.51100000000E-03 0.  1.
</event>
<event>
 8    1  0.1117354E+005  0.1043930E+01  0.7957747E-01            NaN
         13   -1    0    0    0    0  0.00000000000E+00  0.00000000000E+00  0.74505805969E-08  0.10566000000E+00  0.10566000000E+00 0.  1.
     999900   -1    0    0    0    0 -0.00000000000E+00 -0.00000000000E+00 -0.74505805969E-08  0.93827000000E+00  0.93827000000E+00 0.  1.
     999902    2    1    2    0    0  0.99898623456E-02 -0.14491487161E-01  0.15937397887E-01  0.10201855017E+01  0.10199091413E+01 0.  0.
     999903    2    3    3    0    0 -0.12711216030E+00 -0.89734408426E-02 -0.68049382303E-02  0.12926203284E+00  0.20599563420E-01 0.  0.
         14    1    1    2    0    0 -0.99898623456E-02  0.14491487161E-01 -0.15937397887E-01  0.23744498336E-01  0.00000000000E+00 0. -1.
     999901    1    3    3    0    0  0.13710202265E+00 -0.55180463184E-02  0.22742336117E-01  0.89092346882E+00  0.88000000000E+00 0. -1.
        -11    1    4    4    0    0 -0.68833582443E-01 -0.91664188342E-03  0.58217054755E-02  0.69087304767E-01  0.51100000000E-03 0.  1.
         11    1    4    4    0    0 -0.58278577856E-01 -0.80567989592E-02 -0.12626643706E-01  0.60174728073E-01  0.51100000000E-03 0. -1.
</event>
<event>
 8    1  0.1117354E+005  0.1043930E+01  0.7957747E-01            NaN
         13   -1    0    0    0    0  0.00000000000E+00  0.00000000000E+00  0.74505805969E-08  0.10566000000E+00  0.10566000000E+00 0. -1.
     999900   -1    0    0    0    0 -0.00000000000E+00 -0.00000000000E+00 -0.74505805969E-08  0.93827000000E+00  0.93827000000E+00 0.  1.
     999902    2    1    2    0    0 -0.18027523704E-01  0.10435031857E-02  0.14120574838E-01  0.10210068426E+01  0.10207494803E+01 0.  0.
     999903    2    3    3    0    0  0.84605877316E-01 -0.44064441236E-01 -0.82194903477E-01  0.12868122213E+00  0.26514624501E-01 0.  0.
         14    1    1    2    0    0  0.18027523704E-01 -0.10435031857E-02 -0.14120574838E-01  0.22923157365E-01  0.00000000000E+00 0.  1.
     999901    1    3    3    0    0 -0.10263340102E+00  0.45107944422E-01  0.96315478314E-01  0.89232562051E+00  0.88000000000E+00 0. -1.
        -11    1    4    4    0    0  0.59899214927E-01 -0.30347007912E-01 -0.40851447256E-01  0.78599991743E-01  0.51100000000E-03 0.  1.
         11    1    4    4    0    0  0.24706662389E-01 -0.13717433323E-01 -0.41343456220E-01  0.50081230382E-01  0.51100000000E-03 0. -1.
</event>
<event>
 8    1  0.1117354E+005  0.1043930E+01  0.7957747E-01            NaN
         13   -1    0    0    0    0  0.00000000000E+00  0.00000000000E+00  0.74505805969E-08  0.10566000000E+00  0.10566000000E+00 0. -1.
     999900   -1    0    0    0    0 -0.00000000000E+00 -0.00000000000E+00 -0.74505805969E-08  0.93827000000E+00  0.93827000000E+00 0.  1.
     999902    2    1    2    0    0  0.17756949939E-02  0.84404686137E-02  0.21719395120E-01  0.10205606455E+01  0.10202930484E+01 0.  0.
     999903    2    3    3    0    0  0.91656039404E-01 -0.46723370122E-01 -0.75353705103E-01  0.12896392494E+00  0.19225248705E-01 0.  0.
         14    1    1    2    0    0 -0.17756949939E-02 -0.84404686137E-02 -0.21719395120E-01  0.23369354452E-01  0.00000000000E+00 0.  1.
     999901    1    3    3    0    0 -0.89880344410E-01  0.55163838736E-01  0.97073100224E-01  0.89159672061E+00  0.88000000000E+00 0. -1.
        -11    1    4    4    0    0  0.35112249621E-01 -0.20287579157E-01 -0.18667229684E-01  0.44645072814E-01  0.51100000000E-03 0. -1.
         11    1    4    4    0    0  0.56543789783E-01 -0.26435790965E-01 -0.56686475420E-01  0.84318852124E-01  0.51100000000E-03 0.  1.
</event>
<event>
 8    1  0.1117354E+005  0.1043930E+01  0.7957747E-01            NaN
         13   -1    0    0    0    0  0.00000000000E+00  0.00000000000E+00  0.74505805969E-08  0.10566000000E+00  0.10566000000E+00 0. -1.
     999900   -1    0    0    0    0 -0.00000000000E+00 -0.00000000000E+00 -0.74505805969E-08  0.93827000000E+00  0.93827000000E+00 0.  1.
     999902    2    1    2    0    0 -0.18576784414E-02  0.79797569724E-02 -0.22306382343E-01  0.10201665368E+01  0.10198897296E+01 0.  0.
     999903    2    3    3    0    0 -0.31645169295E-01  0.11110772048E+00 -0.62163295686E-01  0.13274823350E+00  0.20284868159E-01 0.  0.
         14    1    1    2    0    0  0.18576784414E-02 -0.79797569724E-02  0.22306382343E-01  0.23763463211E-01  0.00000000000E+00 0. -1.
     999901    1    3    3    0    0  0.29787490854E-01 -0.10312796351E+00  0.39856913342E-01  0.88741830329E+00  0.88000000000E+00 0.  1.
        -11    1    4    4    0    0 -0.30979380471E-01  0.90066080942E-01 -0.57236867801E-01  0.11112129007E+00  0.51100000000E-03 0.  1.
         11    1    4    4    0    0 -0.66578882427E-03  0.21041639542E-01 -0.49264278848E-02  0.21626943429E-01  0.51100000000E-03 0. -1.
</event>
<event>
 8    1  0.1117354E+005  0.1043930E+01  0.7957747E-01            NaN
         13   -1    0    0    0    0  0.00000000000E+00  0.00000000000E+00  0.74505805969E-08  0.10566000000E+00  0.10566000000E+00 0. -1.
     999900   -1    0    0    0    0 -0.00000000000E+00 -0.00000000000E+00 -0.74505805969E-08  0.93827000000E+00  0.93827000000E+00 0.  1.
     999902    2    1    2    0    0  0.16717409086E-01 -0.16066759242E-01 -0.23188403159E-02  0.10206278641E+01  0.10203618218E+01 0.  0.
     999903    2    3    3    0    0 -0.81489802476E-01 -0.86481567750E-01 -0.51542421232E-01  0.13100667356E+00  0.19659040241E-01 0.  0.
         14    1    1    2    0    0 -0.16717409086E-01  0.16066759242E-01  0.23188403159E-02  0.23302135943E-01  0.00000000000E+00 0. -1.
     999901    1    3    3    0    0  0.98207211562E-01  0.70414808508E-01  0.49223580916E-01  0.88962119050E+00  0.88000000000E+00 0. -1.
        -11    1    4    4    0    0 -0.38549792294E-01 -0.40124442374E-01 -0.13537922282E-01  0.57267738059E-01  0.51100000000E-03 0. -1.
         11    1    4    4    0    0 -0.42940010182E-01 -0.46357125376E-01 -0.38004498951E-01  0.73738935503E-01  0.51100000000E-03 0.  1.
</event>
<event>
 8    1  0.1117354E+005  0.1043930E+01  0.7957747E-01            NaN
         13   -1    0    0    0    0  0.00000000000E+00  0.00000000000E+00  0.74505805969E-08  0.10566000000E+00  0.10566000000E+00 0.  1.
     999900   -1    0    0    0    0 -0.00000000000E+00 -0.00000000000E+00 -0.74505805969E-08  0.93827000000E+00  0.93827000000E+00 0. -1.
     999902    2    1    2    0    0 -0.12792164650E-01 -0.17967611978E-01 -0.85627925645E-02  0.10202699921E+01  0.10199956180E+01 0.  0.
     999903    2    3    3    0    0 -0.10142709099E+00  0.14298225983E-01 -0.81275667812E-01  0.13224724652E+00  0.19791563368E-01 0.  0.
         14    1    1    2    0    0  0.12792164650E-01  0.17967611978E-01  0.85627925645E-02  0.23660007885E-01  0.00000000000E+00 0.  1.
     999901    1    3    3    0    0  0.88634926341E-01 -0.32265837961E-01  0.72712875248E-01  0.88802274559E+00  0.88000000000E+00 0.  1.
        -11    1    4    4    0    0 -0.76763550851E-01  0.17970900294E-01 -0.67293457213E-01  0.10365455369E+00  0.51100000000E-03 0. -1.
         11    1    4    4    0    0 -0.24663540140E-01 -0.36726743111E-02 -0.13982210600E-01  0.28592692827E-01  0.51100000000E-03 0.  1.
</event>
<event>
 8    1  0.1117354E+005  0.1043930E+01  0.7957747E-01            NaN
         13   -1    0    0    0    0  0.00000000000E+00  0.00000000000E+00  0.74505805969E-08  0.10566000000E+00  0.10566000000E+00 0.  1.
     999900   -1    0    0    0    0 -0.00000000000E+00 -0.00000000000E+00 -0.74505805969E-08  0.93827000000E+00  0.93827000000E+00 0.  1.
     999902    2    1    2    0    0 -0.58835389777E-02  0.16927530308E-01 -0.12737128964E-01  0.10219438278E+01  0.10217072944E+01 0.  0.
     999903    2    3    3    0    0  0.19723910502E-02  0.12541188066E-01  0.12855847075E+00  0.13062716010E+00  0.19364989808E-01 0.  0.
         14    1    1    2    0    0  0.58835389777E-02 -0.16927530308E-01  0.12737128964E-01  0.21986172188E-01  0.00000000000E+00 0.  1.
     999901    1    3    3    0    0 -0.78559300279E-02  0.43863422416E-02 -0.14129559972E+00  0.89131666771E+00  0.88000000000E+00 0.  1.
        -11    1    4    4    0    0 -0.30652684074E-02 -0.41436531062E-02  0.42941960473E-01  0.43253194353E-01  0.51100000000E-03 0. -1.
         11    1    4    4    0    0  0.50376594576E-02  0.16684841173E-01  0.85616510279E-01  0.87373965751E-01  0.51100000000E-03 0.  1.
</event>
<event>
 8    1  0.1117354E+005  0.1043930E+01  0.7957747E-01            NaN
         13   -1    0    0    0    0  0.00000000000E+00  0.00000000000E+00  0.74505805969E-08  0.10566000000E+00  0.10566000000E+00 0.  1.
     999900   -1    0    0    0    0 -0.00000000000E+00 -0.00000000000E+00 -0.74505805969E-08  0.93827000000E+00  0.93827000000E+00 0. -1.
     999902    2    1    2    0    0  0.13642357370E-01  0.72677558444E-02  0.17319420133E-01  0.10207158555E+01  0.10204518417E+01 0.  0.
     999903    2    3    3    0    0 -0.10388368001E+00  0.69280154514E-01 -0.28567377274E-01  0.12955733696E+00  0.19428065623E-01 0.  0.
         14    1    1    2    0    0 -0.13642357370E-01 -0.72677558444E-02 -0.17319420133E-01  0.23214144468E-01  0.00000000000E+00 0. -1.
     999901    1    3    3    0    0  0.11752603738E+00 -0.62012398670E-01  0.45886797407E-01  0.89115851857E+00  0.88000000000E+00 0. -1.
        -11    1    4    4    0    0 -0.70341817516E-01  0.35704124639E-01 -0.18955943875E-01  0.81131650648E-01  0.51100000000E-03 0. -1.
         11    1    4    4    0    0 -0.33541862492E-01  0.33576029875E-01 -0.96114333989E-02  0.48425686310E-01  0.51100000000E-03 0.  1.
</event>
<event>
 8    1  0.1117354E+005  0.1043930E+01  0.7957747E-01            NaN
         13   -1    0    0    0    0  0.00000000000E+00  0.00000000000E+00  0.74505805969E-08  0.10566000000E+00  0.10566000000E+00 0.  1.
     999900   -1    0    0    0    0 -0.00000000000E+00 -0.00000000000E+00 -0.74505805969E-08  0.93827000000E+00  0.93827000000E+00 0.  1.
     999902    2    1    2    0    0  0.69220173807E-02  0.20059752972E-01 -0.62034736157E-02  0.10218213795E+01  0.10215821751E+01 0.  0.
     999903    2    3    3    0    0 -0.22336513900E-01 -0.46906409540E-03  0.12748533457E+00  0.13100703781E+00  0.20277908000E-01 0.  0.
         14    1    1    2    0    0 -0.69220173807E-02 -0.20059752972E-01  0.62034736157E-02  0.22108620464E-01  0.00000000000E+00 0.  1.
     999901    1    3    3    0    0  0.29258531281E-01  0.20528817067E-01 -0.13368880818E+00  0.89081434172E+00  0.88000000000E+00 0.  1.
        -11    1    4    4    0    0  0.14870505797E-02  0.46326406163E-02  0.11639456424E-01  0.12625796820E-01  0.51100000000E-03 0. -1.
         11    1    4    4    0    0 -0.23823564480E-01 -0.51017047117E-02  0.11584587814E+00  0.11838124099E+00  0.51100000000E-03 0.  1.
</event>
<event>
 7    1  0.1117354E+005  0.1043930E+01  0.7957747E-01            NaN
         13   -1    0    0    0    0  0.00000000000E+00  0.00000000000E+00  0.74505805969E-08  0.10566000000E+00  0.10566000000E+00 0.  1.
     999900   -1    0    0    0    0 -0.00000000000E+00 -0.00000000000E+00 -0.74505805969E-08  0.93827000000E+00  0.93827000000E+00 0. -1.
     999903    2    1    2    0    0 -0.74184524013E-01 -0.61195644436E-01  0.47572083575E-01  0.10919150542E+00  0.20283767377E-01 0.  0.
         14    1    1    2    0    0 -0.18739158451E-01  0.44671176650E-01 -0.60190328109E-03  0.48446180141E-01  0.00000000000E+00 0. -1.
     999901    1    1    2    0    0  0.92923682463E-01  0.16524467786E-01 -0.46970180294E-01  0.88629231444E+00  0.88000000000E+00 0.  1.
        -11    1    3    3    0    0 -0.26280445336E-01 -0.34718967398E-01  0.21230254085E-01  0.48446396292E-01  0.51100000000E-03 0.  1.
         11    1    3    3    0    0 -0.47904078677E-01 -0.26476677038E-01  0.26341829491E-01  0.60745109127E-01  0.51100000000E-03 0. -1.
</event>
<event>
 8    1  0.1117354E+005  0.1043930E+01  0.7957747E-01            NaN
         13   -1    0    0    0    0  0.00000000000E+00  0.00000000000E+00  0.74505805969E-08  0.10566000000E+00  0.10566000000E+00 0. -1.
     999900   -1    0    0    0    0 -0.00000000000E+00 -0.00000000000E+00 -0.74505805969E-08  0.93827000000E+00  0.93827000000E+00 0. -1.
     999902    2    1    2    0    0  0.19202554717E-01 -0.38078861389E-02 -0.14374635588E-01  0.10196427965E+01  0.10193535031E+01 0.  0.
     999903    2    3    3    0    0  0.95523123602E-01 -0.63241544970E-01 -0.64413545383E-01  0.13292915530E+00  0.19922232476E-01 0.  0.
         14    1    1    2    0    0 -0.19202554717E-01  0.38078861389E-02  0.14374635588E-01  0.24287203478E-01  0.00000000000E+00 0. -1.
     999901    1    3    3    0    0 -0.76320568885E-01  0.59433658832E-01  0.50038909795E-01  0.88671364122E+00  0.88000000000E+00 0.  1.
        -11    1    4    4    0    0  0.50701619898E-01 -0.44857727822E-01 -0.34393761224E-01  0.75934589864E-01  0.51100000000E-03 0. -1.
         11    1    4    4    0    0  0.44821503703E-01 -0.18383817149E-01 -0.30019784159E-01  0.56994565435E-01  0.51100000000E-03 0.  1.
</event>
<event>
 8    1  0.1117354E+005  0.1043930E+01  0.7957747E-01            NaN
         13   -1    0    0    0    0  0.00000000000E+00  0.00000000000E+00  0.74505805969E-08  0.10566000000E+00  0.10566000000E+00 0.  1.
     999900   -1    0    0    0    0 -0.00000000000E+00 -0.00000000000E+00 -0.74505805969E-08  0.93827000000E+00  0.93827000000E+00 0. -1.
     999902    2    1    2    0    0 -0.10732479538E-01 -0.19253244762E-01  0.81726103427E-02  0.10204211695E+01  0.10201503311E+01 0.  0.
     999903    2    3    3    0    0 -0.90760729920E-01  0.56868163521E-02 -0.91826873206E-01  0.13079966336E+00  0.20162522566E-01 0.  0.
         14    1    1    2    0    0  0.10732479538E-01  0.19253244762E-01 -0.81726103427E-02  0.23508830484E-01  0.00000000000E+00 0. -1.
     999901    1    3    3    0    0  0.80028250382E-01 -0.24940061114E-01  0.99999483549E-01  0.88962150616E+00  0.88000000000E+00 0.  1.
        -11    1    4    4    0    0 -0.73708254649E-01  0.20416951546E-02 -0.62433793067E-01  0.96619433657E-01  0.51100000000E-03 0.  1.
         11    1    4    4    0    0 -0.17052475271E-01  0.36451211975E-02 -0.29393080139E-01  0.34180229701E-01  0.51100000000E-03 0. -1.
</event>
<event>
 8    1  0.1117354E+005  0.1043930E+01  0.7957747E-01            NaN
         13   -1    0    0    0    0  0.00000000000E+00  0.00000000000E+00  0.74505805969E-08  0.10566000000E+00  0.10566000000E+00 0. -1.
     999900   -1    0    0    0    0 -0.00000000000E+00 -0.00000000000E+00 -0.74505805969E-08  0.93827000000E+00  0.93827000000E+00 0.  1.
     999902    2    1    2    0    0  0.11759203747E-01 -0.10863427794E-01 -0.17393402335E-01  0.10202905546E+01  0.10200166628E+01 0.  0.
     999903    2    3    3    0    0  0.93868875940E-01  0.36910934031E-01  0.79377689974E-01  0.12990354195E+00  0.20008238880E-01 0.  0.
         14    1    1    2    0    0 -0.11759203747E-01  0.10863427794E-01  0.17393402335E-01  0.23639445446E-01  0.00000000000E+00 0. -1.
     999901    1    3    3    0    0 -0.82109672193E-01 -0.47774361825E-01 -0.96771092309E-01  0.89038701261E+00  0.88000000000E+00 0.  1.
        -11    1    4    4    0    0  0.61337290037E-01  0.33597734706E-01  0.50368478239E-01  0.86187676890E-01  0.51100000000E-03 0. -1.
         11    1    4    4    0    0  0.32531585902E-01  0.33131993255E-02  0.29009211735E-01  0.43715865056E-01  0.51100000000E-03 0.  1.
</event>
<event>
 8    1  0.1117354E+005  0.1043930E+01  0.7957747E-01            NaN
         13   -1    0    0    0    0  0.00000000000E+00  0.00000000000E+00  0.74505805969E-08  0.10566000000E+00  0.10566000000E+00 0. -1.
     999900   -1    0    0    0    0 -0.00000000000E+00 -0.00000000000E+00 -0.74505805969E-08  0.93827000000E+00  0.93827000000E+00 0.  1.
     999902    2    1    2    0    0  0.47378121483E-02  0.19098759504E-01  0.12075116210E-01  0.10208428194E+01  0.10205817184E+01 0.  0.
     999903    2    3    3    0    0  0.11292533750E+00  0.42028420119E-01 -0.49787866615E-01  0.13176614177E+00  0.19104044311E-01 0.  0.
         14    1    1    2    0    0 -0.47378121483E-02 -0.19098759504E-01 -0.12075116210E-01  0.23087180643E-01  0.00000000000E+00 0. -1.
     999901    1    3    3    0    0 -0.10818752535E+00 -0.22929660615E-01  0.61862982825E-01  0.88907667758E+00  0.88000000000E+00 0.  1.
        -11    1    4    4    0    0  0.59106761324E-01  0.14711351366E-01 -0.32198531638E-01  0.68898763805E-01  0.51100000000E-03 0.  1.
         11    1    4    4    0    0  0.53818576175E-01  0.27317068753E-01 -0.17589334976E-01  0.62867377969E-01  0.51100000000E-03 0. -1.
</event>
<event>
 8    1  0.1117354E+005  0.1043930E+01  0.7957747E-01            NaN
         13   -1    0    0    0    0  0.00000000000E+00  0.00000000000E+00  0.74505805969E-08  0.10566000000E+00  0.10566000000E+00 0.  1.
     999900   -1    0    0    0    0 -0.00000000000E+00 -0.00000000000E+00 -0.74505805969E-08  0.93827000000E+00  0.93827000000E+00 0. -1.
     999902    2    1    2    0    0  0.13295942694E-01 -0.19277555397E-01 -0.73242819564E-02  0.10193932655E+01  0.10190979238E+01 0.  0.
     999903    2    3    3    0    0 -0.90390575834E-01 -0.91294181911E-01  0.83930777431E-02  0.13024517658E+00  0.19704781594E-01 0.  0.
         14    1    1    2    0    0 -0.13295942694E-01  0.19277555397E-01  0.73242819564E-02  0.24536734509E-01  0.00000000000E+00 0.  1.
     999901    1    3    3    0    0  0.10368651853E+00  0.72016626514E-01 -0.15717359700E-01  0.88914808891E+00  0.88000000000E+00 0.  1.
        -11    1    4    4    0    0 -0.31471543020E-01 -0.19896779942E-01 -0.57255516362E-03  0.37241493156E-01  0.51100000000E-03 0.  1.
         11    1    4    4    0    0 -0.58919032814E-01 -0.71397401970E-01  0.89656329068E-02  0.93003683423E-01  0.51100000000E-03 0. -1.
</event>
<event>
 8    1  0.1117354E+005  0.1043930E+01  0.7957747E-01            NaN
         13   -1    0    0    0    0  0.00000000000E+00  0.00000000000E+00  0.74505805969E-08  0.10566000000E+00  0.10566000000E+00 0. -1.
     999900   -1    0    0    0    0 -0.00000000000E+00 -0.00000000000E+00 -0.74505805969E-08  0.93827000000E+00  0.93827000000E+00 0. -1.
     999902    2    1    2    0    0  0.73141749632E-02  0.78323300159E-02 -0.20580034315E-01  0.10207269752E+01  0.10204632171E+01 0.  0.
     999903    2    3    3    0    0  0.80179889088E-01  0.10086353818E+00  0.19761624890E-01  0.13191222087E+00  0.20200105149E-01 0.  0.
         14    1    1    2    0    0 -0.73141749632E-02 -0.78323300159E-02  0.20580034315E-01  0.23203024831E-01  0.00000000000E+00 0. -1.
     999901    1    3    3    0    0 -0.72865714125E-01 -0.93031208168E-01 -0.40341659205E-01  0.88881475430E+00  0.88000000000E+00 0. -1.
        -11    1    4    4    0    0  0.41956430263E-01  0.61478518915E-01  0.28784817859E-02  0.74488234687E-01  0.51100000000E-03 0. -1.
         11    1    4    4    0    0  0.38223458825E-01  0.39385019270E-01  0.16883143104E-01  0.57423986186E-01  0.51100000000E-03 0.  1.
</event>
<event>
 8    1  0.1117354E+005  0.1043930E+01  0.7957747E-01            NaN
         13   -1    0    0    0    0  0.00000000000E+00  0.00000000000E+00  0.74505805969E-08  0.10566000000E+00  0.10566000000E+00 0. -1.
     999900   -1    0    0    0    0 -0.00000000000E+00 -0.00000000000E+00 -0.74505805969E-08  0.93827000000E+00  0.93827000000E+00 0. -1.
     999902    2    1    2    0    0 -0.91850110550E-03 -0.12558925517E-02 -0.23903536594E-01  0.10199758778E+01  0.10196945578E+01 0.  0.
     999903    2    3    3    0    0  0.12550303617E+00  0.18513317727E-01  0.18149620410E-01  0.12972776922E+00  0.20152676351E-01 0.  0.
         14    1    1    2    0    0  0.91850110550E-03  0.12558925517E-02  0.23903536594E-01  0.23954122235E-01  0.00000000000E+00 0. -1.
     999901    1    3    3    0    0 -0.12642153727E+00 -0.19769210279E-01 -0.42053157003E-01  0.89024810855E+00  0.88000000000E+00 0. -1.
        -11    1    4    4    0    0  0.10154155649E+00  0.19481862338E-01  0.21206792180E-01  0.10554723971E+00  0.51100000000E-03 0.  1.
         11    1    4    4    0    0  0.23961479678E-01 -0.96854461110E-03 -0.30571717702E-02  0.24180529507E-01  0.51100000000E-03 0. -1.
</event>
<event>
 8    1  0.1117354E+005  0.1043930E+01  0.7957747E-01            NaN
         13   -1    0    0    0    0  0.00000000000E+00  0.00000000000E+00  0.74505805969E-08  0.10566000000E+00  0.10566000000E+00 0. -1.
     999900   -1    0    0    0    0 -0.00000000000E+00 -0.00000000000E+00 -0.74505805969E-08  0.93827000000E+00  0.93827000000E+00 0. -1.
     999902    2    1    2    0    0 -0.13063854185E-02 -0.14310856251E-01  0.23589803792E-01  0.10163077971E+01  0.10159323562E+01 0.  0.
     999903    2    3    3    0    0  0.24549366010E-01 -0.81780613958E-01 -0.89750837856E-01  0.12610175965E+00  0.23573304806E-01 0.  0.
         14    1    1    2    0    0  0.13063854185E-02  0.14310856251E-01 -0.23589803792E-01  0.27622202889E-01  0.00000000000E+00 0.  1.
     999901    1    3    3    0    0 -0.25855751429E-01  0.67469757707E-01  0.11334064165E+00  0.89020603746E+00  0.88000000000E+00 0.  1.
        -11    1    4    4    0    0  0.67914725631E-03 -0.36476525359E-01 -0.28732264241E-01  0.46441385344E-01  0.51100000000E-03 0.  1.
         11    1    4    4    0    0  0.23870218754E-01 -0.45304088599E-01 -0.61018573615E-01  0.79660374303E-01  0.51100000000E-03 0. -1.
</event>
<event>
 8    1  0.1117354E+005  0.1043930E+01  0.7957747E-01            NaN
         13   -1    0    0    0    0  0.00000000000E+00  0.00000000000E+00  0.74505805969E-08  0.10566000000E+00  0.10566000000E+00 0. -1.
     999900   -1    0    0    0    0 -0.00000000000E+00 -0.00000000000E+00 -0.74505805969E-08  0.93827000000E+00  0.93827000000E+00 0.  1.
     999902    2    1    2    0    0 -0.11711958726E-01  0.12310970507E-02  0.20494404571E-01  0.10202930333E+01  0.10200191996E+01 0.  0.
     999903    2    3    3    0    0  0.11280648581E+00  0.59951052192E-02 -0.57013796095E-01  0.12814110677E+00  0.20207072297E-01 0.  0.
         14    1    1    2    0    0  0.11711958726E-01 -0.12310970507E-02 -0.20494404571E-01  0.23636966723E-01  0.00000000000E+00 0.  1.
     999901    1    3    3    0    0 -0.12451844454E+00 -0.47640081686E-02  0.77508200666E-01  0.89215192651E+00  0.88000000000E+00 0.  1.
        -11    1    4    4    0    0  0.84531805301E-01  0.12904167376E-01 -0.45207554830E-01  0.96727078824E-01  0.51100000000E-03 0. -1.
         11    1    4    4    0    0  0.28274680510E-01 -0.69090621564E-02 -0.11806241264E-01  0.31414027943E-01  0.51100000000E-03 0.  1.
</event>
<event>
 8    1  0.1117354E+005  0.1043930E+01  0.7957747E-01            NaN
         13   -1    0    0    0    0  0.00000000000E+00  0.00000000000E+00  0.74505805969E-08  0.10566000000E+00  0.10566000000E+00 0. -1.
     999900   -1    0    0    0    0 -0.00000000000E+00 -0.00000000000E+00 -0.74505805969E-08  0.93827000000E+00  0.93827000000E+00 0. -1.
     999902    2    1    2    0    0  0.68201128368E-02  0.40171951553E-02  0.22011848488E-01  0.10205382649E+01  0.10202701490E+01 0.  0.
     999903    2    3    3    0    0 -0.24134966702E-01 -0.12571874521E+00 -0.10035374070E-01  0.12991115123E+00  0.19710377157E-01 0.  0.
         14    1    1    2    0    0 -0.68201128368E-02 -0.40171951553E-02 -0.22011848488E-01  0.23391735076E-01  0.00000000000E+00 0.  1.
     999901    1    3    3    0    0  0.30955079539E-01  0.12973594036E+00  0.32047222557E-01  0.89062711369E+00  0.88000000000E+00 0. -1.
        -11    1    4    4    0    0 -0.25107850820E-02 -0.55183327917E-01 -0.99611192623E-02  0.56133668504E-01  0.51100000000E-03 0. -1.
         11    1    4    4    0    0 -0.21624181620E-01 -0.70535417289E-01 -0.74254807367E-04  0.73777482728E-01  0.51100000000E-03 0.  1.
</event>
<event>
 7    1  0.1117354E+005  0.1043930E+01  0.7957747E-01            NaN
         13   -1    0    0    0    0  0.00000000000E+00  0.00000000000E+00  0.74505805969E-08  0.10566000000E+00  0.10566000000E+00 0.  1.
     999900   -1    0    0    0    0 -0.00000000000E+00 -0.00000000000E+00 -0.74505805969E-08  0.93827000000E+00  0.93827000000E+00 0.  1.
     999903    2    1    2    0    0 -0.15934446274E-01  0.85242842634E-01 -0.75410009007E-01  0.11641214099E+00  0.18570630404E-01 0.  0.
         14    1    1    2    0    0  0.39208083205E-01 -0.12860056966E-02 -0.50952346586E-02  0.39558678131E-01  0.00000000000E+00 0. -1.
     999901    1    1    2    0    0 -0.23273636932E-01 -0.83956836938E-01  0.80505243666E-01  0.88795918088E+00  0.88000000000E+00 0. -1.
        -11    1    3    3    0    0 -0.17532891322E-02  0.55894053230E-01 -0.44207881973E-01  0.71286865261E-01  0.51100000000E-03 0.  1.
         11    1    3    3    0    0 -0.14181157141E-01  0.29348789405E-01 -0.31202127034E-01  0.45125275731E-01  0.51100000000E-03 0. -1.
</event>
<event>
 8    1  0.1117354E+005  0.1043930E+01  0.7957747E-01            NaN
         13   -1    0    0    0    0  0.00000000000E+00  0.00000000000E+00  0.74505805969E-08  0.10566000000E+00  0.10566000000E+00 0.  1.
     999900   -1    0    0    0    0 -0.00000000000E+00 -0.00000000000E+00 -0.74505805969E-08  0.93827000000E+00  0.93827000000E+00 0. -1.
     999902    2    1    2    0    0  0.10716104919E-01 -0.20928151795E-01  0.35619226951E-02  0.10201495514E+01  0.10198723437E+01 0.  0.
     999903    2    3    3    0    0 -0.46801012645E-01  0.76276114560E-01 -0.89261755759E-01  0.12808838562E+00  0.20750736216E-01 0.  0.
         14    1    1    2    0    0 -0.10716104919E-01  0.20928151795E-01 -0.35619226951E-02  0.23780448597E-01  0.00000000000E+00 0.  1.
     999901    1    3    3    0    0  0.57517117563E-01 -0.97204266356E-01  0.92823678454E-01  0.89206116578E+00  0.88000000000E+00 0.  1.
        -11    1    4    4    0    0 -0.51760658975E-02  0.19049940190E-01 -0.29310583603E-01  0.35342089802E-01  0.51100000000E-03 0.  1.
         11    1    4    4    0    0 -0.41624946747E-01  0.57226174370E-01 -0.59951172156E-01  0.92746295821E-01  0.51100000000E-03 0. -1.
</event>
<event>
 8    1  0.1117354E+005  0.1043930E+01  0.7957747E-01            NaN
         13   -1    0    0    0    0  0.00000000000E+00  0.00000000000E+00  0.74505805969E-08  0.10566000000E+00  0.10566000000E+00 0. -1.
     999900   -1    0    0    0    0 -0.00000000000E+00 -0.00000000000E+00 -0.74505805969E-08  0.93827000000E+00  0.93827000000E+00 0.  1.
     999902    2    1    2    0    0  0.16730588113E-01  0.16022507566E-01  0.43475929672E-02  0.10203602123E+01  0.10200879511E+01 0.  0.
     999903    2    3    3    0    0  0.33350499840E-01  0.32430827905E-01  0.12213006057E+00  0.13220585403E+00  0.19965512938E-01 0.  0.
         14    1    1    2    0    0 -0.16730588113E-01 -0.16022507566E-01 -0.43475929672E-02  0.23569787694E-01  0.00000000000E+00 0.  1.
     999901    1    3    3    0    0 -0.16619911727E-01 -0.16408320339E-01 -0.11778246761E+00  0.88815435827E+00  0.88000000000E+00 0.  1.
        -11    1    4    4    0    0  0.43560765826E-02  0.57755729694E-02  0.45204960472E-01  0.45782990495E-01  0.51100000000E-03 0. -1.
         11    1    4    4    0    0  0.28994423257E-01  0.26655254935E-01  0.76925100102E-01  0.86422863540E-01  0.51100000000E-03 0.  1.
</event>
<event>
 8    1  0.1117354E+005  0.1043930E+01  0.7957747E-01            NaN
         13   -1    0    0    0    0  0.00000000000E+00  0.00000000000E+00  0.74505805969E-08  0.10566000000E+00  0.10566000000E+00 0.  1.
     999900   -1    0    0    0    0 -0.00000000000E+00 -0.00000000000E+00 -0.74505805969E-08  0.93827000000E+00  0.93827000000E+00 0.  1.
     999902    2    1    2    0    0 -0.11919794775E-01 -0.14332193224E-01 -0.14105490443E-01  0.10205535561E+01  0.10202857946E+01 0.  0.
     999903    2    3    3    0    0 -0.89415310062E-01 -0.57746830699E-01 -0.78495017726E-01  0.13374106357E+00  0.19884922611E-01 0.  0.
         14    1    1    2    0    0  0.11919794775E-01  0.14332193224E-01  0.14105490443E-01  0.23376443929E-01  0.00000000000E+00 0. -1.
     999901    1    3    3    0    0  0.77495515287E-01  0.43414637475E-01  0.64389527283E-01  0.88681249250E+00  0.88000000000E+00 0.  1.
        -11    1    4    4    0    0 -0.69683562848E-01 -0.35525115365E-01 -0.61521531544E-01  0.99513781546E-01  0.51100000000E-03 0. -1.
         11    1    4    4    0    0 -0.19731747214E-01 -0.22221715334E-01 -0.16973486182E-01  0.34227282022E-01  0.51100000000E-03 0.  1.
</event>
<event>
 8    1  0.1117354E+005  0.1043930E+01  0.7957747E-01            NaN
         13   -1    0    0    0    0  0.00000000000E+00  0.00000000000E+00  0.74505805969E-08  0.10566000000E+00  0.10566000000E+00 0.  1.
     999900   -1    0    0    0    0 -0.00000000000E+00 -0.00000000000E+00 -0.74505805969E-08  0.93827000000E+00  0.93827000000E+00 0.  1.
     999902    2    1    2    0    0 -0.14961921642E-01 -0.52365654290E-02  0.20219714407E-01  0.10182372468E+01  0.10179130480E+01 0.  0.
     999903    2    3    3    0    0  0.10868535278E+00  0.59785101313E-01 -0.14252963366E-01  0.12655073735E+00  0.20619842653E-01 0.  0.
         14    1    1    2    0    0  0.14961921642E-01  0.52365654290E-02 -0.20219714407E-01  0.25692753208E-01  0.00000000000E+00 0. -1.
     999901    1    3    3    0    0 -0.12364727442E+00 -0.65021666742E-01  0.34472677773E-01  0.89168650945E+00  0.88000000000E+00 0. -1.
        -11    1    4    4    0    0  0.44097472581E-01  0.28591607265E-01 -0.15553894772E-01  0.54811055980E-01  0.51100000000E-03 0. -1.
         11    1    4    4    0    0  0.64587880194E-01  0.31193494048E-01  0.13009314061E-02  0.71739681366E-01  0.51100000000E-03 0.  1.
</event>
<event>
 8    1  0.1117354E+005  0.1043930E+01  0.7957747E-01            NaN
         13   -1    0    0    0    0  0.00000000000E+00  0.00000000000E+00  0.74505805969E-08  0.10566000000E+00  0.10566000000E+00 0. -1.
     999900   -1    0    0    0    0 -0.00000000000E+00 -0.00000000000E+00 -0.74505805969E-08  0.93827000000E+00  0.93827000000E+00 0.  1.
     999902    2    1    2    0    0 -0.14685741059E-01  0.90342183818E-02 -0.20350866623E-01  0.10172570574E+01  0.10169073090E+01 0.  0.
     999903    2    3    3    0    0 -0.91491793176E-01  0.67823184219E-01  0.55833857787E-01  0.12868549343E+00  0.21721049869E-01 0.  0.
         14    1    1    2    0    0  0.14685741059E-01 -0.90342183818E-02  0.20350866623E-01  0.26672942555E-01  0.00000000000E+00 0. -1.
     999901    1    3    3    0    0  0.76806052117E-01 -0.58788965837E-01 -0.76184724410E-01  0.88857156402E+00  0.88000000000E+00 0. -1.
        -11    1    4    4    0    0 -0.51422701581E-01  0.38321892792E-01  0.43263027986E-01  0.77361569378E-01  0.51100000000E-03 0.  1.
         11    1    4    4    0    0 -0.40069091595E-01  0.29501291426E-01  0.12570829801E-01  0.51323924051E-01  0.51100000000E-03 0. -1.
</event>
<event>
 8    1  0.1117354E+005  0.1043930E+01  0.7957747E-01            NaN
         13   -1    0    0    0    0  0.00000000000E+00  0.00000000000E+00  0.74505805969E-08  0.10566000000E+00  0.10566000000E+00 0.  1.
     999900   -1    0    0    0    0 -0.00000000000E+00 -0.00000000000E+00 -0.74505805969E-08  0.93827000000E+00  0.93827000000E+00 0. -1.
     999902    2    1    2    0    0  0.21231794237E-01  0.95782910905E-02  0.28759665953E-02  0.10204607876E+01  0.10201908719E+01 0.  0.
     999903    2    3    3    0    0 -0.11257949552E+00 -0.47964028163E-01 -0.30923725923E-01  0.12784720996E+00  0.20345551380E-01 0.  0.
         14    1    1    2    0    0 -0.21231794237E-01 -0.95782910905E-02 -0.28759665953E-02  0.23469212399E-01  0.00000000000E+00 0.  1.
     999901    1    3    3    0    0  0.13381128976E+00  0.57542319253E-01  0.33799692519E-01  0.89261357764E+00  0.88000000000E+00 0.  1.
        -11    1    4    4    0    0 -0.65941702672E-01 -0.21161622217E-01 -0.93295030779E-02  0.69881493650E-01  0.51100000000E-03 0. -1.
         11    1    4    4    0    0 -0.46637792848E-01 -0.26802405946E-01 -0.21594222845E-01  0.57965716312E-01  0.51100000000E-03 0.  1.
</event>
<event>
 8    1  0.1117354E+005  0.1043930E+01  0.7957747E-01            NaN
         13   -1    0    0    0    0  0.00000000000E+00  0.00000000000E+00  0.74505805969E-08  0.10566000000E+00  0.10566000000E+00 0. -1.
     999900   -1    0    0    0    0 -0.00000000000E+00 -0.00000000000E+00 -0.74505805969E-08  0.93827000000E+00  0.93827000000E+00 0. -1.
     999902    2    1    2    0    0  0.65744029484E-02 -0.21536847033E-01 -0.22691638794E-02  0.10212979948E+01  0.10210472009E+01 0.  0.
     999903    2    3    3    0    0  0.16692942376E-01  0.22296515873E-01 -0.12678212500E+00  0.13139506413E+00  0.20375640176E-01 0.  0.
         14    1    1    2    0    0 -0.65744029484E-02  0.21536847033E-01  0.22691638794E-02  0.22632005191E-01  0.00000000000E+00 0. -1.
     999901    1    3    3    0    0 -0.10118539427E-01 -0.43833362906E-01  0.12451296112E+00  0.88990293068E+00  0.88000000000E+00 0. -1.
        -11    1    4    4    0    0  0.19632199582E-01  0.19946432393E-01 -0.86097168847E-01  0.90533237157E-01  0.51100000000E-03 0. -1.
         11    1    4    4    0    0 -0.29392572063E-02  0.23500834805E-02 -0.40684956155E-01  0.40861826974E-01  0.51100000000E-03 0.  1.
</event>
<event>
 8    1  0.1117354E+005  0.1043930E+01  0.7957747E-01            NaN
         13   -1    0    0    0    0  0.00000000000E+00  0.00000000000E+00  0.74505805969E-08  0.10566000000E+00  0.10566000000E+00 0.  1.
     999900   -1    0    0    0    0 -0.00000000000E+00 -0.00000000000E+00 -0.74505805969E-08  0.93827000000E+00  0.93827000000E+00 0. -1.
     999902    2    1    2    0    0  0.24496268022E-02  0.14489495459E-01  0.18861422143E-01  0.10200197638E+01  0.10197394859E+01 0.  0.
     999903    2    3    3    0    0  0.64155699638E-01 -0.94306570233E-01 -0.54974776850E-01  0.12811393490E+00  0.19526168104E-01 0.  0.
         14    1    1    2    0    0 -0.24496268022E-02 -0.14489495459E-01 -0.18861422143E-01  0.23910236205E-01  0.00000000000E+00 0. -1.
     999901    1    3    3    0    0 -0.61706072835E-01  0.10879606569E+00  0.73836198993E-01  0.89190582889E+00  0.88000000000E+00 0. -1.
        -11    1    4    4    0    0  0.50619222090E-01 -0.76335590054E-01 -0.35102144809E-01  0.98091027343E-01  0.51100000000E-03 0.  1.
         11    1    4    4    0    0  0.13536477547E-01 -0.17970980179E-01 -0.19872632041E-01  0.30022907558E-01  0.51100000000E-03 0. -1.
</event>
<event>
 8    1  0.1117354E+005  0.1043930E+01  0.7957747E-01            NaN
         13   -1    0    0    0    0  0.00000000000E+00  0.00000000000E+00  0.74505805969E-08  0.10566000000E+00  0.10566000000E+00 0.  1.
     999900   -1    0    0    0    0 -0.00000000000E+00 -0.00000000000E+00 -0.74505805969E-08  0.93827000000E+00  0.93827000000E+00 0. -1.
     999902    2    1    2    0    0 -0.19481994294E-01  0.13681302074E-01  0.44896739622E-02  0.10197043256E+01  0.10194165137E+01 0.  0.
     999903    2    3    3    0    0 -0.86988442831E-01 -0.93749092800E-01  0.16528203042E-01  0.13052305244E+00  0.20179299709E-01 0.  0.
         14    1    1    2    0    0  0.19481994294E-01 -0.13681302074E-01 -0.44896739622E-02  0.24225674406E-01  0.00000000000E+00 0. -1.
     999901    1    3    3    0    0  0.67506448537E-01  0.10743039487E+00 -0.12038529080E-01  0.88918127315E+00  0.88000000000E+00 0. -1.
        -11    1    4    4    0    0 -0.49466655246E-01 -0.40903079055E-01  0.26743997673E-02  0.64245041774E-01  0.51100000000E-03 0.  1.
         11    1    4    4    0    0 -0.37521787585E-01 -0.52846013746E-01  0.13853803275E-01  0.66278010671E-01  0.51100000000E-03 0. -1.
</event>
<event>
 8    1  0.1117354E+005  0.1043930E+01  0.7957747E-01            NaN
         13   -1    0    0    0    0  0.00000000000E+00  0.00000000000E+00  0.74505805969E-08  0.10566000000E+00  0.10566000000E+00 0. -1.
     999900   -1    0    0    0    0 -0.00000000000E+00 -0.00000000000E+00 -0.74505805969E-08  0.93827000000E+00  0.93827000000E+00 0. -1.
     999902    2    1    2    0    0 -0.95161979232E-03  0.23255316588E-01 -0.11837256885E-02  0.10206251392E+01  0.10203590340E+01 0.  0.
     999903    2    3    3    0    0 -0.36894253047E-01 -0.11191417314E-01 -0.12332721886E+00  0.13079510865E+00  0.20281119478E-01 0.  0.
         14    1    1    2    0    0  0.95161979232E-03 -0.23255316588E-01  0.11837256885E-02  0.23304860788E-01  0.00000000000E+00 0.  1.
     999901    1    3    3    0    0  0.35942633255E-01  0.34446733902E-01  0.12214349317E+00  0.88983003056E+00  0.88000000000E+00 0.  1.
        -11    1    4    4    0    0 -0.23208587270E-01  0.25728334707E-02 -0.79486693302E-01  0.82847169706E-01  0.51100000000E-03 0. -1.
         11    1    4    4    0    0 -0.13685665777E-01 -0.13764250784E-01 -0.43840525554E-01  0.47947938947E-01  0.51100000000E-03 0.  1.
</event>
<event>
 8    1  0.1117354E+005  0.1043930E+01  0.7957747E-01            NaN
         13   -1    0    0    0    0  0.00000000000E+00  0.00000000000E+00  0.74505805969E-08  0.10566000000E+00  0.10566000000E+00 0. -1.
     999900   -1    0    0    0    0 -0.00000000000E+00 -0.00000000000E+00 -0.74505805969E-08  0.93827000000E+00  0.93827000000E+00 0.  1.
     999902    2    1    2    0    0  0.19958775274E-01 -0.10833136527E-01 -0.53491421667E-02  0.10205992718E+01  0.10203325687E+01 0.  0.
     999903    2    3    3    0    0 -0.10814335897E+00 -0.62808978826E-01  0.26012637371E-01  0.12925466603E+00  0.19752404345E-01 0.  0.
         14    1    1    2    0    0 -0.19958775274E-01  0.10833136527E-01  0.53491421667E-02  0.23330728222E-01  0.00000000000E+00 0. -1.
     999901    1    3    3    0    0  0.12810213424E+00  0.51975842299E-01 -0.31361779537E-01  0.89134460575E+00  0.88000000000E+00 0.  1.
        -11    1    4    4    0    0 -0.56519310165E-01 -0.33586068368E-01  0.36246252106E-02  0.65847212840E-01  0.51100000000E-03 0.  1.
         11    1    4    4    0    0 -0.51624048804E-01 -0.29222910458E-01  0.22388012160E-01  0.63407453189E-01  0.51100000000E-03 0. -1.
</event>
<event>
 8    1  0.1117354E+005  0.1043930E+01  0.7957747E-01            NaN
         13   -1    0    0    0    0  0.00000000000E+00  0.00000000000E+00  0.74505805969E-08  0.10566000000E+00  0.10566000000E+00 0.  1.
     999900   -1    0    0    0    0 -0.00000000000E+00 -0.00000000000E+00 -0.74505805969E-08  0.93827000000E+00  0.93827000000E+00 0. -1.
     999902    2    1    2    0    0  0.21097351771E-01  0.21023844508E-02 -0.82319958016E-02  0.10211861211E+01  0.10209328136E+01 0.  0.
     999903    2    3    3    0    0  0.91291098912E-01  0.85936743683E-01 -0.42354121831E-01  0.13376306449E+00  0.19480686119E-01 0.  0.
         14    1    1    2    0    0 -0.21097351771E-01 -0.21023844508E-02  0.82319958016E-02  0.22743878891E-01  0.00000000000E+00 0. -1.
     999901    1    3    3    0    0 -0.70193747141E-01 -0.83834359232E-01  0.34122126030E-01  0.88742305661E+00  0.88000000000E+00 0. -1.
        -11    1    4    4    0    0  0.38398888405E-01  0.23440642792E-01 -0.14073705523E-01  0.47140944766E-01  0.51100000000E-03 0. -1.
         11    1    4    4    0    0  0.52892210507E-01  0.62496100890E-01 -0.28280416308E-01  0.86622119729E-01  0.51100000000E-03 0.  1.
</event>
<event>
 8    1  0.1117354E+005  0.1043930E+01  0.7957747E-01            NaN
         13   -1    0    0    0    0  0.00000000000E+00  0.00000000000E+00  0.74505805969E-08  0.10566000000E+00  0.10566000000E+00 0.  1.
     999900   -1    0    0    0    0 -0.00000000000E+00 -0.00000000000E+00 -0.74505805969E-08  0.93827000000E+00  0.93827000000E+00 0. -1.
     999902    2    1    2    0    0  0.11592411971E-01  0.21419276393E-01  0.22650533615E-02  0.10194698307E+01  0.10191763517E+01 0.  0.
     999903    2    3    3    0    0 -0.49910742978E-01 -0.92486033266E-01 -0.69610898835E-01  0.12710039477E+00  0.16250676928E-01 0.  0.
         14    1    1    2    0    0 -0.11592411971E-01 -0.21419276393E-01 -0.22650533615E-02  0.24460169321E-01  0.00000000000E+00 0.  1.
     999901    1    3    3    0    0  0.61503154949E-01  0.11390530966E+00  0.71875952196E-01  0.89236943591E+00  0.88000000000E+00 0.  1.
        -11    1    4    4    0    0 -0.31813791779E-01 -0.69889032433E-01 -0.56380343134E-01  0.95265935227E-01  0.51100000000E-03 0.  1.
         11    1    4    4    0    0 -0.18096951199E-01 -0.22597000833E-01 -0.13230555701E-01  0.31834459545E-01  0.51100000000E-03 0. -1.
</event>
<event>
 8    1  0.1117354E+005  0.1043930E+01  0.7957747E-01            NaN
         13   -1    0    0    0    0  0.00000000000E+00  0.00000000000E+00  0.74505805969E-08  0.10566000000E+00  0.10566000000E+00 0. -1.
     999900   -1    0    0    0    0 -0.00000000000E+00 -0.00000000000E+00 -0.74505805969E-08  0.93827000000E+00  0.93827000000E+00 0.  1.
     999902    2    1    2    0    0  0.19529711032E-01  0.10091379385E-01 -0.13965947206E-01  0.10178859367E+01  0.10175526949E+01 0.  0.
     999903    2    3    3    0    0 -0.71124949298E-01  0.75169301009E-01 -0.73070030892E-01  0.12887148462E+00  0.23652651181E-01 0.  0.
         14    1    1    2    0    0 -0.19529711032E-01 -0.10091379385E-01  0.13965947206E-01  0.26044063282E-01  0.00000000000E+00 0. -1.
     999901    1    3    3    0    0  0.90654660330E-01 -0.65077921625E-01  0.59104083686E-01  0.88901445209E+00  0.88000000000E+00 0. -1.
        -11    1    4    4    0    0 -0.82564443252E-02  0.10717483121E-01 -0.20630762766E-01  0.24676361374E-01  0.51100000000E-03 0. -1.
         11    1    4    4    0    0 -0.62868504973E-01  0.64451817888E-01 -0.52439268126E-01  0.10419512325E+00  0.51100000000E-03 0.  1.
</event>
<event>
 8    1  0.1117354E+005  0.1043930E+01  0.7957747E-01            NaN
         13   -1    0    0    0    0  0.00000000000E+00  0.00000000000E+00  0.74505805969E-08  0.10566000000E+00  0.10566000000E+00 0. -1.
     999900   -1    0    0    0    0 -0.00000000000E+00 -0.00000000000E+00 -0.74505805969E-08  0.93827000000E+00  0.93827000000E+00 0.  1.
     999902    2    1    2    0    0  0.23760726474E-01 -0.13406611251E-02 -0.31501902417E-03  0.10201293964E+01  0.10198517131E+01 0.  0.
     999903    2    3    3    0    0  0.89006207405E-01  0.90156225697E-01 -0.34173301640E-01  0.13233717049E+00  0.17177373488E-01 0.  0.
         14    1    1    2    0    0 -0.23760726474E-01  0.13406611251E-02  0.31501902417E-03  0.23800603602E-01  0.00000000000E+00 0.  1.
     999901    1    3    3    0    0 -0.65245480931E-01 -0.91496886822E-01  0.33858282616E-01  0.88779222591E+00  0.88000000000E+00 0. -1.
        -11    1    4    4    0    0  0.36164748062E-01  0.34704906953E-01 -0.22147215161E-01  0.54800363406E-01  0.51100000000E-03 0. -1.
         11    1    4    4    0    0  0.52841459343E-01  0.55451318744E-01 -0.12026086479E-01  0.77536807085E-01  0.51100000000E-03 0.  1.
</event>
<event>
 8    1  0.1117354E+005  0.1043930E+01  0.7957747E-01            NaN
         13   -1    0    0    0    0  0.00000000000E+00  0.00000000000E+00  0.74505805969E-08  0.10566000000E+00  0.10566000000E+00 0. -1.
     999900   -1    0    0    0    0 -0.00000000000E+00 -0.00000000000E+00 -0.74505805969E-08  0.93827000000E+00  0.93827000000E+00 0.  1.
     999902    2    1    2    0    0  0.76033241599E-02 -0.44573633152E-03  0.22990215396E-01  0.10197110152E+01  0.10194233641E+01 0.  0.
     999903    2    3    3    0    0 -0.98035112631E-01  0.40467502291E-02  0.84669627483E-01  0.13123816160E+00  0.20670020483E-01 0.  0.
         14    1    1    2    0    0 -0.76033241599E-02  0.44573633152E-03 -0.22990215396E-01  0.24218984766E-01  0.00000000000E+00 0.  1.
     999901    1    3    3    0    0  0.10563843679E+00 -0.44924865607E-02 -0.61679412087E-01  0.88847285363E+00  0.88000000000E+00 0.  1.
        -11    1    4    4    0    0 -0.64465929768E-01 -0.17152334369E-02  0.66483725460E-01  0.92623674072E-01  0.51100000000E-03 0. -1.
         11    1    4    4    0    0 -0.33569182863E-01  0.57619836660E-02  0.18185902023E-01  0.38614487531E-01  0.51100000000E-03 0.  1.
</event>
<event>
 8    1  0.1117354E+005  0.1043930E+01  0.7957747E-01            NaN
         13   -1    0    0    0    0  0.00000000000E+00  0.00000000000E+00  0.74505805969E-08  0.10566000000E+00  0.10566000000E+00 0. -1.
     999900   -1    0    0    0    0 -0.00000000000E+00 -0.00000000000E+00 -0.74505805969E-08  0.93827000000E+00  0.93827000000E+00 0.  1.
     999902    2    1    2    0    0 -0.67872464664E-02 -0.53755748260E-02 -0.20935277923E-01  0.10212749921E+01  0.10210236825E+01 0.  0.
     999903    2    3    3    0    0 -0.34017864184E-01  0.54426390297E-01  0.11015926522E+00  0.12914071928E+00  0.20562456531E-01 0.  0.
         14    1    1    2    0    0  0.67872464664E-02  0.53755748260E-02  0.20935277923E-01  0.22655007858E-01  0.00000000000E+00 0. -1.
     999901    1    3    3    0    0  0.27230617718E-01 -0.59801965123E-01 -0.13109454314E+00  0.89213427286E+00  0.88000000000E+00 0.  1.
        -11    1    4    4    0    0 -0.28635863955E-01  0.37454753832E-01  0.62707863026E-01  0.78456411436E-01  0.51100000000E-03 0. -1.
         11    1    4    4    0    0 -0.53820002291E-02  0.16971636465E-01  0.47451402191E-01  0.50684307844E-01  0.51100000000E-03 0.  1.
</event>
<event>
 8    1  0.1117354E+005  0.1043930E+01  0.7957747E-01            NaN
         13   -1    0    0    0    0  0.00000000000E+00  0.00000000000E+00  0.74505805969E-08  0.10566000000E+00  0.10566000000E+00 0.  1.
     999900   -1    0    0    0    0 -0.00000000000E+00 -0.00000000000E+00 -0.74505805969E-08  0.93827000000E+00  0.93827000000E+00 0.  1.
     999902    2    1    2    0    0  0.18744213205E-02 -0.86195147019E-02 -0.20215769020E-01  0.10218735541E+01  0.10216354897E+01 0.  0.
     999903    2    3    3    0    0  0.57929321462E-01  0.72673025173E-01  0.88100497461E-01  0.12975078090E+00  0.20890012397E-01 0.  0.
         14    1    1    2    0    0 -0.18744213205E-02  0.86195147019E-02  0.20215769020E-01  0.22056445907E-01  0.00000000000E+00 0.  1.
     999901    1    3    3    0    0 -0.56054900141E-01 -0.81292539874E-01 -0.10831626648E+00  0.89212277320E+00  0.88000000000E+00 0. -1.
        -11    1    4    4    0    0  0.51603247060E-01  0.59158885251E-01  0.82288496077E-01  0.11372918060E+00  0.51100000000E-03 0.  1.
         11    1    4    4    0    0  0.63260744013E-02  0.13514139921E-01  0.58120013835E-02  0.16021600302E-01  0.51100000000E-03 0. -1.
</event>
<event>
 8    1  0.1117354E+005  0.1043930E+01  0.7957747E-01            NaN
         13   -1    0    0    0    0  0.00000000000E+00  0.00000000000E+00  0.74505805969E-08  0.10566000000E+00  0.10566000000E+00 0. -1.
     999900   -1    0    0    0    0 -0.00000000000E+00 -0.00000000000E+00 -0.74505805969E-08  0.93827000000E+00  0.93827000000E+00 0.  1.
     999902    2    1    2    0    0  0.87159347862E-02  0.17090401444E-01  0.90128729611E-02  0.10227337451E+01  0.10225140744E+01 0.  0.
     999903    2    3    3    0    0  0.10249827318E+00  0.61579739665E-01  0.60261092447E-01  0.13515230764E+00  0.18351748021E-01 0.  0.
         14    1    1    2    0    0 -0.87159347862E-02 -0.17090401444E-01 -0.90128729611E-02  0.21196254851E-01  0.00000000000E+00 0. -1.
     999901    1    3    3    0    0 -0.93782338394E-01 -0.44489338221E-01 -0.51248219486E-01  0.88758143751E+00  0.88000000000E+00 0.  1.
        -11    1    4    4    0    0  0.43943671740E-01  0.26193490872E-01  0.15753354399E-01  0.53531061505E-01  0.51100000000E-03 0.  1.
         11    1    4    4    0    0  0.58554601440E-01  0.35386248793E-01  0.44507738048E-01  0.81621246135E-01  0.51100000000E-03 0. -1.
</event>
<event>
 8    1  0.1117354E+005  0.1043930E+01  0.7957747E-01            NaN
         13   -1    0    0    0    0  0.00000000000E+00  0.00000000000E+00  0.74505805969E-08  0.10566000000E+00  0.10566000000E+00 0. -1.
     999900   -1    0    0    0    0 -0.00000000000E+00 -0.00000000000E+00 -0.74505805969E-08  0.93827000000E+00  0.93827000000E+00 0. -1.
     999902    2    1    2    0    0  0.91482070491E-02  0.10694712737E-01 -0.20673914277E-01  0.10189204557E+01  0.10186134781E+01 0.  0.
     999903    2    3    3    0    0 -0.53652685638E-01 -0.21588128667E-01  0.11054943855E+00  0.12639275180E+00  0.20230950724E-01 0.  0.
         14    1    1    2    0    0 -0.91482070491E-02 -0.10694712737E-01  0.20673914277E-01  0.25009544264E-01  0.00000000000E+00 0. -1.
     999901    1    3    3    0    0  0.62800892687E-01  0.32282841404E-01 -0.13122335283E+00  0.89252770394E+00  0.88000000000E+00 0. -1.
        -11    1    4    4    0    0 -0.98856221379E-02  0.22905431515E-02  0.29860373301E-01  0.31541641170E-01  0.51100000000E-03 0.  1.
         11    1    4    4    0    0 -0.43767063500E-01 -0.23878671818E-01  0.80689065250E-01  0.94851110627E-01  0.51100000000E-03 0. -1.
</event>
<event>
 8    1  0.1117354E+005  0.1043930E+01  0.7957747E-01            NaN
         13   -1    0    0    0    0  0.00000000000E+00  0.00000000000E+00  0.74505805969E-08  0.10566000000E+00  0.10566000000E+00 0.  1.
     999900   -1    0    0    0    0 -0.00000000000E+00 -0.00000000000E+00 -0.74505805969E-08  0.93827000000E+00  0.93827000000E+00 0. -1.
     999902    2    1    2    0    0 -0.21894139533E-01 -0.62048486789E-02 -0.74199277472E-02  0.10199944862E+01  0.10197136084E+01 0.  0.
     999903    2    3    3    0    0 -0.72107460643E-01 -0.83078424152E-01 -0.69529294313E-01  0.13303986637E+00  0.27636440372E-01 0.  0.
         14    1    1    2    0    0  0.21894139533E-01  0.62048486789E-02  0.74199277472E-02  0.23935513798E-01  0.00000000000E+00 0.  1.
     999901    1    3    3    0    0  0.50213321110E-01  0.76873575473E-01  0.62109366566E-01  0.88695461983E+00  0.88000000000E+00 0.  1.
        -11    1    4    4    0    0 -0.26376779544E-01 -0.45701813541E-01 -0.43949039970E-01  0.68674372915E-01  0.51100000000E-03 0.  1.
         11    1    4    4    0    0 -0.45730681099E-01 -0.37376610612E-01 -0.25580254343E-01  0.64365493457E-01  0.51100000000E-03 0. -1.
</event>
<event>
 8    1  0.1117354E+005  0.1043930E+01  0.7957747E-01            NaN
         13   -1    0    0    0    0  0.00000000000E+00  0.00000000000E+00  0.74505805969E-08  0.10566000000E+00  0.10566000000E+00 0.  1.
     999900   -1    0    0    0    0 -0.00000000000E+00 -0.00000000000E+00 -0.74505805969E-08  0.93827000000E+00  0.93827000000E+00 0. -1.
     999902    2    1    2    0    0 -0.23995726757E-01  0.42866887198E-02  0.15429504410E-02  0.10195056003E+01  0.10192129894E+01 0.  0.
     999903    2    3    3    0    0 -0.83089574517E-01 -0.55649172176E-01  0.83647935491E-01  0.13168488711E+00  0.18526322470E-01 0.  0.
         14    1    1    2    0    0  0.23995726757E-01 -0.42866887198E-02 -0.15429504410E-02  0.24424399662E-01  0.00000000000E+00 0. -1.
     999901    1    3    3    0    0  0.59093847760E-01  0.59935860896E-01 -0.82104985051E-01  0.88782071323E+00  0.88000000000E+00 0. -1.
        -11    1    4    4    0    0 -0.41734339678E-01 -0.38824934069E-01  0.44806849493E-01  0.72505485974E-01  0.51100000000E-03 0. -1.
         11    1    4    4    0    0 -0.41355234839E-01 -0.16824238107E-01  0.38841085998E-01  0.59179401137E-01  0.51100000000E-03 0.  1.
</event>
<event>
 8    1  0.1117354E+005  0.1043930E+01  0.7957747E-01            NaN
         13   -1    0    0    0    0  0.00000000000E+00  0.00000000000E+00  0.74505805969E-08  0.10566000000E+00  0.10566000000E+00 0.  1.
     999900   -1    0    0    0    0 -0.00000000000E+00 -0.00000000000E+00 -0.74505805969E-08  0.93827000000E+00  0.93827000000E+00 0.  1.
     999902    2    1    2    0    0  0.14647229692E-01  0.15906478475E-01  0.10096884011E-01  0.10200657074E+01  0.10197865183E+01 0.  0.
     999903    2    3    3    0    0 -0.70695373934E-01  0.40711504374E-01 -0.97839751506E-01  0.12902756758E+00  0.20499603344E-01 0.  0.
         14    1    1    2    0    0 -0.14647229692E-01 -0.15906478475E-01 -0.10096884011E-01  0.23864292611E-01  0.00000000000E+00 0. -1.
     999901    1    3    3    0    0  0.85342603626E-01 -0.24805025900E-01  0.10793663552E+00  0.89103813981E+00  0.88000000000E+00 0. -1.
        -11    1    4    4    0    0 -0.48222752384E-01  0.28789931021E-01 -0.80805756988E-01  0.98407954247E-01  0.51100000000E-03 0.  1.
         11    1    4    4    0    0 -0.22472621549E-01  0.11921573353E-01 -0.17033994518E-01  0.30619613334E-01  0.51100000000E-03 0. -1.
</event>
<event>
 8    1  0.1117354E+005  0.1043930E+01  0.7957747E-01            NaN
         13   -1    0    0    0    0  0.00000000000E+00  0.00000000000E+00  0.74505805969E-08  0.10566000000E+00  0.10566000000E+00 0.  1.
     999900   -1    0    0    0    0 -0.00000000000E+00 -0.00000000000E+00 -0.74505805969E-08  0.93827000000E+00  0.93827000000E+00 0.  1.
     999902    2    1    2    0    0 -0.10746764627E-01 -0.94853552269E-02  0.18641325691E-01  0.10204148148E+01  0.10201438282E+01 0.  0.
     999903    2    3    3    0    0 -0.11072335182E+00 -0.59474190407E-01 -0.34635044720E-01  0.13174582504E+00  0.18987789001E-01 0.  0.
         14    1    1    2    0    0  0.10746764627E-01  0.94853552269E-02 -0.18641325691E-01  0.23515185248E-01  0.00000000000E+00 0. -1.
     999901    1    3    3    0    0  0.99976587190E-01  0.49988835180E-01  0.53276370411E-01  0.88866898971E+00  0.88000000000E+00 0. -1.
        -11    1    4    4    0    0 -0.70730293769E-01 -0.36764406054E-01 -0.31267036605E-01  0.85628760987E-01  0.51100000000E-03 0. -1.
         11    1    4    4    0    0 -0.39993058047E-01 -0.22709784354E-01 -0.33680081149E-02  0.46117064055E-01  0.51100000000E-03 0.  1.
</event>
<event>
 8    1  0.1117354E+005  0.1043930E+01  0.7957747E-01            NaN
         13   -1    0    0    0    0  0.00000000000E+00  0.00000000000E+00  0.74505805969E-08  0.10566000000E+00  0.10566000000E+00 0. -1.
     999900   -1    0    0    0    0 -0.00000000000E+00 -0.00000000000E+00 -0.74505805969E-08  0.93827000000E+00  0.93827000000E+00 0.  1.
     999902    2    1    2    0    0  0.20118763693E-01  0.62732439669E-02 -0.10989822213E-01  0.10201624920E+01  0.10198855895E+01 0.  0.
     999903    2    3    3    0    0  0.94957963149E-01  0.69591738225E-01 -0.59800017187E-01  0.13337470873E+00  0.18781535586E-01 0.  0.
         14    1    1    2    0    0 -0.20118763693E-01 -0.62732439669E-02  0.10989822213E-01  0.23767507961E-01  0.00000000000E+00 0. -1.
     999901    1    3    3    0    0 -0.74839199457E-01 -0.63318494258E-01  0.48810194974E-01  0.88678778331E+00  0.88000000000E+00 0. -1.
        -11    1    4    4    0    0  0.69450853316E-01  0.53716360185E-01 -0.53029108567E-01  0.10257297819E+00  0.51100000000E-03 0.  1.
         11    1    4    4    0    0  0.25507109833E-01  0.15875378040E-01 -0.67709086203E-02  0.30801730544E-01  0.51100000000E-03 0. -1.
</event>
<event>
 8    1  0.1117354E+005  0.1043930E+01  0.7957747E-01            NaN
         13   -1    0    0    0    0  0.00000000000E+00  0.00000000000E+00  0.74505805969E-08  0.10566000000E+00  0.10566000000E+00 0.  1.
     999900   -1    0    0    0    0 -0.00000000000E+00 -0.00000000000E+00 -0.74505805969E-08  0.93827000000E+00  0.93827000000E+00 0.  1.
     999902    2    1    2    0    0 -0.22394054473E-01  0.37347341179E-02 -0.60142313644E-02  0.10204435594E+01  0.10201732426E+01 0.  0.
     999903    2    3    3    0    0  0.64248287709E-02  0.48998688750E-01  0.11857622502E+00  0.13004918863E+00  0.20256366847E-01 0.  0.
         14    1    1    2    0    0  0.22394054473E-01 -0.37347341179E-02  0.60142313644E-02  0.23486440633E-01  0.00000000000E+00 0. -1.
     999901    1    3    3    0    0 -0.28818883244E-01 -0.45263954632E-01 -0.12459045639E+00  0.89039437074E+00  0.88000000000E+00 0. -1.
        -11    1    4    4    0    0  0.80006497940E-02  0.24905150135E-01  0.83189917742E-01  0.87207226968E-01  0.51100000000E-03 0. -1.
         11    1    4    4    0    0 -0.15758210231E-02  0.24093538614E-01  0.35386307282E-01  0.42841961661E-01  0.51100000000E-03 0.  1.
</event>
<event>
 8    1  0.1117354E+005  0.1043930E+01  0.7957747E-01            NaN
         13   -1    0    0    0    0  0.00000000000E+00  0.00000000000E+00  0.74505805969E-08  0.10566000000E+00  0.10566000000E+00 0.  1.
     999900   -1    0    0    0    0 -0.00000000000E+00 -0.00000000000E+00 -0.74505805969E-08  0.93827000000E+00  0.93827000000E+00 0.  1.
     999902    2    1    2    0    0 -0.16849460678E-01  0.15650075474E-01  0.39094271135E-02  0.10206037742E+01  0.10203371753E+01 0.  0.
     999903    2    3    3    0    0 -0.72704147170E-01 -0.18807335053E-01 -0.10584312851E+00  0.13136101627E+00  0.20330761812E-01 0.  0.
         14    1    1    2    0    0  0.16849460678E-01 -0.15650075474E-01 -0.39094271135E-02  0.23326225752E-01  0.00000000000E+00 0.  1.
     999901    1    3    3    0    0  0.55854686492E-01  0.34457410527E-01  0.10975255563E+00  0.88924275797E+00  0.88000000000E+00 0.  1.
        -11    1    4    4    0    0 -0.49173579259E-02  0.13107960530E-02 -0.17341385925E-01  0.18079916539E-01  0.51100000000E-03 0.  1.
         11    1    4    4    0    0 -0.67786789244E-01 -0.20118131106E-01 -0.88501742587E-01  0.11328109973E+00  0.51100000000E-03 0. -1.
</event>
<event>
 8    1  0.1117354E+005  0.1043930E+01  0.7957747E-01            NaN
         13   -1    0    0    0    0  0.00000000000E+00  0.00000000000E+00  0.74505805969E-08  0.10566000000E+00  0.10566000000E+00 0.  1.
     999900   -1    0    0    0    0 -0.00000000000E+00 -0.00000000000E+00 -0.74505805969E-08  0.93827000000E+00  0.93827000000E+00 0. -1.
     999902    2    1    2    0    0  0.83103571343E-04  0.16788234399E-01 -0.53465355676E-02  0.10263107729E+01  0.10261595224E+01 0.  0.
     999903    2    3    3    0    0  0.40402031472E-01 -0.19157732532E-01  0.12577508177E+00  0.13495752812E+00  0.19870086522E-01 0.  0.
         14    1    1    2    0    0 -0.83103571343E-04 -0.16788234399E-01  0.53465355676E-02  0.17619227083E-01  0.00000000000E+00 0.  1.
     999901    1    3    3    0    0 -0.40318927901E-01  0.35945966931E-01 -0.13112161734E+00  0.89135324480E+00  0.88000000000E+00 0. -1.
        -11    1    4    4    0    0  0.14454261405E-01 -0.24396377655E-03  0.22019742474E-01  0.26346069360E-01  0.51100000000E-03 0. -1.
         11    1    4    4    0    0  0.25947770067E-01 -0.18913768756E-01  0.10375533929E+00  0.10861145876E+00  0.51100000000E-03 0.  1.
</event>
<event>
 8    1  0.1117354E+005  0.1043930E+01  0.7957747E-01            NaN
         13   -1    0    0    0    0  0.00000000000E+00  0.00000000000E+00  0.74505805969E-08  0.10566000000E+00  0.10566000000E+00 0. -1.
     999900   -1    0    0    0    0 -0.00000000000E+00 -0.00000000000E+00 -0.74505805969E-08  0.93827000000E+00  0.93827000000E+00 0.  1.
     999902    2    1    2    0    0  0.24228411571E-01  0.10691178945E-01  0.50388829817E-02  0.10169724857E+01  0.10166151332E+01 0.  0.
     999903    2    3    3    0    0  0.10099107054E+00 -0.49679609836E-01 -0.60001216122E-01  0.12918458738E+00  0.20524417600E-01 0.  0.
         14    1    1    2    0    0 -0.24228411571E-01 -0.10691178945E-01 -0.50388829817E-02  0.26957514281E-01  0.00000000000E+00 0. -1.
     999901    1    3    3    0    0 -0.76762658967E-01  0.60370788782E-01  0.65040099104E-01  0.88778789834E+00  0.88000000000E+00 0. -1.
        -11    1    4    4    0    0  0.14337561152E-01  0.31971958927E-03 -0.80876630634E-02  0.16472379768E-01  0.51100000000E-03 0.  1.
         11    1    4    4    0    0  0.86653509387E-01 -0.49999329426E-01 -0.51913553059E-01  0.11271220761E+00  0.51100000000E-03 0. -1.
</event>
<event>
 8    1  0.1117354E+005  0.1043930E+01  0.7957747E-01            NaN
         13   -1    0    0    0    0  0.00000000000E+00  0.00000000000E+00  0.74505805969E-08  0.10566000000E+00  0.10566000000E+00 0. -1.
     999900   -1    0    0    0    0 -0.00000000000E+00 -0.00000000000E+00 -0.74505805969E-08  0.93827000000E+00  0.93827000000E+00 0. -1.
     999902    2    1    2    0    0 -0.25423774714E-02 -0.22023817043E-01  0.10059551463E-01  0.10195844301E+01  0.10192937277E+01 0.  0.
     999903    2    3    3    0    0 -0.21804470016E-01 -0.10110725627E+00  0.81307894423E-01  0.13296075287E+00  0.19221756576E-01 0.  0.
         14    1    1    2    0    0  0.25423774714E-02  0.22023817043E-01 -0.10059551463E-01  0.24345569946E-01  0.00000000000E+00 0.  1.
     999901    1    3    3    0    0  0.19262092544E-01  0.79083439223E-01 -0.71248342960E-01  0.88662367718E+00  0.88000000000E+00 0. -1.
        -11    1    4    4    0    0 -0.72715017697E-02 -0.43176196253E-01  0.46313562645E-01  0.63735907201E-01  0.51100000000E-03 0.  1.
         11    1    4    4    0    0 -0.14532968246E-01 -0.57931060014E-01  0.34994331778E-01  0.69224845669E-01  0.51100000000E-03 0. -1.
</event>
<event>
 8    1  0.1117354E+005  0.1043930E+01  0.7957747E-01            NaN
         13   -1    0    0    0    0  0.00000000000E+00  0.00000000000E+00  0.74505805969E-08  0.10566000000E+00  0.10566000000E+00 0. -1.
     999900   -1    0    0    0    0 -0.00000000000E+00 -0.00000000000E+00 -0.74505805969E-08  0.93827000000E+00  0.93827000000E+00 0. -1.
     999902    2    1    2    0    0  0.12668014636E-01 -0.26390570404E-02 -0.20133685636E-01  0.10199965816E+01  0.10197157536E+01 0.  0.
     999903    2    3    3    0    0  0.46635487586E-01 -0.24865582331E-01  0.11559269872E+00  0.12866641888E+00  0.20005235882E-01 0.  0.
         14    1    1    2    0    0 -0.12668014636E-01  0.26390570404E-02  0.20133685636E-01  0.23933418355E-01  0.00000000000E+00 0. -1.
     999901    1    3    3    0    0 -0.33967472951E-01  0.22226525290E-01 -0.13572638436E+00  0.89133016277E+00  0.88000000000E+00 0. -1.
        -11    1    4    4    0    0  0.29735163491E-01 -0.13889470033E-01  0.48133182021E-01  0.58259434069E-01  0.51100000000E-03 0. -1.
         11    1    4    4    0    0  0.16900324096E-01 -0.10976112298E-01  0.67459516699E-01  0.70406984810E-01  0.51100000000E-03 0.  1.
</event>
<event>
 8    1  0.1117354E+005  0.1043930E+01  0.7957747E-01            NaN
         13   -1    0    0    0    0  0.00000000000E+00  0.00000000000E+00  0.74505805969E-08  0.10566000000E+00  0.10566000000E+00 0. -1.
     999900   -1    0    0    0    0 -0.00000000000E+00 -0.00000000000E+00 -0.74505805969E-08  0.93827000000E+00  0.93827000000E+00 0. -1.
     999902    2    1    2    0    0  0.98159974745E-02  0.73984263454E-02 -0.19826308763E-01  0.10206024832E+01  0.10203358544E+01 0.  0.
     999903    2    3    3    0    0 -0.63992287361E-01  0.36846479892E-01  0.10318261922E+00  0.12850044472E+00  0.20323273944E-01 0.  0.
         14    1    1    2    0    0 -0.98159974745E-02 -0.73984263454E-02  0.19826308763E-01  0.23327516756E-01  0.00000000000E+00 0. -1.
     999901    1    3    3    0    0  0.73808284836E-01 -0.29448053547E-01 -0.12300892798E+00  0.89210203852E+00  0.88000000000E+00 0. -1.
        -11    1    4    4    0    0 -0.50701785866E-01  0.21341780951E-01  0.84425278448E-01  0.10076721424E+00  0.51100000000E-03 0. -1.
         11    1    4    4    0    0 -0.13290501495E-01  0.15504698941E-01  0.18757340769E-01  0.27733230482E-01  0.51100000000E-03 0.  1.
</event>
<event>
 8    1  0.1117354E+005  0.1043930E+01  0.7957747E-01            NaN
         13   -1    0    0    0    0  0.00000000000E+00  0.00000000000E+00  0.74505805969E-08  0.10566000000E+00  0.10566000000E+00 0. -1.
     999900   -1    0    0    0    0 -0.00000000000E+00 -0.00000000000E+00 -0.74505805969E-08  0.93827000000E+00  0.93827000000E+00 0.  1.
     999902    2    1    2    0    0  0.16794399722E-01 -0.15799216434E-01 -0.11258620067E-02  0.10208446222E+01  0.10205835625E+01 0.  0.
     999903    2    3    3    0    0  0.85711760296E-01 -0.27243052213E-01 -0.95711985879E-01  0.13302307552E+00  0.21110770513E-01 0.  0.
         14    1    1    2    0    0 -0.16794399722E-01  0.15799216434E-01  0.11258620067E-02  0.23085377779E-01  0.00000000000E+00 0.  1.
     999901    1    3    3    0    0 -0.68917360573E-01  0.11443835779E-01  0.94586123873E-01  0.88782154671E+00  0.88000000000E+00 0. -1.
        -11    1    4    4    0    0  0.83675237434E-02 -0.39885574797E-02 -0.23543244347E-02  0.95774740359E-02  0.51100000000E-03 0. -1.
         11    1    4    4    0    0  0.77344236552E-01 -0.23254494733E-01 -0.93357661445E-01  0.12344560148E+00  0.51100000000E-03 0.  1.
</event>
<event>
 8    1  0.1117354E+005  0.1043930E+01  0.7957747E-01            NaN
         13   -1    0    0    0    0  0.00000000000E+00  0.00000000000E+00  0.74505805969E-08  0.10566000000E+00  0.10566000000E+00 0. -1.
     999900   -1    0    0    0    0 -0.00000000000E+00 -0.00000000000E+00 -0.74505805969E-08  0.93827000000E+00  0.93827000000E+00 0.  1.
     999902    2    1    2    0    0  0.53474075779E-02  0.16717654800E-01 -0.77905004189E-02  0.10247267022E+01  0.10245467522E+01 0.  0.
     999903    2    3    3    0    0  0.58110447099E-04 -0.74737012824E-02 -0.13374383882E+00  0.13541379785E+00  0.19839925415E-01 0.  0.
         14    1    1    2    0    0 -0.53474075779E-02 -0.16717654800E-01  0.77905004189E-02  0.19203297805E-01  0.00000000000E+00 0. -1.
     999901    1    3    3    0    0  0.52892971308E-02  0.24191356083E-01  0.12595333840E+00  0.88931290434E+00  0.88000000000E+00 0. -1.
        -11    1    4    4    0    0  0.87471508299E-02 -0.29153248337E-02 -0.94835838620E-01  0.95284359547E-01  0.51100000000E-03 0. -1.
         11    1    4    4    0    0 -0.86890403828E-02 -0.45583764486E-02 -0.38908000196E-01  0.40129438307E-01  0.51100000000E-03 0.  1.
</event>
<event>
 7    1  0.1117354E+005  0.1043930E+01  0.7957747E-01            NaN
         13   -1    0    0    0    0  0.00000000000E+00  0.00000000000E+00  0.74505805969E-08  0.10566000000E+00  0.10566000000E+00 0.  1.
     999900   -1    0    0    0    0 -0.00000000000E+00 -0.00000000000E+00 -0.74505805969E-08  0.93827000000E+00  0.93827000000E+00 0.  1.
     999902    2    1    2    0    0  0.83987556965E-02 -0.21789511459E-01 -0.37444278057E-02  0.10202795741E+01  0.10200054248E+01 0.  0.
         14    1    1    2    0    0 -0.83987556965E-02  0.21789511459E-01  0.37444278057E-02  0.23650425926E-01  0.00000000000E+00 0.  1.
     999901    1    3    3    0    0 -0.35888960939E-01 -0.58691434105E-01 -0.97404960189E-01  0.88804303287E+00  0.88000000000E+00 0.  1.
        -11    1    3    3    0    0  0.49393921540E-01 -0.62002612476E-02  0.46174028814E-01  0.67900697954E-01  0.51100000000E-03 0. -1.
         11    1    3    3    0    0 -0.51062049044E-02  0.43102183893E-01  0.47486503569E-01  0.64335843253E-01  0.51100000000E-03 0.  1.
</event>
<event>
 8    1  0.1117354E+005  0.1043930E+01  0.7957747E-01            NaN
         13   -1    0    0    0    0  0.00000000000E+00  0.00000000000E+00  0.74505805969E-08  0.10566000000E+00  0.10566000000E+00 0.  1.
     999900   -1    0    0    0    0 -0.00000000000E+00 -0.00000000000E+00 -0.74505805969E-08  0.93827000000E+00  0.93827000000E+00 0. -1.
     999902    2    1    2    0    0  0.91805958282E-02 -0.13041877037E-01  0.16375770600E-01  0.10210708714E+01  0.10208149611E+01 0.  0.
     999903    2    3    3    0    0 -0.10270003610E+00 -0.13220320731E-02  0.79784393316E-01  0.13164674088E+00  0.20402690559E-01 0.  0.
         14    1    1    2    0    0 -0.91805958282E-02  0.13041877037E-01 -0.16375770600E-01  0.22859128574E-01  0.00000000000E+00 0. -1.
     999901    1    3    3    0    0  0.11188063193E+00 -0.11719844964E-01 -0.63408622716E-01  0.88942413055E+00  0.88000000000E+00 0. -1.
        -11    1    4    4    0    0 -0.10210262988E-01 -0.35158972749E-02  0.24983892338E-02  0.11095678154E-01  0.51100000000E-03 0. -1.
         11    1    4    4    0    0 -0.92489773116E-01  0.21938652018E-02  0.77286004083E-01  0.12055106272E+00  0.51100000000E-03 0.  1.
</event>
<event>
 8    1  0.1117354E+005  0.1043930E+01  0.7957747E-01            NaN
         13   -1    0    0    0    0  0.00000000000E+00  0.00000000000E+00  0.74505805969E-08  0.10566000000E+00  0.10566000000E+00 0.  1.
     999900   -1    0    0    0    0 -0.00000000000E+00 -0.00000000000E+00 -0.74505805969E-08  0.93827000000E+00  0.93827000000E+00 0.  1.
     999902    2    1    2    0    0  0.23475490953E-01  0.13580808741E-03  0.26604790777E-02  0.10203038436E+01  0.10200302632E+01 0.  0.
     999903    2    3    3    0    0 -0.60075980700E-01  0.60059849808E-01 -0.94912399523E-01  0.12896092087E+00  0.20155557841E-01 0.  0.
         14    1    1    2    0    0 -0.23475490953E-01 -0.13580808741E-03 -0.26604790777E-02  0.23626156442E-01  0.00000000000E+00 0. -1.
     999901    1    3    3    0    0  0.83551471653E-01 -0.59924041720E-01  0.97572878601E-01  0.89134292269E+00  0.88000000000E+00 0. -1.
        -11    1    4    4    0    0 -0.55257031318E-01  0.47614113534E-01 -0.86612472600E-01  0.11323614639E+00  0.51100000000E-03 0. -1.
         11    1    4    4    0    0 -0.48189493824E-02  0.12445736274E-01 -0.82999269226E-02  0.15724774481E-01  0.51100000000E-03 0.  1.
</event>
<event>
 8    1  0.1117354E+005  0.1043930E+01  0.7957747E-01            NaN
         13   -1    0    0    0    0  0.00000000000E+00  0.00000000000E+00  0.74505805969E-08  0.10566000000E+00  0.10566000000E+00 0. -1.
     999900   -1    0    0    0    0 -0.00000000000E+00 -0.00000000000E+00 -0.74505805969E-08  0.93827000000E+00  0.93827000000E+00 0. -1.
     999902    2    1    2    0    0  0.16592461344E-01  0.11246390268E-01  0.14787622252E-01  0.10190208684E+01  0.10187163812E+01 0.  0.
     999903    2    3    3    0    0 -0.83464860039E-01  0.68290702135E-01 -0.65811641547E-01  0.12786332762E+00  0.19694048034E-01 0.  0.
         14    1    1    2    0    0 -0.16592461344E-01 -0.11246390268E-01 -0.14787622252E-01  0.24909131646E-01  0.00000000000E+00 0. -1.
     999901    1    3    3    0    0  0.10005732138E+00 -0.57044311867E-01  0.80599263798E-01  0.89115754073E+00  0.88000000000E+00 0.  1.
        -11    1    4    4    0    0 -0.16619231366E-01  0.22150219966E-01 -0.10627495750E-01  0.29665398744E-01  0.51100000000E-03 0. -1.
         11    1    4    4    0    0 -0.66845628674E-01  0.46140482169E-01 -0.55184145797E-01  0.98197928878E-01  0.51100000000E-03 0.  1.
</event>
<event>
 8    1  0.1117354E+005  0.1043930E+01  0.7957747E-01            NaN
         13   -1    0    0    0    0  0.00000000000E+00  0.00000000000E+00  0.74505805969E-08  0.10566000000E+00  0.10566000000E+00 0.  1.
     999900   -1    0    0    0    0 -0.00000000000E+00 -0.00000000000E+00 -0.74505805969E-08  0.93827000000E+00  0.93827000000E+00 0. -1.
     999902    2    1    2    0    0 -0.23236713600E-01  0.10128353658E-01 -0.49201817414E-02  0.10181087569E+01  0.10177812654E+01 0.  0.
     999903    2    3    3    0    0  0.28101049377E-01  0.10454301846E+00  0.66811298437E-01  0.12867348658E+00  0.19344375535E-01 0.  0.
         14    1    1    2    0    0  0.23236713600E-01 -0.10128353658E-01  0.49201817414E-02  0.25821243098E-01  0.00000000000E+00 0.  1.
     999901    1    3    3    0    0 -0.51337762977E-01 -0.94414664807E-01 -0.71731480179E-01  0.88943527032E+00  0.88000000000E+00 0. -1.
        -11    1    4    4    0    0  0.15865690215E-02  0.36701963005E-01  0.27583546766E-01  0.45941968426E-01  0.51100000000E-03 0. -1.
         11    1    4    4    0    0  0.26514480355E-01  0.67841055460E-01  0.39227751671E-01  0.82731518157E-01  0.51100000000E-03 0.  1.
</event>
<event>
 8    1  0.1117354E+005  0.1043930E+01  0.7957747E-01            NaN
         13   -1    0    0    0    0  0.00000000000E+00  0.00000000000E+00  0.74505805969E-08  0.10566000000E+00  0.10566000000E+00 0.  1.
     999900   -1    0    0    0    0 -0.00000000000E+00 -0.00000000000E+00 -0.74505805969E-08  0.93827000000E+00  0.93827000000E+00 0.  1.
     999902    2    1    2    0    0  0.51839469576E-02  0.14175922015E-01 -0.18157813119E-01  0.10203177945E+01  0.10200445410E+01 0.  0.
     999903    2    3    3    0    0 -0.22956100200E-01  0.98581065530E-01 -0.84465946317E-01  0.13334944161E+00  0.20059124453E-01 0.  0.
         14    1    1    2    0    0 -0.51839469576E-02 -0.14175922015E-01  0.18157813119E-01  0.23612205494E-01  0.00000000000E+00 0.  1.
     999901    1    3    3    0    0  0.28140047157E-01 -0.84405143515E-01  0.66308133198E-01  0.88696835289E+00  0.88000000000E+00 0.  1.
        -11    1    4    4    0    0 -0.24724240243E-01  0.73805714045E-01 -0.69469805930E-01  0.10433065963E+00  0.51100000000E-03 0. -1.
         11    1    4    4    0    0  0.17681400436E-02  0.24775351485E-01 -0.14996140386E-01  0.29018781986E-01  0.51100000000E-03 0.  1.
</event>
<event>
 8    1  0.1117354E+005  0.1043930E+01  0.7957747E-01            NaN
         13   -1    0    0    0    0  0.00000000000E+00  0.00000000000E+00  0.74505805969E-08  0.10566000000E+00  0.10566000000E+00 0. -1.
     999900   -1    0    0    0    0 -0.00000000000E+00 -0.00000000000E+00 -0.74505805969E-08  0.93827000000E+00  0.93827000000E+00 0. -1.
     999902    2    1    2    0    0 -0.11329788817E-01 -0.20801561413E-01 -0.46191752544E-02  0.10197969138E+01  0.10195113238E+01 0.  0.
     999903    2    3    3    0    0 -0.57334392870E-01 -0.11851580152E+00 -0.37893591792E-03  0.13318399035E+00  0.20114767612E-01 0.  0.
         14    1    1    2    0    0  0.11329788817E-01  0.20801561413E-01  0.46191752544E-02  0.24133086248E-01  0.00000000000E+00 0. -1.
     999901    1    3    3    0    0  0.46004604053E-01  0.97714240112E-01 -0.42402393365E-02  0.88661292340E+00  0.88000000000E+00 0.  1.
        -11    1    4    4    0    0 -0.37077963466E-01 -0.71751820117E-01 -0.97855285536E-02  0.81357954466E-01  0.51100000000E-03 0. -1.
         11    1    4    4    0    0 -0.20256429404E-01 -0.46763981408E-01  0.94065926357E-02  0.51826035883E-01  0.51100000000E-03 0.  1.
</event>
<event>
 8    1  0.1117354E+005  0.1043930E+01  0.7957747E-01            NaN
         13   -1    0    0    0    0  0.00000000000E+00  0.00000000000E+00  0.74505805969E-08  0.10566000000E+00  0.10566000000E+00 0. -1.
     999900   -1    0    0    0    0 -0.00000000000E+00 -0.00000000000E+00 -0.74505805969E-08  0.93827000000E+00  0.93827000000E+00 0.  1.
     999902    2    1    2    0    0  0.11045257083E-01  0.12114395080E-02 -0.20589474819E-01  0.10205335951E+01  0.10202653708E+01 0.  0.
     999903    2    3    3    0    0  0.71725123532E-01  0.61699137100E-01 -0.92068685740E-01  0.13348788862E+00  0.19776163708E-01 0.  0.
         14    1    1    2    0    0 -0.11045257083E-01 -0.12114395080E-02  0.20589474819E-01  0.23396404917E-01  0.00000000000E+00 0. -1.
     999901    1    3    3    0    0 -0.60679866450E-01 -0.60487697592E-01  0.71479210921E-01  0.88704570646E+00  0.88000000000E+00 0. -1.
        -11    1    4    4    0    0  0.37975682126E-01  0.24898205372E-01 -0.54836825114E-01  0.71199800374E-01  0.51100000000E-03 0.  1.
         11    1    4    4    0    0  0.33749441406E-01  0.36800931728E-01 -0.37231860626E-01  0.62288088251E-01  0.51100000000E-03 0. -1.
</event>
<event>
 8    1  0.1117354E+005  0.1043930E+01  0.7957747E-01            NaN
         13   -1    0    0    0    0  0.00000000000E+00  0.00000000000E+00  0.74505805969E-08  0.10566000000E+00  0.10566000000E+00 0.  1.
     999900   -1    0    0    0    0 -0.00000000000E+00 -0.00000000000E+00 -0.74505805969E-08  0.93827000000E+00  0.93827000000E+00 0.  1.
     999902    2    1    2    0    0 -0.20807721390E-01  0.87939089354E-02 -0.85365012582E-02  0.10197811707E+01  0.10194952036E+01 0.  0.
     999903    2    3    3    0    0 -0.96452913498E-01 -0.67095984721E-02  0.86376651878E-01  0.13131560552E+00  0.20848957537E-01 0.  0.
         14    1    1    2    0    0  0.20807721390E-01 -0.87939089354E-02  0.85365012582E-02  0.24148829320E-01  0.00000000000E+00 0.  1.
     999901    1    3    3    0    0  0.75645192109E-01  0.15503507408E-01 -0.94913153136E-01  0.88846556516E+00  0.88000000000E+00 0.  1.
        -11    1    4    4    0    0 -0.40391430239E-01 -0.10969471470E-01  0.45341546603E-01  0.61708296933E-01  0.51100000000E-03 0.  1.
         11    1    4    4    0    0 -0.56061483260E-01  0.42598729982E-02  0.41035105275E-01  0.69607308590E-01  0.51100000000E-03 0. -1.
</event>
<event>
 8    1  0.1117354E+005  0.1043930E+01  0.7957747E-01            NaN
         13   -1    0    0    0    0  0.00000000000E+00  0.00000000000E+00  0.74505805969E-08  0.10566000000E+00  0.10566000000E+00 0.  1.
     999900   -1    0    0    0    0 -0.00000000000E+00 -0.00000000000E+00 -0.74505805969E-08  0.93827000000E+00  0.93827000000E+00 0. -1.
     999902    2    1    2    0    0  0.73071504907E-02 -0.18455158417E-01  0.13170348928E-01  0.10201088873E+01  0.10198307195E+01 0.  0.
     999903    2    3    3    0    0 -0.23068252054E-01  0.76321300075E-01 -0.97642917423E-01  0.12759288061E+00  0.19715951933E-01 0.  0.
         14    1    1    2    0    0 -0.73071504907E-02  0.18455158417E-01 -0.13170348928E-01  0.23821112723E-01  0.00000000000E+00 0. -1.
     999901    1    3    3    0    0  0.30375402545E-01 -0.94776458492E-01  0.11081326635E+00  0.89251600667E+00  0.88000000000E+00 0.  1.
        -11    1    4    4    0    0 -0.17310053675E-01  0.25863794628E-01 -0.41687383963E-01  0.52025694935E-01  0.51100000000E-03 0.  1.
         11    1    4    4    0    0 -0.57581983788E-02  0.50457505447E-01 -0.55955533460E-01  0.75567185671E-01  0.51100000000E-03 0. -1.
</event>
<event>
 8    1  0.1117354E+005  0.1043930E+01  0.7957747E-01            NaN
         13   -1    0    0    0    0  0.00000000000E+00  0.00000000000E+00  0.74505805969E-08  0.10566000000E+00  0.10566000000E+00 0.  1.
     999900   -1    0    0    0    0 -0.00000000000E+00 -0.00000000000E+00 -0.74505805969E-08  0.93827000000E+00  0.93827000000E+00 0.  1.
     999902    2    1    2    0    0 -0.67266034424E-02 -0.73236586701E-02  0.21711190500E-01  0.10200499045E+01  0.10197703411E+01 0.  0.
     999903    2    3    3    0    0  0.10827879340E+00 -0.68950786635E-01 -0.52488042981E-02  0.13002126137E+00  0.19986755208E-01 0.  0.
         14    1    1    2    0    0  0.67266034424E-02  0.73236586701E-02 -0.21711190500E-01  0.23880095542E-01  0.00000000000E+00 0. -1.
     999901    1    3    3    0    0 -0.11500539684E+00  0.61627127965E-01  0.26959994798E-01  0.89002864309E+00  0.88000000000E+00 0.  1.
        -11    1    4    4    0    0  0.56691274169E-01 -0.34241884609E-01 -0.12564842523E-01  0.67413230283E-01  0.51100000000E-03 0.  1.
         11    1    4    4    0    0  0.51587519228E-01 -0.34708902025E-01  0.73160382249E-02  0.62608031084E-01  0.51100000000E-03 0. -1.
</event>
<event>
 8    1  0.1117354E+005  0.1043930E+01  0.7957747E-01            NaN
         13   -1    0    0    0    0  0.00000000000E+00  0.00000000000E+00  0.74505805969E-08  0.10566000000E+00  0.10566000000E+00 0.  1.
     999900   -1    0    0    0    0 -0.00000000000E+00 -0.00000000000E+00 -0.74505805969E-08  0.93827000000E+00  0.93827000000E+00 0.  1.
     999902    2    1    2    0    0 -0.60531891569E-02 -0.48685667905E-02  0.23824943883E-01  0.10188706306E+01  0.10185624134E+01 0.  0.
     999903    2    3    3    0    0 -0.42645922252E-01  0.32083132446E-01  0.11919990711E+00  0.13219095917E+00  0.20440884526E-01 0.  0.
         14    1    1    2    0    0  0.60531891569E-02  0.48685667905E-02 -0.23824943883E-01  0.25059369358E-01  0.00000000000E+00 0. -1.
     999901    1    3    3    0    0  0.36592733095E-01 -0.36951699237E-01 -0.95374963222E-01  0.88667967147E+00  0.88000000000E+00 0.  1.
        -11    1    4    4    0    0 -0.32850840635E-01  0.12433102889E-01  0.76186071275E-01  0.83894805293E-01  0.51100000000E-03 0.  1.
         11    1    4    4    0    0 -0.97950816169E-02  0.19650029558E-01  0.43013835830E-01  0.48296153877E-01  0.51100000000E-03 0. -1.
</event>
<event>
 8    1  0.1117354E+005  0.1043930E+01  0.7957747E-01            NaN
         13   -1    0    0    0    0  0.00000000000E+00  0.00000000000E+00  0.74505805969E-08  0.10566000000E+00  0.10566000000E+00 0. -1.
     999900   -1    0    0    0    0 -0.00000000000E+00 -0.00000000000E+00 -0.74505805969E-08  0.93827000000E+00  0.93827000000E+00 0. -1.
     999902    2    1    2    0    0 -0.15385615068E-01  0.48895274880E-02 -0.16133850008E-01  0.10211062022E+01  0.10208510912E+01 0.  0.
     999903    2    3    3    0    0  0.23181723521E-01  0.12954535789E-01 -0.12898600350E+00  0.13302507273E+00  0.18790119051E-01 0.  0.
         14    1    1    2    0    0  0.15385615068E-01 -0.48895274880E-02  0.16133850008E-01  0.22823797803E-01  0.00000000000E+00 0. -1.
     999901    1    3    3    0    0 -0.38567338589E-01 -0.80650083010E-02  0.11285215349E+00  0.88808112947E+00  0.88000000000E+00 0.  1.
        -11    1    4    4    0    0  0.20417538782E-01  0.13435684710E-01 -0.73364196815E-01  0.77330201144E-01  0.51100000000E-03 0.  1.
         11    1    4    4    0    0  0.27641847389E-02 -0.48114892146E-03 -0.55621806683E-01  0.55694871588E-01  0.51100000000E-03 0. -1.
</event>
<event>
 8    1  0.1117354E+005  0.1043930E+01  0.7957747E-01            NaN
         13   -1    0    0    0    0  0.00000000000E+00  0.00000000000E+00  0.74505805969E-08  0.10566000000E+00  0.10566000000E+00 0. -1.
     999900   -1    0    0    0    0 -0.00000000000E+00 -0.00000000000E+00 -0.74505805969E-08  0.93827000000E+00  0.93827000000E+00 0. -1.
     999902    2    1    2    0    0 -0.19389948747E-01 -0.10721031143E-01  0.12253031174E-01  0.10186110862E+01  0.10182963702E+01 0.  0.
     999903    2    3    3    0    0  0.41311228032E-01 -0.32446553443E-01  0.11716457722E+00  0.13003747439E+00  0.20562349069E-01 0.  0.
         14    1    1    2    0    0  0.19389948747E-01  0.10721031143E-01 -0.12253031174E-01  0.25318913763E-01  0.00000000000E+00 0.  1.
     999901    1    3    3    0    0 -0.60701176779E-01  0.21725522300E-01 -0.10491154604E+00  0.88857361185E+00  0.88000000000E+00 0. -1.
        -11    1    4    4    0    0  0.32300990088E-01 -0.14498886036E-01  0.85445510521E-01  0.92491989092E-01  0.51100000000E-03 0. -1.
         11    1    4    4    0    0  0.90102379439E-02 -0.17947667407E-01  0.31719066695E-01  0.37545485296E-01  0.51100000000E-03 0.  1.
</event>
<event>
 8    1  0.1117354E+005  0.1043930E+01  0.7957747E-01            NaN
         13   -1    0    0    0    0  0.00000000000E+00  0.00000000000E+00  0.74505805969E-08  0.10566000000E+00  0.10566000000E+00 0.  1.
     999900   -1    0    0    0    0 -0.00000000000E+00 -0.00000000000E+00 -0.74505805969E-08  0.93827000000E+00  0.93827000000E+00 0.  1.
     999902    2    1    2    0    0  0.17984569453E-01  0.15454710614E-01  0.32255875113E-02  0.10199989066E+01  0.10197181337E+01 0.  0.
     999903    2    3    3    0    0  0.70048831298E-01  0.87954386770E-01 -0.67592921013E-01  0.13265334165E+00  0.19628885928E-01 0.  0.
         14    1    1    2    0    0 -0.17984569453E-01 -0.15454710614E-01 -0.32255875113E-02  0.23931093442E-01  0.00000000000E+00 0.  1.
     999901    1    3    3    0    0 -0.52064261845E-01 -0.72499676156E-01  0.70818508524E-01  0.88734556490E+00  0.88000000000E+00 0.  1.
        -11    1    4    4    0    0  0.59620069193E-02  0.11120992302E-02 -0.50694429231E-02  0.79210266856E-02  0.51100000000E-03 0.  1.
         11    1    4    4    0    0  0.64086824379E-01  0.86842287539E-01 -0.62523478090E-01  0.12473231497E+00  0.51100000000E-03 0. -1.
</event>
<event>
 8    1  0.1117354E+005  0.1043930E+01  0.7957747E-01            NaN
         13   -1    0    0    0    0  0.00000000000E+00  0.00000000000E+00  0.74505805969E-08  0.10566000000E+00  0.10566000000E+00 0.  1.
     999900   -1    0    0    0    0 -0.00000000000E+00 -0.00000000000E+00 -0.74505805969E-08  0.93827000000E+00  0.93827000000E+00 0.  1.
     999902    2    1    2    0    0 -0.81956965803E-02 -0.40227371757E-02  0.22159359459E-01  0.10199635846E+01  0.10196819724E+01 0.  0.
     999903    2    3    3    0    0 -0.52620376188E-01 -0.11223000465E+00 -0.35117502332E-01  0.13037772374E+00  0.20015842322E-01 0.  0.
         14    1    1    2    0    0  0.81956965803E-02  0.40227371757E-02 -0.22159359459E-01  0.23966415428E-01  0.00000000000E+00 0. -1.
     999901    1    3    3    0    0  0.44424679607E-01  0.10820726748E+00  0.57276861791E-01  0.88958586083E+00  0.88000000000E+00 0.  1.
        -11    1    4    4    0    0 -0.23302185910E-01 -0.43692780438E-01 -0.23919154906E-01  0.54994890881E-01  0.51100000000E-03 0. -1.
         11    1    4    4    0    0 -0.29318190278E-01 -0.68537224214E-01 -0.11198347425E-01  0.75382832861E-01  0.51100000000E-03 0.  1.
</event>
<event>
 8    1  0.1117354E+005  0.1043930E+01  0.7957747E-01            NaN
         13   -1    0    0    0    0  0.00000000000E+00  0.00000000000E+00  0.74505805969E-08  0.10566000000E+00  0.10566000000E+00 0. -1.
     999900   -1    0    0    0    0 -0.00000000000E+00 -0.00000000000E+00 -0.74505805969E-08  0.93827000000E+00  0.93827000000E+00 0. -1.
     999902    2    1    2    0    0 -0.86036493840E-02  0.19643784114E-01 -0.90353415034E-02  0.10206590217E+01  0.10203936986E+01 0.  0.
     999903    2    3    3    0    0  0.10630268138E+00  0.61337906858E-01 -0.43069379343E-01  0.13155825096E+00  0.19748495468E-01 0.  0.
         14    1    1    2    0    0  0.86036493840E-02 -0.19643784114E-01  0.90353415034E-02  0.23270978345E-01  0.00000000000E+00 0. -1.
     999901    1    3    3    0    0 -0.11490633076E+00 -0.41694122743E-01  0.34034037840E-01  0.88910077070E+00  0.88000000000E+00 0.  1.
        -11    1    4    4    0    0  0.18257171511E-01  0.70507527378E-02 -0.14142734834E-01  0.24151925292E-01  0.51100000000E-03 0.  1.
         11    1    4    4    0    0  0.88045509864E-01  0.54287154120E-01 -0.28926644509E-01  0.10740632567E+00  0.51100000000E-03 0. -1.
</event>
<event>
 8    1  0.1117354E+005  0.1043930E+01  0.7957747E-01            NaN
         13   -1    0    0    0    0  0.00000000000E+00  0.00000000000E+00  0.74505805969E-08  0.10566000000E+00  0.10566000000E+00 0.  1.
     999900   -1    0    0    0    0 -0.00000000000E+00 -0.00000000000E+00 -0.74505805969E-08  0.93827000000E+00  0.93827000000E+00 0.  1.
     999902    2    1    2    0    0  0.10731224468E-01  0.21309448625E-01  0.44443867261E-02  0.10196605881E+01  0.10193717235E+01 0.  0.
     999903    2    3    3    0    0  0.80629729050E-01 -0.26756291916E-01  0.97371464155E-01  0.13071089434E+00  0.19674437854E-01 0.  0.
         14    1    1    2    0    0 -0.10731224468E-01 -0.21309448625E-01 -0.44443867261E-02  0.24269411873E-01  0.00000000000E+00 0.  1.
     999901    1    3    3    0    0 -0.69898504582E-01  0.48065740541E-01 -0.92927077429E-01  0.88894969378E+00  0.88000000000E+00 0. -1.
        -11    1    4    4    0    0  0.72584865275E-01 -0.29578723467E-01  0.84426862212E-01  0.11520251617E+00  0.51100000000E-03 0. -1.
         11    1    4    4    0    0  0.80448637758E-02  0.28224315504E-02  0.12944601943E-01  0.15508378171E-01  0.51100000000E-03 0.  1.
</event>
<event>
 8    1  0.1117354E+005  0.1043930E+01  0.7957747E-01            NaN
         13   -1    0    0    0    0  0.00000000000E+00  0.00000000000E+00  0.74505805969E-08  0.10566000000E+00  0.10566000000E+00 0. -1.
     999900   -1    0    0    0    0 -0.00000000000E+00 -0.00000000000E+00 -0.74505805969E-08  0.93827000000E+00  0.93827000000E+00 0.  1.
     999902    2    1    2    0    0  0.16735927133E-01 -0.99250412901E-02 -0.13516420834E-01  0.10202384122E+01  0.10199632966E+01 0.  0.
     999903    2    3    3    0    0 -0.10359795068E+00  0.45012267682E-01 -0.59634168314E-01  0.12915749739E+00  0.19151644167E-01 0.  0.
         14    1    1    2    0    0 -0.16735927133E-01  0.99250412901E-02  0.13516420834E-01  0.23691587827E-01  0.00000000000E+00 0. -1.
     999901    1    3    3    0    0  0.12033387781E+00 -0.54937308972E-01  0.46117747480E-01  0.89108091479E+00  0.88000000000E+00 0. -1.
        -11    1    4    4    0    0 -0.96691713363E-01  0.36257052601E-01 -0.51888413422E-01  0.11557045412E+00  0.51100000000E-03 0.  1.
         11    1    4    4    0    0 -0.69062373131E-02  0.87552150810E-02 -0.77457548916E-02  0.13587043269E-01  0.51100000000E-03 0. -1.
</event>
<event>
 8    1  0.1117354E+005  0.1043930E+01  0.7957747E-01            NaN
         13   -1    0    0    0    0  0.00000000000E+00  0.00000000000E+00  0.74505805969E-08  0.10566000000E+00  0.10566000000E+00 0. -1.
     999900   -1    0    0    0    0 -0.00000000000E+00 -0.00000000000E+00 -0.74505805969E-08  0.93827000000E+00  0.93827000000E+00 0. -1.
     999902    2    1    2    0    0  0.40060454025E-02 -0.18517740806E-01  0.14628668103E-01  0.10199935622E+01  0.10197126624E+01 0.  0.
     999903    2    3    3    0    0  0.17085787868E-01 -0.12568739213E+00 -0.31222713980E-01  0.13221050138E+00  0.20384163464E-01 0.  0.
         14    1    1    2    0    0 -0.40060454025E-02  0.18517740806E-01 -0.14628668103E-01  0.23936437805E-01  0.00000000000E+00 0.  1.
     999901    1    3    3    0    0 -0.13079742465E-01  0.10716965132E+00  0.45851382083E-01  0.88778306081E+00  0.88000000000E+00 0. -1.
        -11    1    4    4    0    0  0.14941867790E-02 -0.61796901586E-01 -0.73865299569E-02  0.62256819590E-01  0.51100000000E-03 0. -1.
         11    1    4    4    0    0  0.15591601089E-01 -0.63890490544E-01 -0.23836184024E-01  0.69953681792E-01  0.51100000000E-03 0.  1.
</event>
<event>
 8    1  0.1117354E+005  0.1043930E+01  0.7957747E-01            NaN
         13   -1    0    0    0    0  0.00000000000E+00  0.00000000000E+00  0.74505805969E-08  0.10566000000E+00  0.10566000000E+00 0.  1.
     999900   -1    0    0    0    0 -0.00000000000E+00 -0.00000000000E+00 -0.74505805969E-08  0.93827000000E+00  0.93827000000E+00 0. -1.
     999902    2    1    2    0    0  0.20583940345E-01  0.12650847577E-01 -0.23965363071E-02  0.10196506687E+01  0.10193615650E+01 0.  0.
     999903    2    3    3    0    0  0.83518043976E-01 -0.51766781598E-01 -0.84734085019E-01  0.13123083306E+00  0.19662223528E-01 0.  0.
         14    1    1    2    0    0 -0.20583940345E-01 -0.12650847577E-01  0.23965363071E-02  0.24279331350E-01  0.00000000000E+00 0. -1.
     999901    1    3    3    0    0 -0.62934103632E-01  0.64417629175E-01  0.82337548712E-01  0.88841983559E+00  0.88000000000E+00 0.  1.
        -11    1    4    4    0    0  0.52958370570E-01 -0.43527893389E-01 -0.58050452724E-01  0.89829742841E-01  0.51100000000E-03 0.  1.
         11    1    4    4    0    0  0.30559673406E-01 -0.82388882084E-02 -0.26683632295E-01  0.41401090216E-01  0.51100000000E-03 0. -1.
</event>
<event>
 8    1  0.1117354E+005  0.1043930E+01  0.7957747E-01            NaN
         13   -1    0    0    0    0  0.00000000000E+00  0.00000000000E+00  0.74505805969E-08  0.10566000000E+00  0.10566000000E+00 0. -1.
     999900   -1    0    0    0    0 -0.00000000000E+00 -0.00000000000E+00 -0.74505805969E-08  0.93827000000E+00  0.93827000000E+00 0.  1.
     999902    2    1    2    0    0 -0.34506485916E-02  0.23618188287E-01 -0.20307185892E-02  0.10199748416E+01  0.10196934971E+01 0.  0.
     999903    2    3    3    0    0 -0.92395827375E-02  0.13143740390E+00 -0.17723953899E-02  0.13337540462E+00  0.20608157064E-01 0.  0.
         14    1    1    2    0    0  0.34506485916E-02 -0.23618188287E-01  0.20307185892E-02  0.23955158352E-01  0.00000000000E+00 0. -1.
     999901    1    3    3    0    0  0.57889341459E-02 -0.10781921561E+00 -0.25832319925E-03  0.88659943703E+00  0.88000000000E+00 0. -1.
        -11    1    4    4    0    0 -0.15495172754E-01  0.10376889038E+00 -0.31825613510E-02  0.10496891353E+00  0.51100000000E-03 0. -1.
         11    1    4    4    0    0  0.62555900162E-02  0.27668513524E-01  0.14101659611E-02  0.28406491091E-01  0.51100000000E-03 0.  1.
</event>
<event>
 8    1  0.1117354E+005  0.1043930E+01  0.7957747E-01            NaN
         13   -1    0    0    0    0  0.00000000000E+00  0.00000000000E+00  0.74505805969E-08  0.10566000000E+00  0.10566000000E+00 0.  1.
     999900   -1    0    0    0    0 -0.00000000000E+00 -0.00000000000E+00 -0.74505805969E-08  0.93827000000E+00  0.93827000000E+00 0. -1.
     999902    2    1    2    0    0 -0.10794630759E-02  0.13471863658E-01  0.19365087283E-01  0.10203151116E+01  0.10200417952E+01 0.  0.
     999903    2    3    3    0    0  0.73013594427E-01 -0.61884505419E-01  0.87580544703E-01  0.13137095573E+00  0.20671217136E-01 0.  0.
         14    1    1    2    0    0  0.10794630759E-02 -0.13471863658E-01 -0.19365087283E-01  0.23614888449E-01  0.00000000000E+00 0. -1.
     999901    1    3    3    0    0 -0.74093057503E-01  0.75356369077E-01 -0.68215457420E-01  0.88894415582E+00  0.88000000000E+00 0. -1.
        -11    1    4    4    0    0  0.48450996011E-01 -0.51670055799E-01  0.69249462197E-01  0.99060803632E-01  0.51100000000E-03 0.  1.
         11    1    4    4    0    0  0.24562598416E-01 -0.10214449620E-01  0.18331082506E-01  0.32310152102E-01  0.51100000000E-03 0. -1.
</event>
<event>
 8    1  0.1117354E+005  0.1043930E+01  0.7957747E-01            NaN
         13   -1    0    0    0    0  0.00000000000E+00  0.00000000000E+00  0.74505805969E-08  0.10566000000E+00  0.10566000000E+00 0.  1.
     999900   -1    0    0    0    0 -0.00000000000E+00 -0.00000000000E+00 -0.74505805969E-08  0.93827000000E+00  0.93827000000E+00 0.  1.
     999902    2    1    2    0    0 -0.18565027209E-01 -0.79841457250E-02 -0.12169394880E-01  0.10203397268E+01  0.10200669866E+01 0.  0.
     999903    2    3    3    0    0  0.13149396173E-02 -0.11315878402E+00  0.62689599055E-01  0.13069890793E+00  0.18589761591E-01 0.  0.
         14    1    1    2    0    0  0.18565027209E-01  0.79841457250E-02  0.12169394880E-01  0.23590273207E-01  0.00000000000E+00 0.  1.
     999901    1    3    3    0    0 -0.19879966826E-01  0.10517463830E+00 -0.74858993935E-01  0.88964081887E+00  0.88000000000E+00 0.  1.
        -11    1    4    4    0    0  0.70547102799E-02 -0.24980715220E-01  0.18647296175E-01  0.31965416401E-01  0.51100000000E-03 0.  1.
         11    1    4    4    0    0 -0.57397706626E-02 -0.88178068802E-01  0.44042302880E-01  0.98733491526E-01  0.51100000000E-03 0. -1.
</event>
<event>
 8    1  0.1117354E+005  0.1043930E+01  0.7957747E-01            NaN
         13   -1    0    0    0    0  0.00000000000E+00  0.00000000000E+00  0.74505805969E-08  0.10566000000E+00  0.10566000000E+00 0.  1.
     999900   -1    0    0    0    0 -0.00000000000E+00 -0.00000000000E+00 -0.74505805969E-08  0.93827000000E+00  0.93827000000E+00 0. -1.
     999902    2    1    2    0    0 -0.41638793921E-02 -0.22226002950E-01 -0.80143214380E-02  0.10199391174E+01  0.10196569231E+01 0.  0.
     999903    2    3    3    0    0 -0.80002206476E-01 -0.91498253972E-02 -0.10221594787E+00  0.13157185964E+00  0.19467457599E-01 0.  0.
         14    1    1    2    0    0  0.41638793921E-02  0.22226002950E-01  0.80143214380E-02  0.23990882577E-01  0.00000000000E+00 0.  1.
     999901    1    3    3    0    0  0.75838327084E-01 -0.13076177553E-01  0.94201626430E-01  0.88836725778E+00  0.88000000000E+00 0.  1.
        -11    1    4    4    0    0 -0.28622065306E-01 -0.40507582673E-02 -0.52271033463E-01  0.59734021506E-01  0.51100000000E-03 0.  1.
         11    1    4    4    0    0 -0.51380141170E-01 -0.50990671299E-02 -0.49944914404E-01  0.71837838137E-01  0.51100000000E-03 0. -1.
</event>
<event>
 8    1  0.1117354E+005  0.1043930E+01  0.7957747E-01            NaN
         13   -1    0    0    0    0  0.00000000000E+00  0.00000000000E+00  0.74505805969E-08  0.10566000000E+00  0.10566000000E+00 0.  1.
     999900   -1    0    0    0    0 -0.00000000000E+00 -0.00000000000E+00 -0.74505805969E-08  0.93827000000E+00  0.93827000000E+00 0.  1.
     999902    2    1    2    0    0 -0.83786693213E-02 -0.59509363154E-02 -0.21729952124E-01  0.10198923928E+01  0.10196090850E+01 0.  0.
     999903    2    3    3    0    0  0.13515619322E-01 -0.12829498091E+00  0.69098420332E-02  0.13069744061E+00  0.19793962994E-01 0.  0.
         14    1    1    2    0    0  0.83786693213E-02  0.59509363154E-02  0.21729952124E-01  0.24037607242E-01  0.00000000000E+00 0.  1.
     999901    1    3    3    0    0 -0.21894288643E-01  0.12234404460E+00 -0.28639794157E-01  0.88919495215E+00  0.88000000000E+00 0.  1.
        -11    1    4    4    0    0  0.16673990459E-02 -0.57708604330E-01  0.11897951060E-01  0.58948160224E-01  0.51100000000E-03 0.  1.
         11    1    4    4    0    0  0.11848220276E-01 -0.70586376582E-01 -0.49881090267E-02  0.71749280382E-01  0.51100000000E-03 0. -1.
</event>
<event>
 8    1  0.1117354E+005  0.1043930E+01  0.7957747E-01            NaN
         13   -1    0    0    0    0  0.00000000000E+00  0.00000000000E+00  0.74505805969E-08  0.10566000000E+00  0.10566000000E+00 0. -1.
     999900   -1    0    0    0    0 -0.00000000000E+00 -0.00000000000E+00 -0.74505805969E-08  0.93827000000E+00  0.93827000000E+00 0. -1.
     999902    2    1    2    0    0  0.16005728258E-01  0.10819964316E-01  0.13114674881E-01  0.10205794184E+01  0.10203122559E+01 0.  0.
     999903    2    3    3    0    0  0.36302171341E-01  0.73032118570E-01 -0.10025604630E+00  0.13089676812E+00  0.20764178239E-01 0.  0.
         14    1    1    2    0    0 -0.16005728258E-01 -0.10819964316E-01 -0.13114674881E-01  0.23350581622E-01  0.00000000000E+00 0.  1.
     999901    1    3    3    0    0 -0.20296443083E-01 -0.62212154255E-01  0.11337072119E+00  0.88968265025E+00  0.88000000000E+00 0.  1.
        -11    1    4    4    0    0  0.22103409170E-01  0.61273647562E-01 -0.84110474928E-01  0.10638540171E+00  0.51100000000E-03 0. -1.
         11    1    4    4    0    0  0.14198762171E-01  0.11758471008E-01 -0.16145571376E-01  0.24511366419E-01  0.51100000000E-03 0.  1.
</event>
<event>
 8    1  0.1117354E+005  0.1043930E+01  0.7957747E-01            NaN
         13   -1    0    0    0    0  0.00000000000E+00  0.00000000000E+00  0.74505805969E-08  0.10566000000E+00  0.10566000000E+00 0.  1.
     999900   -1    0    0    0    0 -0.00000000000E+00 -0.00000000000E+00 -0.74505805969E-08  0.93827000000E+00  0.93827000000E+00 0.  1.
     999902    2    1    2    0    0  0.36434296239E-02 -0.21454958493E-01  0.94006698716E-02  0.10202242535E+01  0.10199488051E+01 0.  0.
     999903    2    3    3    0    0  0.97949601747E-01  0.55804683881E-01 -0.59635458704E-01  0.12914137660E+00  0.20317972105E-01 0.  0.
         14    1    1    2    0    0 -0.36434296239E-02  0.21454958493E-01 -0.94006698716E-02  0.23705746506E-01  0.00000000000E+00 0. -1.
     999901    1    3    3    0    0 -0.94306172123E-01 -0.77259642375E-01  0.69036128576E-01  0.89108287689E+00  0.88000000000E+00 0. -1.
        -11    1    4    4    0    0  0.72485154435E-01  0.50516592437E-01 -0.49067811761E-01  0.10106401435E+00  0.51100000000E-03 0.  1.
         11    1    4    4    0    0  0.25464447312E-01  0.52880914439E-02 -0.10567646943E-01  0.28077362250E-01  0.51100000000E-03 0. -1.
</event>
<event>
 8    1  0.1117354E+005  0.1043930E+01  0.7957747E-01            NaN
         13   -1    0    0    0    0  0.00000000000E+00  0.00000000000E+00  0.74505805969E-08  0.10566000000E+00  0.10566000000E+00 0.  1.
     999900   -1    0    0    0    0 -0.00000000000E+00 -0.00000000000E+00 -0.74505805969E-08  0.93827000000E+00  0.93827000000E+00 0. -1.
     999902    2    1    2    0    0 -0.17352302687E-01 -0.17279227751E-02 -0.15127149695E-01  0.10208449662E+01  0.10205839144E+01 0.  0.
     999903    2    3    3    0    0 -0.85041020761E-01  0.61068263570E-01  0.75309890656E-01  0.13140470302E+00  0.25185478312E-01 0.  0.
         14    1    1    2    0    0  0.17352302687E-01  0.17279227751E-02  0.15127149695E-01  0.23085033757E-01  0.00000000000E+00 0.  1.
     999901    1    3    3    0    0  0.67688718074E-01 -0.62796186345E-01 -0.90437040351E-01  0.88944026322E+00  0.88000000000E+00 0. -1.
        -11    1    4    4    0    0 -0.25190254772E-01  0.18678854661E-01  0.37506098522E-01  0.48891891907E-01  0.51100000000E-03 0.  1.
         11    1    4    4    0    0 -0.59850765989E-01  0.42389408908E-01  0.37803792134E-01  0.82512811113E-01  0.51100000000E-03 0. -1.
</event>
<event>
 8    1  0.1117354E+005  0.1043930E+01  0.7957747E-01            NaN
         13   -1    0    0    0    0  0.00000000000E+00  0.00000000000E+00  0.74505805969E-08  0.10566000000E+00  0.10566000000E+00 0. -1.
     999900   -1    0    0    0    0 -0.00000000000E+00 -0.00000000000E+00 -0.74505805969E-08  0.93827000000E+00  0.93827000000E+00 0. -1.
     999902    2    1    2    0    0  0.47362993820E-02 -0.33384691494E-03 -0.23087367057E-01  0.10203594569E+01  0.10200871780E+01 0.  0.
     999903    2    3    3    0    0  0.15413234583E-01 -0.11567853886E-01 -0.13074578710E+00  0.13366304025E+00  0.19999110962E-01 0.  0.
         14    1    1    2    0    0 -0.47362993820E-02  0.33384691494E-03  0.23087367057E-01  0.23570543125E-01  0.00000000000E+00 0. -1.
     999901    1    3    3    0    0 -0.10676935201E-01  0.11234006971E-01  0.10765842004E+00  0.88669641663E+00  0.88000000000E+00 0.  1.
        -11    1    4    4    0    0  0.51446304737E-02 -0.46154666346E-02 -0.93709253846E-02  0.11655261410E-01  0.51100000000E-03 0. -1.
         11    1    4    4    0    0  0.10268604109E-01 -0.69523872517E-02 -0.12137486172E+00  0.12200777884E+00  0.51100000000E-03 0.  1.
</event>
<event>
 8    1  0.1117354E+005  0.1043930E+01  0.7957747E-01            NaN
         13   -1    0    0    0    0  0.00000000000E+00  0.00000000000E+00  0.74505805969E-08  0.10566000000E+00  0.10566000000E+00 0.  1.
     999900   -1    0    0    0    0 -0.00000000000E+00 -0.00000000000E+00 -0.74505805969E-08  0.93827000000E+00  0.93827000000E+00 0.  1.
     999902    2    1    2    0    0 -0.45576279336E-02  0.16999360269E-01 -0.14173803845E-01  0.10213325015E+01  0.10210824804E+01 0.  0.
     999903    2    3    3    0    0  0.82309605388E-01 -0.83261999103E-01 -0.53962521435E-01  0.13050064396E+00  0.20273941895E-01 0.  0.
         14    1    1    2    0    0  0.45576279336E-02 -0.16999360269E-01  0.14173803845E-01  0.22597498476E-01  0.00000000000E+00 0.  1.
     999901    1    3    3    0    0 -0.86867233321E-01  0.10026135937E+00  0.39788717590E-01  0.89083185757E+00  0.88000000000E+00 0. -1.
        -11    1    4    4    0    0  0.62635378424E-01 -0.52118943303E-01 -0.42592730867E-01  0.91945509543E-01  0.51100000000E-03 0.  1.
         11    1    4    4    0    0  0.19674226964E-01 -0.31143055800E-01 -0.11369790568E-01  0.38555134415E-01  0.51100000000E-03 0. -1.
</event>
<event>
 8    1  0.1117354E+005  0.1043930E+01  0.7957747E-01            NaN
         13   -1    0    0    0    0  0.00000000000E+00  0.00000000000E+00  0.74505805969E-08  0.10566000000E+00  0.10566000000E+00 0. -1.
     999900   -1    0    0    0    0 -0.00000000000E+00 -0.00000000000E+00 -0.74505805969E-08  0.93827000000E+00  0.93827000000E+00 0. -1.
     999902    2    1    2    0    0  0.23416362655E-02 -0.20595934289E-01  0.12153880816E-01  0.10199010053E+01  0.10196179029E+01 0.  0.
     999903    2    3    3    0    0  0.90325465720E-01 -0.16923366638E-01  0.92510414502E-01  0.13186282223E+00  0.19609614980E-01 0.  0.
         14    1    1    2    0    0 -0.23416362655E-02  0.20595934289E-01 -0.12153880816E-01  0.24028994746E-01  0.00000000000E+00 0. -1.
     999901    1    3    3    0    0 -0.87983829455E-01 -0.36725676508E-02 -0.80356533686E-01  0.88803818302E+00  0.88000000000E+00 0. -1.
        -11    1    4    4    0    0  0.34096514557E-01  0.17625865639E-02  0.27009736757E-01  0.43536950020E-01  0.51100000000E-03 0.  1.
         11    1    4    4    0    0  0.56228951163E-01 -0.18685953202E-01  0.65500677745E-01  0.88325872212E-01  0.51100000000E-03 0. -1.
</event>
<event>
 8    1  0.1117354E+005  0.1043930E+01  0.7957747E-01            NaN
         13   -1    0    0    0    0  0.00000000000E+00  0.00000000000E+00  0.74505805969E-08  0.10566000000E+00  0.10566000000E+00 0.  1.
     999900   -1    0    0    0    0 -0.00000000000E+00 -0.00000000000E+00 -0.74505805969E-08  0.93827000000E+00  0.93827000000E+00 0.  1.
     999902    2    1    2    0    0 -0.21517632170E-02  0.19472340187E-01  0.16987999223E-02  0.10242656150E+01  0.10240768340E+01 0.  0.
     999903    2    3    3    0    0  0.12696671590E+00  0.23657719601E-01  0.30587442369E-01  0.13436469200E+00  0.20929505084E-01 0.  0.
         14    1    1    2    0    0  0.21517632170E-02 -0.19472340187E-01 -0.16987999223E-02  0.19664385027E-01  0.00000000000E+00 0.  1.
     999901    1    3    3    0    0 -0.12911847911E+00 -0.41853794139E-02 -0.28888642447E-01  0.88990092297E+00  0.88000000000E+00 0. -1.
        -11    1    4    4    0    0  0.91304057047E-01  0.26387989556E-01  0.23367480181E-01  0.97872657454E-01  0.51100000000E-03 0. -1.
         11    1    4    4    0    0  0.35662658849E-01 -0.27302699555E-02  0.72199621876E-02  0.36492034544E-01  0.51100000000E-03 0.  1.
</event>
<event>
 8    1  0.1117354E+005  0.1043930E+01  0.7957747E-01            NaN
         13   -1    0    0    0    0  0.00000000000E+00  0.00000000000E+00  0.74505805969E-08  0.10566000000E+00  0.10566000000E+00 0.  1.
     999900   -1    0    0    0    0 -0.00000000000E+00 -0.00000000000E+00 -0.74505805969E-08  0.93827000000E+00  0.93827000000E+00 0.  1.
     999902    2    1    2    0    0  0.39797021932E-02  0.34302944396E-02 -0.22658495216E-01  0.10206703277E+01  0.10204052653E+01 0.  0.
     999903    2    3    3    0    0  0.10933621576E+00  0.22325519251E-01  0.63502974104E-01  0.13000719090E+00  0.20406005982E-01 0.  0.
         14    1    1    2    0    0 -0.39797021932E-02 -0.34302944396E-02  0.22658495216E-01  0.23259672288E-01  0.00000000000E+00 0.  1.
     999901    1    3    3    0    0 -0.10535651357E+00 -0.18895224812E-01 -0.86161469320E-01  0.89066313681E+00  0.88000000000E+00 0. -1.
        -11    1    4    4    0    0  0.81329331770E-01  0.14259942991E-01  0.36524721591E-01  0.90289105592E-01  0.51100000000E-03 0.  1.
         11    1    4    4    0    0  0.28006883991E-01  0.80655762599E-02  0.26978252513E-01  0.39718085313E-01  0.51100000000E-03 0. -1.
</event>
<event>
 8    1  0.1117354E+005  0.1043930E+01  0.7957747E-01            NaN
         13   -1    0    0    0    0  0.00000000000E+00  0.00000000000E+00  0.74505805969E-08  0.10566000000E+00  0.10566000000E+00 0.  1.
     999900   -1    0    0    0    0 -0.00000000000E+00 -0.00000000000E+00 -0.74505805969E-08  0.93827000000E+00  0.93827000000E+00 0.  1.
     999902    2    1    2    0    0 -0.54899596080E-02 -0.43893490084E-02  0.22113285758E-01  0.10207264777E+01  0.10204627082E+01 0.  0.
     999903    2    3    3    0    0 -0.50775548616E-01  0.11580076894E+00  0.29843822664E-01  0.13136928834E+00  0.19474643603E-01 0.  0.
         14    1    1    2    0    0  0.54899596080E-02  0.43893490084E-02 -0.22113285758E-01  0.23203522324E-01  0.00000000000E+00 0. -1.
     999901    1    3    3    0    0  0.45285589008E-01 -0.12019011795E+00 -0.77305369056E-02  0.88935718934E+00  0.88000000000E+00 0.  1.
        -11    1    4    4    0    0 -0.14277620383E-01  0.55230475904E-01  0.99884396413E-02  0.57916197734E-01  0.51100000000E-03 0. -1.
         11    1    4    4    0    0 -0.36497928233E-01  0.60570293035E-01  0.19855383022E-01  0.73453090606E-01  0.51100000000E-03 0.  1.
</event>
<event>
 8    1  0.1117354E+005  0.1043930E+01  0.7957747E-01            NaN
         13   -1    0    0    0    0  0.00000000000E+00  0.00000000000E+00  0.74505805969E-08  0.10566000000E+00  0.10566000000E+00 0. -1.
     999900   -1    0    0    0    0 -0.00000000000E+00 -0.00000000000E+00 -0.74505805969E-08  0.93827000000E+00  0.93827000000E+00 0. -1.
     999902    2    1    2    0    0 -0.95841781175E-02  0.62577204201E-02  0.21803710312E-01  0.10193044580E+01  0.10190069484E+01 0.  0.
     999903    2    3    3    0    0 -0.76630967052E-01  0.41238740619E-01 -0.92603686624E-01  0.12868220579E+00  0.20266437037E-01 0.  0.
         14    1    1    2    0    0  0.95841781175E-02 -0.62577204201E-02 -0.21803710312E-01  0.24625541992E-01  0.00000000000E+00 0.  1.
     999901    1    3    3    0    0  0.67046788935E-01 -0.34981020198E-01  0.11440739694E+00  0.89062225222E+00  0.88000000000E+00 0.  1.
        -11    1    4    4    0    0 -0.38157739654E-01  0.31562513431E-01 -0.55152861547E-01  0.74123576596E-01  0.51100000000E-03 0. -1.
         11    1    4    4    0    0 -0.38473227399E-01  0.96762271880E-02 -0.37450825077E-01  0.54558629189E-01  0.51100000000E-03 0.  1.
</event>
<event>
 8    1  0.1117354E+005  0.1043930E+01  0.7957747E-01            NaN
         13   -1    0    0    0    0  0.00000000000E+00  0.00000000000E+00  0.74505805969E-08  0.10566000000E+00  0.10566000000E+00 0.  1.
     999900   -1    0    0    0    0 -0.00000000000E+00 -0.00000000000E+00 -0.74505805969E-08  0.93827000000E+00  0.93827000000E+00 0. -1.
     999902    2    1    2    0    0 -0.13921985229E-01 -0.16572504450E-01  0.10055921555E-01  0.10200638915E+01  0.10197846594E+01 0.  0.
     999903    2    3    3    0    0 -0.10643578738E+00 -0.74070871681E-01  0.22268482821E-01  0.13326401979E+00  0.21174106277E-01 0.  0.
         14    1    1    2    0    0  0.13921985229E-01  0.16572504450E-01 -0.10055921555E-01  0.23866108497E-01  0.00000000000E+00 0. -1.
     999901    1    3    3    0    0  0.92513802149E-01  0.57498367231E-01 -0.12212561266E-01  0.88679987172E+00  0.88000000000E+00 0. -1.
        -11    1    4    4    0    0 -0.66845964178E-01 -0.39108135242E-01  0.46663726472E-02  0.77587791074E-01  0.51100000000E-03 0.  1.
         11    1    4    4    0    0 -0.39589823199E-01 -0.34962736439E-01  0.17602110174E-01  0.55676228714E-01  0.51100000000E-03 0. -1.
</event>
<event>
 8    1  0.1117354E+005  0.1043930E+01  0.7957747E-01            NaN
         13   -1    0    0    0    0  0.00000000000E+00  0.00000000000E+00  0.74505805969E-08  0.10566000000E+00  0.10566000000E+00 0.  1.
     999900   -1    0    0    0    0 -0.00000000000E+00 -0.00000000000E+00 -0.74505805969E-08  0.93827000000E+00  0.93827000000E+00 0. -1.
     999902    2    1    2    0    0 -0.66095941558E-02 -0.13802246564E-01  0.18658648128E-01  0.10197984046E+01  0.10195128504E+01 0.  0.
     999903    2    3    3    0    0 -0.35171233712E-01 -0.49670858555E-02  0.12631379448E+00  0.13273388733E+00  0.20035532087E-01 0.  0.
         14    1    1    2    0    0  0.66095941558E-02  0.13802246564E-01 -0.18658648128E-01  0.24131595370E-01  0.00000000000E+00 0. -1.
     999901    1    3    3    0    0  0.28561639556E-01 -0.88351607088E-02 -0.10765514635E+00  0.88706451730E+00  0.88000000000E+00 0. -1.
        -11    1    4    4    0    0 -0.31975662880E-01 -0.10652489914E-01  0.96708521977E-01  0.10241444186E+00  0.51100000000E-03 0. -1.
         11    1    4    4    0    0 -0.31955708318E-02  0.56854040582E-02  0.29605272506E-01  0.30319445467E-01  0.51100000000E-03 0.  1.
</event>
<event>
 8    1  0.1117354E+005  0.1043930E+01  0.7957747E-01            NaN
         13   -1    0    0    0    0  0.00000000000E+00  0.00000000000E+00  0.74505805969E-08  0.10566000000E+00  0.10566000000E+00 0.  1.
     999900   -1    0    0    0    0 -0.00000000000E+00 -0.00000000000E+00 -0.74505805969E-08  0.93827000000E+00  0.93827000000E+00 0. -1.
     999902    2    1    2    0    0  0.39646600292E-02 -0.21157075109E-01 -0.85647315725E-02  0.10207633217E+01  0.10205003988E+01 0.  0.
     999903    2    3    3    0    0  0.11950770228E+00 -0.41710639842E-01  0.32108223497E-01  0.13204124315E+00  0.19546956178E-01 0.  0.
         14    1    1    2    0    0 -0.39646600292E-02  0.21157075109E-01  0.85647315725E-02  0.23166678295E-01  0.00000000000E+00 0.  1.
     999901    1    3    3    0    0 -0.11554304225E+00  0.20553564734E-01 -0.40672955069E-01  0.88872207855E+00  0.88000000000E+00 0. -1.
        -11    1    4    4    0    0  0.10280559952E+00 -0.36894942673E-01  0.34365480477E-01  0.11450535121E+00  0.51100000000E-03 0.  1.
         11    1    4    4    0    0  0.16702102763E-01 -0.48156971699E-02 -0.22572569797E-02  0.17535891936E-01  0.51100000000E-03 0. -1.
</event>
<event>
 8    1  0.1117354E+005  0.1043930E+01  0.7957747E-01            NaN
         13   -1    0    0    0    0  0.00000000000E+00  0.00000000000E+00  0.74505805969E-08  0.10566000000E+00  0.10566000000E+00 0. -1.
     999900   -1    0    0    0    0 -0.00000000000E+00 -0.00000000000E+00 -0.74505805969E-08  0.93827000000E+00  0.93827000000E+00 0. -1.
     999902    2    1    2    0    0  0.24969774874E-01 -0.15707663453E-01 -0.94300758741E-02  0.10129599067E+01  0.10124863584E+01 0.  0.
     999903    2    3    3    0    0 -0.37847774353E-01 -0.10758650092E+00  0.45969456446E-01  0.12422098359E+00  0.17616828133E-01 0.  0.
         14    1    1    2    0    0 -0.24969774874E-01  0.15707663453E-01  0.94300758741E-02  0.30970093306E-01  0.00000000000E+00 0.  1.
     999901    1    3    3    0    0  0.62817549227E-01  0.91878837468E-01 -0.55399532321E-01  0.88873892311E+00  0.88000000000E+00 0. -1.
        -11    1    4    4    0    0 -0.25419102580E-01 -0.71917049806E-01  0.21643354244E-01  0.79289903094E-01  0.51100000000E-03 0. -1.
         11    1    4    4    0    0 -0.12428671773E-01 -0.35669451114E-01  0.24326102202E-01  0.44931080492E-01  0.51100000000E-03 0.  1.
</event>
<event>
 8    1  0.1117354E+005  0.1043930E+01  0.7957747E-01            NaN
         13   -1    0    0    0    0  0.00000000000E+00  0.00000000000E+00  0.74505805969E-08  0.10566000000E+00  0.10566000000E+00 0.  1.
     999900   -1    0    0    0    0 -0.00000000000E+00 -0.00000000000E+00 -0.74505805969E-08  0.93827000000E+00  0.93827000000E+00 0.  1.
     999902    2    1    2    0    0  0.15077073911E-01 -0.12313948802E-01  0.11453827454E-01  0.10213436843E+01  0.10210939133E+01 0.  0.
     999903    2    3    3    0    0  0.11443651672E+00  0.26364855324E-01 -0.57372502969E-01  0.13223997129E+00  0.20124213122E-01 0.  0.
         14    1    1    2    0    0 -0.15077073911E-01  0.12313948802E-01 -0.11453827454E-01  0.22586315683E-01  0.00000000000E+00 0. -1.
     999901    1    3    3    0    0 -0.99359442809E-01 -0.38678804126E-01  0.68826330423E-01  0.88910371303E+00  0.88000000000E+00 0. -1.
        -11    1    4    4    0    0  0.49069331580E-01  0.91458857340E-02 -0.35266734272E-01  0.61118329450E-01  0.51100000000E-03 0. -1.
         11    1    4    4    0    0  0.65367185139E-01  0.17218969590E-01 -0.22105768697E-01  0.71121641836E-01  0.51100000000E-03 0.  1.
</event>
<event>
 8    1  0.1117354E+005  0.1043930E+01  0.7957747E-01            NaN
         13   -1    0    0    0    0  0.00000000000E+00  0.00000000000E+00  0.74505805969E-08  0.10566000000E+00  0.10566000000E+00 0. -1.
     999900   -1    0    0    0    0 -0.00000000000E+00 -0.00000000000E+00 -0.74505805969E-08  0.93827000000E+00  0.93827000000E+00 0.  1.
     999902    2    1    2    0    0  0.67215532039E-02 -0.23627474676E-01 -0.46829619959E-02  0.10189226617E+01  0.10186157389E+01 0.  0.
     999903    2    3    3    0    0 -0.10418939107E+00  0.96887850895E-02  0.72332495847E-01  0.12800033539E+00  0.14240580667E-01 0.  0.
         14    1    1    2    0    0 -0.67215532039E-02  0.23627474676E-01  0.46829619959E-02  0.25007338325E-01  0.00000000000E+00 0. -1.
     999901    1    3    3    0    0  0.11091094427E+00 -0.33316259765E-01 -0.77015457843E-01  0.89092232628E+00  0.88000000000E+00 0.  1.
        -11    1    4    4    0    0 -0.17751035358E-01  0.42891182164E-02  0.18634784054E-01  0.26096208328E-01  0.51100000000E-03 0.  1.
         11    1    4    4    0    0 -0.86438355708E-01  0.53996668731E-02  0.53697711793E-01  0.10190412706E+00  0.51100000000E-03 0. -1.
</event>
<event>
 8    1  0.1117354E+005  0.1043930E+01  0.7957747E-01            NaN
         13   -1    0    0    0    0  0.00000000000E+00  0.00000000000E+00  0.74505805969E-08  0.10566000000E+00  0.10566000000E+00 0.  1.
     999900   -1    0    0    0    0 -0.00000000000E+00 -0.00000000000E+00 -0.74505805969E-08  0.93827000000E+00  0.93827000000E+00 0.  1.
     999902    2    1    2    0    0 -0.12905069608E-01 -0.19655959389E-01 -0.14155230577E-02  0.10203736576E+01  0.10201017106E+01 0.  0.
     999903    2    3    3    0    0 -0.24625991867E-01  0.12428851731E+00  0.92042317561E-02  0.12853837485E+00  0.19578583111E-01 0.  0.
         14    1    1    2    0    0  0.12905069608E-01  0.19655959389E-01  0.14155230577E-02  0.23556342386E-01  0.00000000000E+00 0. -1.
     999901    1    3    3    0    0  0.11720922258E-01 -0.14394447670E+00 -0.10619754814E-01  0.89183528276E+00  0.88000000000E+00 0. -1.
        -11    1    4    4    0    0 -0.32573411970E-02  0.56072594431E-01 -0.18635736265E-02  0.56200357165E-01  0.51100000000E-03 0. -1.
         11    1    4    4    0    0 -0.21368650670E-01  0.68215922878E-01  0.11067805383E-01  0.72338017684E-01  0.51100000000E-03 0.  1.
</event>
<event>
 8    1  0.1117354E+005  0.1043930E+01  0.7957747E-01            NaN
         13   -1    0    0    0    0  0.00000000000E+00  0.00000000000E+00  0.74505805969E-08  0.10566000000E+00  0.10566000000E+00 0. -1.
     999900   -1    0    0    0    0 -0.00000000000E+00 -0.00000000000E+00 -0.74505805969E-08  0.93827000000E+00  0.93827000000E+00 0.  1.
     999902    2    1    2    0    0 -0.16324010165E-02 -0.32510845547E-02 -0.23018223673E-01  0.10206260753E+01  0.10203599917E+01 0.  0.
     999903    2    3    3    0    0 -0.27103323555E-02 -0.28682093864E-01 -0.12927223899E+00  0.13386916730E+00  0.19484192824E-01 0.  0.
         14    1    1    2    0    0  0.16324010165E-02  0.32510845547E-02  0.23018223673E-01  0.23303924668E-01  0.00000000000E+00 0. -1.
     999901    1    3    3    0    0  0.10779313390E-02  0.25431009309E-01  0.10625401532E+00  0.88675690803E+00  0.88000000000E+00 0. -1.
        -11    1    4    4    0    0 -0.25029826581E-02 -0.30171000666E-01 -0.98333421522E-01  0.10288963559E+00  0.51100000000E-03 0. -1.
         11    1    4    4    0    0 -0.20734969746E-03  0.14889068029E-02 -0.30938817470E-01  0.30979531707E-01  0.51100000000E-03 0.  1.
</event>
<event>
 8    1  0.1117354E+005  0.1043930E+01  0.7957747E-01            NaN
         13   -1    0    0    0    0  0.00000000000E+00  0.00000000000E+00  0.74505805969E-08  0.10566000000E+00  0.10566000000E+00 0.  1.
     999900   -1    0    0    0    0 -0.00000000000E+00 -0.00000000000E+00 -0.74505805969E-08  0.93827000000E+00  0.93827000000E+00 0. -1.
     999902    2    1    2    0    0 -0.14960924050E-01 -0.19451868286E-01 -0.42464295422E-02  0.10190254504E+01  0.10187210766E+01 0.  0.
     999903    2    3    3    0    0 -0.84416302409E-01 -0.23278014436E-03 -0.98287213908E-01  0.13108564833E+00  0.19922461715E-01 0.  0.
         14    1    1    2    0    0  0.14960924050E-01  0.19451868286E-01  0.42464295422E-02  0.24904549626E-01  0.00000000000E+00 0.  1.
     999901    1    3    3    0    0  0.69455378359E-01 -0.19219088142E-01  0.94040784366E-01  0.88793980205E+00  0.88000000000E+00 0.  1.
        -11    1    4    4    0    0 -0.68359214077E-01  0.56097441835E-02 -0.69785675051E-01  0.97850666540E-01  0.51100000000E-03 0. -1.
         11    1    4    4    0    0 -0.16057088333E-01 -0.58425243279E-02 -0.28501538858E-01  0.33234981789E-01  0.51100000000E-03 0.  1.
</event>
<event>
 7    1  0.1117354E+005  0.1043930E+01  0.7957747E-01            NaN
         13   -1    0    0    0    0  0.00000000000E+00  0.00000000000E+00  0.74505805969E-08  0.10566000000E+00  0.10566000000E+00 0.  1.
     999900   -1    0    0    0    0 -0.00000000000E+00 -0.00000000000E+00 -0.74505805969E-08  0.93827000000E+00  0.93827000000E+00 0.  1.
     999902    2    1    2    0    0 -0.28596749985E-02  0.98582633905E-02 -0.21737388199E-01  0.10198909246E+01  0.10196075819E+01 0.  0.
         14    1    1    2    0    0  0.28596749985E-02 -0.98582633905E-02  0.21737388199E-01  0.24039075354E-01  0.00000000000E+00 0.  1.
     999901    1    3    3    0    0 -0.79497105355E-02 -0.11098512713E+00 -0.49720801572E-01  0.88839915266E+00  0.88000000000E+00 0. -1.
        -11    1    3    3    0    0  0.22430714376E-01  0.84057649202E-01  0.12139284308E-01  0.87843318934E-01  0.51100000000E-03 0. -1.
         11    1    3    3    0    0 -0.17340678839E-01  0.36785741318E-01  0.15844129065E-01  0.43648453051E-01  0.51100000000E-03 0.  1.
</event>
<event>
 8    1  0.1117354E+005  0.1043930E+01  0.7957747E-01            NaN
         13   -1    0    0    0    0  0.00000000000E+00  0.00000000000E+00  0.74505805969E-08  0.10566000000E+00  0.10566000000E+00 0. -1.
     999900   -1    0    0    0    0 -0.00000000000E+00 -0.00000000000E+00 -0.74505805969E-08  0.93827000000E+00  0.93827000000E+00 0. -1.
     999902    2    1    2    0    0  0.22405764815E-01  0.33988092040E-03 -0.66135435636E-02  0.10205660796E+01  0.10202986083E+01 0.  0.
     999903    2    3    3    0    0 -0.11035784588E+00  0.62468196970E-01 -0.36210385697E-03  0.12841968780E+00  0.20257228749E-01 0.  0.
         14    1    1    2    0    0 -0.22405764815E-01 -0.33988092040E-03  0.66135435636E-02  0.23363920357E-01  0.00000000000E+00 0. -1.
     999901    1    3    3    0    0  0.13276361069E+00 -0.62128316050E-01 -0.62514397066E-02  0.89214639184E+00  0.88000000000E+00 0.  1.
        -11    1    4    4    0    0 -0.27502576582E-01  0.74156061117E-02 -0.45614659506E-02  0.28852227388E-01  0.51100000000E-03 0. -1.
         11    1    4    4    0    0 -0.82855269294E-01  0.55052590859E-01  0.41993620936E-02  0.99567460413E-01  0.51100000000E-03 0.  1.
</event>
<event>
 8    1  0.1117354E+005  0.1043930E+01  0.7957747E-01            NaN
         13   -1    0    0    0    0  0.00000000000E+00  0.00000000000E+00  0.74505805969E-08  0.10566000000E+00  0.10566000000E+00 0.  1.
     999900   -1    0    0    0    0 -0.00000000000E+00 -0.00000000000E+00 -0.74505805969E-08  0.93827000000E+00  0.93827000000E+00 0. -1.
     999902    2    1    2    0    0 -0.49172989469E-02 -0.18935046860E-01 -0.15681983632E-01  0.10188572969E+01  0.10185487475E+01 0.  0.
     999903    2    3    3    0    0  0.11573314662E+00 -0.29959940210E-01 -0.48210710513E-01  0.12996124206E+00  0.16549700524E-01 0.  0.
         14    1    1    2    0    0  0.49172989469E-02  0.18935046860E-01  0.15681983632E-01  0.25072703069E-01  0.00000000000E+00 0. -1.
     999901    1    3    3    0    0 -0.12065044556E+00  0.11024893350E-01  0.32528726881E-01  0.88889605487E+00  0.88000000000E+00 0.  1.
        -11    1    4    4    0    0  0.96171449444E-01 -0.22684168184E-01 -0.33171297303E-01  0.10423106667E+00  0.51100000000E-03 0.  1.
         11    1    4    4    0    0  0.19561697171E-01 -0.72757720257E-02 -0.15039413210E-01  0.25730175388E-01  0.51100000000E-03 0. -1.
</event>
<event>
 8    1  0.1117354E+005  0.1043930E+01  0.7957747E-01            NaN
         13   -1    0    0    0    0  0.00000000000E+00  0.00000000000E+00  0.74505805969E-08  0.10566000000E+00  0.10566000000E+00 0.  1.
     999900   -1    0    0    0    0 -0.00000000000E+00 -0.00000000000E+00 -0.74505805969E-08  0.93827000000E+00  0.93827000000E+00 0.  1.
     999902    2    1    2    0    0  0.59817248086E-02 -0.21574991152E-01  0.57470308462E-02  0.10208152939E+01  0.10205535628E+01 0.  0.
     999903    2    3    3    0    0 -0.58370524190E-01 -0.11416176035E+00 -0.27966834554E-01  0.13298076736E+00  0.21487555302E-01 0.  0.
         14    1    1    2    0    0 -0.59817248086E-02  0.21574991152E-01 -0.57470308462E-02  0.23114706108E-01  0.00000000000E+00 0. -1.
     999901    1    3    3    0    0  0.64352248998E-01  0.92586769196E-01  0.33713865400E-01  0.88783452653E+00  0.88000000000E+00 0. -1.
        -11    1    4    4    0    0 -0.18371193452E-01 -0.54398611569E-01 -0.19141492149E-01  0.60525759245E-01  0.51100000000E-03 0.  1.
         11    1    4    4    0    0 -0.39999330738E-01 -0.59763148779E-01 -0.88253424055E-02  0.72455008116E-01  0.51100000000E-03 0. -1.
</event>
<event>
 8    1  0.1117354E+005  0.1043930E+01  0.7957747E-01            NaN
         13   -1    0    0    0    0  0.00000000000E+00  0.00000000000E+00  0.74505805969E-08  0.10566000000E+00  0.10566000000E+00 0.  1.
     999900   -1    0    0    0    0 -0.00000000000E+00 -0.00000000000E+00 -0.74505805969E-08  0.93827000000E+00  0.93827000000E+00 0.  1.
     999902    2    1    2    0    0 -0.44924475761E-02 -0.70526269698E-02 -0.22025497193E-01  0.10203706248E+01  0.10200986069E+01 0.  0.
     999903    2    3    3    0    0  0.79564263390E-01  0.96368958624E-01 -0.32165713908E-01  0.13027828184E+00  0.17898306455E-01 0.  0.
         14    1    1    2    0    0  0.44924475761E-02  0.70526269698E-02  0.22025497193E-01  0.23559375182E-01  0.00000000000E+00 0.  1.
     999901    1    3    3    0    0 -0.84056710966E-01 -0.10342158559E+00  0.10140216715E-01  0.89009234297E+00  0.88000000000E+00 0.  1.
        -11    1    4    4    0    0  0.77797798526E-01  0.90608387042E-01 -0.33601335707E-01  0.12406324250E+00  0.51100000000E-03 0.  1.
         11    1    4    4    0    0  0.17664648643E-02  0.57605715823E-02  0.14356217999E-02  0.62150393421E-02  0.51100000000E-03 0. -1.
</event>
<event>
 8    1  0.1117354E+005  0.1043930E+01  0.7957747E-01            NaN
         13   -1    0    0    0    0  0.00000000000E+00  0.00000000000E+00  0.74505805969E-08  0.10566000000E+00  0.10566000000E+00 0.  1.
     999900   -1    0    0    0    0 -0.00000000000E+00 -0.00000000000E+00 -0.74505805969E-08  0.93827000000E+00  0.93827000000E+00 0.  1.
     999902    2    1    2    0    0 -0.19172226661E-02 -0.22494436155E-01 -0.56869406598E-02  0.10206487480E+01  0.10203831879E+01 0.  0.
     999903    2    3    3    0    0 -0.41470603168E-01 -0.88051172369E-01 -0.89177220460E-01  0.13338735337E+00  0.19151749482E-01 0.  0.
         14    1    1    2    0    0  0.19172226661E-02  0.22494436155E-01  0.56869406598E-02  0.23281252001E-01  0.00000000000E+00 0.  1.
     999901    1    3    3    0    0  0.39553380502E-01  0.65556736215E-01  0.83490279800E-01  0.88726139463E+00  0.88000000000E+00 0. -1.
        -11    1    4    4    0    0 -0.37797924860E-01 -0.72095867309E-01 -0.64942155329E-01  0.10413568969E+00  0.51100000000E-03 0.  1.
         11    1    4    4    0    0 -0.36726783078E-02 -0.15955305060E-01 -0.24235065131E-01  0.29251663686E-01  0.51100000000E-03 0. -1.
</event>
<event>
 8    1  0.1117354E+005  0.1043930E+01  0.7957747E-01            NaN
         13   -1    0    0    0    0  0.00000000000E+00  0.00000000000E+00  0.74505805969E-08  0.10566000000E+00  0.10566000000E+00 0. -1.
     999900   -1    0    0    0    0 -0.00000000000E+00 -0.00000000000E+00 -0.74505805969E-08  0.93827000000E+00  0.93827000000E+00 0.  1.
     999902    2    1    2    0    0 -0.15709766368E-02  0.20770313098E-01  0.15825599745E-01  0.10177704228E+01  0.10174341797E+01 0.  0.
     999903    2    3    3    0    0 -0.12016946367E+00 -0.24166035552E-01 -0.29259499529E-01  0.12753587910E+00  0.19610835620E-01 0.  0.
         14    1    1    2    0    0  0.15709766368E-02 -0.20770313098E-01 -0.15825599745E-01  0.26159577234E-01  0.00000000000E+00 0.  1.
     999901    1    3    3    0    0  0.11859848703E+00  0.44936348650E-01  0.45085099274E-01  0.89023454366E+00  0.88000000000E+00 0. -1.
        -11    1    4    4    0    0 -0.91827236882E-01 -0.20504536120E-01 -0.30547174393E-01  0.98924559232E-01  0.51100000000E-03 0. -1.
         11    1    4    4    0    0 -0.28342226784E-01 -0.36614994324E-02  0.12876748646E-02  0.28611319870E-01  0.51100000000E-03 0.  1.
</event>
<event>
 8    1  0.1117354E+005  0.1043930E+01  0.7957747E-01            NaN
         13   -1    0    0    0    0  0.00000000000E+00  0.00000000000E+00  0.74505805969E-08  0.10566000000E+00  0.10566000000E+00 0. -1.
     999900   -1    0    0    0    0 -0.00000000000E+00 -0.00000000000E+00 -0.74505805969E-08  0.93827000000E+00  0.93827000000E+00 0.  1.
     999902    2    1    2    0    0 -0.17674449505E-01  0.44283758666E-02  0.16043582016E-01  0.10196525783E+01  0.10193635207E+01 0.  0.
     999903    2    3    3    0    0 -0.23353414703E-01 -0.43806074982E-01  0.12075427626E+00  0.13211489330E+00  0.20208800354E-01 0.  0.
         14    1    1    2    0    0  0.17674449505E-01 -0.44283758666E-02 -0.16043582016E-01  0.24277421651E-01  0.00000000000E+00 0. -1.
     999901    1    3    3    0    0  0.56789651981E-02  0.48234450849E-01 -0.10471069425E+00  0.88753768505E+00  0.88000000000E+00 0.  1.
        -11    1    4    4    0    0 -0.10522551107E-01 -0.37749118380E-01  0.83272058617E-01  0.92033781230E-01  0.51100000000E-03 0. -1.
         11    1    4    4    0    0 -0.12830863596E-01 -0.60569566016E-02  0.37482217647E-01  0.40081112068E-01  0.51100000000E-03 0.  1.
</event>
<event>
 8    1  0.1117354E+005  0.1043930E+01  0.7957747E-01            NaN
         13   -1    0    0    0    0  0.00000000000E+00  0.00000000000E+00  0.74505805969E-08  0.10566000000E+00  0.10566000000E+00 0. -1.
     999900   -1    0    0    0    0 -0.00000000000E+00 -0.00000000000E+00 -0.74505805969E-08  0.93827000000E+00  0.93827000000E+00 0.  1.
     999902    2    1    2    0    0  0.18217526805E-01  0.60697701736E-02 -0.12439914960E-01  0.10210504922E+01  0.10207941202E+01 0.  0.
     999903    2    3    3    0    0 -0.11388993218E-03  0.42017479779E-01  0.12150337161E+00  0.13000106446E+00  0.19280193750E-01 0.  0.
         14    1    1    2    0    0 -0.18217526805E-01 -0.60697701736E-02  0.12439914960E-01  0.22879507797E-01  0.00000000000E+00 0. -1.
     999901    1    3    3    0    0  0.18331416737E-01 -0.35947709605E-01 -0.13394328657E+00  0.89104942774E+00  0.88000000000E+00 0.  1.
        -11    1    4    4    0    0  0.91700574564E-02  0.22967701612E-01  0.58046653420E-01  0.63097387944E-01  0.51100000000E-03 0. -1.
         11    1    4    4    0    0 -0.92839473886E-02  0.19049778166E-01  0.63456718187E-01  0.66903676516E-01  0.51100000000E-03 0.  1.
</event>
<event>
 7    1  0.1117354E+005  0.1043930E+01  0.7957747E-01            NaN
         13   -1    0    0    0    0  0.00000000000E+00  0.00000000000E+00  0.74505805969E-08  0.10566000000E+00  0.10566000000E+00 0.  1.
     999900   -1    0    0    0    0 -0.00000000000E+00 -0.00000000000E+00 -0.74505805969E-08  0.93827000000E+00  0.93827000000E+00 0.  1.
     999903    2    1    2    0    0 -0.62381481970E-01 -0.71274923914E-01 -0.63101067775E-01  0.11543075158E+00  0.19260051527E-01 0.  0.
         14    1    1    2    0    0  0.40361026418E-01 -0.79948588923E-02  0.13373212612E-01  0.43263992394E-01  0.00000000000E+00 0.  1.
     999901    1    1    2    0    0  0.22020455552E-01  0.79269782806E-01  0.49727855162E-01  0.88523525602E+00  0.88000000000E+00 0. -1.
        -11    1    3    3    0    0 -0.31110526909E-01 -0.48603468768E-01 -0.42350025289E-01  0.71581756222E-01  0.51100000000E-03 0. -1.
         11    1    3    3    0    0 -0.31270955061E-01 -0.22671455146E-01 -0.20751042486E-01  0.43848995361E-01  0.51100000000E-03 0.  1.
</event>
<event>
 8    1  0.1117354E+005  0.1043930E+01  0.7957747E-01            NaN
         13   -1    0    0    0    0  0.00000000000E+00  0.00000000000E+00  0.74505805969E-08  0.10566000000E+00  0.10566000000E+00 0.  1.
     999900   -1    0    0    0    0 -0.00000000000E+00 -0.00000000000E+00 -0.74505805969E-08  0.93827000000E+00  0.93827000000E+00 0.  1.
     999902    2    1    2    0    0  0.63055969779E-02 -0.23360256979E-01 -0.96401894168E-02  0.10178839751E+01  0.10175506825E+01 0.  0.
     999903    2    3    3    0    0 -0.45668266187E-01  0.10716706321E+00  0.40842238999E-01  0.12531065078E+00  0.21547638813E-01 0.  0.
         14    1    1    2    0    0 -0.63055969779E-02  0.23360256979E-01  0.96401894168E-02  0.26046024867E-01  0.00000000000E+00 0.  1.
     999901    1    3    3    0    0  0.51973863165E-01 -0.13052732019E+00 -0.50482428416E-01  0.89257332435E+00  0.88000000000E+00 0.  1.
        -11    1    4    4    0    0 -0.38436602376E-01  0.78217836709E-01  0.21560589220E-01  0.89780412732E-01  0.51100000000E-03 0.  1.
         11    1    4    4    0    0 -0.72316638111E-02  0.28949226502E-01  0.19281649779E-01  0.35530238048E-01  0.51100000000E-03 0. -1.
</event>
<event>
 8    1  0.1117354E+005  0.1043930E+01  0.7957747E-01            NaN
         13   -1    0    0    0    0  0.00000000000E+00  0.00000000000E+00  0.74505805969E-08  0.10566000000E+00  0.10566000000E+00 0.  1.
     999900   -1    0    0    0    0 -0.00000000000E+00 -0.00000000000E+00 -0.74505805969E-08  0.93827000000E+00  0.93827000000E+00 0.  1.
     999902    2    1    2    0    0 -0.42305095575E-02  0.22417931632E-01  0.65141637876E-02  0.10202045875E+01  0.10199286765E+01 0.  0.
     999903    2    3    3    0    0  0.10455724774E-01 -0.66046961787E-01  0.10930301926E+00  0.12969503016E+00  0.20053116670E-01 0.  0.
         14    1    1    2    0    0  0.42305095575E-02 -0.22417931632E-01 -0.65141637876E-02  0.23725412528E-01  0.00000000000E+00 0.  1.
     999901    1    3    3    0    0 -0.14686234332E-01  0.88464893419E-01 -0.10278885547E+00  0.89050955731E+00  0.88000000000E+00 0.  1.
        -11    1    4    4    0    0  0.14685649760E-01 -0.58173192020E-01  0.87206647901E-01  0.10585390469E+00  0.51100000000E-03 0. -1.
         11    1    4    4    0    0 -0.42299249857E-02 -0.78737697666E-02  0.22096371359E-01  0.23841125476E-01  0.51100000000E-03 0.  1.
</event>
<event>
 8    1  0.1117354E+005  0.1043930E+01  0.7957747E-01            NaN
         13   -1    0    0    0    0  0.00000000000E+00  0.00000000000E+00  0.74505805969E-08  0.10566000000E+00  0.10566000000E+00 0.  1.
     999900   -1    0    0    0    0 -0.00000000000E+00 -0.00000000000E+00 -0.74505805969E-08  0.93827000000E+00  0.93827000000E+00 0.  1.
     999902    2    1    2    0    0  0.18415446070E-01 -0.10231535432E-01 -0.10666216037E-01  0.10203168440E+01  0.10200435682E+01 0.  0.
     999903    2    3    3    0    0 -0.97577345980E-01  0.33907614004E-01  0.72778994682E-01  0.12769951530E+00  0.18420624446E-01 0.  0.
         14    1    1    2    0    0 -0.18415446070E-01  0.10231535432E-01  0.10666216037E-01  0.23613155990E-01  0.00000000000E+00 0.  1.
     999901    1    3    3    0    0  0.11599279205E+00 -0.44139149436E-01 -0.83445210720E-01  0.89261732871E+00  0.88000000000E+00 0.  1.
        -11    1    4    4    0    0 -0.43271321832E-01  0.24237129355E-01  0.30854448979E-01  0.58413216614E-01  0.51100000000E-03 0.  1.
         11    1    4    4    0    0 -0.54306024148E-01  0.96704846485E-02  0.41924545704E-01  0.69286298686E-01  0.51100000000E-03 0. -1.
</event>
<event>
 8    1  0.1117354E+005  0.1043930E+01  0.7957747E-01            NaN
         13   -1    0    0    0    0  0.00000000000E+00  0.00000000000E+00  0.74505805969E-08  0.10566000000E+00  0.10566000000E+00 0.  1.
     999900   -1    0    0    0    0 -0.00000000000E+00 -0.00000000000E+00 -0.74505805969E-08  0.93827000000E+00  0.93827000000E+00 0.  1.
     999902    2    1    2    0    0  0.77340432412E-02 -0.58787986399E-02 -0.21909948658E-01  0.10199629070E+01  0.10196812787E+01 0.  0.
     999903    2    3    3    0    0  0.91468743034E-01  0.30081999518E-01 -0.89149342486E-01  0.13270543868E+00  0.19790668039E-01 0.  0.
         14    1    1    2    0    0 -0.77340432412E-02  0.58787986399E-02  0.21909948658E-01  0.23967093034E-01  0.00000000000E+00 0.  1.
     999901    1    3    3    0    0 -0.83734699793E-01 -0.35960798158E-01  0.67239393827E-01  0.88725746829E+00  0.88000000000E+00 0. -1.
        -11    1    4    4    0    0  0.52873144150E-01  0.78522476033E-02 -0.43418350568E-01  0.68866838549E-01  0.51100000000E-03 0.  1.
         11    1    4    4    0    0  0.38595598884E-01  0.22229751915E-01 -0.45730991918E-01  0.63838600127E-01  0.51100000000E-03 0. -1.
</event>
<event>
 8    1  0.1117354E+005  0.1043930E+01  0.7957747E-01            NaN
         13   -1    0    0    0    0  0.00000000000E+00  0.00000000000E+00  0.74505805969E-08  0.10566000000E+00  0.10566000000E+00 0. -1.
     999900   -1    0    0    0    0 -0.00000000000E+00 -0.00000000000E+00 -0.74505805969E-08  0.93827000000E+00  0.93827000000E+00 0. -1.
     999902    2    1    2    0    0 -0.28967752966E-02  0.19225485251E-01 -0.14404072938E-01  0.10197331426E+01  0.10194460232E+01 0.  0.
     999903    2    3    3    0    0  0.97887320888E-01  0.70926151066E-01 -0.48184140728E-01  0.13183028426E+00  0.21096585853E-01 0.  0.
         14    1    1    2    0    0  0.28967752966E-02 -0.19225485251E-01  0.14404072938E-01  0.24196857389E-01  0.00000000000E+00 0. -1.
     999901    1    3    3    0    0 -0.10078409618E+00 -0.51700665814E-01  0.33780067789E-01  0.88790285835E+00  0.88000000000E+00 0.  1.
        -11    1    4    4    0    0  0.60150597242E-01  0.30707692127E-01 -0.27664857592E-01  0.72983985715E-01  0.51100000000E-03 0.  1.
         11    1    4    4    0    0  0.37736723647E-01  0.40218458939E-01 -0.20519283136E-01  0.58846298545E-01  0.51100000000E-03 0. -1.
</event>
<event>
 8    1  0.1117354E+005  0.1043930E+01  0.7957747E-01            NaN
         13   -1    0    0    0    0  0.00000000000E+00  0.00000000000E+00  0.74505805969E-08  0.10566000000E+00  0.10566000000E+00 0.  1.
     999900   -1    0    0    0    0 -0.00000000000E+00 -0.00000000000E+00 -0.74505805969E-08  0.93827000000E+00  0.93827000000E+00 0.  1.
     999902    2    1    2    0    0 -0.32163095516E-02  0.17100865971E-01  0.15399190673E-01  0.10206938356E+01  0.10204293149E+01 0.  0.
     999903    2    3    3    0    0 -0.65456380332E-01 -0.52128134853E-01 -0.96272619217E-01  0.12876498522E+00  0.17610338944E-01 0.  0.
         14    1    1    2    0    0  0.32163095516E-02 -0.17100865971E-01 -0.15399190673E-01  0.23236164432E-01  0.00000000000E+00 0. -1.
     999901    1    3    3    0    0  0.62240070780E-01  0.69229000824E-01  0.11167180989E+00  0.89192885035E+00  0.88000000000E+00 0. -1.
        -11    1    4    4    0    0 -0.23655572929E-01 -0.28884699324E-01 -0.47948908884E-01  0.60772287844E-01  0.51100000000E-03 0. -1.
         11    1    4    4    0    0 -0.41800807403E-01 -0.23243435528E-01 -0.48323710333E-01  0.67992697373E-01  0.51100000000E-03 0.  1.
</event>
<event>
 8    1  0.1117354E+005  0.1043930E+01  0.7957747E-01            NaN
         13   -1    0    0    0    0  0.00000000000E+00  0.00000000000E+00  0.74505805969E-08  0.10566000000E+00  0.10566000000E+00 0. -1.
     999900   -1    0    0    0    0 -0.00000000000E+00 -0.00000000000E+00 -0.74505805969E-08  0.93827000000E+00  0.93827000000E+00 0. -1.
     999902    2    1    2    0    0  0.18295367413E-01  0.44427325743E-02 -0.13233167455E-01  0.10209175020E+01  0.10206581068E+01 0.  0.
     999903    2    3    3    0    0 -0.36039185643E-01 -0.87733417307E-01 -0.88445297331E-01  0.13125152498E+00  0.20209323949E-01 0.  0.
         14    1    1    2    0    0 -0.18295367413E-01 -0.44427325743E-02  0.13233167455E-01  0.23012497960E-01  0.00000000000E+00 0. -1.
     999901    1    3    3    0    0  0.54334553056E-01  0.92176149881E-01  0.75212129876E-01  0.88966597706E+00  0.88000000000E+00 0.  1.
        -11    1    4    4    0    0 -0.18495800278E-01 -0.43536669723E-01 -0.30474718064E-01  0.56271714037E-01  0.51100000000E-03 0. -1.
         11    1    4    4    0    0 -0.17543385365E-01 -0.44196747584E-01 -0.57970579267E-01  0.74979810940E-01  0.51100000000E-03 0.  1.
</event>
<event>
 8    1  0.1117354E+005  0.1043930E+01  0.7957747E-01            NaN
         13   -1    0    0    0    0  0.00000000000E+00  0.00000000000E+00  0.74505805969E-08  0.10566000000E+00  0.10566000000E+00 0.  1.
     999900   -1    0    0    0    0 -0.00000000000E+00 -0.00000000000E+00 -0.74505805969E-08  0.93827000000E+00  0.93827000000E+00 0. -1.
     999902    2    1    2    0    0  0.52884646780E-02 -0.14871261097E-01  0.18420376017E-01  0.10196723720E+01  0.10193837911E+01 0.  0.
     999903    2    3    3    0    0  0.36937197581E-01 -0.79987179222E-01  0.97563951120E-01  0.13315929786E+00  0.21221890635E-01 0.  0.
         14    1    1    2    0    0 -0.52884646780E-02  0.14871261097E-01 -0.18420376017E-01  0.24257628035E-01  0.00000000000E+00 0. -1.
     999901    1    3    3    0    0 -0.31648732903E-01  0.65115918125E-01 -0.79143575103E-01  0.88651307411E+00  0.88000000000E+00 0. -1.
        -11    1    4    4    0    0  0.41752953002E-02 -0.15605743036E-01  0.30845467472E-01  0.34823501994E-01  0.51100000000E-03 0.  1.
         11    1    4    4    0    0  0.32761902281E-01 -0.64381436186E-01  0.66718483648E-01  0.98335795862E-01  0.51100000000E-03 0. -1.
</event>
<event>
 8    1  0.1117354E+005  0.1043930E+01  0.7957747E-01            NaN
         13   -1    0    0    0    0  0.00000000000E+00  0.00000000000E+00  0.74505805969E-08  0.10566000000E+00  0.10566000000E+00 0.  1.
     999900   -1    0    0    0    0 -0.00000000000E+00 -0.00000000000E+00 -0.74505805969E-08  0.93827000000E+00  0.93827000000E+00 0. -1.
     999902    2    1    2    0    0 -0.22841170055E-01 -0.92600086393E-02  0.48135429520E-02  0.10188175130E+01  0.10185079714E+01 0.  0.
     999903    2    3    3    0    0 -0.11953762339E+00 -0.52159926279E-01  0.13190770055E-01  0.13244243155E+00  0.18897088258E-01 0.  0.
         14    1    1    2    0    0  0.22841170055E-01  0.92600086393E-02 -0.48135429520E-02  0.25112487038E-01  0.00000000000E+00 0.  1.
     999901    1    3    3    0    0  0.96696453334E-01  0.42899917639E-01 -0.83772271034E-02  0.88637508142E+00  0.88000000000E+00 0.  1.
        -11    1    4    4    0    0 -0.19768232101E-01 -0.12565000107E-01  0.87517705530E-02  0.25010334602E-01  0.51100000000E-03 0. -1.
         11    1    4    4    0    0 -0.99769391287E-01 -0.39594926172E-01  0.44389995024E-02  0.10743209694E+00  0.51100000000E-03 0.  1.
</event>
<event>
 8    1  0.1117354E+005  0.1043930E+01  0.7957747E-01            NaN
         13   -1    0    0    0    0  0.00000000000E+00  0.00000000000E+00  0.74505805969E-08  0.10566000000E+00  0.10566000000E+00 0.  1.
     999900   -1    0    0    0    0 -0.00000000000E+00 -0.00000000000E+00 -0.74505805969E-08  0.93827000000E+00  0.93827000000E+00 0.  1.
     999902    2    1    2    0    0  0.19782147805E-01 -0.49660813644E-02 -0.12969561968E-01  0.10197596696E+01  0.10194731869E+01 0.  0.
     999903    2    3    3    0    0 -0.32457187950E-01  0.19341370788E-01  0.12028305576E+00  0.12786502300E+00  0.21304763122E-01 0.  0.
         14    1    1    2    0    0 -0.19782147805E-01  0.49660813644E-02  0.12969561968E-01  0.24170330439E-01  0.00000000000E+00 0.  1.
     999901    1    3    3    0    0  0.52239335755E-01 -0.24307452153E-01 -0.13325261772E+00  0.89189464656E+00  0.88000000000E+00 0.  1.
        -11    1    4    4    0    0 -0.25299631019E-01  0.21632415374E-01  0.76371356745E-01  0.83311931778E-01  0.51100000000E-03 0.  1.
         11    1    4    4    0    0 -0.71575569314E-02 -0.22910445859E-02  0.43911699011E-01  0.44553091224E-01  0.51100000000E-03 0. -1.
</event>
<event>
 8    1  0.1117354E+005  0.1043930E+01  0.7957747E-01            NaN
         13   -1    0    0    0    0  0.00000000000E+00  0.00000000000E+00  0.74505805969E-08  0.10566000000E+00  0.10566000000E+00 0. -1.
     999900   -1    0    0    0    0 -0.00000000000E+00 -0.00000000000E+00 -0.74505805969E-08  0.93827000000E+00  0.93827000000E+00 0.  1.
     999902    2    1    2    0    0  0.10016159088E-01  0.52720555911E-02 -0.20037880405E-01  0.10209162071E+01  0.10206567823E+01 0.  0.
     999903    2    3    3    0    0 -0.95648873232E-01 -0.34069401028E-01  0.75622079938E-01  0.12858012843E+00  0.22465961273E-01 0.  0.
         14    1    1    2    0    0 -0.10016159088E-01 -0.52720555911E-02  0.20037880405E-01  0.23013792911E-01  0.00000000000E+00 0. -1.
     999901    1    3    3    0    0  0.10566503232E+00  0.39341456619E-01 -0.95659960343E-01  0.89233607866E+00  0.88000000000E+00 0.  1.
        -11    1    4    4    0    0 -0.62081681180E-01 -0.12106881122E-01  0.39333974234E-01  0.74485799712E-01  0.51100000000E-03 0.  1.
         11    1    4    4    0    0 -0.33567192052E-01 -0.21962519906E-01  0.36288105704E-01  0.54094328718E-01  0.51100000000E-03 0. -1.
</event>
<event>
 8    1  0.1117354E+005  0.1043930E+01  0.7957747E-01            NaN
         13   -1    0    0    0    0  0.00000000000E+00  0.00000000000E+00  0.74505805969E-08  0.10566000000E+00  0.10566000000E+00 0. -1.
     999900   -1    0    0    0    0 -0.00000000000E+00 -0.00000000000E+00 -0.74505805969E-08  0.93827000000E+00  0.93827000000E+00 0.  1.
     999902    2    1    2    0    0 -0.10395120763E-01 -0.21530921108E-01 -0.65470217569E-03  0.10200120625E+01  0.10197316019E+01 0.  0.
     999903    2    3    3    0    0  0.54392324289E-02  0.67643499141E-01 -0.10809842587E+00  0.12886282823E+00  0.17751918158E-01 0.  0.
         14    1    1    2    0    0  0.10395120763E-01  0.21530921108E-01  0.65470217569E-03  0.23917937502E-01  0.00000000000E+00 0. -1.
     999901    1    3    3    0    0 -0.15834353192E-01 -0.89174420249E-01  0.10744372370E+00  0.89114923426E+00  0.88000000000E+00 0. -1.
        -11    1    4    4    0    0 -0.48835982082E-02  0.11387495508E-01 -0.25979105779E-01  0.28787143719E-01  0.51100000000E-03 0.  1.
         11    1    4    4    0    0  0.10322830637E-01  0.56256003633E-01 -0.82119320095E-01  0.10007568451E+00  0.51100000000E-03 0. -1.
</event>
<event>
 8    1  0.1117354E+005  0.1043930E+01  0.7957747E-01            NaN
         13   -1    0    0    0    0  0.00000000000E+00  0.00000000000E+00  0.74505805969E-08  0.10566000000E+00  0.10566000000E+00 0. -1.
     999900   -1    0    0    0    0 -0.00000000000E+00 -0.00000000000E+00 -0.74505805969E-08  0.93827000000E+00  0.93827000000E+00 0.  1.
     999902    2    1    2    0    0  0.13461163195E-01 -0.14524034505E-01 -0.12778780968E-01  0.10203620613E+01  0.10200898433E+01 0.  0.
     999903    2    3    3    0    0 -0.10480998122E+00  0.27812847393E-01 -0.68297922749E-01  0.12970901419E+00  0.20028366549E-01 0.  0.
         14    1    1    2    0    0 -0.13461163195E-01  0.14524034505E-01  0.12778780968E-01  0.23567938729E-01  0.00000000000E+00 0. -1.
     999901    1    3    3    0    0  0.11827114442E+00 -0.42336881898E-01  0.55519141781E-01  0.89065304708E+00  0.88000000000E+00 0. -1.
        -11    1    4    4    0    0 -0.66202324847E-01  0.12524543963E-01 -0.32164710553E-01  0.74662184153E-01  0.51100000000E-03 0. -1.
         11    1    4    4    0    0 -0.38607656375E-01  0.15288303430E-01 -0.36133212196E-01  0.55046830037E-01  0.51100000000E-03 0.  1.
</event>
<event>
 8    1  0.1117354E+005  0.1043930E+01  0.7957747E-01            NaN
         13   -1    0    0    0    0  0.00000000000E+00  0.00000000000E+00  0.74505805969E-08  0.10566000000E+00  0.10566000000E+00 0. -1.
     999900   -1    0    0    0    0 -0.00000000000E+00 -0.00000000000E+00 -0.74505805969E-08  0.93827000000E+00  0.93827000000E+00 0.  1.
     999902    2    1    2    0    0  0.23327338923E-01 -0.23342669775E-02  0.33955565874E-02  0.10202415355E+01  0.10199664933E+01 0.  0.
     999903    2    3    3    0    0 -0.19704759035E-01  0.87315953413E-02  0.12721948631E+00  0.13046258528E+00  0.19265777303E-01 0.  0.
         14    1    1    2    0    0 -0.23327338923E-01  0.23342669775E-02 -0.33955565874E-02  0.23688464452E-01  0.00000000000E+00 0.  1.
     999901    1    3    3    0    0  0.43032097958E-01 -0.11065862319E-01 -0.12382392973E+00  0.88977895027E+00  0.88000000000E+00 0.  1.
        -11    1    4    4    0    0 -0.37331172326E-02  0.11912170006E-01  0.49371109006E-01  0.50927433511E-01  0.51100000000E-03 0. -1.
         11    1    4    4    0    0 -0.15971641803E-01 -0.31805746643E-02  0.77848377306E-01  0.79535151771E-01  0.51100000000E-03 0.  1.
</event>
<event>
 8    1  0.1117354E+005  0.1043930E+01  0.7957747E-01            NaN
         13   -1    0    0    0    0  0.00000000000E+00  0.00000000000E+00  0.74505805969E-08  0.10566000000E+00  0.10566000000E+00 0. -1.
     999900   -1    0    0    0    0 -0.00000000000E+00 -0.00000000000E+00 -0.74505805969E-08  0.93827000000E+00  0.93827000000E+00 0. -1.
     999902    2    1    2    0    0 -0.23185528812E-01 -0.61490817863E-02 -0.83758107183E-04  0.10199427749E+01  0.10196606676E+01 0.  0.
     999903    2    3    3    0    0  0.26652873641E-01  0.43828008215E-01 -0.11686872893E+00  0.12942589953E+00  0.21482404230E-01 0.  0.
         14    1    1    2    0    0  0.23185528812E-01  0.61490817863E-02  0.83758107183E-04  0.23987225111E-01  0.00000000000E+00 0.  1.
     999901    1    3    3    0    0 -0.49838402452E-01 -0.49977090002E-01  0.11678497082E+00  0.89051687536E+00  0.88000000000E+00 0.  1.
        -11    1    4    4    0    0  0.14165053002E-01  0.26959539607E-01 -0.91834502797E-01  0.96753824355E-01  0.51100000000E-03 0.  1.
         11    1    4    4    0    0  0.12487820639E-01  0.16868468609E-01 -0.25034226131E-01  0.32672075178E-01  0.51100000000E-03 0. -1.
</event>
<event>
 8    1  0.1117354E+005  0.1043930E+01  0.7957747E-01            NaN
         13   -1    0    0    0    0  0.00000000000E+00  0.00000000000E+00  0.74505805969E-08  0.10566000000E+00  0.10566000000E+00 0. -1.
     999900   -1    0    0    0    0 -0.00000000000E+00 -0.00000000000E+00 -0.74505805969E-08  0.93827000000E+00  0.93827000000E+00 0. -1.
     999902    2    1    2    0    0 -0.95492649574E-02  0.34683664545E-03 -0.22717593607E-01  0.10192845579E+01  0.10189865613E+01 0.  0.
     999903    2    3    3    0    0  0.61840376204E-01  0.74636919773E-01  0.80028084907E-01  0.12733603261E+00  0.20373239928E-01 0.  0.
         14    1    1    2    0    0  0.95492649574E-02 -0.34683664545E-03  0.22717593607E-01  0.24645442097E-01  0.00000000000E+00 0. -1.
     999901    1    3    3    0    0 -0.71389641161E-01 -0.74290083127E-01 -0.10274567851E+00  0.89194852529E+00  0.88000000000E+00 0. -1.
        -11    1    4    4    0    0  0.40956506297E-01  0.62912398392E-01  0.61723594639E-01  0.97187800344E-01  0.51100000000E-03 0.  1.
         11    1    4    4    0    0  0.20883869907E-01  0.11724521381E-01  0.18304490267E-01  0.30148232267E-01  0.51100000000E-03 0. -1.
</event>
<event>
 8    1  0.1117354E+005  0.1043930E+01  0.7957747E-01            NaN
         13   -1    0    0    0    0  0.00000000000E+00  0.00000000000E+00  0.74505805969E-08  0.10566000000E+00  0.10566000000E+00 0.  1.
     999900   -1    0    0    0    0 -0.00000000000E+00 -0.00000000000E+00 -0.74505805969E-08  0.93827000000E+00  0.93827000000E+00 0.  1.
     999902    2    1    2    0    0  0.11070621275E-02 -0.23402299549E-01  0.10230385738E-01  0.10183652977E+01  0.10180443633E+01 0.  0.
     999903    2    3    3    0    0  0.11728955745E+00  0.27429024229E-01  0.40576327522E-01  0.12875691652E+00  0.20559998588E-01 0.  0.
         14    1    1    2    0    0 -0.11070621275E-02  0.23402299549E-01 -0.10230385738E-01  0.25564702289E-01  0.00000000000E+00 0. -1.
     999901    1    3    3    0    0 -0.11618249532E+00 -0.50831323778E-01 -0.30345941783E-01  0.88960838119E+00  0.88000000000E+00 0.  1.
        -11    1    4    4    0    0  0.28832235834E-01  0.15498866452E-01  0.14171628692E-01  0.35673643846E-01  0.51100000000E-03 0. -1.
         11    1    4    4    0    0  0.88457321611E-01  0.11930157776E-01  0.26404698830E-01  0.93083272678E-01  0.51100000000E-03 0.  1.
</event>
<event>
 8    1  0.1117354E+005  0.1043930E+01  0.7957747E-01            NaN
         13   -1    0    0    0    0  0.00000000000E+00  0.00000000000E+00  0.74505805969E-08  0.10566000000E+00  0.10566000000E+00 0.  1.
     999900   -1    0    0    0    0 -0.00000000000E+00 -0.00000000000E+00 -0.74505805969E-08  0.93827000000E+00  0.93827000000E+00 0.  1.
     999902    2    1    2    0    0 -0.19724387475E-01 -0.11660251479E-01  0.68396568902E-02  0.10200177891E+01  0.10197374643E+01 0.  0.
     999903    2    3    3    0    0  0.87653582793E-01  0.76077772682E-01 -0.48621622913E-01  0.12743505175E+00  0.20115966958E-01 0.  0.
         14    1    1    2    0    0  0.19724387475E-01  0.11660251479E-01 -0.68396568902E-02  0.23912210944E-01  0.00000000000E+00 0. -1.
     999901    1    3    3    0    0 -0.10737797027E+00 -0.87738024162E-01  0.55461279803E-01  0.89258273731E+00  0.88000000000E+00 0. -1.
        -11    1    4    4    0    0 -0.69429212755E-03  0.30533601764E-02 -0.13540805207E-02  0.34495949011E-02  0.51100000000E-03 0. -1.
         11    1    4    4    0    0  0.88347874920E-01  0.73024412506E-01 -0.47267542392E-01  0.12398545685E+00  0.51100000000E-03 0.  1.
</event>
<event>
 8    1  0.1117354E+005  0.1043930E+01  0.7957747E-01            NaN
         13   -1    0    0    0    0  0.00000000000E+00  0.00000000000E+00  0.74505805969E-08  0.10566000000E+00  0.10566000000E+00 0.  1.
     999900   -1    0    0    0    0 -0.00000000000E+00 -0.00000000000E+00 -0.74505805969E-08  0.93827000000E+00  0.93827000000E+00 0. -1.
     999902    2    1    2    0    0  0.13843554103E-02 -0.16741311567E-01 -0.23110145925E-01  0.10153596168E+01  0.10149575777E+01 0.  0.
     999903    2    3    3    0    0  0.57452620042E-02 -0.12510267838E+00  0.15941370835E-01  0.12784273002E+00  0.20148154754E-01 0.  0.
         14    1    1    2    0    0 -0.13843554103E-02  0.16741311567E-01  0.23110145925E-01  0.28570383224E-01  0.00000000000E+00 0.  1.
     999901    1    3    3    0    0 -0.43609065939E-02  0.10836136681E+00 -0.39051516761E-01  0.88751688676E+00  0.88000000000E+00 0. -1.
        -11    1    4    4    0    0  0.10878380099E-01 -0.10762904071E+00  0.98230327476E-02  0.10862367445E+00  0.51100000000E-03 0.  1.
         11    1    4    4    0    0 -0.51331180948E-02 -0.17473637667E-01  0.61183380878E-02  0.19219055561E-01  0.51100000000E-03 0. -1.
</event>
<event>
 8    1  0.1149593E+005  0.1043930E+01  0.7957747E-01            NaN
         13   -1    0    0    0    0  0.00000000000E+00  0.00000000000E+00  0.74505805969E-08  0.10566000000E+00  0.10566000000E+00 0.  1.
     999900   -1    0    0    0    0 -0.00000000000E+00 -0.00000000000E+00 -0.74505805969E-08  0.93827000000E+00  0.93827000000E+00 0. -1.
     999902    2    1    2    0    0 -0.17378303040E-01 -0.14898919172E-01 -0.62363210721E-02  0.10202050151E+01  0.10199291141E+01 0.  0.
     999903    2    3    3    0    0  0.38277799501E-01 -0.65910570856E-01 -0.10504115729E+00  0.13146310315E+00  0.20964481394E-01 0.  0.
         14    1    1    2    0    0  0.17378303040E-01  0.14898919172E-01  0.62363210721E-02  0.23724984922E-01  0.00000000000E+00 0. -1.
     999901    1    3    3    0    0 -0.55656102541E-01  0.51011651684E-01  0.98804836216E-01  0.88874191193E+00  0.88000000000E+00 0.  1.
        -11    1    4    4    0    0  0.22067505345E-01 -0.55613522431E-01 -0.78872545668E-01  0.98999890154E-01  0.51100000000E-03 0.  1.
         11    1    4    4    0    0  0.16210294155E-01 -0.10297048425E-01 -0.26168611621E-01  0.32463212996E-01  0.51100000000E-03 0. -1.
</event>
<event>
 8    1  0.1117354E+005  0.1043930E+01  0.7957747E-01            NaN
         13   -1    0    0    0    0  0.00000000000E+00  0.00000000000E+00  0.74505805969E-08  0.10566000000E+00  0.10566000000E+00 0.  1.
     999900   -1    0    0    0    0 -0.00000000000E+00 -0.00000000000E+00 -0.74505805969E-08  0.93827000000E+00  0.93827000000E+00 0.  1.
     999902    2    1    2    0    0 -0.24304824523E-01 -0.12847773959E-01 -0.11573070302E-01  0.10141017291E+01  0.10136629574E+01 0.  0.
     999903    2    3    3    0    0 -0.38457915089E-01  0.80400702549E-01  0.83761339784E-01  0.12394205907E+00  0.20059605182E-01 0.  0.
         14    1    1    2    0    0  0.24304824523E-01  0.12847773959E-01  0.11573070302E-01  0.29828270935E-01  0.00000000000E+00 0.  1.
     999901    1    3    3    0    0  0.14153090567E-01 -0.93248476508E-01 -0.95334410086E-01  0.89015967000E+00  0.88000000000E+00 0.  1.
        -11    1    4    4    0    0 -0.37058961336E-02  0.94387526745E-02  0.19919846210E-01  0.22358110659E-01  0.51100000000E-03 0. -1.
         11    1    4    4    0    0 -0.34752018956E-01  0.70961949874E-01  0.63841493573E-01  0.10158394841E+00  0.51100000000E-03 0.  1.
</event>
<event>
 8    1  0.1117354E+005  0.1043930E+01  0.7957747E-01            NaN
         13   -1    0    0    0    0  0.00000000000E+00  0.00000000000E+00  0.74505805969E-08  0.10566000000E+00  0.10566000000E+00 0. -1.
     999900   -1    0    0    0    0 -0.00000000000E+00 -0.00000000000E+00 -0.74505805969E-08  0.93827000000E+00  0.93827000000E+00 0.  1.
     999902    2    1    2    0    0  0.16109648220E-02 -0.56469032910E-02  0.22503560012E-01  0.10206728949E+01  0.10204078917E+01 0.  0.
     999903    2    3    3    0    0 -0.87668294182E-01  0.14505401277E-01 -0.90902554441E-01  0.12868755407E+00  0.20026874354E-01 0.  0.
         14    1    1    2    0    0 -0.16109648220E-02  0.56469032910E-02 -0.22503560012E-01  0.23257105100E-01  0.00000000000E+00 0.  1.
     999901    1    3    3    0    0  0.89279259004E-01 -0.20152304568E-01  0.11340611445E+00  0.89198534083E+00  0.88000000000E+00 0. -1.
        -11    1    4    4    0    0 -0.58161096448E-01  0.56707246932E-02 -0.46685417331E-01  0.74797456981E-01  0.51100000000E-03 0. -1.
         11    1    4    4    0    0 -0.29507197735E-01  0.88346765840E-02 -0.44217137111E-01  0.53890097084E-01  0.51100000000E-03 0.  1.
</event>
<event>
 8    1  0.1117354E+005  0.1043930E+01  0.7957747E-01            NaN
         13   -1    0    0    0    0  0.00000000000E+00  0.00000000000E+00  0.74505805969E-08  0.10566000000E+00  0.10566000000E+00 0. -1.
     999900   -1    0    0    0    0 -0.00000000000E+00 -0.00000000000E+00 -0.74505805969E-08  0.93827000000E+00  0.93827000000E+00 0. -1.
     999902    2    1    2    0    0  0.34567275371E-02 -0.10017606280E-01 -0.20380353053E-01  0.10209591447E+01  0.10207006981E+01 0.  0.
     999903    2    3    3    0    0  0.31158981615E-01  0.11382440970E+00  0.48353685702E-01  0.12920322080E+00  0.20700603012E-01 0.  0.
         14    1    1    2    0    0 -0.34567275371E-02  0.10017606280E-01  0.20380353053E-01  0.22970855261E-01  0.00000000000E+00 0. -1.
     999901    1    3    3    0    0 -0.27702254078E-01 -0.12384201598E+00 -0.68734038754E-01  0.89175592394E+00  0.88000000000E+00 0. -1.
        -11    1    4    4    0    0  0.34010347126E-02  0.42489147870E-01  0.10980314699E-01  0.44019576960E-01  0.51100000000E-03 0.  1.
         11    1    4    4    0    0  0.27757946902E-01  0.71335261828E-01  0.37373371002E-01  0.85183643837E-01  0.51100000000E-03 0. -1.
</event>
<event>
 8    1  0.1117354E+005  0.1043930E+01  0.7957747E-01            NaN
         13   -1    0    0    0    0  0.00000000000E+00  0.00000000000E+00  0.74505805969E-08  0.10566000000E+00  0.10566000000E+00 0. -1.
     999900   -1    0    0    0    0 -0.00000000000E+00 -0.00000000000E+00 -0.74505805969E-08  0.93827000000E+00  0.93827000000E+00 0.  1.
     999902    2    1    2    0    0 -0.21084045317E-01 -0.11326379722E-02 -0.11510558273E-01  0.10198818652E+01  0.10195983063E+01 0.  0.
     999903    2    3    3    0    0 -0.11438840493E+00  0.10652571728E-01  0.61600597764E-01  0.13185605711E+00  0.19829313757E-01 0.  0.
         14    1    1    2    0    0  0.21084045317E-01  0.11326379722E-02  0.11510558273E-01  0.24048134802E-01  0.00000000000E+00 0. -1.
     999901    1    3    3    0    0  0.93304359617E-01 -0.11785209701E-01 -0.73111156037E-01  0.88802580809E+00  0.88000000000E+00 0.  1.
        -11    1    4    4    0    0 -0.33753180232E-01  0.54273831832E-02  0.87199498845E-02  0.35285015388E-01  0.51100000000E-03 0. -1.
         11    1    4    4    0    0 -0.80635224703E-01  0.52251885451E-02  0.52880647880E-01  0.96571041722E-01  0.51100000000E-03 0.  1.
</event>
<event>
 7    1  0.1117354E+005  0.1043930E+01  0.7957747E-01            NaN
         13   -1    0    0    0    0  0.00000000000E+00  0.00000000000E+00  0.74505805969E-08  0.10566000000E+00  0.10566000000E+00 0.  1.
     999900   -1    0    0    0    0 -0.00000000000E+00 -0.00000000000E+00 -0.74505805969E-08  0.93827000000E+00  0.93827000000E+00 0. -1.
     999903    2    1    2    0    0  0.42704658706E-01  0.96757754955E-01 -0.55310661632E-01  0.12111725007E+00  0.20600193066E-01 0.  0.
         14    1    1    2    0    0 -0.27888350330E-01 -0.17330907347E-01  0.19916241475E-01  0.38402826824E-01  0.00000000000E+00 0.  1.
     999901    1    1    2    0    0 -0.14816308376E-01 -0.79426847608E-01  0.35394420157E-01  0.88440992311E+00  0.88000000000E+00 0.  1.
        -11    1    3    3    0    0  0.15423930244E-01  0.59681950412E-01 -0.29476633407E-01  0.68329831458E-01  0.51100000000E-03 0. -1.
         11    1    3    3    0    0  0.27280728463E-01  0.37075804543E-01 -0.25834028226E-01  0.52787418608E-01  0.51100000000E-03 0.  1.
</event>
<event>
 8    1  0.1117354E+005  0.1043930E+01  0.7957747E-01            NaN
         13   -1    0    0    0    0  0.00000000000E+00  0.00000000000E+00  0.74505805969E-08  0.10566000000E+00  0.10566000000E+00 0.  1.
     999900   -1    0    0    0    0 -0.00000000000E+00 -0.00000000000E+00 -0.74505805969E-08  0.93827000000E+00  0.93827000000E+00 0.  1.
     999902    2    1    2    0    0 -0.32767949628E-02 -0.56015852980E-02  0.31197027178E-01  0.10120651346E+01  0.10115633776E+01 0.  0.
     999903    2    3    3    0    0 -0.11175516691E+00  0.32332671964E-01 -0.32466116541E-01  0.12231260668E+00  0.19279678955E-01 0.  0.
         14    1    1    2    0    0  0.32767949628E-02  0.56015852980E-02 -0.31197027178E-01  0.31864865413E-01  0.00000000000E+00 0. -1.
     999901    1    3    3    0    0  0.10847837195E+00 -0.37934257262E-01  0.63663143718E-01  0.88975252791E+00  0.88000000000E+00 0.  1.
        -11    1    4    4    0    0 -0.47837412364E-01  0.60154609469E-02 -0.73930961917E-02  0.48780352442E-01  0.51100000000E-03 0. -1.
         11    1    4    4    0    0 -0.63917754549E-01  0.26317211017E-01 -0.25073020349E-01  0.73532254234E-01  0.51100000000E-03 0.  1.
</event>
<event>
 8    1  0.1117354E+005  0.1043930E+01  0.7957747E-01            NaN
         13   -1    0    0    0    0  0.00000000000E+00  0.00000000000E+00  0.74505805969E-08  0.10566000000E+00  0.10566000000E+00 0.  1.
     999900   -1    0    0    0    0 -0.00000000000E+00 -0.00000000000E+00 -0.74505805969E-08  0.93827000000E+00  0.93827000000E+00 0. -1.
     999902    2    1    2    0    0 -0.13139814205E-01  0.11068799882E-01  0.15629815246E-01  0.10207036320E+01  0.10204393368E+01 0.  0.
     999903    2    3    3    0    0  0.74524562061E-01  0.10332056401E+00  0.25831518320E-01  0.13149077464E+00  0.19837015399E-01 0.  0.
         14    1    1    2    0    0  0.13139814205E-01 -0.11068799882E-01 -0.15629815246E-01  0.23226368050E-01  0.00000000000E+00 0.  1.
     999901    1    3    3    0    0 -0.87664376266E-01 -0.92251764130E-01 -0.10201703074E-01  0.88921285731E+00  0.88000000000E+00 0. -1.
        -11    1    4    4    0    0  0.37521339878E-01  0.66470079031E-01  0.10416476377E-01  0.77038214243E-01  0.51100000000E-03 0. -1.
         11    1    4    4    0    0  0.37003222183E-01  0.36850484981E-01  0.15415041943E-01  0.54452560402E-01  0.51100000000E-03 0.  1.
</event>
<event>
 8    1  0.1117354E+005  0.1043930E+01  0.7957747E-01            NaN
         13   -1    0    0    0    0  0.00000000000E+00  0.00000000000E+00  0.74505805969E-08  0.10566000000E+00  0.10566000000E+00 0. -1.
     999900   -1    0    0    0    0 -0.00000000000E+00 -0.00000000000E+00 -0.74505805969E-08  0.93827000000E+00  0.93827000000E+00 0. -1.
     999902    2    1    2    0    0  0.11289613942E-01  0.75845494405E-02 -0.19666412723E-01  0.10200187357E+01  0.10197384334E+01 0.  0.
     999903    2    3    3    0    0  0.32170748926E-01  0.10051435180E+00 -0.78279548527E-01  0.13294068404E+00  0.20185285511E-01 0.  0.
         14    1    1    2    0    0 -0.11289613942E-01 -0.75845494405E-02  0.19666412723E-01  0.23911264345E-01  0.00000000000E+00 0. -1.
     999901    1    3    3    0    0 -0.20881134984E-01 -0.92929802362E-01  0.58613135803E-01  0.88707805161E+00  0.88000000000E+00 0.  1.
        -11    1    4    4    0    0  0.13445836539E-01  0.71059421171E-01 -0.48743289078E-01  0.87214684592E-01  0.51100000000E-03 0.  1.
         11    1    4    4    0    0  0.18724912387E-01  0.29454930631E-01 -0.29536259449E-01  0.45725999449E-01  0.51100000000E-03 0. -1.
</event>
<event>
 8    1  0.1117354E+005  0.1043930E+01  0.7957747E-01            NaN
         13   -1    0    0    0    0  0.00000000000E+00  0.00000000000E+00  0.74505805969E-08  0.10566000000E+00  0.10566000000E+00 0. -1.
     999900   -1    0    0    0    0 -0.00000000000E+00 -0.00000000000E+00 -0.74505805969E-08  0.93827000000E+00  0.93827000000E+00 0.  1.
     999902    2    1    2    0    0 -0.10702780453E-01 -0.52156026042E-02  0.19681157783E-01  0.10209278264E+01  0.10206686664E+01 0.  0.
     999903    2    3    3    0    0  0.18976699588E-01 -0.10347916207E+00 -0.73549468489E-01  0.13006950524E+00  0.20988086370E-01 0.  0.
         14    1    1    2    0    0  0.10702780453E-01  0.52156026042E-02 -0.19681157783E-01  0.23002173628E-01  0.00000000000E+00 0.  1.
     999901    1    3    3    0    0 -0.29679480040E-01  0.98263559462E-01  0.93230626272E-01  0.89085832113E+00  0.88000000000E+00 0. -1.
        -11    1    4    4    0    0  0.14365203233E-01 -0.60767613347E-01 -0.31445945716E-01  0.69915452647E-01  0.51100000000E-03 0. -1.
         11    1    4    4    0    0  0.46114963545E-02 -0.42711548719E-01 -0.42103522773E-01  0.60154052594E-01  0.51100000000E-03 0.  1.
</event>
<event>
 8    1  0.1117354E+005  0.1043930E+01  0.7957747E-01            NaN
         13   -1    0    0    0    0  0.00000000000E+00  0.00000000000E+00  0.74505805969E-08  0.10566000000E+00  0.10566000000E+00 0. -1.
     999900   -1    0    0    0    0 -0.00000000000E+00 -0.00000000000E+00 -0.74505805969E-08  0.93827000000E+00  0.93827000000E+00 0. -1.
     999902    2    1    2    0    0 -0.14964400595E-01  0.32108704771E-02  0.16196811126E-01  0.10216459325E+01  0.10214028743E+01 0.  0.
     999903    2    3    3    0    0  0.99267726156E-01 -0.76108378937E-01 -0.28127392963E-01  0.12962286262E+00  0.19088464506E-01 0.  0.
         14    1    1    2    0    0  0.14964400595E-01 -0.32108704771E-02 -0.16196811126E-01  0.22284067516E-01  0.00000000000E+00 0.  1.
     999901    1    3    3    0    0 -0.11423212675E+00  0.79319249414E-01  0.44324204089E-01  0.89202306987E+00  0.88000000000E+00 0.  1.
        -11    1    4    4    0    0  0.78552793912E-01 -0.51676861014E-01 -0.16059338107E-01  0.95389741886E-01  0.51100000000E-03 0. -1.
         11    1    4    4    0    0  0.20714932244E-01 -0.24431517923E-01 -0.12068054855E-01  0.34233120729E-01  0.51100000000E-03 0.  1.
</event>
<event>
 8    1  0.1117354E+005  0.1043930E+01  0.7957747E-01            NaN
         13   -1    0    0    0    0  0.00000000000E+00  0.00000000000E+00  0.74505805969E-08  0.10566000000E+00  0.10566000000E+00 0.  1.
     999900   -1    0    0    0    0 -0.00000000000E+00 -0.00000000000E+00 -0.74505805969E-08  0.93827000000E+00  0.93827000000E+00 0. -1.
     999902    2    1    2    0    0 -0.33691409035E-02  0.23919464303E-01 -0.34761601878E-02  0.10195255829E+01  0.10192334564E+01 0.  0.
     999903    2    3    3    0    0  0.50624944329E-01  0.25098271706E-02  0.11734949277E+00  0.12937246564E+00  0.19928552193E-01 0.  0.
         14    1    1    2    0    0  0.33691409035E-02 -0.23919464303E-01  0.34761601878E-02  0.24404417072E-01  0.00000000000E+00 0. -1.
     999901    1    3    3    0    0 -0.53994085232E-01  0.21409637132E-01 -0.12082565296E+00  0.89015311729E+00  0.88000000000E+00 0. -1.
        -11    1    4    4    0    0  0.17154157513E-01  0.10384440879E-01  0.44783879478E-01  0.49070955915E-01  0.51100000000E-03 0. -1.
         11    1    4    4    0    0  0.33470786816E-01 -0.78746137082E-02  0.72565613291E-01  0.80301509727E-01  0.51100000000E-03 0.  1.
</event>
<event>
 8    1  0.1117354E+005  0.1043930E+01  0.7957747E-01            NaN
         13   -1    0    0    0    0  0.00000000000E+00  0.00000000000E+00  0.74505805969E-08  0.10566000000E+00  0.10566000000E+00 0.  1.
     999900   -1    0    0    0    0 -0.00000000000E+00 -0.00000000000E+00 -0.74505805969E-08  0.93827000000E+00  0.93827000000E+00 0.  1.
     999902    2    1    2    0    0  0.42196889082E-02  0.23439719352E-01 -0.39283162632E-03  0.10201102491E+01  0.10198321135E+01 0.  0.
     999903    2    3    3    0    0 -0.57590854459E-01  0.11078604506E+00  0.39966508271E-01  0.13271022642E+00  0.20601653227E-01 0.  0.
         14    1    1    2    0    0 -0.42196889082E-02 -0.23439719352E-01  0.39283162632E-03  0.23819750932E-01  0.00000000000E+00 0.  1.
     999901    1    3    3    0    0  0.61810543368E-01 -0.87346325703E-01 -0.40359339897E-01  0.88740002265E+00  0.88000000000E+00 0.  1.
        -11    1    4    4    0    0 -0.53592369614E-01  0.10344828616E+00  0.31252582896E-01  0.12062617895E+00  0.51100000000E-03 0. -1.
         11    1    4    4    0    0 -0.39984848454E-02  0.73377588998E-02  0.87139253747E-02  0.12084047466E-01  0.51100000000E-03 0.  1.
</event>
<event>
 8    1  0.1117354E+005  0.1043930E+01  0.7957747E-01            NaN
         13   -1    0    0    0    0  0.00000000000E+00  0.00000000000E+00  0.74505805969E-08  0.10566000000E+00  0.10566000000E+00 0.  1.
     999900   -1    0    0    0    0 -0.00000000000E+00 -0.00000000000E+00 -0.74505805969E-08  0.93827000000E+00  0.93827000000E+00 0.  1.
     999902    2    1    2    0    0  0.19958653798E-01 -0.11180291811E-01  0.42808145663E-02  0.10206561486E+01  0.10203907592E+01 0.  0.
     999903    2    3    3    0    0  0.15800302113E-01 -0.38754214146E-01 -0.12237942381E+00  0.13115042681E+00  0.21729528718E-01 0.  0.
         14    1    1    2    0    0 -0.19958653798E-01  0.11180291811E-01 -0.42808145663E-02  0.23273851416E-01  0.00000000000E+00 0. -1.
     999901    1    3    3    0    0  0.41583516853E-02  0.27573922335E-01  0.12666023838E+00  0.88950572177E+00  0.88000000000E+00 0. -1.
        -11    1    4    4    0    0  0.10319085985E-01 -0.28065281477E-01 -0.54058706968E-01  0.61779838783E-01  0.51100000000E-03 0. -1.
         11    1    4    4    0    0  0.54812161273E-02 -0.10688932669E-01 -0.68320716846E-01  0.69370588027E-01  0.51100000000E-03 0.  1.
</event>
<event>
 8    1  0.1117354E+005  0.1043930E+01  0.7957747E-01            NaN
         13   -1    0    0    0    0  0.00000000000E+00  0.00000000000E+00  0.74505805969E-08  0.10566000000E+00  0.10566000000E+00 0.  1.
     999900   -1    0    0    0    0 -0.00000000000E+00 -0.00000000000E+00 -0.74505805969E-08  0.93827000000E+00  0.93827000000E+00 0. -1.
     999902    2    1    2    0    0  0.98850414403E-02 -0.66733236565E-02  0.27451472302E-01  0.10139995703E+01  0.10135577427E+01 0.  0.
     999903    2    3    3    0    0  0.11069873010E-01 -0.41130135511E-01  0.11960261478E+00  0.12851636389E+00  0.19935902016E-01 0.  0.
         14    1    1    2    0    0 -0.98850414403E-02  0.66733236565E-02 -0.27451472302E-01  0.29930429741E-01  0.00000000000E+00 0. -1.
     999901    1    3    3    0    0 -0.11848315701E-02  0.34456811855E-01 -0.92151142476E-01  0.88548320637E+00  0.88000000000E+00 0. -1.
        -11    1    4    4    0    0  0.40731567664E-03 -0.34390830642E-01  0.88479941310E-01  0.94930797287E-01  0.51100000000E-03 0.  1.
         11    1    4    4    0    0  0.10662557334E-01 -0.67393048697E-02  0.31122673468E-01  0.33585566599E-01  0.51100000000E-03 0. -1.
</event>
<event>
 8    1  0.1117354E+005  0.1043930E+01  0.7957747E-01            NaN
         13   -1    0    0    0    0  0.00000000000E+00  0.00000000000E+00  0.74505805969E-08  0.10566000000E+00  0.10566000000E+00 0. -1.
     999900   -1    0    0    0    0 -0.00000000000E+00 -0.00000000000E+00 -0.74505805969E-08  0.93827000000E+00  0.93827000000E+00 0.  1.
     999902    2    1    2    0    0 -0.90477405591E-02 -0.10741020660E-01  0.18526113131E-01  0.10206824625E+01  0.10204176798E+01 0.  0.
     999903    2    3    3    0    0  0.87243937563E-01  0.35991587824E-01  0.89662923447E-01  0.13134761565E+00  0.17488775234E-01 0.  0.
         14    1    1    2    0    0  0.90477405591E-02  0.10741020660E-01 -0.18526113131E-01  0.23247537542E-01  0.00000000000E+00 0.  1.
     999901    1    3    3    0    0 -0.96291678123E-01 -0.46732608485E-01 -0.71136810316E-01  0.88933484681E+00  0.88000000000E+00 0.  1.
        -11    1    4    4    0    0  0.35486450879E-01  0.86410879501E-02  0.43448823072E-01  0.56762821849E-01  0.51100000000E-03 0. -1.
         11    1    4    4    0    0  0.51757486685E-01  0.27350499874E-01  0.46214100375E-01  0.74584793797E-01  0.51100000000E-03 0.  1.
</event>
<event>
 8    1  0.1117354E+005  0.1043930E+01  0.7957747E-01            NaN
         13   -1    0    0    0    0  0.00000000000E+00  0.00000000000E+00  0.74505805969E-08  0.10566000000E+00  0.10566000000E+00 0. -1.
     999900   -1    0    0    0    0 -0.00000000000E+00 -0.00000000000E+00 -0.74505805969E-08  0.93827000000E+00  0.93827000000E+00 0. -1.
     999902    2    1    2    0    0  0.39927122248E-02  0.20153231998E-01  0.15158913615E-01  0.10183979188E+01  0.10180778132E+01 0.  0.
     999903    2    3    3    0    0 -0.12217588183E+00 -0.32322034927E-01 -0.94808256890E-02  0.12751112206E+00  0.14054897735E-01 0.  0.
         14    1    1    2    0    0 -0.39927122248E-02 -0.20153231998E-01 -0.15158913615E-01  0.25532081248E-01  0.00000000000E+00 0.  1.
     999901    1    3    3    0    0  0.12616859406E+00  0.52475266926E-01  0.24639739304E-01  0.89088679669E+00  0.88000000000E+00 0. -1.
        -11    1    4    4    0    0 -0.85866561833E-01 -0.16215839632E-01 -0.48954167891E-02  0.87522832007E-01  0.51100000000E-03 0.  1.
         11    1    4    4    0    0 -0.36309319998E-01 -0.16106195296E-01 -0.45854088999E-02  0.39988290054E-01  0.51100000000E-03 0. -1.
</event>
<event>
 7    1  0.1117354E+005  0.1043930E+01  0.7957747E-01            NaN
         13   -1    0    0    0    0  0.00000000000E+00  0.00000000000E+00  0.74505805969E-08  0.10566000000E+00  0.10566000000E+00 0. -1.
     999900   -1    0    0    0    0 -0.00000000000E+00 -0.00000000000E+00 -0.74505805969E-08  0.93827000000E+00  0.93827000000E+00 0.  1.
     999903    2    1    2    0    0 -0.12064202507E-01 -0.98623319481E-01 -0.15312738119E-01  0.10243952086E+00  0.19679211294E-01 0.  0.
         14    1    1    2    0    0  0.19246549781E-01 -0.43381330208E-01  0.15980372475E-01  0.50077358092E-01  0.00000000000E+00 0. -1.
     999901    1    1    2    0    0 -0.71823472744E-02  0.14200464969E+00 -0.66763435594E-03  0.89141312105E+00  0.88000000000E+00 0. -1.
        -11    1    3    3    0    0 -0.34246100828E-02 -0.75030686259E-01 -0.50031659790E-02  0.75276986029E-01  0.51100000000E-03 0. -1.
         11    1    3    3    0    0 -0.86395924238E-02 -0.23592633221E-01 -0.10309572140E-01  0.27162534828E-01  0.51100000000E-03 0.  1.
</event>
<event>
 8    1  0.1117354E+005  0.1043930E+01  0.7957747E-01            NaN
         13   -1    0    0    0    0  0.00000000000E+00  0.00000000000E+00  0.74505805969E-08  0.10566000000E+00  0.10566000000E+00 0. -1.
     999900   -1    0    0    0    0 -0.00000000000E+00 -0.00000000000E+00 -0.74505805969E-08  0.93827000000E+00  0.93827000000E+00 0.  1.
     999902    2    1    2    0    0 -0.15449982080E-01 -0.31774171934E-03  0.17914255066E-01  0.10202715250E+01  0.10199971869E+01 0.  0.
     999903    2    3    3    0    0  0.28750603163E-01 -0.75274974917E-01 -0.97897597681E-01  0.12842811731E+00  0.20418683947E-01 0.  0.
         14    1    1    2    0    0  0.15449982080E-01  0.31774171934E-03 -0.17914255066E-01  0.23658475028E-01  0.00000000000E+00 0.  1.
     999901    1    3    3    0    0 -0.44200585243E-01  0.74957233198E-01  0.11581185275E+00  0.89184340766E+00  0.88000000000E+00 0. -1.
        -11    1    4    4    0    0  0.19877981553E-01 -0.42553793398E-01 -0.41783749502E-01  0.62865748437E-01  0.51100000000E-03 0. -1.
         11    1    4    4    0    0  0.88726216103E-02 -0.32721181519E-01 -0.56113848180E-01  0.65562368877E-01  0.51100000000E-03 0.  1.
</event>
<event>
 8    1  0.1117354E+005  0.1043930E+01  0.7957747E-01            NaN
         13   -1    0    0    0    0  0.00000000000E+00  0.00000000000E+00  0.74505805969E-08  0.10566000000E+00  0.10566000000E+00 0.  1.
     999900   -1    0    0    0    0 -0.00000000000E+00 -0.00000000000E+00 -0.74505805969E-08  0.93827000000E+00  0.93827000000E+00 0. -1.
     999902    2    1    2    0    0 -0.23145615683E-01 -0.15599394678E-01  0.25675057675E-01  0.10060054799E+01  0.10052903841E+01 0.  0.
     999903    2    3    3    0    0  0.33198261868E-01  0.10631402850E+00  0.24836757699E-01  0.11581549003E+00  0.19788025456E-01 0.  0.
         14    1    1    2    0    0  0.23145615683E-01  0.15599394678E-01 -0.25675057675E-01  0.37924520120E-01  0.00000000000E+00 0. -1.
     999901    1    3    3    0    0 -0.56343877551E-01 -0.12191342317E+00  0.83829997616E-03  0.89018998985E+00  0.88000000000E+00 0. -1.
        -11    1    4    4    0    0  0.11471201057E-01  0.56840325214E-01  0.48126953762E-02  0.58187921272E-01  0.51100000000E-03 0.  1.
         11    1    4    4    0    0  0.21727060811E-01  0.49473703281E-01  0.20024062323E-01  0.57627568756E-01  0.51100000000E-03 0. -1.
</event>
<event>
 8    1  0.1117354E+005  0.1043930E+01  0.7957747E-01            NaN
         13   -1    0    0    0    0  0.00000000000E+00  0.00000000000E+00  0.74505805969E-08  0.10566000000E+00  0.10566000000E+00 0.  1.
     999900   -1    0    0    0    0 -0.00000000000E+00 -0.00000000000E+00 -0.74505805969E-08  0.93827000000E+00  0.93827000000E+00 0. -1.
     999902    2    1    2    0    0  0.11025013046E-01  0.18460202304E-01 -0.10376390041E-01  0.10200553387E+01  0.10197759041E+01 0.  0.
     999903    2    3    3    0    0 -0.90211556089E-01 -0.70950270311E-01  0.50765458563E-01  0.12765329859E+00  0.23370219277E-01 0.  0.
         14    1    1    2    0    0 -0.11025013046E-01 -0.18460202304E-01  0.10376390041E-01  0.23874661297E-01  0.00000000000E+00 0.  1.
     999901    1    3    3    0    0  0.10123656914E+00  0.89410472614E-01 -0.61141848604E-01  0.89240204011E+00  0.88000000000E+00 0. -1.
        -11    1    4    4    0    0 -0.39341828384E-01 -0.45720169449E-01  0.24945736146E-01  0.65273763703E-01  0.51100000000E-03 0. -1.
         11    1    4    4    0    0 -0.50869727705E-01 -0.25230100861E-01  0.25819722417E-01  0.62379534889E-01  0.51100000000E-03 0.  1.
</event>
<event>
 8    1  0.1117354E+005  0.1043930E+01  0.7957747E-01            NaN
         13   -1    0    0    0    0  0.00000000000E+00  0.00000000000E+00  0.74505805969E-08  0.10566000000E+00  0.10566000000E+00 0. -1.
     999900   -1    0    0    0    0 -0.00000000000E+00 -0.00000000000E+00 -0.74505805969E-08  0.93827000000E+00  0.93827000000E+00 0. -1.
     999902    2    1    2    0    0 -0.15432388849E-01 -0.11018339894E-01 -0.13605243425E-01  0.10205919391E+01  0.10203250663E+01 0.  0.
     999903    2    3    3    0    0  0.20773181149E-01 -0.12841244759E+00 -0.49063858903E-03  0.13196141253E+00  0.22187652407E-01 0.  0.
         14    1    1    2    0    0  0.15432388849E-01  0.11018339894E-01  0.13605243425E-01  0.23338060936E-01  0.00000000000E+00 0. -1.
     999901    1    3    3    0    0 -0.36205569998E-01  0.11739410770E+00 -0.13114604836E-01  0.88863052653E+00  0.88000000000E+00 0.  1.
        -11    1    4    4    0    0  0.19124920800E-01 -0.88890912184E-01 -0.94010113799E-02  0.91411142649E-01  0.51100000000E-03 0.  1.
         11    1    4    4    0    0  0.16482603484E-02 -0.39521535411E-01  0.89103727909E-02  0.40550269884E-01  0.51100000000E-03 0. -1.
</event>
<event>
 8    1  0.1117354E+005  0.1043930E+01  0.7957747E-01            NaN
         13   -1    0    0    0    0  0.00000000000E+00  0.00000000000E+00  0.74505805969E-08  0.10566000000E+00  0.10566000000E+00 0. -1.
     999900   -1    0    0    0    0 -0.00000000000E+00 -0.00000000000E+00 -0.74505805969E-08  0.93827000000E+00  0.93827000000E+00 0.  1.
     999902    2    1    2    0    0 -0.24513640200E-01  0.54665954639E-02  0.53879042666E-02  0.10182428099E+01  0.10179187533E+01 0.  0.
     999903    2    3    3    0    0 -0.11066764309E+00  0.47138682457E-01  0.51743849622E-01  0.13184112405E+00  0.15338624588E-01 0.  0.
         14    1    1    2    0    0  0.24513640200E-01 -0.54665954639E-02 -0.53879042666E-02  0.25687190080E-01  0.00000000000E+00 0. -1.
     999901    1    3    3    0    0  0.86154002894E-01 -0.41672086994E-01 -0.46355945356E-01  0.88640168587E+00  0.88000000000E+00 0.  1.
        -11    1    4    4    0    0 -0.79029895943E-02  0.47252078897E-02  0.85340497382E-02  0.12564870077E-01  0.51100000000E-03 0. -1.
         11    1    4    4    0    0 -0.10276465350E+00  0.42413474568E-01  0.43209799884E-01  0.11927625397E+00  0.51100000000E-03 0.  1.
</event>
<event>
 8    1  0.1117354E+005  0.1043930E+01  0.7957747E-01            NaN
         13   -1    0    0    0    0  0.00000000000E+00  0.00000000000E+00  0.74505805969E-08  0.10566000000E+00  0.10566000000E+00 0. -1.
     999900   -1    0    0    0    0 -0.00000000000E+00 -0.00000000000E+00 -0.74505805969E-08  0.93827000000E+00  0.93827000000E+00 0. -1.
     999902    2    1    2    0    0 -0.10105231937E-01  0.16793092358E-01 -0.13109268001E-01  0.10203508446E+01  0.10200783644E+01 0.  0.
     999903    2    3    3    0    0 -0.15535609867E-01 -0.10436012529E+00  0.69858805784E-01  0.12816740355E+00  0.20352878488E-01 0.  0.
         14    1    1    2    0    0  0.10105231937E-01 -0.16793092358E-01  0.13109268001E-01  0.23579155433E-01  0.00000000000E+00 0. -1.
     999901    1    3    3    0    0  0.54303779305E-02  0.12115321765E+00 -0.82968073785E-01  0.89218344101E+00  0.88000000000E+00 0. -1.
        -11    1    4    4    0    0 -0.13629081737E-01 -0.29307175892E-01  0.22850971861E-01  0.39586493451E-01  0.51100000000E-03 0.  1.
         11    1    4    4    0    0 -0.19065281302E-02 -0.75052949401E-01  0.47007833923E-01  0.88580910102E-01  0.51100000000E-03 0. -1.
</event>
<event>
 8    1  0.1117354E+005  0.1043930E+01  0.7957747E-01            NaN
         13   -1    0    0    0    0  0.00000000000E+00  0.00000000000E+00  0.74505805969E-08  0.10566000000E+00  0.10566000000E+00 0.  1.
     999900   -1    0    0    0    0 -0.00000000000E+00 -0.00000000000E+00 -0.74505805969E-08  0.93827000000E+00  0.93827000000E+00 0.  1.
     999902    2    1    2    0    0  0.21149291044E-01  0.30677846602E-02 -0.11133575402E-01  0.10198331057E+01  0.10195483819E+01 0.  0.
     999903    2    3    3    0    0  0.48760610350E-01 -0.74184165131E-01 -0.95612125318E-01  0.13198915876E+00  0.19964269175E-01 0.  0.
         14    1    1    2    0    0 -0.21149291044E-01 -0.30677846602E-02  0.11133575402E-01  0.24096894315E-01  0.00000000000E+00 0. -1.
     999901    1    3    3    0    0 -0.27611319305E-01  0.77251949791E-01  0.84478549916E-01  0.88784394693E+00  0.88000000000E+00 0. -1.
        -11    1    4    4    0    0  0.33405430774E-01 -0.33379988942E-01 -0.45755226698E-01  0.65756736219E-01  0.51100000000E-03 0.  1.
         11    1    4    4    0    0  0.15355179576E-01 -0.40804176188E-01 -0.49856898620E-01  0.66232422538E-01  0.51100000000E-03 0. -1.
</event>
<event>
 8    1  0.1117354E+005  0.1043930E+01  0.7957747E-01            NaN
         13   -1    0    0    0    0  0.00000000000E+00  0.00000000000E+00  0.74505805969E-08  0.10566000000E+00  0.10566000000E+00 0. -1.
     999900   -1    0    0    0    0 -0.00000000000E+00 -0.00000000000E+00 -0.74505805969E-08  0.93827000000E+00  0.93827000000E+00 0. -1.
     999902    2    1    2    0    0  0.12685035215E-01  0.17597913525E-01 -0.79483366603E-02  0.10208264779E+01  0.10205650029E+01 0.  0.
     999903    2    3    3    0    0  0.50728925153E-01 -0.36830748085E-01  0.11230710320E+00  0.13016875036E+00  0.20027238675E-01 0.  0.
         14    1    1    2    0    0 -0.12685035215E-01 -0.17597913525E-01  0.79483366603E-02  0.23103522123E-01  0.00000000000E+00 0.  1.
     999901    1    3    3    0    0 -0.38043889938E-01  0.54428661610E-01 -0.12025543986E+00  0.89065772752E+00  0.88000000000E+00 0. -1.
        -11    1    4    4    0    0  0.21400400065E-01 -0.49633958749E-02  0.45844407399E-01  0.50838796527E-01  0.51100000000E-03 0.  1.
         11    1    4    4    0    0  0.29328525088E-01 -0.31867352210E-01  0.66462695805E-01  0.79329953834E-01  0.51100000000E-03 0. -1.
</event>
<event>
 8    1  0.1117354E+005  0.1043930E+01  0.7957747E-01            NaN
         13   -1    0    0    0    0  0.00000000000E+00  0.00000000000E+00  0.74505805969E-08  0.10566000000E+00  0.10566000000E+00 0.  1.
     999900   -1    0    0    0    0 -0.00000000000E+00 -0.00000000000E+00 -0.74505805969E-08  0.93827000000E+00  0.93827000000E+00 0.  1.
     999902    2    1    2    0    0 -0.10352547137E-01  0.20364568466E-01  0.60758486528E-02  0.10202909049E+01  0.10200170213E+01 0.  0.
     999903    2    3    3    0    0 -0.19626950264E-01 -0.28301404682E-01  0.12476056570E+00  0.13094257405E+00  0.19863843071E-01 0.  0.
         14    1    1    2    0    0  0.10352547137E-01 -0.20364568466E-01 -0.60758486528E-02  0.23639095116E-01  0.00000000000E+00 0. -1.
     999901    1    3    3    0    0  0.92744031269E-02  0.48665973149E-01 -0.11868471705E+00  0.88934833083E+00  0.88000000000E+00 0.  1.
        -11    1    4    4    0    0 -0.16988581067E-01 -0.13350733067E-01  0.47261983293E-01  0.51969319275E-01  0.51100000000E-03 0. -1.
         11    1    4    4    0    0 -0.26383691965E-02 -0.14950671615E-01  0.77498582407E-01  0.78973254775E-01  0.51100000000E-03 0.  1.
</event>
<event>
 8    1  0.1117354E+005  0.1043930E+01  0.7957747E-01            NaN
         13   -1    0    0    0    0  0.00000000000E+00  0.00000000000E+00  0.74505805969E-08  0.10566000000E+00  0.10566000000E+00 0. -1.
     999900   -1    0    0    0    0 -0.00000000000E+00 -0.00000000000E+00 -0.74505805969E-08  0.93827000000E+00  0.93827000000E+00 0. -1.
     999902    2    1    2    0    0 -0.28694669336E-02  0.19875873165E-01  0.12926211539E-01  0.10200475563E+01  0.10197679373E+01 0.  0.
     999903    2    3    3    0    0  0.93092182287E-01 -0.71612974708E-01 -0.46916909966E-01  0.12810582800E+00  0.20379749206E-01 0.  0.
         14    1    1    2    0    0  0.28694669336E-02 -0.19875873165E-01 -0.12926211539E-01  0.23882443746E-01  0.00000000000E+00 0. -1.
     999901    1    3    3    0    0 -0.95961649221E-01  0.91488847872E-01  0.59843121505E-01  0.89194172825E+00  0.88000000000E+00 0.  1.
        -11    1    4    4    0    0  0.51370597387E-01 -0.51967264901E-01 -0.29684533658E-01  0.78873110479E-01  0.51100000000E-03 0. -1.
         11    1    4    4    0    0  0.41721584900E-01 -0.19645709807E-01 -0.17232376308E-01  0.49232717522E-01  0.51100000000E-03 0.  1.
</event>
<event>
 8    1  0.1117354E+005  0.1043930E+01  0.7957747E-01            NaN
         13   -1    0    0    0    0  0.00000000000E+00  0.00000000000E+00  0.74505805969E-08  0.10566000000E+00  0.10566000000E+00 0. -1.
     999900   -1    0    0    0    0 -0.00000000000E+00 -0.00000000000E+00 -0.74505805969E-08  0.93827000000E+00  0.93827000000E+00 0. -1.
     999902    2    1    2    0    0 -0.55615949367E-02 -0.85296780562E-02  0.21851523055E-01  0.10198224119E+01  0.10195374323E+01 0.  0.
     999903    2    3    3    0    0 -0.48803455978E-01  0.11326654296E+00 -0.31147643821E-01  0.12880440436E+00  0.20231455685E-01 0.  0.
         14    1    1    2    0    0  0.55615949367E-02  0.85296780562E-02 -0.21851523055E-01  0.24107588138E-01  0.00000000000E+00 0.  1.
     999901    1    3    3    0    0  0.43241861041E-01 -0.12179622101E+00  0.52999166876E-01  0.89101800750E+00  0.88000000000E+00 0.  1.
        -11    1    4    4    0    0 -0.32422572611E-01  0.51118063267E-01 -0.18495289993E-01  0.63297839456E-01  0.51100000000E-03 0.  1.
         11    1    4    4    0    0 -0.16380883367E-01  0.62148479689E-01 -0.12652353828E-01  0.65506564907E-01  0.51100000000E-03 0. -1.
</event>
<event>
 8    1  0.1117354E+005  0.1043930E+01  0.7957747E-01            NaN
         13   -1    0    0    0    0  0.00000000000E+00  0.00000000000E+00  0.74505805969E-08  0.10566000000E+00  0.10566000000E+00 0. -1.
     999900   -1    0    0    0    0 -0.00000000000E+00 -0.00000000000E+00 -0.74505805969E-08  0.93827000000E+00  0.93827000000E+00 0. -1.
     999902    2    1    2    0    0 -0.21427630663E-01  0.10069447266E-01  0.24073594849E-02  0.10201322584E+01  0.10198546427E+01 0.  0.
     999903    2    3    3    0    0  0.32076456855E-01 -0.12019879346E+00  0.25740378299E-01  0.12862963270E+00  0.20158529212E-01 0.  0.
         14    1    1    2    0    0  0.21427630663E-01 -0.10069447266E-01 -0.24073594849E-02  0.23797741569E-01  0.00000000000E+00 0.  1.
     999901    1    3    3    0    0 -0.53504087518E-01  0.13026824072E+00 -0.23333018814E-01  0.89150262573E+00  0.88000000000E+00 0. -1.
        -11    1    4    4    0    0  0.30400610997E-01 -0.10337116541E+00  0.28576477717E-01  0.11147498009E+00  0.51100000000E-03 0.  1.
         11    1    4    4    0    0  0.16758458577E-02 -0.16827628047E-01 -0.28360994186E-02  0.17154652603E-01  0.51100000000E-03 0. -1.
</event>
<event>
 8    1  0.1117354E+005  0.1043930E+01  0.7957747E-01            NaN
         13   -1    0    0    0    0  0.00000000000E+00  0.00000000000E+00  0.74505805969E-08  0.10566000000E+00  0.10566000000E+00 0. -1.
     999900   -1    0    0    0    0 -0.00000000000E+00 -0.00000000000E+00 -0.74505805969E-08  0.93827000000E+00  0.93827000000E+00 0.  1.
     999902    2    1    2    0    0 -0.10766496961E-01 -0.12447569472E-01 -0.17130349097E-01  0.10201748258E+01  0.10198982140E+01 0.  0.
     999903    2    3    3    0    0 -0.29523246644E-01 -0.38837506517E-02 -0.12801814700E+00  0.13297628070E+00  0.20182657303E-01 0.  0.
         14    1    1    2    0    0  0.10766496961E-01  0.12447569472E-01  0.17130349097E-01  0.23755174231E-01  0.00000000000E+00 0.  1.
     999901    1    3    3    0    0  0.18756749683E-01 -0.85638188199E-02  0.11088779790E+00  0.88719854507E+00  0.88000000000E+00 0. -1.
        -11    1    4    4    0    0 -0.12258777379E-01 -0.79978683388E-02 -0.87801059668E-01  0.89014216396E-01  0.51100000000E-03 0.  1.
         11    1    4    4    0    0 -0.17264469265E-01  0.41141176871E-02 -0.40217087332E-01  0.43962064303E-01  0.51100000000E-03 0. -1.
</event>
<event>
 8    1  0.1117354E+005  0.1043930E+01  0.7957747E-01            NaN
         13   -1    0    0    0    0  0.00000000000E+00  0.00000000000E+00  0.74505805969E-08  0.10566000000E+00  0.10566000000E+00 0.  1.
     999900   -1    0    0    0    0 -0.00000000000E+00 -0.00000000000E+00 -0.74505805969E-08  0.93827000000E+00  0.93827000000E+00 0. -1.
     999902    2    1    2    0    0 -0.13905839443E-01 -0.20471202713E-02  0.20210454982E-01  0.10193124136E+01  0.10190150984E+01 0.  0.
     999903    2    3    3    0    0 -0.10084888175E+00  0.61932214597E-01  0.54731171345E-01  0.13204462548E+00  0.20837126615E-01 0.  0.
         14    1    1    2    0    0  0.13905839443E-01  0.20471202713E-02 -0.20210454982E-01  0.24617586450E-01  0.00000000000E+00 0.  1.
     999901    1    3    3    0    0  0.86943042305E-01 -0.63979334868E-01 -0.34520716363E-01  0.88726778807E+00  0.88000000000E+00 0. -1.
        -11    1    4    4    0    0 -0.19896424823E-01  0.14755060793E-01  0.28415125671E-02  0.24938220754E-01  0.51100000000E-03 0.  1.
         11    1    4    4    0    0 -0.80952456926E-01  0.47177153804E-01  0.51889658778E-01  0.10710640472E+00  0.51100000000E-03 0. -1.
</event>
<event>
 8    1  0.1117354E+005  0.1043930E+01  0.7957747E-01            NaN
         13   -1    0    0    0    0  0.00000000000E+00  0.00000000000E+00  0.74505805969E-08  0.10566000000E+00  0.10566000000E+00 0.  1.
     999900   -1    0    0    0    0 -0.00000000000E+00 -0.00000000000E+00 -0.74505805969E-08  0.93827000000E+00  0.93827000000E+00 0.  1.
     999902    2    1    2    0    0  0.13238615874E-01 -0.13596354857E-01  0.15514884681E-01  0.10194180955E+01  0.10191233586E+01 0.  0.
     999903    2    3    3    0    0 -0.26591344230E-01  0.11584352628E+00 -0.42265285827E-01  0.12718513452E+00  0.16213632749E-01 0.  0.
         14    1    1    2    0    0 -0.13238615874E-01  0.13596354857E-01 -0.15514884681E-01  0.24511904502E-01  0.00000000000E+00 0. -1.
     999901    1    3    3    0    0  0.39829960104E-01 -0.12943988114E+00  0.57780170508E-01  0.89223296098E+00  0.88000000000E+00 0. -1.
        -11    1    4    4    0    0 -0.68538326448E-02  0.37675305957E-01 -0.21546942137E-01  0.43942411601E-01  0.51100000000E-03 0. -1.
         11    1    4    4    0    0 -0.19737511585E-01  0.78168220327E-01 -0.20718343691E-01  0.83242722919E-01  0.51100000000E-03 0.  1.
</event>
<event>
 8    1  0.1117354E+005  0.1043930E+01  0.7957747E-01            NaN
         13   -1    0    0    0    0  0.00000000000E+00  0.00000000000E+00  0.74505805969E-08  0.10566000000E+00  0.10566000000E+00 0.  1.
     999900   -1    0    0    0    0 -0.00000000000E+00 -0.00000000000E+00 -0.74505805969E-08  0.93827000000E+00  0.93827000000E+00 0. -1.
     999902    2    1    2    0    0 -0.17425968877E-01  0.14640108856E-01  0.10247875233E-01  0.10189697090E+01  0.10186639543E+01 0.  0.
     999903    2    3    3    0    0 -0.35148003340E-01 -0.83280390565E-01 -0.88238953347E-01  0.12790172615E+00  0.20043279973E-01 0.  0.
         14    1    1    2    0    0  0.17425968877E-01 -0.14640108856E-01 -0.10247875233E-01  0.24960290972E-01  0.00000000000E+00 0. -1.
     999901    1    3    3    0    0  0.17722034464E-01  0.97920499421E-01  0.98486828580E-01  0.89106798288E+00  0.88000000000E+00 0.  1.
        -11    1    4    4    0    0 -0.18016663160E-01 -0.51576382773E-01 -0.40124672032E-01  0.67786236346E-01  0.51100000000E-03 0. -1.
         11    1    4    4    0    0 -0.17131340180E-01 -0.31704007792E-01 -0.48114281315E-01  0.60115489800E-01  0.51100000000E-03 0.  1.
</event>
<event>
 8    1  0.1117354E+005  0.1043930E+01  0.7957747E-01            NaN
         13   -1    0    0    0    0  0.00000000000E+00  0.00000000000E+00  0.74505805969E-08  0.10566000000E+00  0.10566000000E+00 0.  1.
     999900   -1    0    0    0    0 -0.00000000000E+00 -0.00000000000E+00 -0.74505805969E-08  0.93827000000E+00  0.93827000000E+00 0.  1.
     999902    2    1    2    0    0  0.17688360855E-02  0.19614199509E-01 -0.11787129587E-01  0.10209782674E+01  0.10207202558E+01 0.  0.
     999903    2    3    3    0    0  0.15495091241E-01 -0.11718461898E+00 -0.49037107643E-01  0.12952446175E+00  0.19990384888E-01 0.  0.
         14    1    1    2    0    0 -0.17688360855E-02 -0.19614199509E-01  0.11787129587E-01  0.22951732558E-01  0.00000000000E+00 0.  1.
     999901    1    3    3    0    0 -0.13726255156E-01  0.13679881849E+00  0.37249978056E-01  0.89145380569E+00  0.88000000000E+00 0. -1.
        -11    1    4    4    0    0 -0.36881748580E-02 -0.45706624023E-01 -0.17739121234E-01  0.49169458575E-01  0.51100000000E-03 0. -1.
         11    1    4    4    0    0  0.19183266099E-01 -0.71477994954E-01 -0.31297986409E-01  0.80355003175E-01  0.51100000000E-03 0.  1.
</event>
<event>
 8    1  0.1117354E+005  0.1043930E+01  0.7957747E-01            NaN
         13   -1    0    0    0    0  0.00000000000E+00  0.00000000000E+00  0.74505805969E-08  0.10566000000E+00  0.10566000000E+00 0. -1.
     999900   -1    0    0    0    0 -0.00000000000E+00 -0.00000000000E+00 -0.74505805969E-08  0.93827000000E+00  0.93827000000E+00 0. -1.
     999902    2    1    2    0    0  0.15764691168E-01 -0.13153582724E-01  0.11661003161E-01  0.10203181127E+01  0.10200448666E+01 0.  0.
     999903    2    3    3    0    0  0.11839751492E+00  0.44132394212E-01 -0.21967642910E-01  0.13186661404E+00  0.30668987683E-01 0.  0.
         14    1    1    2    0    0 -0.15764691168E-01  0.13153582724E-01 -0.11661003161E-01  0.23611887278E-01  0.00000000000E+00 0.  1.
     999901    1    3    3    0    0 -0.10263282376E+00 -0.57285976937E-01  0.33628646071E-01  0.88845149868E+00  0.88000000000E+00 0.  1.
        -11    1    4    4    0    0  0.62330678669E-01  0.36311753913E-01 -0.31419656817E-02  0.72206578959E-01  0.51100000000E-03 0.  1.
         11    1    4    4    0    0  0.56066836255E-01  0.78206402989E-02 -0.18825677229E-01  0.59660035086E-01  0.51100000000E-03 0. -1.
</event>
<event>
 8    1  0.1117354E+005  0.1043930E+01  0.7957747E-01            NaN
         13   -1    0    0    0    0  0.00000000000E+00  0.00000000000E+00  0.74505805969E-08  0.10566000000E+00  0.10566000000E+00 0.  1.
     999900   -1    0    0    0    0 -0.00000000000E+00 -0.00000000000E+00 -0.74505805969E-08  0.93827000000E+00  0.93827000000E+00 0.  1.
     999902    2    1    2    0    0 -0.12544795563E-01  0.20263283258E-01  0.22942066887E-02  0.10199876541E+01  0.10197066140E+01 0.  0.
     999903    2    3    3    0    0 -0.37072682476E-02 -0.98316097656E-01  0.80409696718E-01  0.12856115612E+00  0.19556396424E-01 0.  0.
         14    1    1    2    0    0  0.12544795563E-01 -0.20263283258E-01 -0.22942066887E-02  0.23942345926E-01  0.00000000000E+00 0.  1.
     999901    1    3    3    0    0 -0.88375273155E-02  0.11857938091E+00 -0.78115490030E-01  0.89142649795E+00  0.88000000000E+00 0.  1.
        -11    1    4    4    0    0  0.47771540452E-02 -0.40231620999E-01  0.42289927890E-01  0.58567086755E-01  0.51100000000E-03 0. -1.
         11    1    4    4    0    0 -0.84844222928E-02 -0.58084476657E-01  0.38119768828E-01  0.69994069368E-01  0.51100000000E-03 0.  1.
</event>
<event>
 8    1  0.1117354E+005  0.1043930E+01  0.7957747E-01            NaN
         13   -1    0    0    0    0  0.00000000000E+00  0.00000000000E+00  0.74505805969E-08  0.10566000000E+00  0.10566000000E+00 0.  1.
     999900   -1    0    0    0    0 -0.00000000000E+00 -0.00000000000E+00 -0.74505805969E-08  0.93827000000E+00  0.93827000000E+00 0.  1.
     999902    2    1    2    0    0  0.12561617670E-01  0.15728238388E-01  0.16092794284E-01  0.10181588970E+01  0.10178326924E+01 0.  0.
     999903    2    3    3    0    0  0.11801999196E+00  0.36103741928E-01  0.40202319266E-01  0.13130045338E+00  0.19783424871E-01 0.  0.
         14    1    1    2    0    0 -0.12561617670E-01 -0.15728238388E-01 -0.16092794284E-01  0.25771102987E-01  0.00000000000E+00 0. -1.
     999901    1    3    3    0    0 -0.10545837429E+00 -0.20375503540E-01 -0.24109524982E-01  0.88685844364E+00  0.88000000000E+00 0. -1.
        -11    1    4    4    0    0  0.76832060406E-01  0.13525850436E-01  0.25718668562E-01  0.82145146964E-01  0.51100000000E-03 0. -1.
         11    1    4    4    0    0  0.41187931553E-01  0.22577891493E-01  0.14483650705E-01  0.49155306414E-01  0.51100000000E-03 0.  1.
</event>
<event>
 8    1  0.1117354E+005  0.1043930E+01  0.7957747E-01            NaN
         13   -1    0    0    0    0  0.00000000000E+00  0.00000000000E+00  0.74505805969E-08  0.10566000000E+00  0.10566000000E+00 0.  1.
     999900   -1    0    0    0    0 -0.00000000000E+00 -0.00000000000E+00 -0.74505805969E-08  0.93827000000E+00  0.93827000000E+00 0. -1.
     999902    2    1    2    0    0  0.79682455765E-02  0.21835225442E-01 -0.46049083895E-02  0.10202345323E+01  0.10199593255E+01 0.  0.
     999903    2    3    3    0    0 -0.11044999813E+00 -0.41850296252E-01 -0.47802160615E-01  0.12897434095E+00  0.19967089934E-01 0.  0.
         14    1    1    2    0    0 -0.79682455765E-02 -0.21835225442E-01  0.46049083895E-02  0.23695467688E-01  0.00000000000E+00 0. -1.
     999901    1    3    3    0    0  0.11841824370E+00  0.63685521694E-01  0.43197252225E-01  0.89126019137E+00  0.88000000000E+00 0.  1.
        -11    1    4    4    0    0 -0.10418601342E+00 -0.34838434564E-01 -0.40601192272E-01  0.11712027941E+00  0.51100000000E-03 0. -1.
         11    1    4    4    0    0 -0.62639847086E-02 -0.70118616877E-02 -0.72009683425E-02  0.11854061533E-01  0.51100000000E-03 0.  1.
</event>
<event>
 8    1  0.1117354E+005  0.1043930E+01  0.7957747E-01            NaN
         13   -1    0    0    0    0  0.00000000000E+00  0.00000000000E+00  0.74505805969E-08  0.10566000000E+00  0.10566000000E+00 0.  1.
     999900   -1    0    0    0    0 -0.00000000000E+00 -0.00000000000E+00 -0.74505805969E-08  0.93827000000E+00  0.93827000000E+00 0. -1.
     999902    2    1    2    0    0  0.12430048642E-01  0.16323689542E-01  0.11392530935E-01  0.10204617510E+01  0.10201918577E+01 0.  0.
     999903    2    3    3    0    0  0.31963701340E-01  0.11957065318E+00  0.45942547601E-01  0.13353717545E+00  0.20065897445E-01 0.  0.
         14    1    1    2    0    0 -0.12430048642E-01 -0.16323689542E-01 -0.11392530935E-01  0.23468248988E-01  0.00000000000E+00 0. -1.
     999901    1    3    3    0    0 -0.19533652698E-01 -0.10324696364E+00 -0.34550016666E-01  0.88692457556E+00  0.88000000000E+00 0. -1.
        -11    1    4    4    0    0  0.20035634277E-01  0.46269174334E-01  0.25516292869E-01  0.56511993924E-01  0.51100000000E-03 0. -1.
         11    1    4    4    0    0  0.11928067062E-01  0.73301478849E-01  0.20426254732E-01  0.77025181523E-01  0.51100000000E-03 0.  1.
</event>
<event>
 8    1  0.1117354E+005  0.1043930E+01  0.7957747E-01            NaN
         13   -1    0    0    0    0  0.00000000000E+00  0.00000000000E+00  0.74505805969E-08  0.10566000000E+00  0.10566000000E+00 0. -1.
     999900   -1    0    0    0    0 -0.00000000000E+00 -0.00000000000E+00 -0.74505805969E-08  0.93827000000E+00  0.93827000000E+00 0. -1.
     999902    2    1    2    0    0 -0.22329008904E-01  0.10762791952E-01  0.55518892704E-02  0.10185283110E+01  0.10182115078E+01 0.  0.
     999903    2    3    3    0    0 -0.11181374365E+00 -0.16783965914E-01  0.64297422475E-01  0.13161378339E+00  0.20100115935E-01 0.  0.
         14    1    1    2    0    0  0.22329008904E-01 -0.10762791952E-01 -0.55518892704E-02  0.25401688993E-01  0.00000000000E+00 0.  1.
     999901    1    3    3    0    0  0.89484734749E-01  0.27546757865E-01 -0.58745533204E-01  0.88691452761E+00  0.88000000000E+00 0. -1.
        -11    1    4    4    0    0 -0.10196749739E+00 -0.94560590111E-02  0.55272515842E-01  0.11637052765E+00  0.51100000000E-03 0.  1.
         11    1    4    4    0    0 -0.98462462623E-02 -0.73279069024E-02  0.90249066331E-02  0.15243255747E-01  0.51100000000E-03 0. -1.
</event>
<event>
 7    1  0.1117354E+005  0.1043930E+01  0.7957747E-01            NaN
         13   -1    0    0    0    0  0.00000000000E+00  0.00000000000E+00  0.74505805969E-08  0.10566000000E+00  0.10566000000E+00 0. -1.
     999900   -1    0    0    0    0 -0.00000000000E+00 -0.00000000000E+00 -0.74505805969E-08  0.93827000000E+00  0.93827000000E+00 0. -1.
     999903    2    1    2    0    0  0.76514190742E-01  0.72621783409E-01 -0.52164274479E-01  0.11944686052E+00  0.20447399509E-01 0.  0.
         14    1    1    2    0    0 -0.16239918348E-01 -0.35678744563E-01  0.10882684931E-01  0.40683419139E-01  0.00000000000E+00 0.  1.
     999901    1    1    2    0    0 -0.60274272394E-01 -0.36943038846E-01  0.41281589548E-01  0.88379972034E+00  0.88000000000E+00 0. -1.
        -11    1    3    3    0    0  0.53942460232E-01  0.45098616798E-01 -0.43929860915E-01  0.82908190512E-01  0.51100000000E-03 0. -1.
         11    1    3    3    0    0  0.22571730510E-01  0.27523166610E-01 -0.82344135645E-02  0.36538670012E-01  0.51100000000E-03 0.  1.
</event>
<event>
 8    1  0.1117354E+005  0.1043930E+01  0.7957747E-01            NaN
         13   -1    0    0    0    0  0.00000000000E+00  0.00000000000E+00  0.74505805969E-08  0.10566000000E+00  0.10566000000E+00 0.  1.
     999900   -1    0    0    0    0 -0.00000000000E+00 -0.00000000000E+00 -0.74505805969E-08  0.93827000000E+00  0.93827000000E+00 0.  1.
     999902    2    1    2    0    0 -0.23398296461E-01 -0.38526443483E-02  0.15030031524E-02  0.10201690622E+01  0.10198923146E+01 0.  0.
     999903    2    3    3    0    0  0.16654285434E-01 -0.76856615174E-01  0.10220110115E+00  0.13052087557E+00  0.20157613030E-01 0.  0.
         14    1    1    2    0    0  0.23398296461E-01  0.38526443483E-02 -0.15030031524E-02  0.23760937781E-01  0.00000000000E+00 0. -1.
     999901    1    3    3    0    0 -0.40052581894E-01  0.73003970825E-01 -0.10069809800E+00  0.88964818665E+00  0.88000000000E+00 0.  1.
        -11    1    4    4    0    0  0.49794927326E-02 -0.31537367248E-01  0.26384246184E-01  0.41422100967E-01  0.51100000000E-03 0.  1.
         11    1    4    4    0    0  0.11674792701E-01 -0.45319247925E-01  0.75816854967E-01  0.89098774600E-01  0.51100000000E-03 0. -1.
</event>
<event>
 8    1  0.1117354E+005  0.1043930E+01  0.7957747E-01            NaN
         13   -1    0    0    0    0  0.00000000000E+00  0.00000000000E+00  0.74505805969E-08  0.10566000000E+00  0.10566000000E+00 0.  1.
     999900   -1    0    0    0    0 -0.00000000000E+00 -0.00000000000E+00 -0.74505805969E-08  0.93827000000E+00  0.93827000000E+00 0.  1.
     999902    2    1    2    0    0 -0.23302145111E-01 -0.35264809193E-02  0.65433146611E-02  0.10194710343E+01  0.10191775846E+01 0.  0.
     999903    2    3    3    0    0  0.57805357060E-02  0.12632457138E+00 -0.16637395194E-01  0.12916521979E+00  0.20384777597E-01 0.  0.
         14    1    1    2    0    0  0.23302145111E-01  0.35264809193E-02 -0.65433146611E-02  0.24458965661E-01  0.00000000000E+00 0. -1.
     999901    1    3    3    0    0 -0.29082680817E-01 -0.12985105230E+00  0.23180709855E-01  0.89030581455E+00  0.88000000000E+00 0. -1.
        -11    1    4    4    0    0  0.96947378623E-03  0.11582782489E-01  0.43469876067E-02  0.12420070526E-01  0.51100000000E-03 0.  1.
         11    1    4    4    0    0  0.48110619197E-02  0.11474178889E+00 -0.20984382801E-01  0.11674514927E+00  0.51100000000E-03 0. -1.
</event>
<event>
 8    1  0.1117354E+005  0.1043930E+01  0.7957747E-01            NaN
         13   -1    0    0    0    0  0.00000000000E+00  0.00000000000E+00  0.74505805969E-08  0.10566000000E+00  0.10566000000E+00 0. -1.
     999900   -1    0    0    0    0 -0.00000000000E+00 -0.00000000000E+00 -0.74505805969E-08  0.93827000000E+00  0.93827000000E+00 0. -1.
     999902    2    1    2    0    0  0.17081178076E-01  0.16688755888E-01  0.37362193530E-02  0.10197589315E+01  0.10194724311E+01 0.  0.
     999903    2    3    3    0    0  0.30143032288E-01 -0.10789820558E+00 -0.59612044930E-01  0.12863294400E+00  0.21028866332E-01 0.  0.
         14    1    1    2    0    0 -0.17081178076E-01 -0.16688755888E-01 -0.37362193530E-02  0.24171068504E-01  0.00000000000E+00 0. -1.
     999901    1    3    3    0    0 -0.13061854212E-01  0.12458696147E+00  0.63348264283E-01  0.89112598750E+00  0.88000000000E+00 0.  1.
        -11    1    4    4    0    0  0.29403035850E-01 -0.68264421682E-01 -0.37951586092E-01  0.83457496923E-01  0.51100000000E-03 0.  1.
         11    1    4    4    0    0  0.73999643848E-03 -0.39633783895E-01 -0.21660458838E-01  0.45175447077E-01  0.51100000000E-03 0. -1.
</event>
<event>
 8    1  0.1117354E+005  0.1043930E+01  0.7957747E-01            NaN
         13   -1    0    0    0    0  0.00000000000E+00  0.00000000000E+00  0.74505805969E-08  0.10566000000E+00  0.10566000000E+00 0.  1.
     999900   -1    0    0    0    0 -0.00000000000E+00 -0.00000000000E+00 -0.74505805969E-08  0.93827000000E+00  0.93827000000E+00 0. -1.
     999902    2    1    2    0    0 -0.10704663411E-01 -0.20128577096E-01  0.18998422152E-03  0.10211311946E+01  0.10208766483E+01 0.  0.
     999903    2    3    3    0    0 -0.58515761155E-02 -0.12854609015E+00 -0.30720482118E-01  0.13392582572E+00  0.20833639569E-01 0.  0.
         14    1    1    2    0    0  0.10704663411E-01  0.20128577096E-01 -0.18998422152E-03  0.22798805422E-01  0.00000000000E+00 0.  1.
     999901    1    3    3    0    0 -0.48530872954E-02  0.10841751306E+00  0.30910466339E-01  0.88720536885E+00  0.88000000000E+00 0.  1.
        -11    1    4    4    0    0 -0.89329501773E-02 -0.45469131266E-01 -0.18497329967E-01  0.49896411032E-01  0.51100000000E-03 0. -1.
         11    1    4    4    0    0  0.30813740618E-02 -0.83076958887E-01 -0.12223152151E-01  0.84029414693E-01  0.51100000000E-03 0.  1.
</event>
<event>
 8    1  0.1117354E+005  0.1043930E+01  0.7957747E-01            NaN
         13   -1    0    0    0    0  0.00000000000E+00  0.00000000000E+00  0.74505805969E-08  0.10566000000E+00  0.10566000000E+00 0.  1.
     999900   -1    0    0    0    0 -0.00000000000E+00 -0.00000000000E+00 -0.74505805969E-08  0.93827000000E+00  0.93827000000E+00 0.  1.
     999902    2    1    2    0    0  0.68210105186E-02 -0.22810808896E-01 -0.28101908461E-02  0.10199559232E+01  0.10196741288E+01 0.  0.
     999903    2    3    3    0    0 -0.11799481307E+00 -0.10861765629E-01 -0.49981221986E-01  0.12981723981E+00  0.17709865470E-01 0.  0.
         14    1    1    2    0    0 -0.68210105186E-02  0.22810808896E-01  0.28101908461E-02  0.23974076825E-01  0.00000000000E+00 0.  1.
     999901    1    3    3    0    0  0.12481582359E+00 -0.11949043267E-01  0.47171031140E-01  0.89013868337E+00  0.88000000000E+00 0.  1.
        -11    1    4    4    0    0 -0.15930303513E-01  0.28708921805E-02 -0.24020846055E-02  0.16372163064E-01  0.51100000000E-03 0.  1.
         11    1    4    4    0    0 -0.10206450956E+00 -0.13732657810E-01 -0.47579137381E-01  0.11344507674E+00  0.51100000000E-03 0. -1.
</event>
<event>
 8    1  0.1117354E+005  0.1043930E+01  0.7957747E-01            NaN
         13   -1    0    0    0    0  0.00000000000E+00  0.00000000000E+00  0.74505805969E-08  0.10566000000E+00  0.10566000000E+00 0.  1.
     999900   -1    0    0    0    0 -0.00000000000E+00 -0.00000000000E+00 -0.74505805969E-08  0.93827000000E+00  0.93827000000E+00 0.  1.
     999902    2    1    2    0    0  0.47745188934E-02  0.13135987797E-02  0.23706349116E-01  0.10197119786E+01  0.10194243507E+01 0.  0.
     999903    2    3    3    0    0 -0.10470982294E+00 -0.56742973281E-02 -0.70614968243E-01  0.12789800544E+00  0.19367018017E-01 0.  0.
         14    1    1    2    0    0 -0.47745188934E-02 -0.13135987797E-02 -0.23706349116E-01  0.24218021407E-01  0.00000000000E+00 0. -1.
     999901    1    3    3    0    0  0.10948434183E+00  0.69878961078E-02  0.94321317359E-01  0.89181397315E+00  0.88000000000E+00 0. -1.
        -11    1    4    4    0    0 -0.55016721757E-01  0.35720945030E-02 -0.45336522462E-01  0.71381096391E-01  0.51100000000E-03 0.  1.
         11    1    4    4    0    0 -0.49693101180E-01 -0.92463918311E-02 -0.25278445781E-01  0.56516909052E-01  0.51100000000E-03 0. -1.
</event>
<event>
 7    1  0.1117354E+005  0.1043930E+01  0.7957747E-01            NaN
         13   -1    0    0    0    0  0.00000000000E+00  0.00000000000E+00  0.74505805969E-08  0.10566000000E+00  0.10566000000E+00 0.  1.
     999900   -1    0    0    0    0 -0.00000000000E+00 -0.00000000000E+00 -0.74505805969E-08  0.93827000000E+00  0.93827000000E+00 0. -1.
     999903    2    1    2    0    0 -0.26309714240E-01  0.53584961982E-01  0.98523927521E-01  0.11699853909E+00  0.20448585307E-01 0.  0.
         14    1    1    2    0    0 -0.14991903623E-01 -0.33452788722E-01 -0.21198875614E-01  0.42346647740E-01  0.00000000000E+00 0. -1.
     999901    1    1    2    0    0  0.41301617863E-01 -0.20132173259E-01 -0.77325051907E-01  0.88458481317E+00  0.88000000000E+00 0. -1.
        -11    1    3    3    0    0 -0.84383477148E-02  0.39219950711E-01  0.64800689757E-01  0.76215488976E-01  0.51100000000E-03 0. -1.
         11    1    3    3    0    0 -0.17871366525E-01  0.14365011271E-01  0.33723237764E-01  0.40783050114E-01  0.51100000000E-03 0.  1.
</event>
<event>
 8    1  0.1117354E+005  0.1043930E+01  0.7957747E-01            NaN
         13   -1    0    0    0    0  0.00000000000E+00  0.00000000000E+00  0.74505805969E-08  0.10566000000E+00  0.10566000000E+00 0. -1.
     999900   -1    0    0    0    0 -0.00000000000E+00 -0.00000000000E+00 -0.74505805969E-08  0.93827000000E+00  0.93827000000E+00 0. -1.
     999902    2    1    2    0    0  0.20569124960E-01 -0.61029188846E-02  0.88596492441E-02  0.10207173331E+01  0.10204533532E+01 0.  0.
     999903    2    3    3    0    0 -0.79613590317E-01  0.28217848817E-01 -0.94586249655E-01  0.12835219171E+00  0.19828155209E-01 0.  0.
         14    1    1    2    0    0 -0.20569124960E-01  0.61029188846E-02 -0.88596492441E-02  0.23212666914E-01  0.00000000000E+00 0.  1.
     999901    1    3    3    0    0  0.10018271528E+00 -0.34320767701E-01  0.10344589890E+00  0.89236514137E+00  0.88000000000E+00 0.  1.
        -11    1    4    4    0    0 -0.26722583197E-01 -0.11893498797E-03 -0.30691022911E-01  0.40697796089E-01  0.51100000000E-03 0.  1.
         11    1    4    4    0    0 -0.52891007121E-01  0.28336783805E-01 -0.63895226745E-01  0.87654395625E-01  0.51100000000E-03 0. -1.
</event>
<event>
 8    1  0.1117354E+005  0.1043930E+01  0.7957747E-01            NaN
         13   -1    0    0    0    0  0.00000000000E+00  0.00000000000E+00  0.74505805969E-08  0.10566000000E+00  0.10566000000E+00 0. -1.
     999900   -1    0    0    0    0 -0.00000000000E+00 -0.00000000000E+00 -0.74505805969E-08  0.93827000000E+00  0.93827000000E+00 0. -1.
     999902    2    1    2    0    0 -0.22715629085E-01 -0.22999824464E-03  0.51721340839E-02  0.10206318525E+01  0.10203659024E+01 0.  0.
     999903    2    3    3    0    0  0.10759395701E+00 -0.19742512087E-01  0.65192324857E-01  0.12880017015E+00  0.19318857157E-01 0.  0.
         14    1    1    2    0    0  0.22715629085E-01  0.22999824464E-03 -0.51721340839E-02  0.23298147456E-01  0.00000000000E+00 0.  1.
     999901    1    3    3    0    0 -0.13030958609E+00  0.19512513842E-01 -0.60020190774E-01  0.89183168240E+00  0.88000000000E+00 0. -1.
        -11    1    4    4    0    0  0.77817097244E-01 -0.20905851202E-01  0.40976076354E-01  0.90398314101E-01  0.51100000000E-03 0.  1.
         11    1    4    4    0    0  0.29776859764E-01  0.11633391154E-02  0.24216248503E-01  0.38401856047E-01  0.51100000000E-03 0. -1.
</event>
<event>
 8    1  0.1117354E+005  0.1043930E+01  0.7957747E-01            NaN
         13   -1    0    0    0    0  0.00000000000E+00  0.00000000000E+00  0.74505805969E-08  0.10566000000E+00  0.10566000000E+00 0. -1.
     999900   -1    0    0    0    0 -0.00000000000E+00 -0.00000000000E+00 -0.74505805969E-08  0.93827000000E+00  0.93827000000E+00 0. -1.
     999902    2    1    2    0    0 -0.26385134603E-01 -0.23285491386E-02 -0.40143519693E-02  0.10171398434E+01  0.10167869730E+01 0.  0.
     999903    2    3    3    0    0 -0.42485656476E-01  0.10273444374E+00  0.61061916606E-01  0.12835844170E+00  0.19696064525E-01 0.  0.
         14    1    1    2    0    0  0.26385134603E-01  0.23285491386E-02  0.40143519693E-02  0.26790156603E-01  0.00000000000E+00 0.  1.
     999901    1    3    3    0    0  0.16100521873E-01 -0.10506299288E+00 -0.65076268575E-01  0.88878140170E+00  0.88000000000E+00 0.  1.
        -11    1    4    4    0    0 -0.41286900609E-02  0.11459294455E-01  0.14511445208E-01  0.18952695693E-01  0.51100000000E-03 0.  1.
         11    1    4    4    0    0 -0.38356966415E-01  0.91275149288E-01  0.46550471398E-01  0.10940574600E+00  0.51100000000E-03 0. -1.
</event>
<event>
 8    1  0.1326219E+005  0.1043930E+01  0.7957747E-01            NaN
         13   -1    0    0    0    0  0.00000000000E+00  0.00000000000E+00  0.74505805969E-08  0.10566000000E+00  0.10566000000E+00 0.  1.
     999900   -1    0    0    0    0 -0.00000000000E+00 -0.00000000000E+00 -0.74505805969E-08  0.93827000000E+00  0.93827000000E+00 0.  1.
     999902    2    1    2    0    0 -0.19132632374E-01  0.56303489496E-02  0.14133763024E-01  0.10194857428E+01  0.10191926502E+01 0.  0.
     999903    2    3    3    0    0  0.77732545881E-01 -0.92089417597E-01  0.39205408524E-01  0.12844107340E+00  0.20910183066E-01 0.  0.
         14    1    1    2    0    0  0.19132632374E-01 -0.56303489496E-02 -0.14133763024E-01  0.24444257160E-01  0.00000000000E+00 0. -1.
     999901    1    3    3    0    0 -0.96865178255E-01  0.97719766547E-01 -0.25071645499E-01  0.89104466944E+00  0.88000000000E+00 0.  1.
        -11    1    4    4    0    0  0.22341663597E-01 -0.38716280595E-01  0.21017816920E-01  0.49397470223E-01  0.51100000000E-03 0.  1.
         11    1    4    4    0    0  0.55390882284E-01 -0.53373137002E-01  0.18187591604E-01  0.79043603176E-01  0.51100000000E-03 0. -1.
</event>
<event>
 8    1  0.1117354E+005  0.1043930E+01  0.7957747E-01            NaN
         13   -1    0    0    0    0  0.00000000000E+00  0.00000000000E+00  0.74505805969E-08  0.10566000000E+00  0.10566000000E+00 0.  1.
     999900   -1    0    0    0    0 -0.00000000000E+00 -0.00000000000E+00 -0.74505805969E-08  0.93827000000E+00  0.93827000000E+00 0. -1.
     999902    2    1    2    0    0  0.12871039734E-02  0.20408538408E-02  0.24223880842E-01  0.10195862508E+01  0.10192955924E+01 0.  0.
     999903    2    3    3    0    0 -0.57510233827E-01  0.65053237475E-01 -0.91749086558E-01  0.12780297188E+00  0.19399846332E-01 0.  0.
         14    1    1    2    0    0 -0.12871039734E-02 -0.20408538408E-02 -0.24223880842E-01  0.24343749178E-01  0.00000000000E+00 0. -1.
     999901    1    3    3    0    0  0.58797337800E-01 -0.63012383634E-01  0.11597296740E+00  0.89178327894E+00  0.88000000000E+00 0.  1.
        -11    1    4    4    0    0 -0.78787870711E-02  0.65439538797E-02 -0.34351300415E-02  0.10814798079E-01  0.51100000000E-03 0.  1.
         11    1    4    4    0    0 -0.49631446755E-01  0.58509283595E-01 -0.88313956516E-01  0.11698817381E+00  0.51100000000E-03 0. -1.
</event>
<event>
 8    1  0.1117354E+005  0.1043930E+01  0.7957747E-01            NaN
         13   -1    0    0    0    0  0.00000000000E+00  0.00000000000E+00  0.74505805969E-08  0.10566000000E+00  0.10566000000E+00 0. -1.
     999900   -1    0    0    0    0 -0.00000000000E+00 -0.00000000000E+00 -0.74505805969E-08  0.93827000000E+00  0.93827000000E+00 0. -1.
     999902    2    1    2    0    0 -0.30950867816E-02  0.10179166255E-01  0.20722834229E-01  0.10206355619E+01  0.10203696974E+01 0.  0.
     999903    2    3    3    0    0  0.64537318506E-01 -0.10607800678E+00 -0.28533518779E-01  0.12905490888E+00  0.20576656944E-01 0.  0.
         14    1    1    2    0    0  0.30950867816E-02 -0.10179166255E-01 -0.20722834229E-01  0.23294438098E-01  0.00000000000E+00 0.  1.
     999901    1    3    3    0    0 -0.67632405288E-01  0.11625717303E+00  0.49256353008E-01  0.89158065302E+00  0.88000000000E+00 0. -1.
        -11    1    4    4    0    0  0.12241918944E-01 -0.38430780681E-01 -0.81094292024E-02  0.41143814190E-01  0.51100000000E-03 0.  1.
         11    1    4    4    0    0  0.52295399562E-01 -0.67647226097E-01 -0.20424089577E-01  0.87911094692E-01  0.51100000000E-03 0. -1.
</event>
<event>
 8    1  0.1117354E+005  0.1043930E+01  0.7957747E-01            NaN
         13   -1    0    0    0    0  0.00000000000E+00  0.00000000000E+00  0.74505805969E-08  0.10566000000E+00  0.10566000000E+00 0.  1.
     999900   -1    0    0    0    0 -0.00000000000E+00 -0.00000000000E+00 -0.74505805969E-08  0.93827000000E+00  0.93827000000E+00 0.  1.
     999902    2    1    2    0    0 -0.41260685343E-02  0.21053412803E-01  0.10265238789E-01  0.10201466916E+01  0.10198694164E+01 0.  0.
     999903    2    3    3    0    0  0.92750812317E-01  0.59642234778E-01  0.69510485856E-01  0.13201143919E+00  0.20866314463E-01 0.  0.
         14    1    1    2    0    0  0.41260685343E-02 -0.21053412803E-01 -0.10265238789E-01  0.23783308424E-01  0.00000000000E+00 0.  1.
     999901    1    3    3    0    0 -0.96876880851E-01 -0.38588821975E-01 -0.59245247067E-01  0.88813525238E+00  0.88000000000E+00 0.  1.
        -11    1    4    4    0    0  0.19476023856E-01  0.19026881373E-01  0.25805903107E-01  0.37517242386E-01  0.51100000000E-03 0.  1.
         11    1    4    4    0    0  0.73274788461E-01  0.40615353405E-01  0.43704582748E-01  0.94494196808E-01  0.51100000000E-03 0. -1.
</event>
<event>
 8    1  0.1117354E+005  0.1043930E+01  0.7957747E-01            NaN
         13   -1    0    0    0    0  0.00000000000E+00  0.00000000000E+00  0.74505805969E-08  0.10566000000E+00  0.10566000000E+00 0.  1.
     999900   -1    0    0    0    0 -0.00000000000E+00 -0.00000000000E+00 -0.74505805969E-08  0.93827000000E+00  0.93827000000E+00 0. -1.
     999902    2    1    2    0    0  0.16942139744E-01 -0.16420610518E-01  0.24536509841E-02  0.10202088501E+01  0.10199330394E+01 0.  0.
     999903    2    3    3    0    0  0.85219761019E-03  0.70585626123E-01 -0.10636999824E+00  0.12910192158E+00  0.19226876350E-01 0.  0.
         14    1    1    2    0    0 -0.16942139744E-01  0.16420610518E-01 -0.24536509841E-02  0.23721149888E-01  0.00000000000E+00 0. -1.
     999901    1    3    3    0    0  0.16089942133E-01 -0.87006236641E-01  0.10882364922E+00  0.89110692853E+00  0.88000000000E+00 0.  1.
        -11    1    4    4    0    0 -0.82886451151E-02  0.48867662240E-01 -0.70490392034E-01  0.86173699821E-01  0.51100000000E-03 0.  1.
         11    1    4    4    0    0  0.91408427253E-02  0.21717963883E-01 -0.35879606202E-01  0.42928221757E-01  0.51100000000E-03 0. -1.
</event>
<event>
 8    1  0.1117354E+005  0.1043930E+01  0.7957747E-01            NaN
         13   -1    0    0    0    0  0.00000000000E+00  0.00000000000E+00  0.74505805969E-08  0.10566000000E+00  0.10566000000E+00 0. -1.
     999900   -1    0    0    0    0 -0.00000000000E+00 -0.00000000000E+00 -0.74505805969E-08  0.93827000000E+00  0.93827000000E+00 0. -1.
     999902    2    1    2    0    0  0.77301824337E-02 -0.16815973457E-01  0.13222773668E-01  0.10211841338E+01  0.10209307816E+01 0.  0.
     999903    2    3    3    0    0  0.99995673568E-01  0.79044016731E-01 -0.19206257387E-01  0.13059236394E+00  0.20937857631E-01 0.  0.
         14    1    1    2    0    0 -0.77301824337E-02  0.16815973457E-01 -0.13222773668E-01  0.22745866157E-01  0.00000000000E+00 0.  1.
     999901    1    3    3    0    0 -0.92265491134E-01 -0.95859990188E-01  0.32429031055E-01  0.89059176991E+00  0.88000000000E+00 0. -1.
        -11    1    4    4    0    0  0.69445910896E-01  0.49798205130E-01 -0.21878753927E-01  0.88213019270E-01  0.51100000000E-03 0. -1.
         11    1    4    4    0    0  0.30549762672E-01  0.29245811601E-01  0.26724965396E-02  0.42379344665E-01  0.51100000000E-03 0.  1.
</event>
<event>
 8    1  0.1117354E+005  0.1043930E+01  0.7957747E-01            NaN
         13   -1    0    0    0    0  0.00000000000E+00  0.00000000000E+00  0.74505805969E-08  0.10566000000E+00  0.10566000000E+00 0.  1.
     999900   -1    0    0    0    0 -0.00000000000E+00 -0.00000000000E+00 -0.74505805969E-08  0.93827000000E+00  0.93827000000E+00 0. -1.
     999902    2    1    2    0    0 -0.72158592682E-02  0.91424664705E-02  0.20821232574E-01  0.10200725684E+01  0.10197935417E+01 0.  0.
     999903    2    3    3    0    0  0.10264152230E+00  0.68737710835E-01 -0.33663633242E-01  0.12957336116E+00  0.19896249090E-01 0.  0.
         14    1    1    2    0    0  0.72158592682E-02 -0.91424664705E-02 -0.20821232574E-01  0.23857431631E-01  0.00000000000E+00 0. -1.
     999901    1    3    3    0    0 -0.10985738157E+00 -0.59595244365E-01  0.54484865815E-01  0.89049920721E+00  0.88000000000E+00 0.  1.
        -11    1    4    4    0    0  0.49792819758E-01  0.21878673821E-01 -0.12066399498E-01  0.55712300128E-01  0.51100000000E-03 0. -1.
         11    1    4    4    0    0  0.52848702544E-01  0.46859037014E-01 -0.21597233744E-01  0.73861061033E-01  0.51100000000E-03 0.  1.
</event>
<event>
 8    1  0.1117354E+005  0.1043930E+01  0.7957747E-01            NaN
         13   -1    0    0    0    0  0.00000000000E+00  0.00000000000E+00  0.74505805969E-08  0.10566000000E+00  0.10566000000E+00 0. -1.
     999900   -1    0    0    0    0 -0.00000000000E+00 -0.00000000000E+00 -0.74505805969E-08  0.93827000000E+00  0.93827000000E+00 0. -1.
     999902    2    1    2    0    0 -0.44631634811E-02 -0.23270041200E-01  0.68587141860E-02  0.10192630868E+01  0.10189645644E+01 0.  0.
     999903    2    3    3    0    0 -0.57033046112E-01  0.86492637508E-01  0.73418374976E-01  0.12839742543E+00  0.19023574337E-01 0.  0.
         14    1    1    2    0    0  0.44631634811E-02  0.23270041200E-01 -0.68587141860E-02  0.24666913183E-01  0.00000000000E+00 0.  1.
     999901    1    3    3    0    0  0.52569882631E-01 -0.10976267871E+00 -0.66559660790E-01  0.89086566139E+00  0.88000000000E+00 0.  1.
        -11    1    4    4    0    0 -0.18573280403E-01  0.42800973914E-01  0.26705374593E-01  0.53761773279E-01  0.51100000000E-03 0. -1.
         11    1    4    4    0    0 -0.38459765709E-01  0.43691663594E-01  0.46713000383E-01  0.74635652149E-01  0.51100000000E-03 0.  1.
</event>
<event>
 8    1  0.1117354E+005  0.1043930E+01  0.7957747E-01            NaN
         13   -1    0    0    0    0  0.00000000000E+00  0.00000000000E+00  0.74505805969E-08  0.10566000000E+00  0.10566000000E+00 0.  1.
     999900   -1    0    0    0    0 -0.00000000000E+00 -0.00000000000E+00 -0.74505805969E-08  0.93827000000E+00  0.93827000000E+00 0. -1.
     999902    2    1    2    0    0  0.21559332835E-01 -0.10253305302E-01  0.90636911692E-03  0.10200394871E+01  0.10197596769E+01 0.  0.
     999903    2    3    3    0    0 -0.40363461292E-01  0.91308198895E-01  0.79058458347E-01  0.12860417221E+00  0.17955419278E-01 0.  0.
         14    1    1    2    0    0 -0.21559332835E-01  0.10253305302E-01 -0.90636911692E-03  0.23890512906E-01  0.00000000000E+00 0.  1.
     999901    1    3    3    0    0  0.61922794127E-01 -0.10156150420E+00 -0.78152089230E-01  0.89143531488E+00  0.88000000000E+00 0. -1.
        -11    1    4    4    0    0 -0.16326558054E-01  0.58409407817E-01  0.48954888239E-01  0.77942655991E-01  0.51100000000E-03 0.  1.
         11    1    4    4    0    0 -0.24036903238E-01  0.32898791077E-01  0.30103570109E-01  0.50661516222E-01  0.51100000000E-03 0. -1.
</event>
<event>
 8    1  0.1117354E+005  0.1043930E+01  0.7957747E-01            NaN
         13   -1    0    0    0    0  0.00000000000E+00  0.00000000000E+00  0.74505805969E-08  0.10566000000E+00  0.10566000000E+00 0.  1.
     999900   -1    0    0    0    0 -0.00000000000E+00 -0.00000000000E+00 -0.74505805969E-08  0.93827000000E+00  0.93827000000E+00 0.  1.
     999902    2    1    2    0    0 -0.47892220516E-02 -0.21600810742E-01 -0.88141213485E-02  0.10201136105E+01  0.10198355544E+01 0.  0.
     999903    2    3    3    0    0 -0.29138020127E-01 -0.90967147258E-01 -0.89829700239E-01  0.13333963897E+00  0.24208225401E-01 0.  0.
         14    1    1    2    0    0  0.47892220516E-02  0.21600810742E-01  0.88141213485E-02  0.23816389477E-01  0.00000000000E+00 0.  1.
     999901    1    3    3    0    0  0.24348798076E-01  0.69366336516E-01  0.81015578891E-01  0.88677397156E+00  0.88000000000E+00 0. -1.
        -11    1    4    4    0    0 -0.26072567116E-01 -0.53851111473E-01 -0.66190490580E-01  0.89225350249E-01  0.51100000000E-03 0. -1.
         11    1    4    4    0    0 -0.30654530108E-02 -0.37116035786E-01 -0.23639209659E-01  0.44114288716E-01  0.51100000000E-03 0.  1.
</event>
<event>
 8    1  0.1117354E+005  0.1043930E+01  0.7957747E-01            NaN
         13   -1    0    0    0    0  0.00000000000E+00  0.00000000000E+00  0.74505805969E-08  0.10566000000E+00  0.10566000000E+00 0. -1.
     999900   -1    0    0    0    0 -0.00000000000E+00 -0.00000000000E+00 -0.74505805969E-08  0.93827000000E+00  0.93827000000E+00 0.  1.
     999902    2    1    2    0    0  0.14208168665E-01  0.97824497728E-02  0.15554403007E-01  0.10207026921E+01  0.10204383753E+01 0.  0.
     999903    2    3    3    0    0 -0.36451674311E-01 -0.27503915752E-01 -0.11835802821E+00  0.12835229455E+00  0.19506376693E-01 0.  0.
         14    1    1    2    0    0 -0.14208168665E-01 -0.97824497728E-02 -0.15554403007E-01  0.23227307921E-01  0.00000000000E+00 0.  1.
     999901    1    3    3    0    0  0.50659842976E-01  0.37286365525E-01  0.13391243122E+00  0.89235039753E+00  0.88000000000E+00 0. -1.
        -11    1    4    4    0    0 -0.78254787608E-02 -0.68334438586E-02 -0.53522556834E-01  0.54523933129E-01  0.51100000000E-03 0. -1.
         11    1    4    4    0    0 -0.28626195550E-01 -0.20670471894E-01 -0.64835471375E-01  0.73828361416E-01  0.51100000000E-03 0.  1.
</event>
<event>
 8    1  0.1447014E+005  0.1043930E+01  0.7957747E-01            NaN
         13   -1    0    0    0    0  0.00000000000E+00  0.00000000000E+00  0.74505805969E-08  0.10566000000E+00  0.10566000000E+00 0.  1.
     999900   -1    0    0    0    0 -0.00000000000E+00 -0.00000000000E+00 -0.74505805969E-08  0.93827000000E+00  0.93827000000E+00 0.  1.
     999902    2    1    2    0    0 -0.70356277935E-02  0.27829507077E-01 -0.93023905650E-02  0.10137552425E+01  0.10133060622E+01 0.  0.
     999903    2    3    3    0    0 -0.11762074688E-01  0.82235718328E-02 -0.12365034903E+00  0.12612796279E+00  0.20319464784E-01 0.  0.
         14    1    1    2    0    0  0.70356277935E-02 -0.27829507077E-01  0.93023905650E-02  0.30174757544E-01  0.00000000000E+00 0.  1.
     999901    1    3    3    0    0  0.47264468943E-02  0.19605935244E-01  0.11434795846E+00  0.88762727966E+00  0.88000000000E+00 0. -1.
        -11    1    4    4    0    0 -0.12080126166E-01  0.14053459149E-01 -0.82154318668E-01  0.84220082872E-01  0.51100000000E-03 0.  1.
         11    1    4    4    0    0  0.31805147820E-03 -0.58298873162E-02 -0.41496030360E-01  0.41907879921E-01  0.51100000000E-03 0. -1.
</event>
<event>
 8    1  0.1117354E+005  0.1043930E+01  0.7957747E-01            NaN
         13   -1    0    0    0    0  0.00000000000E+00  0.00000000000E+00  0.74505805969E-08  0.10566000000E+00  0.10566000000E+00 0.  1.
     999900   -1    0    0    0    0 -0.00000000000E+00 -0.00000000000E+00 -0.74505805969E-08  0.93827000000E+00  0.93827000000E+00 0. -1.
     999902    2    1    2    0    0 -0.38527859243E-02  0.18620771248E-01  0.11094783803E-01  0.10219147483E+01  0.10216775819E+01 0.  0.
     999903    2    3    3    0    0  0.53560782257E-01 -0.11224041548E+00  0.31949480550E-01  0.13014354085E+00  0.21210932450E-01 0.  0.
         14    1    1    2    0    0  0.38527859243E-02 -0.18620771248E-01 -0.11094783803E-01  0.22015251733E-01  0.00000000000E+00 0. -1.
     999901    1    3    3    0    0 -0.57413568182E-01  0.13086118672E+00 -0.20854696747E-01  0.89177120742E+00  0.88000000000E+00 0. -1.
        -11    1    4    4    0    0  0.40918943266E-01 -0.86403382419E-01  0.15058515629E-01  0.96782872582E-01  0.51100000000E-03 0. -1.
         11    1    4    4    0    0  0.12641838992E-01 -0.25837033056E-01  0.16890964921E-01  0.33360668267E-01  0.51100000000E-03 0.  1.
</event>
<event>
 8    1  0.1117354E+005  0.1043930E+01  0.7957747E-01            NaN
         13   -1    0    0    0    0  0.00000000000E+00  0.00000000000E+00  0.74505805969E-08  0.10566000000E+00  0.10566000000E+00 0. -1.
     999900   -1    0    0    0    0 -0.00000000000E+00 -0.00000000000E+00 -0.74505805969E-08  0.93827000000E+00  0.93827000000E+00 0.  1.
     999902    2    1    2    0    0  0.24502186577E-01  0.61364085587E-02  0.17982335364E-02  0.10186071585E+01  0.10182923436E+01 0.  0.
     999903    2    3    3    0    0  0.99182907761E-02  0.84435121101E-02 -0.12679571373E+00  0.12913854411E+00  0.20735119141E-01 0.  0.
         14    1    1    2    0    0 -0.24502186577E-01 -0.61364085587E-02 -0.17982335364E-02  0.25322841486E-01  0.00000000000E+00 0. -1.
     999901    1    3    3    0    0  0.14583895801E-01 -0.23071035515E-02  0.12859394726E+00  0.88946861441E+00  0.88000000000E+00 0. -1.
        -11    1    4    4    0    0 -0.23068419250E-02  0.55283458830E-02 -0.90978039371E-01  0.91176471179E-01  0.51100000000E-03 0.  1.
         11    1    4    4    0    0  0.12225132701E-01  0.29151662271E-02 -0.35817674356E-01  0.37962072927E-01  0.51100000000E-03 0. -1.
</event>
<event>
 8    1  0.1117354E+005  0.1043930E+01  0.7957747E-01            NaN
         13   -1    0    0    0    0  0.00000000000E+00  0.00000000000E+00  0.74505805969E-08  0.10566000000E+00  0.10566000000E+00 0.  1.
     999900   -1    0    0    0    0 -0.00000000000E+00 -0.00000000000E+00 -0.74505805969E-08  0.93827000000E+00  0.93827000000E+00 0. -1.
     999902    2    1    2    0    0  0.15849342205E-01 -0.18351259652E-01  0.25501133926E-02  0.10195481736E+01  0.10192565942E+01 0.  0.
     999903    2    3    3    0    0  0.84572015312E-01 -0.93902767921E-01  0.39759662061E-01  0.13286029916E+00  0.10043543680E-01 0.  0.
         14    1    1    2    0    0 -0.15849342205E-01  0.18351259652E-01 -0.25501133926E-02  0.24381826377E-01  0.00000000000E+00 0. -1.
     999901    1    3    3    0    0 -0.68722673107E-01  0.75551508269E-01 -0.37209548668E-01  0.88668787446E+00  0.88000000000E+00 0.  1.
        -11    1    4    4    0    0  0.42678500609E-01 -0.53597439767E-01  0.24378839766E-01  0.72723647551E-01  0.51100000000E-03 0. -1.
         11    1    4    4    0    0  0.41893514702E-01 -0.40305328154E-01  0.15380822295E-01  0.60136651613E-01  0.51100000000E-03 0.  1.
</event>
<event>
 8    1  0.1117354E+005  0.1043930E+01  0.7957747E-01            NaN
         13   -1    0    0    0    0  0.00000000000E+00  0.00000000000E+00  0.74505805969E-08  0.10566000000E+00  0.10566000000E+00 0.  1.
     999900   -1    0    0    0    0 -0.00000000000E+00 -0.00000000000E+00 -0.74505805969E-08  0.93827000000E+00  0.93827000000E+00 0. -1.
     999902    2    1    2    0    0  0.88672930160E-02  0.10414451454E-01  0.19306296364E-01  0.10202694260E+01  0.10199950386E+01 0.  0.
     999903    2    3    3    0    0  0.52901666697E-01  0.52184521060E-01 -0.10355714743E+00  0.12966334547E+00  0.23805247285E-01 0.  0.
         14    1    1    2    0    0 -0.88672930160E-02 -0.10414451454E-01 -0.19306296364E-01  0.23660574038E-01  0.00000000000E+00 0.  1.
     999901    1    3    3    0    0 -0.44034373681E-01 -0.41770069606E-01  0.12286344379E+00  0.89060608049E+00  0.88000000000E+00 0.  1.
        -11    1    4    4    0    0  0.16481827901E-01  0.71609273399E-02 -0.13052252027E-01  0.22216028792E-01  0.51100000000E-03 0. -1.
         11    1    4    4    0    0  0.36419838796E-01  0.45023593720E-01 -0.90504895403E-01  0.10744731668E+00  0.51100000000E-03 0.  1.
</event>
<event>
 8    1  0.1117354E+005  0.1043930E+01  0.7957747E-01            NaN
         13   -1    0    0    0    0  0.00000000000E+00  0.00000000000E+00  0.74505805969E-08  0.10566000000E+00  0.10566000000E+00 0. -1.
     999900   -1    0    0    0    0 -0.00000000000E+00 -0.00000000000E+00 -0.74505805969E-08  0.93827000000E+00  0.93827000000E+00 0.  1.
     999902    2    1    2    0    0  0.13983556965E-01  0.23738249915E-04 -0.19308959120E-01  0.10200893555E+01  0.10198107260E+01 0.  0.
     999903    2    3    3    0    0 -0.31585807911E-01  0.10821399381E+00  0.58525205666E-01  0.12888800022E+00  0.21885730119E-01 0.  0.
         14    1    1    2    0    0 -0.13983556965E-01 -0.23738249915E-04  0.19308959120E-01  0.23840644521E-01  0.00000000000E+00 0.  1.
     999901    1    3    3    0    0  0.45569364876E-01 -0.10819025556E+00 -0.77834164786E-01  0.89120135526E+00  0.88000000000E+00 0.  1.
        -11    1    4    4    0    0 -0.11694678688E-01  0.63155921854E-01  0.23277234757E-01  0.68319300009E-01  0.51100000000E-03 0. -1.
         11    1    4    4    0    0 -0.19891129223E-01  0.45058071960E-01  0.35247970909E-01  0.60568700207E-01  0.51100000000E-03 0.  1.
</event>
<event>
 8    1  0.1117354E+005  0.1043930E+01  0.7957747E-01            NaN
         13   -1    0    0    0    0  0.00000000000E+00  0.00000000000E+00  0.74505805969E-08  0.10566000000E+00  0.10566000000E+00 0. -1.
     999900   -1    0    0    0    0 -0.00000000000E+00 -0.00000000000E+00 -0.74505805969E-08  0.93827000000E+00  0.93827000000E+00 0.  1.
     999902    2    1    2    0    0  0.16136052040E-01  0.48317489808E-02 -0.16349077119E-01  0.10204563915E+01  0.10201863735E+01 0.  0.
     999903    2    3    3    0    0 -0.64679388296E-01 -0.10675210607E+00  0.24512936349E-01  0.12879962107E+00  0.20224314986E-01 0.  0.
         14    1    1    2    0    0 -0.16136052040E-01 -0.48317489808E-02  0.16349077119E-01  0.23473608506E-01  0.00000000000E+00 0. -1.
     999901    1    3    3    0    0  0.80815440336E-01  0.11158385506E+00 -0.40862013468E-01  0.89165677043E+00  0.88000000000E+00 0.  1.
        -11    1    4    4    0    0 -0.43702993559E-01 -0.87538275273E-01  0.21615668227E-01  0.10020179398E+00  0.51100000000E-03 0.  1.
         11    1    4    4    0    0 -0.20976394737E-01 -0.19213830801E-01  0.28972681225E-02  0.28597827081E-01  0.51100000000E-03 0. -1.
</event>
<event>
 8    1  0.1117354E+005  0.1043930E+01  0.7957747E-01            NaN
         13   -1    0    0    0    0  0.00000000000E+00  0.00000000000E+00  0.74505805969E-08  0.10566000000E+00  0.10566000000E+00 0.  1.
     999900   -1    0    0    0    0 -0.00000000000E+00 -0.00000000000E+00 -0.74505805969E-08  0.93827000000E+00  0.93827000000E+00 0.  1.
     999902    2    1    2    0    0  0.15133674229E-01  0.17957670807E-01 -0.44124570728E-03  0.10204416894E+01  0.10201713291E+01 0.  0.
     999903    2    3    3    0    0 -0.62635675245E-01 -0.41360229665E-01  0.10259906617E+00  0.12904728125E+00  0.22197657683E-01 0.  0.
         14    1    1    2    0    0 -0.15133674229E-01 -0.17957670807E-01  0.44124570728E-03  0.23488310588E-01  0.00000000000E+00 0. -1.
     999901    1    3    3    0    0  0.77769349475E-01  0.59317900472E-01 -0.10304031188E+00  0.89139440816E+00  0.88000000000E+00 0.  1.
        -11    1    4    4    0    0 -0.57647313964E-01 -0.35752862927E-01  0.78239689452E-01  0.10355283744E+00  0.51100000000E-03 0. -1.
         11    1    4    4    0    0 -0.49883612814E-02 -0.56073667382E-02  0.24359376721E-01  0.25494443811E-01  0.51100000000E-03 0.  1.
</event>
<event>
 8    1  0.1117354E+005  0.1043930E+01  0.7957747E-01            NaN
         13   -1    0    0    0    0  0.00000000000E+00  0.00000000000E+00  0.74505805969E-08  0.10566000000E+00  0.10566000000E+00 0.  1.
     999900   -1    0    0    0    0 -0.00000000000E+00 -0.00000000000E+00 -0.74505805969E-08  0.93827000000E+00  0.93827000000E+00 0. -1.
     999902    2    1    2    0    0 -0.10200250419E-01  0.11663856146E-04  0.21245011579E-01  0.10203631639E+01  0.10200909717E+01 0.  0.
     999903    2    3    3    0    0  0.68574258027E-01  0.10316758729E+00  0.36780555896E-01  0.13070709509E+00  0.19635566749E-01 0.  0.
         14    1    1    2    0    0  0.10200250419E-01 -0.11663856146E-04 -0.21245011579E-01  0.23566836055E-01  0.00000000000E+00 0. -1.
     999901    1    3    3    0    0 -0.78774508446E-01 -0.10315592344E+00 -0.15535544316E-01  0.88965606886E+00  0.88000000000E+00 0.  1.
        -11    1    4    4    0    0  0.50734406976E-01  0.85703233088E-01  0.35395306339E-01  0.10569821685E+00  0.51100000000E-03 0.  1.
         11    1    4    4    0    0  0.17839851051E-01  0.17464354206E-01  0.13852495566E-02  0.25008878237E-01  0.51100000000E-03 0. -1.
</event>
<event>
 8    1  0.1117354E+005  0.1043930E+01  0.7957747E-01            NaN
         13   -1    0    0    0    0  0.00000000000E+00  0.00000000000E+00  0.74505805969E-08  0.10566000000E+00  0.10566000000E+00 0. -1.
     999900   -1    0    0    0    0 -0.00000000000E+00 -0.00000000000E+00 -0.74505805969E-08  0.93827000000E+00  0.93827000000E+00 0. -1.
     999902    2    1    2    0    0 -0.17965520265E-01 -0.15641099701E-01  0.23987508180E-02  0.10199892831E+01  0.10197082817E+01 0.  0.
     999903    2    3    3    0    0 -0.52389893131E-01 -0.25553044888E-01  0.11723403162E+00  0.13180550384E+00  0.15205711630E-01 0.  0.
         14    1    1    2    0    0  0.17965520265E-01  0.15641099701E-01 -0.23987508180E-02  0.23940716859E-01  0.00000000000E+00 0. -1.
     999901    1    3    3    0    0  0.34424372867E-01  0.99119451879E-02 -0.11483528080E+00  0.88818377931E+00  0.88000000000E+00 0. -1.
        -11    1    4    4    0    0 -0.12185041761E-01 -0.12943119725E-01  0.41221519872E-01  0.44894035378E-01  0.51100000000E-03 0. -1.
         11    1    4    4    0    0 -0.40204851370E-01 -0.12609925163E-01  0.76012511748E-01  0.86911468458E-01  0.51100000000E-03 0.  1.
</event>
<event>
 8    1  0.1117354E+005  0.1043930E+01  0.7957747E-01            NaN
         13   -1    0    0    0    0  0.00000000000E+00  0.00000000000E+00  0.74505805969E-08  0.10566000000E+00  0.10566000000E+00 0. -1.
     999900   -1    0    0    0    0 -0.00000000000E+00 -0.00000000000E+00 -0.74505805969E-08  0.93827000000E+00  0.93827000000E+00 0. -1.
     999902    2    1    2    0    0  0.18291518737E-01  0.16300462432E-01  0.14383862240E-01  0.10155190826E+01  0.10151215823E+01 0.  0.
     999903    2    3    3    0    0 -0.78046011423E-01  0.21205736948E-01  0.95347907948E-01  0.12655330256E+00  0.19587027832E-01 0.  0.
         14    1    1    2    0    0 -0.18291518737E-01 -0.16300462432E-01 -0.14383862240E-01  0.28410917376E-01  0.00000000000E+00 0.  1.
     999901    1    3    3    0    0  0.96337530159E-01 -0.49052745157E-02 -0.80964045707E-01  0.88896578007E+00  0.88000000000E+00 0. -1.
        -11    1    4    4    0    0 -0.24624420344E-01  0.10046736049E-01  0.45141780182E-01  0.52395996236E-01  0.51100000000E-03 0. -1.
         11    1    4    4    0    0 -0.53421591079E-01  0.11159000899E-01  0.50206127765E-01  0.74157306320E-01  0.51100000000E-03 0.  1.
</event>
<event>
 8    1  0.1117354E+005  0.1043930E+01  0.7957747E-01            NaN
         13   -1    0    0    0    0  0.00000000000E+00  0.00000000000E+00  0.74505805969E-08  0.10566000000E+00  0.10566000000E+00 0. -1.
     999900   -1    0    0    0    0 -0.00000000000E+00 -0.00000000000E+00 -0.74505805969E-08  0.93827000000E+00  0.93827000000E+00 0.  1.
     999902    2    1    2    0    0  0.14026240322E-01 -0.13460209922E-01 -0.14330397248E-01  0.10197789554E+01  0.10194929352E+01 0.  0.
     999903    2    3    3    0    0  0.98245860060E-01  0.43862629747E-01 -0.73833371347E-01  0.13190539674E+00  0.19274015049E-01 0.  0.
         14    1    1    2    0    0 -0.14026240322E-01  0.13460209922E-01  0.14330397248E-01  0.24151044573E-01  0.00000000000E+00 0. -1.
     999901    1    3    3    0    0 -0.84219619738E-01 -0.57322839669E-01  0.59502974100E-01  0.88787355869E+00  0.88000000000E+00 0. -1.
        -11    1    4    4    0    0  0.53534138091E-01  0.18664174734E-01 -0.48771137549E-01  0.74787300650E-01  0.51100000000E-03 0.  1.
         11    1    4    4    0    0  0.44711721969E-01  0.25198455013E-01 -0.25062233798E-01  0.57118096085E-01  0.51100000000E-03 0. -1.
</event>
<event>
 8    1  0.1117354E+005  0.1043930E+01  0.7957747E-01            NaN
         13   -1    0    0    0    0  0.00000000000E+00  0.00000000000E+00  0.74505805969E-08  0.10566000000E+00  0.10566000000E+00 0.  1.
     999900   -1    0    0    0    0 -0.00000000000E+00 -0.00000000000E+00 -0.74505805969E-08  0.93827000000E+00  0.93827000000E+00 0. -1.
     999902    2    1    2    0    0 -0.78984693669E-02  0.34420384304E-03  0.26177975176E-01  0.10165842384E+01  0.10162163761E+01 0.  0.
     999903    2    3    3    0    0 -0.12548606511E+00  0.91707680637E-03  0.20650368972E-01  0.12874544372E+00  0.20033920600E-01 0.  0.
         14    1    1    2    0    0  0.78984693669E-02 -0.34420384304E-03 -0.26177975176E-01  0.27345761626E-01  0.00000000000E+00 0. -1.
     999901    1    3    3    0    0  0.11758759574E+00 -0.57287296334E-03  0.55276062034E-02  0.88783879465E+00  0.88000000000E+00 0. -1.
        -11    1    4    4    0    0 -0.69123343102E-01 -0.28967536824E-02  0.20822015179E-01  0.72251264214E-01  0.51100000000E-03 0.  1.
         11    1    4    4    0    0 -0.56362722007E-01  0.38138304888E-02 -0.17164620656E-03  0.56494179509E-01  0.51100000000E-03 0. -1.
</event>
<event>
 8    1  0.1117354E+005  0.1043930E+01  0.7957747E-01            NaN
         13   -1    0    0    0    0  0.00000000000E+00  0.00000000000E+00  0.74505805969E-08  0.10566000000E+00  0.10566000000E+00 0.  1.
     999900   -1    0    0    0    0 -0.00000000000E+00 -0.00000000000E+00 -0.74505805969E-08  0.93827000000E+00  0.93827000000E+00 0.  1.
     999902    2    1    2    0    0 -0.21288159215E-01 -0.58726070194E-02 -0.96469110844E-02  0.10198315326E+01  0.10195467713E+01 0.  0.
     999903    2    3    3    0    0  0.69926068339E-01 -0.72902623924E-01 -0.79455055357E-01  0.12983926554E+00  0.18457557977E-01 0.  0.
         14    1    1    2    0    0  0.21288159215E-01  0.58726070194E-02  0.96469110844E-02  0.24098467367E-01  0.00000000000E+00 0.  1.
     999901    1    3    3    0    0 -0.91214227553E-01  0.67030016905E-01  0.69808144273E-01  0.88999226709E+00  0.88000000000E+00 0. -1.
        -11    1    4    4    0    0  0.55443049686E-01 -0.56675364355E-01 -0.52034842447E-01  0.94836251680E-01  0.51100000000E-03 0.  1.
         11    1    4    4    0    0  0.14483018653E-01 -0.16227259569E-01 -0.27420212910E-01  0.35003013863E-01  0.51100000000E-03 0. -1.
</event>
<event>
 8    1  0.1117354E+005  0.1043930E+01  0.7957747E-01            NaN
         13   -1    0    0    0    0  0.00000000000E+00  0.00000000000E+00  0.74505805969E-08  0.10566000000E+00  0.10566000000E+00 0.  1.
     999900   -1    0    0    0    0 -0.00000000000E+00 -0.00000000000E+00 -0.74505805969E-08  0.93827000000E+00  0.93827000000E+00 0.  1.
     999902    2    1    2    0    0 -0.71057362337E-02 -0.11647691889E-01 -0.19138368784E-01  0.10204260137E+01  0.10201552882E+01 0.  0.
     999903    2    3    3    0    0  0.15290468480E-01  0.46828115028E-01 -0.12115711911E+00  0.13232194578E+00  0.20084298365E-01 0.  0.
         14    1    1    2    0    0  0.71057362337E-02  0.11647691889E-01  0.19138368784E-01  0.23503986332E-01  0.00000000000E+00 0.  1.
     999901    1    3    3    0    0 -0.22396204714E-01 -0.58475806917E-01  0.10201875033E+00  0.88810406789E+00  0.88000000000E+00 0. -1.
        -11    1    4    4    0    0  0.19610308426E-01  0.30239980692E-01 -0.82820418548E-01  0.90324434558E-01  0.51100000000E-03 0.  1.
         11    1    4    4    0    0 -0.43198399461E-02  0.16588134336E-01 -0.38336700562E-01  0.41997511223E-01  0.51100000000E-03 0. -1.
</event>
<event>
 8    1  0.1117354E+005  0.1043930E+01  0.7957747E-01            NaN
         13   -1    0    0    0    0  0.00000000000E+00  0.00000000000E+00  0.74505805969E-08  0.10566000000E+00  0.10566000000E+00 0.  1.
     999900   -1    0    0    0    0 -0.00000000000E+00 -0.00000000000E+00 -0.74505805969E-08  0.93827000000E+00  0.93827000000E+00 0. -1.
     999902    2    1    2    0    0  0.11121106725E-01  0.65917678154E-02 -0.19262124935E-01  0.10207317269E+01  0.10204680781E+01 0.  0.
     999903    2    3    3    0    0 -0.12432338026E+00 -0.23562172534E-01 -0.21140514848E-01  0.12985687737E+00  0.20109907487E-01 0.  0.
         14    1    1    2    0    0 -0.11121106725E-01 -0.65917678154E-02  0.19262124935E-01  0.23198273098E-01  0.00000000000E+00 0.  1.
     999901    1    3    3    0    0  0.13544448699E+00  0.30153940350E-01  0.18783899128E-02  0.89087484953E+00  0.88000000000E+00 0.  1.
        -11    1    4    4    0    0 -0.86730307008E-01 -0.81470308589E-02 -0.97564566411E-02  0.87658255930E-01  0.51100000000E-03 0.  1.
         11    1    4    4    0    0 -0.37593073254E-01 -0.15415141676E-01 -0.11384058207E-01  0.42198621444E-01  0.51100000000E-03 0. -1.
</event>
<event>
 8    1  0.1117354E+005  0.1043930E+01  0.7957747E-01            NaN
         13   -1    0    0    0    0  0.00000000000E+00  0.00000000000E+00  0.74505805969E-08  0.10566000000E+00  0.10566000000E+00 0.  1.
     999900   -1    0    0    0    0 -0.00000000000E+00 -0.00000000000E+00 -0.74505805969E-08  0.93827000000E+00  0.93827000000E+00 0.  1.
     999902    2    1    2    0    0  0.11945164651E-01 -0.38925504451E-02 -0.19738713917E-01  0.10205322280E+01  0.10202639720E+01 0.  0.
     999903    2    3    3    0    0  0.11833816683E+00  0.37819591829E-01 -0.41815806875E-01  0.13286856886E+00  0.21708330912E-01 0.  0.
         14    1    1    2    0    0 -0.11945164651E-01  0.38925504451E-02  0.19738713917E-01  0.23397772001E-01  0.00000000000E+00 0.  1.
     999901    1    3    3    0    0 -0.10639300218E+00 -0.41712142274E-01  0.22077092958E-01  0.88766365914E+00  0.88000000000E+00 0. -1.
        -11    1    4    4    0    0  0.56605267980E-01  0.25536060838E-01 -0.12129707775E-01  0.63274305195E-01  0.51100000000E-03 0.  1.
         11    1    4    4    0    0  0.61732898850E-01  0.12283530991E-01 -0.29686099100E-01  0.69594263663E-01  0.51100000000E-03 0. -1.
</event>
<event>
 8    1  0.1117354E+005  0.1043930E+01  0.7957747E-01            NaN
         13   -1    0    0    0    0  0.00000000000E+00  0.00000000000E+00  0.74505805969E-08  0.10566000000E+00  0.10566000000E+00 0.  1.
     999900   -1    0    0    0    0 -0.00000000000E+00 -0.00000000000E+00 -0.74505805969E-08  0.93827000000E+00  0.93827000000E+00 0. -1.
     999902    2    1    2    0    0  0.16789355728E-01  0.15229916953E-01  0.41456166042E-02  0.10208861511E+01  0.10206260405E+01 0.  0.
     999903    2    3    3    0    0 -0.40857011608E-02 -0.11669624265E+00 -0.51800777007E-01  0.12905080834E+00  0.18332611187E-01 0.  0.
         14    1    1    2    0    0 -0.16789355728E-01 -0.15229916953E-01 -0.41456166042E-02  0.23043848923E-01  0.00000000000E+00 0.  1.
     999901    1    3    3    0    0  0.20875056888E-01  0.13192615960E+00  0.55946393611E-01  0.89183534273E+00  0.88000000000E+00 0.  1.
        -11    1    4    4    0    0 -0.65454199942E-02 -0.10838076135E+00 -0.43294010438E-01  0.11689253361E+00  0.51100000000E-03 0.  1.
         11    1    4    4    0    0  0.24597188334E-02 -0.83154813058E-02 -0.85067665689E-02  0.12158274735E-01  0.51100000000E-03 0. -1.
</event>
<event>
 8    1  0.1117354E+005  0.1043930E+01  0.7957747E-01            NaN
         13   -1    0    0    0    0  0.00000000000E+00  0.00000000000E+00  0.74505805969E-08  0.10566000000E+00  0.10566000000E+00 0.  1.
     999900   -1    0    0    0    0 -0.00000000000E+00 -0.00000000000E+00 -0.74505805969E-08  0.93827000000E+00  0.93827000000E+00 0.  1.
     999902    2    1    2    0    0  0.11318223929E-01 -0.57884994689E-02  0.20310555671E-01  0.10199690403E+01  0.10196875578E+01 0.  0.
     999903    2    3    3    0    0  0.36878531300E-01  0.72400741614E-01 -0.97421616316E-01  0.12832575339E+00  0.19355469530E-01 0.  0.
         14    1    1    2    0    0 -0.11318223929E-01  0.57884994689E-02 -0.20310555671E-01  0.23960959719E-01  0.00000000000E+00 0. -1.
     999901    1    3    3    0    0 -0.25560307372E-01 -0.78189241083E-01  0.11773217199E+00  0.89164328689E+00  0.88000000000E+00 0. -1.
        -11    1    4    4    0    0  0.20686664117E-01  0.20686062104E-01 -0.36752073055E-01  0.46976879766E-01  0.51100000000E-03 0.  1.
         11    1    4    4    0    0  0.16191867183E-01  0.51714679510E-01 -0.60669543261E-01  0.81348873625E-01  0.51100000000E-03 0. -1.
</event>
<event>
 8    1  0.1117354E+005  0.1043930E+01  0.7957747E-01            NaN
         13   -1    0    0    0    0  0.00000000000E+00  0.00000000000E+00  0.74505805969E-08  0.10566000000E+00  0.10566000000E+00 0.  1.
     999900   -1    0    0    0    0 -0.00000000000E+00 -0.00000000000E+00 -0.74505805969E-08  0.93827000000E+00  0.93827000000E+00 0.  1.
     999902    2    1    2    0    0  0.25928919665E-01 -0.13523879196E-01  0.11010199511E-01  0.10126821412E+01  0.10121999262E+01 0.  0.
     999903    2    3    3    0    0  0.66272565975E-01 -0.87753182089E-01  0.60777213606E-01  0.12723629033E+00  0.20063148218E-01 0.  0.
         14    1    1    2    0    0 -0.25928919665E-01  0.13523879196E-01 -0.11010199511E-01  0.31247858755E-01  0.00000000000E+00 0. -1.
     999901    1    3    3    0    0 -0.40343646310E-01  0.74229302892E-01 -0.49767014095E-01  0.88544585091E+00  0.88000000000E+00 0.  1.
        -11    1    4    4    0    0  0.49066609674E-01 -0.70198985036E-01  0.37922718786E-01  0.93668689572E-01  0.51100000000E-03 0. -1.
         11    1    4    4    0    0  0.17205956301E-01 -0.17554197053E-01  0.22854494820E-01  0.33567600762E-01  0.51100000000E-03 0.  1.
</event>
<event>
 8    1  0.1117354E+005  0.1043930E+01  0.7957747E-01            NaN
         13   -1    0    0    0    0  0.00000000000E+00  0.00000000000E+00  0.74505805969E-08  0.10566000000E+00  0.10566000000E+00 0.  1.
     999900   -1    0    0    0    0 -0.00000000000E+00 -0.00000000000E+00 -0.74505805969E-08  0.93827000000E+00  0.93827000000E+00 0.  1.
     999902    2    1    2    0    0 -0.68102358683E-02 -0.18722071262E-01 -0.13293060846E-01  0.10199800369E+01  0.10196988158E+01 0.  0.
     999903    2    3    3    0    0  0.49788254263E-01  0.11546246752E+00 -0.14047181878E-01  0.12801061579E+00  0.19466452373E-01 0.  0.
         14    1    1    2    0    0  0.68102358683E-02  0.18722071262E-01  0.13293060846E-01  0.23949963081E-01  0.00000000000E+00 0.  1.
     999901    1    3    3    0    0 -0.56598490132E-01 -0.13418453878E+00  0.75412103243E-03  0.89196942113E+00  0.88000000000E+00 0.  1.
        -11    1    4    4    0    0  0.23273000679E-01  0.73456420263E-01 -0.14084629287E-01  0.78333365443E-01  0.51100000000E-03 0.  1.
         11    1    4    4    0    0  0.26515253584E-01  0.42006047255E-01  0.37447408739E-04  0.49677250346E-01  0.51100000000E-03 0. -1.
</event>
<event>
 8    1  0.1117354E+005  0.1043930E+01  0.7957747E-01            NaN
         13   -1    0    0    0    0  0.00000000000E+00  0.00000000000E+00  0.74505805969E-08  0.10566000000E+00  0.10566000000E+00 0.  1.
     999900   -1    0    0    0    0 -0.00000000000E+00 -0.00000000000E+00 -0.74505805969E-08  0.93827000000E+00  0.93827000000E+00 0. -1.
     999902    2    1    2    0    0 -0.20792503633E-01 -0.12918764947E-02 -0.11531052275E-01  0.10201190294E+01  0.10198411013E+01 0.  0.
     999903    2    3    3    0    0  0.12163819578E+00 -0.56131799978E-02 -0.35150599632E-01  0.12834379946E+00  0.20228883840E-01 0.  0.
         14    1    1    2    0    0  0.20792503633E-01  0.12918764947E-02  0.11531052275E-01  0.23810970555E-01  0.00000000000E+00 0.  1.
     999901    1    3    3    0    0 -0.14243069942E+00  0.43213035031E-02  0.23619547357E-01  0.89177522999E+00  0.88000000000E+00 0.  1.
        -11    1    4    4    0    0  0.51105430186E-01  0.75898196440E-02 -0.15450505249E-01  0.53929116349E-01  0.51100000000E-03 0. -1.
         11    1    4    4    0    0  0.70532765598E-01 -0.13202999642E-01 -0.19700094383E-01  0.74414683109E-01  0.51100000000E-03 0.  1.
</event>
<event>
 8    1  0.1117354E+005  0.1043930E+01  0.7957747E-01            NaN
         13   -1    0    0    0    0  0.00000000000E+00  0.00000000000E+00  0.74505805969E-08  0.10566000000E+00  0.10566000000E+00 0. -1.
     999900   -1    0    0    0    0 -0.00000000000E+00 -0.00000000000E+00 -0.74505805969E-08  0.93827000000E+00  0.93827000000E+00 0. -1.
     999902    2    1    2    0    0  0.78372451304E-03 -0.99514379045E-02  0.22813448689E-01  0.10190282173E+01  0.10187239120E+01 0.  0.
     999903    2    3    3    0    0 -0.31462160679E-02  0.20442246150E-02 -0.12490608528E+00  0.12662673755E+00  0.20462722001E-01 0.  0.
         14    1    1    2    0    0 -0.78372451304E-03  0.99514379045E-02 -0.22813448689E-01  0.24901782699E-01  0.00000000000E+00 0.  1.
     999901    1    3    3    0    0  0.39299405809E-02 -0.11995662520E-01  0.14771953397E+00  0.89240147975E+00  0.88000000000E+00 0.  1.
        -11    1    4    4    0    0 -0.58677348974E-02  0.90785782842E-02 -0.10038883966E+00  0.10097044689E+00  0.51100000000E-03 0.  1.
         11    1    4    4    0    0  0.27215188295E-02 -0.70343536691E-02 -0.24517245625E-01  0.25656290658E-01  0.51100000000E-03 0. -1.
</event>
<event>
 8    1  0.1117354E+005  0.1043930E+01  0.7957747E-01            NaN
         13   -1    0    0    0    0  0.00000000000E+00  0.00000000000E+00  0.74505805969E-08  0.10566000000E+00  0.10566000000E+00 0.  1.
     999900   -1    0    0    0    0 -0.00000000000E+00 -0.00000000000E+00 -0.74505805969E-08  0.93827000000E+00  0.93827000000E+00 0.  1.
     999902    2    1    2    0    0 -0.14782651089E-02  0.23970246119E-01  0.93844256668E-02  0.10181457914E+01  0.10178192507E+01 0.  0.
     999903    2    3    3    0    0 -0.59487482898E-02  0.12259797079E+00 -0.41368845066E-01  0.13117154840E+00  0.20710956509E-01 0.  0.
         14    1    1    2    0    0  0.14782651089E-02 -0.23970246119E-01 -0.93844256668E-02  0.25784208575E-01  0.00000000000E+00 0.  1.
     999901    1    3    3    0    0  0.44704831810E-02 -0.98627724674E-01  0.50753270733E-01  0.88697424302E+00  0.88000000000E+00 0. -1.
        -11    1    4    4    0    0  0.18937885255E-03  0.27455155536E-01 -0.56867130880E-03  0.27466451135E-01  0.51100000000E-03 0. -1.
         11    1    4    4    0    0 -0.61381271424E-02  0.95142815257E-01 -0.40800173758E-01  0.10370509727E+00  0.51100000000E-03 0.  1.
</event>
<event>
 8    1  0.1117354E+005  0.1043930E+01  0.7957747E-01            NaN
         13   -1    0    0    0    0  0.00000000000E+00  0.00000000000E+00  0.74505805969E-08  0.10566000000E+00  0.10566000000E+00 0.  1.
     999900   -1    0    0    0    0 -0.00000000000E+00 -0.00000000000E+00 -0.74505805969E-08  0.93827000000E+00  0.93827000000E+00 0. -1.
     999902    2    1    2    0    0  0.15686664551E-01 -0.11943944951E-01  0.10901897337E-01  0.10214004498E+01  0.10211519467E+01 0.  0.
     999903    2    3    3    0    0  0.12754246127E+00 -0.11093446410E-01 -0.26389775639E-01  0.13353609561E+00  0.27300633569E-01 0.  0.
         14    1    1    2    0    0 -0.15686664551E-01  0.11943944951E-01 -0.10901897337E-01  0.22529550179E-01  0.00000000000E+00 0. -1.
     999901    1    3    3    0    0 -0.11185579671E+00 -0.85049854072E-03  0.37291672976E-01  0.88786435421E+00  0.88000000000E+00 0.  1.
        -11    1    4    4    0    0  0.97677182622E-01  0.26958156026E-02 -0.23558970850E-01  0.10051559906E+00  0.51100000000E-03 0. -1.
         11    1    4    4    0    0  0.29865278644E-01 -0.13789262013E-01 -0.28308047899E-02  0.33020496545E-01  0.51100000000E-03 0.  1.
</event>
<event>
 8    1  0.1117354E+005  0.1043930E+01  0.7957747E-01            NaN
         13   -1    0    0    0    0  0.00000000000E+00  0.00000000000E+00  0.74505805969E-08  0.10566000000E+00  0.10566000000E+00 0.  1.
     999900   -1    0    0    0    0 -0.00000000000E+00 -0.00000000000E+00 -0.74505805969E-08  0.93827000000E+00  0.93827000000E+00 0.  1.
     999902    2    1    2    0    0  0.24535241968E-01 -0.11322791793E-02  0.24653471132E-03  0.10193674078E+01  0.10190714358E+01 0.  0.
     999903    2    3    3    0    0 -0.36770920615E-02 -0.78757006709E-01 -0.10112887807E+00  0.12970538862E+00  0.19500019128E-01 0.  0.
         14    1    1    2    0    0 -0.24535241968E-01  0.11322791793E-02 -0.24653471132E-03  0.24562592166E-01  0.00000000000E+00 0. -1.
     999901    1    3    3    0    0  0.28212334029E-01  0.77624727530E-01  0.10137541278E+00  0.88966201921E+00  0.88000000000E+00 0. -1.
        -11    1    4    4    0    0 -0.11051367075E-01 -0.60326004159E-01 -0.77848820067E-01  0.99106303527E-01  0.51100000000E-03 0. -1.
         11    1    4    4    0    0  0.73742750139E-02 -0.18431002550E-01 -0.23280058001E-01  0.30599085093E-01  0.51100000000E-03 0.  1.
</event>
<event>
 8    1  0.1117354E+005  0.1043930E+01  0.7957747E-01            NaN
         13   -1    0    0    0    0  0.00000000000E+00  0.00000000000E+00  0.74505805969E-08  0.10566000000E+00  0.10566000000E+00 0. -1.
     999900   -1    0    0    0    0 -0.00000000000E+00 -0.00000000000E+00 -0.74505805969E-08  0.93827000000E+00  0.93827000000E+00 0. -1.
     999902    2    1    2    0    0 -0.14916050134E-01  0.17343232098E-01  0.52795628397E-02  0.10204534152E+01  0.10201833279E+01 0.  0.
     999903    2    3    3    0    0  0.91640973158E-01  0.37481132652E-01  0.82498269288E-01  0.13044068331E+00  0.20147063350E-01 0.  0.
         14    1    1    2    0    0  0.14916050134E-01 -0.17343232098E-01 -0.52795628397E-02  0.23476584824E-01  0.00000000000E+00 0. -1.
     999901    1    3    3    0    0 -0.10655702329E+00 -0.20137900554E-01 -0.77218706448E-01  0.89001273186E+00  0.88000000000E+00 0. -1.
        -11    1    4    4    0    0  0.46916867119E-01  0.83545783810E-02  0.39639117727E-01  0.61988000253E-01  0.51100000000E-03 0.  1.
         11    1    4    4    0    0  0.44724106038E-01  0.29126554271E-01  0.42859151560E-01  0.68452683060E-01  0.51100000000E-03 0. -1.
</event>
<event>
 8    1  0.1117354E+005  0.1043930E+01  0.7957747E-01            NaN
         13   -1    0    0    0    0  0.00000000000E+00  0.00000000000E+00  0.74505805969E-08  0.10566000000E+00  0.10566000000E+00 0. -1.
     999900   -1    0    0    0    0 -0.00000000000E+00 -0.00000000000E+00 -0.74505805969E-08  0.93827000000E+00  0.93827000000E+00 0. -1.
     999902    2    1    2    0    0 -0.17223532785E-01  0.93954132011E-02  0.13513957652E-01  0.10201066727E+01  0.10198284526E+01 0.  0.
     999903    2    3    3    0    0  0.11437833851E+00  0.55796393275E-01  0.75671504909E-02  0.12909181988E+00  0.20292717176E-01 0.  0.
         14    1    1    2    0    0  0.17223532785E-01 -0.93954132011E-02 -0.13513957652E-01  0.23823327271E-01  0.00000000000E+00 0.  1.
     999901    1    3    3    0    0 -0.13160187130E+00 -0.46400980074E-01  0.59468071613E-02  0.89101485285E+00  0.88000000000E+00 0. -1.
        -11    1    4    4    0    0  0.50550061017E-01  0.29705478983E-01  0.12524359454E-01  0.59957025036E-01  0.51100000000E-03 0.  1.
         11    1    4    4    0    0  0.63828277495E-01  0.26090914292E-01 -0.49572089626E-02  0.69134794845E-01  0.51100000000E-03 0. -1.
</event>
<event>
 8    1  0.1117354E+005  0.1043930E+01  0.7957747E-01            NaN
         13   -1    0    0    0    0  0.00000000000E+00  0.00000000000E+00  0.74505805969E-08  0.10566000000E+00  0.10566000000E+00 0.  1.
     999900   -1    0    0    0    0 -0.00000000000E+00 -0.00000000000E+00 -0.74505805969E-08  0.93827000000E+00  0.93827000000E+00 0.  1.
     999902    2    1    2    0    0 -0.98195564965E-02 -0.21441805988E-01 -0.41052905745E-02  0.10199919937E+01  0.10197110567E+01 0.  0.
     999903    2    3    3    0    0 -0.13529656082E-01  0.11107337801E+00  0.58619294674E-01  0.12785500176E+00  0.19756843632E-01 0.  0.
         14    1    1    2    0    0  0.98195564965E-02  0.21441805988E-01  0.41052905745E-02  0.23938006277E-01  0.00000000000E+00 0.  1.
     999901    1    3    3    0    0  0.37100995855E-02 -0.13251518400E+00 -0.62724585248E-01  0.89213699196E+00  0.88000000000E+00 0.  1.
        -11    1    4    4    0    0 -0.14969626840E-01  0.87102677800E-01  0.53446932888E-01  0.10328505199E+00  0.51100000000E-03 0. -1.
         11    1    4    4    0    0  0.14399707576E-02  0.23970700214E-01  0.51723617858E-02  0.24569949776E-01  0.51100000000E-03 0.  1.
</event>
<event>
 8    1  0.1117354E+005  0.1043930E+01  0.7957747E-01            NaN
         13   -1    0    0    0    0  0.00000000000E+00  0.00000000000E+00  0.74505805969E-08  0.10566000000E+00  0.10566000000E+00 0.  1.
     999900   -1    0    0    0    0 -0.00000000000E+00 -0.00000000000E+00 -0.74505805969E-08  0.93827000000E+00  0.93827000000E+00 0.  1.
     999902    2    1    2    0    0  0.18112563052E-01 -0.70794970420E-02  0.14042810907E-01  0.10199428210E+01  0.10196607148E+01 0.  0.
     999903    2    3    3    0    0  0.33343103957E-01  0.12415753635E+00  0.61049932589E-02  0.13004499693E+00  0.18643333174E-01 0.  0.
         14    1    1    2    0    0 -0.18112563052E-01  0.70794970420E-02 -0.14042810907E-01  0.23987179010E-01  0.00000000000E+00 0. -1.
     999901    1    3    3    0    0 -0.15230540904E-01 -0.13123703339E+00  0.79378176484E-02  0.88989782406E+00  0.88000000000E+00 0.  1.
        -11    1    4    4    0    0  0.52716131655E-02  0.27276119373E-01 -0.60831484449E-02  0.28443670814E-01  0.51100000000E-03 0. -1.
         11    1    4    4    0    0  0.28071490791E-01  0.96881416975E-01  0.12188141704E-01  0.10160132612E+00  0.51100000000E-03 0.  1.
</event>
<event>
 8    1  0.1117354E+005  0.1043930E+01  0.7957747E-01            NaN
         13   -1    0    0    0    0  0.00000000000E+00  0.00000000000E+00  0.74505805969E-08  0.10566000000E+00  0.10566000000E+00 0.  1.
     999900   -1    0    0    0    0 -0.00000000000E+00 -0.00000000000E+00 -0.74505805969E-08  0.93827000000E+00  0.93827000000E+00 0.  1.
     999902    2    1    2    0    0 -0.16234953041E-01 -0.12222717870E-01  0.15987127955E-01  0.10180735348E+01  0.10177451378E+01 0.  0.
     999903    2    3    3    0    0 -0.70841472397E-01 -0.29337518459E-01  0.10524278198E+00  0.13170941090E+00  0.19802059543E-01 0.  0.
         14    1    1    2    0    0  0.16234953041E-01  0.12222717870E-01 -0.15987127955E-01  0.25856465199E-01  0.00000000000E+00 0. -1.
     999901    1    3    3    0    0  0.54606519357E-01  0.17114800589E-01 -0.89255654021E-01  0.88636412390E+00  0.88000000000E+00 0.  1.
        -11    1    4    4    0    0 -0.37040033599E-01 -0.72708968373E-02  0.61694175086E-01  0.72327466362E-01  0.51100000000E-03 0.  1.
         11    1    4    4    0    0 -0.33801438799E-01 -0.22066621621E-01  0.43548606890E-01  0.59381944543E-01  0.51100000000E-03 0. -1.
</event>
<event>
 8    1  0.1117354E+005  0.1043930E+01  0.7957747E-01            NaN
         13   -1    0    0    0    0  0.00000000000E+00  0.00000000000E+00  0.74505805969E-08  0.10566000000E+00  0.10566000000E+00 0.  1.
     999900   -1    0    0    0    0 -0.00000000000E+00 -0.00000000000E+00 -0.74505805969E-08  0.93827000000E+00  0.93827000000E+00 0. -1.
     999902    2    1    2    0    0 -0.97984866959E-04 -0.36004436107E-02 -0.27119045720E-01  0.10165728175E+01  0.10162046437E+01 0.  0.
     999903    2    3    3    0    0  0.27213349358E-01 -0.93476977837E-01  0.76509538494E-01  0.12552703646E+00  0.20611056113E-01 0.  0.
         14    1    1    2    0    0  0.97984866959E-04  0.36004436107E-02  0.27119045720E-01  0.27357182530E-01  0.00000000000E+00 0.  1.
     999901    1    3    3    0    0 -0.27311334225E-01  0.89876534226E-01 -0.10362858421E+00  0.89104578101E+00  0.88000000000E+00 0. -1.
        -11    1    4    4    0    0  0.64192859381E-02 -0.44371954820E-01  0.24769576110E-01  0.51223731104E-01  0.51100000000E-03 0. -1.
         11    1    4    4    0    0  0.20794063420E-01 -0.49105023016E-01  0.51739962384E-01  0.74303305360E-01  0.51100000000E-03 0.  1.
</event>
<event>
 8    1  0.1117354E+005  0.1043930E+01  0.7957747E-01            NaN
         13   -1    0    0    0    0  0.00000000000E+00  0.00000000000E+00  0.74505805969E-08  0.10566000000E+00  0.10566000000E+00 0.  1.
     999900   -1    0    0    0    0 -0.00000000000E+00 -0.00000000000E+00 -0.74505805969E-08  0.93827000000E+00  0.93827000000E+00 0.  1.
     999902    2    1    2    0    0 -0.21139353826E-01 -0.11070242881E-01  0.34175237119E-02  0.10198239421E+01  0.10195389992E+01 0.  0.
     999903    2    3    3    0    0 -0.11398959215E+00 -0.29600903492E-01  0.52343711040E-01  0.13339384114E+00  0.34412383841E-01 0.  0.
         14    1    1    2    0    0  0.21139353826E-01  0.11070242881E-01 -0.34175237119E-02  0.24106057868E-01  0.00000000000E+00 0.  1.
     999901    1    3    3    0    0  0.92850238328E-01  0.18530660611E-01 -0.48926187328E-01  0.88643010099E+00  0.88000000000E+00 0. -1.
        -11    1    4    4    0    0 -0.32273809945E-01 -0.23109494309E-01  0.91626577614E-02  0.40741415708E-01  0.51100000000E-03 0. -1.
         11    1    4    4    0    0 -0.81715782208E-01 -0.64914091823E-02  0.43181053279E-01  0.92652425431E-01  0.51100000000E-03 0.  1.
</event>
<event>
 8    1  0.1117354E+005  0.1043930E+01  0.7957747E-01            NaN
         13   -1    0    0    0    0  0.00000000000E+00  0.00000000000E+00  0.74505805969E-08  0.10566000000E+00  0.10566000000E+00 0.  1.
     999900   -1    0    0    0    0 -0.00000000000E+00 -0.00000000000E+00 -0.74505805969E-08  0.93827000000E+00  0.93827000000E+00 0.  1.
     999902    2    1    2    0    0  0.20994799974E-01 -0.58543786543E-02 -0.78855129483E-02  0.10207516331E+01  0.10204884418E+01 0.  0.
     999903    2    3    3    0    0  0.11925686251E+00 -0.44466256525E-01  0.34125526461E-01  0.13344602769E+00  0.21067594182E-01 0.  0.
         14    1    1    2    0    0 -0.20994799974E-01  0.58543786543E-02  0.78855129483E-02  0.23178366850E-01  0.00000000000E+00 0.  1.
     999901    1    3    3    0    0 -0.98262062538E-01  0.38611877871E-01 -0.42011039409E-01  0.88730560546E+00  0.88000000000E+00 0. -1.
        -11    1    4    4    0    0  0.85315519955E-01 -0.23878172748E-01  0.29975010120E-01  0.93528965736E-01  0.51100000000E-03 0.  1.
         11    1    4    4    0    0  0.33941342557E-01 -0.20588083778E-01  0.41505163414E-02  0.39917061954E-01  0.51100000000E-03 0. -1.
</event>
<event>
 8    1  0.1117354E+005  0.1043930E+01  0.7957747E-01            NaN
         13   -1    0    0    0    0  0.00000000000E+00  0.00000000000E+00  0.74505805969E-08  0.10566000000E+00  0.10566000000E+00 0.  1.
     999900   -1    0    0    0    0 -0.00000000000E+00 -0.00000000000E+00 -0.74505805969E-08  0.93827000000E+00  0.93827000000E+00 0.  1.
     999902    2    1    2    0    0  0.31006838298E-02  0.20319504879E-01  0.12140149036E-01  0.10200578460E+01  0.10197784708E+01 0.  0.
     999903    2    3    3    0    0 -0.76409708839E-01 -0.85303667575E-01  0.56269191587E-01  0.12908897476E+00  0.19559707952E-01 0.  0.
         14    1    1    2    0    0 -0.31006838298E-02 -0.20319504879E-01 -0.12140149036E-01  0.23872154015E-01  0.00000000000E+00 0. -1.
     999901    1    3    3    0    0  0.79510392669E-01  0.10562317245E+00 -0.44129042552E-01  0.89096887123E+00  0.88000000000E+00 0. -1.
        -11    1    4    4    0    0 -0.51842414546E-01 -0.70162733295E-01  0.44301481075E-01  0.97843382177E-01  0.51100000000E-03 0.  1.
         11    1    4    4    0    0 -0.24567294293E-01 -0.15140934281E-01  0.11967710512E-01  0.31245592580E-01  0.51100000000E-03 0. -1.
</event>
<event>
 8    1  0.1117354E+005  0.1043930E+01  0.7957747E-01            NaN
         13   -1    0    0    0    0  0.00000000000E+00  0.00000000000E+00  0.74505805969E-08  0.10566000000E+00  0.10566000000E+00 0. -1.
     999900   -1    0    0    0    0 -0.00000000000E+00 -0.00000000000E+00 -0.74505805969E-08  0.93827000000E+00  0.93827000000E+00 0.  1.
     999902    2    1    2    0    0 -0.78478934713E-03  0.10078062585E-01 -0.20401192844E-01  0.10211617785E+01  0.10209079224E+01 0.  0.
     999903    2    3    3    0    0  0.10450594396E+00 -0.66639763190E-01 -0.37861831762E-01  0.13139965457E+00  0.21679496206E-01 0.  0.
         14    1    1    2    0    0  0.78478934713E-03 -0.10078062585E-01  0.20401192844E-01  0.22768221478E-01  0.00000000000E+00 0. -1.
     999901    1    3    3    0    0 -0.10529073330E+00  0.76717825775E-01  0.17460638918E-01  0.88976212395E+00  0.88000000000E+00 0. -1.
        -11    1    4    4    0    0  0.77321163219E-01 -0.59211352803E-01 -0.25860613831E-01  0.10076496936E+00  0.51100000000E-03 0.  1.
         11    1    4    4    0    0  0.27184780739E-01 -0.74284103865E-02 -0.12001217931E-01  0.30634685204E-01  0.51100000000E-03 0. -1.
</event>
<event>
 8    1  0.1117354E+005  0.1043930E+01  0.7957747E-01            NaN
         13   -1    0    0    0    0  0.00000000000E+00  0.00000000000E+00  0.74505805969E-08  0.10566000000E+00  0.10566000000E+00 0. -1.
     999900   -1    0    0    0    0 -0.00000000000E+00 -0.00000000000E+00 -0.74505805969E-08  0.93827000000E+00  0.93827000000E+00 0. -1.
     999902    2    1    2    0    0  0.63635971984E-02 -0.87698314845E-02  0.23327478073E-01  0.10182088696E+01  0.10178839451E+01 0.  0.
     999903    2    3    3    0    0 -0.32679403606E-01 -0.93323216228E-01 -0.77997558971E-01  0.12751229172E+00  0.19964949990E-01 0.  0.
         14    1    1    2    0    0 -0.63635971984E-02  0.87698314845E-02 -0.23327478073E-01  0.25721130357E-01  0.00000000000E+00 0.  1.
     999901    1    3    3    0    0  0.39043000805E-01  0.84553384744E-01  0.10132503704E+00  0.89069657792E+00  0.88000000000E+00 0.  1.
        -11    1    4    4    0    0 -0.23774838662E-01 -0.38772447596E-01 -0.32179016342E-01  0.55716208232E-01  0.51100000000E-03 0.  1.
         11    1    4    4    0    0 -0.89045649445E-02 -0.54550768633E-01 -0.45818542629E-01  0.71796083493E-01  0.51100000000E-03 0. -1.
</event>
<event>
 8    1  0.1117354E+005  0.1043930E+01  0.7957747E-01            NaN
         13   -1    0    0    0    0  0.00000000000E+00  0.00000000000E+00  0.74505805969E-08  0.10566000000E+00  0.10566000000E+00 0. -1.
     999900   -1    0    0    0    0 -0.00000000000E+00 -0.00000000000E+00 -0.74505805969E-08  0.93827000000E+00  0.93827000000E+00 0.  1.
     999902    2    1    2    0    0 -0.34651067030E-01 -0.47846457881E-02  0.67237114775E-02  0.10083098150E+01  0.10076804481E+01 0.  0.
     999903    2    3    3    0    0 -0.23311298247E-01 -0.10077835894E+00 -0.58590280574E-01  0.12061093541E+00  0.20358843420E-01 0.  0.
         14    1    1    2    0    0  0.34651067030E-01  0.47846457881E-02 -0.67237114775E-02  0.35620184975E-01  0.00000000000E+00 0. -1.
     999901    1    3    3    0    0 -0.11339768783E-01  0.95993713150E-01  0.65313992052E-01  0.88769887962E+00  0.88000000000E+00 0.  1.
        -11    1    4    4    0    0 -0.54178063187E-02 -0.65847741821E-01 -0.39296930892E-01  0.76875143101E-01  0.51100000000E-03 0.  1.
         11    1    4    4    0    0 -0.17893491928E-01 -0.34930617117E-01 -0.19293349682E-01  0.43735792305E-01  0.51100000000E-03 0. -1.
</event>
<event>
 8    1  0.1117354E+005  0.1043930E+01  0.7957747E-01            NaN
         13   -1    0    0    0    0  0.00000000000E+00  0.00000000000E+00  0.74505805969E-08  0.10566000000E+00  0.10566000000E+00 0.  1.
     999900   -1    0    0    0    0 -0.00000000000E+00 -0.00000000000E+00 -0.74505805969E-08  0.93827000000E+00  0.93827000000E+00 0. -1.
     999902    2    1    2    0    0 -0.12745888276E-01  0.11081167319E-01  0.16862566030E-01  0.10200637881E+01  0.10197845536E+01 0.  0.
     999903    2    3    3    0    0 -0.42792711720E-01  0.58181038121E-01 -0.10554615052E+00  0.12983623106E+00  0.22387666982E-01 0.  0.
         14    1    1    2    0    0  0.12745888276E-01 -0.11081167319E-01 -0.16862566030E-01  0.23866211894E-01  0.00000000000E+00 0. -1.
     999901    1    3    3    0    0  0.30046823445E-01 -0.47099870803E-01  0.12240871655E+00  0.89022755704E+00  0.88000000000E+00 0.  1.
        -11    1    4    4    0    0  0.11073692444E-02 -0.11370510136E-02 -0.13094506574E-02  0.21201258630E-02  0.51100000000E-03 0. -1.
         11    1    4    4    0    0 -0.43900080965E-01  0.59318089135E-01 -0.10423669987E+00  0.12771610520E+00  0.51100000000E-03 0.  1.
</event>
<event>
 8    1  0.1117354E+005  0.1043930E+01  0.7957747E-01            NaN
         13   -1    0    0    0    0  0.00000000000E+00  0.00000000000E+00  0.74505805969E-08  0.10566000000E+00  0.10566000000E+00 0. -1.
     999900   -1    0    0    0    0 -0.00000000000E+00 -0.00000000000E+00 -0.74505805969E-08  0.93827000000E+00  0.93827000000E+00 0. -1.
     999902    2    1    2    0    0  0.13142246746E-01  0.16742610597E-01  0.10686120136E-01  0.10201134758E+01  0.10198354165E+01 0.  0.
     999903    2    3    3    0    0 -0.16078689622E-01  0.52501085218E-01  0.11874716953E+00  0.13230171538E+00  0.19696837586E-01 0.  0.
         14    1    1    2    0    0 -0.13142246746E-01 -0.16742610597E-01 -0.10686120136E-01  0.23816524152E-01  0.00000000000E+00 0.  1.
     999901    1    3    3    0    0  0.29220936368E-01 -0.35758474621E-01 -0.10806104940E+00  0.88781176047E+00  0.88000000000E+00 0. -1.
        -11    1    4    4    0    0 -0.11363785823E-01  0.31962072647E-01  0.93188146588E-01  0.99171576078E-01  0.51100000000E-03 0. -1.
         11    1    4    4    0    0 -0.47149037988E-02  0.20539012570E-01  0.25559022946E-01  0.33130139302E-01  0.51100000000E-03 0.  1.
</event>
<event>
 8    1  0.1117354E+005  0.1043930E+01  0.7957747E-01            NaN
         13   -1    0    0    0    0  0.00000000000E+00  0.00000000000E+00  0.74505805969E-08  0.10566000000E+00  0.10566000000E+00 0.  1.
     999900   -1    0    0    0    0 -0.00000000000E+00 -0.00000000000E+00 -0.74505805969E-08  0.93827000000E+00  0.93827000000E+00 0.  1.
     999902    2    1    2    0    0  0.93903120271E-02 -0.15565982841E-01  0.12958592522E-02  0.10257048242E+01  0.10255428949E+01 0.  0.
     999903    2    3    3    0    0  0.10490253187E+00 -0.21507678397E-01 -0.82353503694E-01  0.13657316702E+00  0.20075082967E-01 0.  0.
         14    1    1    2    0    0 -0.93903120271E-02  0.15565982841E-01 -0.12958592522E-02  0.18225175801E-01  0.00000000000E+00 0. -1.
     999901    1    3    3    0    0 -0.95512219839E-01  0.59416955561E-02  0.83649362947E-01  0.88913165718E+00  0.88000000000E+00 0. -1.
        -11    1    4    4    0    0  0.36977792583E-01  0.18506258155E-02 -0.25377342176E-01  0.44889337010E-01  0.51100000000E-03 0. -1.
         11    1    4    4    0    0  0.67924739283E-01 -0.23358304212E-01 -0.56976161518E-01  0.91683830006E-01  0.51100000000E-03 0.  1.
</event>
<event>
 8    1  0.1117354E+005  0.1043930E+01  0.7957747E-01            NaN
         13   -1    0    0    0    0  0.00000000000E+00  0.00000000000E+00  0.74505805969E-08  0.10566000000E+00  0.10566000000E+00 0. -1.
     999900   -1    0    0    0    0 -0.00000000000E+00 -0.00000000000E+00 -0.74505805969E-08  0.93827000000E+00  0.93827000000E+00 0. -1.
     999902    2    1    2    0    0  0.73540480556E-02 -0.11812762615E-01  0.19818845839E-01  0.10197140954E+01  0.10194265184E+01 0.  0.
     999903    2    3    3    0    0 -0.83795161693E-01 -0.46818578177E-01  0.87531352961E-01  0.13172841471E+00  0.21840995956E-01 0.  0.
         14    1    1    2    0    0 -0.73540480556E-02  0.11812762615E-01 -0.19818845839E-01  0.24215904563E-01  0.00000000000E+00 0.  1.
     999901    1    3    3    0    0  0.91149209749E-01  0.35005815563E-01 -0.67712507122E-01  0.88798568073E+00  0.88000000000E+00 0. -1.
        -11    1    4    4    0    0 -0.36098924366E-01 -0.32591904278E-01  0.44828968879E-01  0.66145764313E-01  0.51100000000E-03 0.  1.
         11    1    4    4    0    0 -0.47696237327E-01 -0.14226673900E-01  0.42702384082E-01  0.65582650394E-01  0.51100000000E-03 0. -1.
</event>
<event>
 8    1  0.1117354E+005  0.1043930E+01  0.7957747E-01            NaN
         13   -1    0    0    0    0  0.00000000000E+00  0.00000000000E+00  0.74505805969E-08  0.10566000000E+00  0.10566000000E+00 0.  1.
     999900   -1    0    0    0    0 -0.00000000000E+00 -0.00000000000E+00 -0.74505805969E-08  0.93827000000E+00  0.93827000000E+00 0.  1.
     999902    2    1    2    0    0 -0.73441566647E-02  0.12232812461E-01  0.18521639054E-01  0.10205498920E+01  0.10202820456E+01 0.  0.
     999903    2    3    3    0    0  0.95464927273E-01  0.64150313235E-01  0.62388417370E-01  0.13196144457E+00  0.17108278814E-01 0.  0.
         14    1    1    2    0    0  0.73441566647E-02 -0.12232812461E-01 -0.18521639054E-01  0.23380108021E-01  0.00000000000E+00 0. -1.
     999901    1    3    3    0    0 -0.10280908394E+00 -0.51917500774E-01 -0.43866778316E-01  0.88858844741E+00  0.88000000000E+00 0.  1.
        -11    1    4    4    0    0  0.27077486404E-01  0.27562299738E-01  0.18462289904E-01  0.42825085012E-01  0.51100000000E-03 0.  1.
         11    1    4    4    0    0  0.68387440869E-01  0.36588013498E-01  0.43926127466E-01  0.89136359559E-01  0.51100000000E-03 0. -1.
</event>
<event>
 8    1  0.1117354E+005  0.1043930E+01  0.7957747E-01            NaN
         13   -1    0    0    0    0  0.00000000000E+00  0.00000000000E+00  0.74505805969E-08  0.10566000000E+00  0.10566000000E+00 0.  1.
     999900   -1    0    0    0    0 -0.00000000000E+00 -0.00000000000E+00 -0.74505805969E-08  0.93827000000E+00  0.93827000000E+00 0.  1.
     999902    2    1    2    0    0 -0.10352866643E-01 -0.20754841873E-01 -0.54443950056E-02  0.10201059209E+01  0.10198276830E+01 0.  0.
     999903    2    3    3    0    0 -0.85721324294E-01 -0.97121654704E-01  0.23294076349E-01  0.13312328619E+00  0.19960813643E-01 0.  0.
         14    1    1    2    0    0  0.10352866643E-01  0.20754841873E-01  0.54443950056E-02  0.23824079119E-01  0.00000000000E+00 0. -1.
     999901    1    3    3    0    0  0.75368457652E-01  0.76366812831E-01 -0.28738471355E-01  0.88698263469E+00  0.88000000000E+00 0.  1.
        -11    1    4    4    0    0 -0.67843973101E-01 -0.68732526721E-01  0.24180300507E-01  0.99558590635E-01  0.51100000000E-03 0. -1.
         11    1    4    4    0    0 -0.17877351193E-01 -0.28389127983E-01 -0.88622415725E-03  0.33564695553E-01  0.51100000000E-03 0.  1.
</event>
<event>
 8    1  0.1117354E+005  0.1043930E+01  0.7957747E-01            NaN
         13   -1    0    0    0    0  0.00000000000E+00  0.00000000000E+00  0.74505805969E-08  0.10566000000E+00  0.10566000000E+00 0.  1.
     999900   -1    0    0    0    0 -0.00000000000E+00 -0.00000000000E+00 -0.74505805969E-08  0.93827000000E+00  0.93827000000E+00 0.  1.
     999902    2    1    2    0    0  0.15962324232E-01  0.87336353492E-02  0.15639641567E-01  0.10199368641E+01  0.10196546161E+01 0.  0.
     999903    2    3    3    0    0 -0.99776064941E-01  0.16242256769E-01  0.79648827669E-01  0.13002173893E+00  0.18510613319E-01 0.  0.
         14    1    1    2    0    0 -0.15962324232E-01 -0.87336353492E-02 -0.15639641567E-01  0.23993135886E-01  0.00000000000E+00 0. -1.
     999901    1    3    3    0    0  0.11573838917E+00 -0.75086214198E-02 -0.64009186103E-01  0.88991512518E+00  0.88000000000E+00 0.  1.
        -11    1    4    4    0    0 -0.63259426845E-01  0.61898890319E-02  0.39561560702E-01  0.74869539982E-01  0.51100000000E-03 0. -1.
         11    1    4    4    0    0 -0.36516638097E-01  0.10052367737E-01  0.40087266968E-01  0.55152198949E-01  0.51100000000E-03 0.  1.
</event>
<event>
 8    1  0.1117354E+005  0.1043930E+01  0.7957747E-01            NaN
         13   -1    0    0    0    0  0.00000000000E+00  0.00000000000E+00  0.74505805969E-08  0.10566000000E+00  0.10566000000E+00 0.  1.
     999900   -1    0    0    0    0 -0.00000000000E+00 -0.00000000000E+00 -0.74505805969E-08  0.93827000000E+00  0.93827000000E+00 0. -1.
     999902    2    1    2    0    0 -0.10058254778E-01 -0.10442380026E-01  0.18419397379E-01  0.10204888825E+01  0.10202196201E+01 0.  0.
     999903    2    3    3    0    0  0.10647410248E-02  0.11088746343E+00 -0.61925225265E-01  0.12846875362E+00  0.19295696698E-01 0.  0.
         14    1    1    2    0    0  0.10058254778E-01  0.10442380026E-01 -0.18419397379E-01  0.23441117499E-01  0.00000000000E+00 0. -1.
     999901    1    3    3    0    0 -0.11122995803E-01 -0.12132984346E+00  0.80344622644E-01  0.89202012889E+00  0.88000000000E+00 0. -1.
        -11    1    4    4    0    0  0.76168042526E-02  0.20156338770E-01 -0.10587260636E-01  0.24013431834E-01  0.51100000000E-03 0. -1.
         11    1    4    4    0    0 -0.65520632279E-02  0.90731124664E-01 -0.51337964629E-01  0.10445532178E+00  0.51100000000E-03 0.  1.
</event>
<event>
 8    1  0.1117354E+005  0.1043930E+01  0.7957747E-01            NaN
         13   -1    0    0    0    0  0.00000000000E+00  0.00000000000E+00  0.74505805969E-08  0.10566000000E+00  0.10566000000E+00 0. -1.
     999900   -1    0    0    0    0 -0.00000000000E+00 -0.00000000000E+00 -0.74505805969E-08  0.93827000000E+00  0.93827000000E+00 0.  1.
     999902    2    1    2    0    0  0.17522523162E-01  0.65592129174E-02 -0.14588174060E-01  0.10202049728E+01  0.10199290709E+01 0.  0.
     999903    2    3    3    0    0  0.10089624132E+00 -0.33078562028E-01 -0.77643160704E-01  0.13313211143E+00  0.20529391396E-01 0.  0.
         14    1    1    2    0    0 -0.17522523162E-01 -0.65592129174E-02  0.14588174060E-01  0.23725027175E-01  0.00000000000E+00 0. -1.
     999901    1    3    3    0    0 -0.83373718160E-01  0.39637774945E-01  0.63054986644E-01  0.88707286139E+00  0.88000000000E+00 0. -1.
        -11    1    4    4    0    0  0.38637029549E-01 -0.19411432840E-01 -0.21990747281E-01  0.48512656743E-01  0.51100000000E-03 0. -1.
         11    1    4    4    0    0  0.62259211773E-01 -0.13667129188E-01 -0.55652413423E-01  0.84619454687E-01  0.51100000000E-03 0.  1.
</event>
<event>
 8    1  0.1117354E+005  0.1043930E+01  0.7957747E-01            NaN
         13   -1    0    0    0    0  0.00000000000E+00  0.00000000000E+00  0.74505805969E-08  0.10566000000E+00  0.10566000000E+00 0. -1.
     999900   -1    0    0    0    0 -0.00000000000E+00 -0.00000000000E+00 -0.74505805969E-08  0.93827000000E+00  0.93827000000E+00 0.  1.
     999902    2    1    2    0    0  0.96578988218E-02  0.10398645687E-02 -0.21423908712E-01  0.10204068159E+01  0.10201356428E+01 0.  0.
     999903    2    3    3    0    0  0.75287150658E-01  0.30818302376E-01  0.98402864321E-01  0.12936674403E+00  0.20849650820E-01 0.  0.
         14    1    1    2    0    0 -0.96578988218E-02 -0.10398645687E-02  0.21423908712E-01  0.23523184148E-01  0.00000000000E+00 0. -1.
     999901    1    3    3    0    0 -0.65629251836E-01 -0.29778437807E-01 -0.11982677303E+00  0.89104007182E+00  0.88000000000E+00 0.  1.
        -11    1    4    4    0    0  0.53294016054E-01  0.19626013087E-01  0.81935746363E-01  0.99695336851E-01  0.51100000000E-03 0.  1.
         11    1    4    4    0    0  0.21993134604E-01  0.11192289289E-01  0.16467117958E-01  0.29671407180E-01  0.51100000000E-03 0. -1.
</event>
<event>
 8    1  0.1117354E+005  0.1043930E+01  0.7957747E-01            NaN
         13   -1    0    0    0    0  0.00000000000E+00  0.00000000000E+00  0.74505805969E-08  0.10566000000E+00  0.10566000000E+00 0. -1.
     999900   -1    0    0    0    0 -0.00000000000E+00 -0.00000000000E+00 -0.74505805969E-08  0.93827000000E+00  0.93827000000E+00 0.  1.
     999902    2    1    2    0    0  0.78490205364E-02  0.35292473286E-02  0.20111683683E-01  0.10220543850E+01  0.10218202500E+01 0.  0.
     999903    2    3    3    0    0 -0.67416760191E-01  0.11165473093E+00 -0.82445868348E-02  0.13179591916E+00  0.17040909649E-01 0.  0.
         14    1    1    2    0    0 -0.78490205364E-02 -0.35292473286E-02 -0.20111683683E-01  0.21875614978E-01  0.00000000000E+00 0.  1.
     999901    1    3    3    0    0  0.75265780728E-01 -0.10812548361E+00  0.28356270518E-01  0.89025846586E+00  0.88000000000E+00 0. -1.
        -11    1    4    4    0    0 -0.15248499956E-01  0.31446281008E-01  0.46054813564E-02  0.35254175918E-01  0.51100000000E-03 0.  1.
         11    1    4    4    0    0 -0.52168260235E-01  0.80208449926E-01 -0.12850068191E-01  0.96541743246E-01  0.51100000000E-03 0. -1.
</event>
<event>
 8    1  0.1117354E+005  0.1043930E+01  0.7957747E-01            NaN
         13   -1    0    0    0    0  0.00000000000E+00  0.00000000000E+00  0.74505805969E-08  0.10566000000E+00  0.10566000000E+00 0.  1.
     999900   -1    0    0    0    0 -0.00000000000E+00 -0.00000000000E+00 -0.74505805969E-08  0.93827000000E+00  0.93827000000E+00 0.  1.
     999902    2    1    2    0    0  0.22807901530E-02  0.87219119103E-02 -0.21957669093E-01  0.10201936780E+01  0.10199175102E+01 0.  0.
     999903    2    3    3    0    0  0.11726481233E+00 -0.53017188570E-01 -0.33540591433E-02  0.13037395681E+00  0.20597582507E-01 0.  0.
         14    1    1    2    0    0 -0.22807901530E-02 -0.87219119103E-02  0.21957669093E-01  0.23736322021E-01  0.00000000000E+00 0.  1.
     999901    1    3    3    0    0 -0.11498402218E+00  0.61739100481E-01 -0.18603609950E-01  0.88981972117E+00  0.88000000000E+00 0.  1.
        -11    1    4    4    0    0  0.58907923804E-01 -0.18412211586E-01  0.54359247516E-02  0.61959369117E-01  0.51100000000E-03 0.  1.
         11    1    4    4    0    0  0.58356888529E-01 -0.34604976984E-01 -0.87899838949E-02  0.68414587689E-01  0.51100000000E-03 0. -1.
</event>
<event>
 8    1  0.1117354E+005  0.1043930E+01  0.7957747E-01            NaN
         13   -1    0    0    0    0  0.00000000000E+00  0.00000000000E+00  0.74505805969E-08  0.10566000000E+00  0.10566000000E+00 0. -1.
     999900   -1    0    0    0    0 -0.00000000000E+00 -0.00000000000E+00 -0.74505805969E-08  0.93827000000E+00  0.93827000000E+00 0.  1.
     999902    2    1    2    0    0 -0.15544660060E-01  0.23014740571E-01 -0.54913529166E-02  0.10156197599E+01  0.10152251115E+01 0.  0.
     999903    2    3    3    0    0 -0.75501320489E-01 -0.97482895066E-01 -0.11649713029E-01  0.12536563506E+00  0.19428391967E-01 0.  0.
         14    1    1    2    0    0  0.15544660060E-01 -0.23014740571E-01  0.54913529166E-02  0.28310240140E-01  0.00000000000E+00 0. -1.
     999901    1    3    3    0    0  0.59956660429E-01  0.12049763564E+00  0.61583601128E-02  0.89025412480E+00  0.88000000000E+00 0.  1.
        -11    1    4    4    0    0 -0.20109016649E-01 -0.26622983631E-01  0.54551717019E-02  0.33810883267E-01  0.51100000000E-03 0.  1.
         11    1    4    4    0    0 -0.55392303840E-01 -0.70859911435E-01 -0.17104884731E-01  0.91554751794E-01  0.51100000000E-03 0. -1.
</event>
<event>
 8    1  0.1117354E+005  0.1043930E+01  0.7957747E-01            NaN
         13   -1    0    0    0    0  0.00000000000E+00  0.00000000000E+00  0.74505805969E-08  0.10566000000E+00  0.10566000000E+00 0.  1.
     999900   -1    0    0    0    0 -0.00000000000E+00 -0.00000000000E+00 -0.74505805969E-08  0.93827000000E+00  0.93827000000E+00 0.  1.
     999902    2    1    2    0    0  0.27555409813E-02 -0.80989956837E-02 -0.21306109198E-01  0.10209705351E+01  0.10207123476E+01 0.  0.
     999903    2    3    3    0    0  0.61564566259E-01 -0.10819179057E+00  0.37156835667E-01  0.13142290575E+00  0.19891967060E-01 0.  0.
         14    1    1    2    0    0 -0.27555409813E-02  0.80989956837E-02  0.21306109198E-01  0.22959464853E-01  0.00000000000E+00 0.  1.
     999901    1    3    3    0    0 -0.58809025278E-01  0.10009279489E+00 -0.58462944865E-01  0.88954762940E+00  0.88000000000E+00 0. -1.
        -11    1    4    4    0    0  0.43037163137E-01 -0.83179328795E-01  0.35793762556E-01  0.10026192053E+00  0.51100000000E-03 0. -1.
         11    1    4    4    0    0  0.18527403122E-01 -0.25012461775E-01  0.13630731109E-02  0.31160985219E-01  0.51100000000E-03 0.  1.
</event>
<event>
 8    1  0.1117354E+005  0.1043930E+01  0.7957747E-01            NaN
         13   -1    0    0    0    0  0.00000000000E+00  0.00000000000E+00  0.74505805969E-08  0.10566000000E+00  0.10566000000E+00 0. -1.
     999900   -1    0    0    0    0 -0.00000000000E+00 -0.00000000000E+00 -0.74505805969E-08  0.93827000000E+00  0.93827000000E+00 0. -1.
     999902    2    1    2    0    0 -0.16177140005E-01  0.12072424624E-01  0.57780277485E-02  0.10229340742E+01  0.10227185787E+01 0.  0.
     999903    2    3    3    0    0 -0.75281948626E-01  0.10793784624E+00  0.25274242618E-01  0.13554258233E+00  0.20372870344E-01 0.  0.
         14    1    1    2    0    0  0.16177140005E-01 -0.12072424624E-01 -0.57780277485E-02  0.20995925788E-01  0.00000000000E+00 0. -1.
     999901    1    3    3    0    0  0.59104808621E-01 -0.95865421615E-01 -0.19496214869E-01  0.88739149188E+00  0.88000000000E+00 0.  1.
        -11    1    4    4    0    0 -0.44658936952E-01  0.60256312875E-01  0.43394050312E-02  0.75128792404E-01  0.51100000000E-03 0.  1.
         11    1    4    4    0    0 -0.30623011674E-01  0.47681533364E-01  0.20934837587E-01  0.60413789930E-01  0.51100000000E-03 0. -1.
</event>
<event>
 8    1  0.1117354E+005  0.1043930E+01  0.7957747E-01            NaN
         13   -1    0    0    0    0  0.00000000000E+00  0.00000000000E+00  0.74505805969E-08  0.10566000000E+00  0.10566000000E+00 0. -1.
     999900   -1    0    0    0    0 -0.00000000000E+00 -0.00000000000E+00 -0.74505805969E-08  0.93827000000E+00  0.93827000000E+00 0.  1.
     999902    2    1    2    0    0 -0.10440006525E-02 -0.16220699786E-01  0.18287821764E-01  0.10194627675E+01  0.10191691170E+01 0.  0.
     999903    2    3    3    0    0  0.97881213839E-01 -0.76157311081E-01 -0.34407254127E-01  0.13033096266E+00  0.20533695208E-01 0.  0.
         14    1    1    2    0    0  0.10440006525E-02  0.16220699786E-01 -0.18287821764E-01  0.24467232450E-01  0.00000000000E+00 0.  1.
     999901    1    3    3    0    0 -0.98925214491E-01  0.59936611295E-01  0.52695075891E-01  0.88913180489E+00  0.88000000000E+00 0. -1.
        -11    1    4    4    0    0  0.47938676846E-01 -0.29949982130E-01 -0.69300056349E-02  0.56950893465E-01  0.51100000000E-03 0. -1.
         11    1    4    4    0    0  0.49942536992E-01 -0.46207328951E-01 -0.27477248492E-01  0.73380069200E-01  0.51100000000E-03 0.  1.
</event>
<event>
 8    1  0.1117354E+005  0.1043930E+01  0.7957747E-01            NaN
         13   -1    0    0    0    0  0.00000000000E+00  0.00000000000E+00  0.74505805969E-08  0.10566000000E+00  0.10566000000E+00 0. -1.
     999900   -1    0    0    0    0 -0.00000000000E+00 -0.00000000000E+00 -0.74505805969E-08  0.93827000000E+00  0.93827000000E+00 0.  1.
     999902    2    1    2    0    0  0.14624429353E-01 -0.17218982308E-01  0.10192687315E-01  0.10191457679E+01  0.10188443640E+01 0.  0.
     999903    2    3    3    0    0 -0.31228982698E-01 -0.12525016949E+00  0.13931787127E-01  0.13134666132E+00  0.19874517053E-01 0.  0.
         14    1    1    2    0    0 -0.14624429353E-01  0.17218982308E-01 -0.10192687315E-01  0.24784232091E-01  0.00000000000E+00 0. -1.
     999901    1    3    3    0    0  0.45853412051E-01  0.10803118718E+00 -0.37390998114E-02  0.88779910659E+00  0.88000000000E+00 0.  1.
        -11    1    4    4    0    0 -0.21323460507E-01 -0.68588774946E-01 -0.13024128232E-02  0.71840569435E-01  0.51100000000E-03 0.  1.
         11    1    4    4    0    0 -0.99055221907E-02 -0.56661394546E-01  0.15234199950E-01  0.59506091880E-01  0.51100000000E-03 0. -1.
</event>
<event>
 8    1  0.1117354E+005  0.1043930E+01  0.7957747E-01            NaN
         13   -1    0    0    0    0  0.00000000000E+00  0.00000000000E+00  0.74505805969E-08  0.10566000000E+00  0.10566000000E+00 0. -1.
     999900   -1    0    0    0    0 -0.00000000000E+00 -0.00000000000E+00 -0.74505805969E-08  0.93827000000E+00  0.93827000000E+00 0. -1.
     999902    2    1    2    0    0 -0.17703572409E-01  0.10437018912E-01 -0.10526092374E-01  0.10208400355E+01  0.10205788708E+01 0.  0.
     999903    2    3    3    0    0 -0.13063068732E-01  0.12605505591E+00 -0.34799320288E-01  0.13293336566E+00  0.19994152347E-01 0.  0.
         14    1    1    2    0    0  0.17703572409E-01 -0.10437018912E-01  0.10526092374E-01  0.23089964497E-01  0.00000000000E+00 0. -1.
     999901    1    3    3    0    0 -0.46405036768E-02 -0.11561803700E+00  0.24273227914E-01  0.88790666984E+00  0.88000000000E+00 0. -1.
        -11    1    4    4    0    0 -0.15480720772E-01  0.68587651430E-01 -0.13519371397E-01  0.71602745536E-01  0.51100000000E-03 0.  1.
         11    1    4    4    0    0  0.24176520396E-02  0.57467404482E-01 -0.21279948891E-01  0.61330620127E-01  0.51100000000E-03 0. -1.
</event>
<event>
 8    1  0.1117354E+005  0.1043930E+01  0.7957747E-01            NaN
         13   -1    0    0    0    0  0.00000000000E+00  0.00000000000E+00  0.74505805969E-08  0.10566000000E+00  0.10566000000E+00 0. -1.
     999900   -1    0    0    0    0 -0.00000000000E+00 -0.00000000000E+00 -0.74505805969E-08  0.93827000000E+00  0.93827000000E+00 0.  1.
     999902    2    1    2    0    0 -0.21780086065E-02  0.17827582539E-01  0.15977684842E-01  0.10198914303E+01  0.10196080996E+01 0.  0.
     999903    2    3    3    0    0  0.28781191815E-01  0.12411243737E+00 -0.27498700188E-01  0.13189078924E+00  0.20167986068E-01 0.  0.
         14    1    1    2    0    0  0.21780086065E-02 -0.17827582539E-01 -0.15977684842E-01  0.24038569707E-01  0.00000000000E+00 0.  1.
     999901    1    3    3    0    0 -0.30959200421E-01 -0.10628485483E+00  0.43476385029E-01  0.88800064105E+00  0.88000000000E+00 0. -1.
        -11    1    4    4    0    0  0.30352581276E-01  0.11001979555E+00 -0.28596925280E-01  0.11765916819E+00  0.51100000000E-03 0. -1.
         11    1    4    4    0    0 -0.15713894610E-02  0.14092641824E-01  0.10982250926E-02  0.14231621052E-01  0.51100000000E-03 0.  1.
</event>
<event>
 8    1  0.1117354E+005  0.1043930E+01  0.7957747E-01            NaN
         13   -1    0    0    0    0  0.00000000000E+00  0.00000000000E+00  0.74505805969E-08  0.10566000000E+00  0.10566000000E+00 0. -1.
     999900   -1    0    0    0    0 -0.00000000000E+00 -0.00000000000E+00 -0.74505805969E-08  0.93827000000E+00  0.93827000000E+00 0.  1.
     999902    2    1    2    0    0  0.79668131115E-02 -0.19199858225E-01  0.15546148426E-02  0.10230848208E+01  0.10228724403E+01 0.  0.
     999903    2    3    3    0    0 -0.83444339785E-01 -0.22506770414E-01  0.99058139906E-01  0.13298714533E+00  0.20088633230E-01 0.  0.
         14    1    1    2    0    0 -0.79668131115E-02  0.19199858225E-01 -0.15546148426E-02  0.20845179163E-01  0.00000000000E+00 0.  1.
     999901    1    3    3    0    0  0.91411152896E-01  0.33069121889E-02 -0.97503525064E-01  0.89009767551E+00  0.88000000000E+00 0.  1.
        -11    1    4    4    0    0 -0.30789396508E-01 -0.17332632673E-01  0.32982676270E-01  0.48337616280E-01  0.51100000000E-03 0.  1.
         11    1    4    4    0    0 -0.52654943277E-01 -0.51741377414E-02  0.66075463636E-01  0.84649529051E-01  0.51100000000E-03 0. -1.
</event>
<event>
 8    1  0.1117354E+005  0.1043930E+01  0.7957747E-01            NaN
         13   -1    0    0    0    0  0.00000000000E+00  0.00000000000E+00  0.74505805969E-08  0.10566000000E+00  0.10566000000E+00 0.  1.
     999900   -1    0    0    0    0 -0.00000000000E+00 -0.00000000000E+00 -0.74505805969E-08  0.93827000000E+00  0.93827000000E+00 0.  1.
     999902    2    1    2    0    0  0.69845616371E-02  0.22619063218E-01  0.41242062546E-02  0.10199005348E+01  0.10196174212E+01 0.  0.
     999903    2    3    3    0    0  0.53566385676E-02  0.66860820719E-01 -0.11104122063E+00  0.13129316433E+00  0.20215820501E-01 0.  0.
         14    1    1    2    0    0 -0.69845616371E-02 -0.22619063218E-01 -0.41242062546E-02  0.24029465232E-01  0.00000000000E+00 0.  1.
     999901    1    3    3    0    0  0.16279230695E-02 -0.44241757501E-01  0.11516542688E+00  0.88860737043E+00  0.88000000000E+00 0. -1.
        -11    1    4    4    0    0 -0.21643293631E-02  0.33395645301E-01 -0.38263620562E-01  0.50836199958E-01  0.51100000000E-03 0. -1.
         11    1    4    4    0    0  0.75209679307E-02  0.33465175418E-01 -0.72777600065E-01  0.80456964376E-01  0.51100000000E-03 0.  1.
</event>
<event>
 8    1  0.1117354E+005  0.1043930E+01  0.7957747E-01            NaN
         13   -1    0    0    0    0  0.00000000000E+00  0.00000000000E+00  0.74505805969E-08  0.10566000000E+00  0.10566000000E+00 0.  1.
     999900   -1    0    0    0    0 -0.00000000000E+00 -0.00000000000E+00 -0.74505805969E-08  0.93827000000E+00  0.93827000000E+00 0. -1.
     999902    2    1    2    0    0  0.22650484782E-01 -0.62693488574E-02 -0.15096191897E-02  0.10203794555E+01  0.10201076439E+01 0.  0.
     999903    2    3    3    0    0  0.80281423742E-01 -0.10342474945E+00 -0.15129135949E-01  0.13305426809E+00  0.18241757186E-01 0.  0.
         14    1    1    2    0    0 -0.22650484782E-01  0.62693488574E-02  0.15096191897E-02  0.23550544496E-01  0.00000000000E+00 0. -1.
     999901    1    3    3    0    0 -0.57630938959E-01  0.97155400590E-01  0.13619516759E-01  0.88732518742E+00  0.88000000000E+00 0.  1.
        -11    1    4    4    0    0  0.34156013675E-01 -0.43037798806E-01 -0.15400975550E-01  0.57064319545E-01  0.51100000000E-03 0. -1.
         11    1    4    4    0    0  0.46125410066E-01 -0.60386950641E-01  0.27183960110E-03  0.75989948541E-01  0.51100000000E-03 0.  1.
</event>
<event>
 8    1  0.1117354E+005  0.1043930E+01  0.7957747E-01            NaN
         13   -1    0    0    0    0  0.00000000000E+00  0.00000000000E+00  0.74505805969E-08  0.10566000000E+00  0.10566000000E+00 0. -1.
     999900   -1    0    0    0    0 -0.00000000000E+00 -0.00000000000E+00 -0.74505805969E-08  0.93827000000E+00  0.93827000000E+00 0.  1.
     999902    2    1    2    0    0 -0.17288243496E-01 -0.76855807806E-02 -0.15485080557E-01  0.10194812938E+01  0.10191880931E+01 0.  0.
     999903    2    3    3    0    0 -0.95688809509E-01 -0.48195716676E-01  0.72150846705E-01  0.13073623721E+00  0.20175323258E-01 0.  0.
         14    1    1    2    0    0  0.17288243496E-01  0.76855807806E-02  0.15485080557E-01  0.24448706202E-01  0.00000000000E+00 0.  1.
     999901    1    3    3    0    0  0.78400566013E-01  0.40510135896E-01 -0.87635927262E-01  0.88874505659E+00  0.88000000000E+00 0.  1.
        -11    1    4    4    0    0 -0.97629167722E-02 -0.83080494724E-02  0.22990647111E-02  0.13033995914E-01  0.51100000000E-03 0.  1.
         11    1    4    4    0    0 -0.85925892737E-01 -0.39887667204E-01  0.69851781994E-01  0.11770224130E+00  0.51100000000E-03 0. -1.
</event>
<event>
 8    1  0.1117354E+005  0.1043930E+01  0.7957747E-01            NaN
         13   -1    0    0    0    0  0.00000000000E+00  0.00000000000E+00  0.74505805969E-08  0.10566000000E+00  0.10566000000E+00 0.  1.
     999900   -1    0    0    0    0 -0.00000000000E+00 -0.00000000000E+00 -0.74505805969E-08  0.93827000000E+00  0.93827000000E+00 0. -1.
     999902    2    1    2    0    0  0.88752037800E-02 -0.19157729568E-01 -0.11044579840E-01  0.10201020629E+01  0.10198237338E+01 0.  0.
     999903    2    3    3    0    0 -0.54054684938E-01 -0.10057214978E+00  0.61604391997E-01  0.13113279915E+00  0.19079927283E-01 0.  0.
         14    1    1    2    0    0 -0.88752037800E-02  0.19157729568E-01  0.11044579840E-01  0.23827937137E-01  0.00000000000E+00 0.  1.
     999901    1    3    3    0    0  0.62929888718E-01  0.81414420212E-01 -0.72648971837E-01  0.88896926371E+00  0.88000000000E+00 0. -1.
        -11    1    4    4    0    0 -0.36211576853E-01 -0.65471079929E-01  0.29884561185E-01  0.80567293137E-01  0.51100000000E-03 0.  1.
         11    1    4    4    0    0 -0.17843108085E-01 -0.35101069852E-01  0.31719830812E-01  0.50565506016E-01  0.51100000000E-03 0. -1.
</event>
<event>
 8    1  0.1117354E+005  0.1043930E+01  0.7957747E-01            NaN
         13   -1    0    0    0    0  0.00000000000E+00  0.00000000000E+00  0.74505805969E-08  0.10566000000E+00  0.10566000000E+00 0. -1.
     999900   -1    0    0    0    0 -0.00000000000E+00 -0.00000000000E+00 -0.74505805969E-08  0.93827000000E+00  0.93827000000E+00 0. -1.
     999902    2    1    2    0    0  0.20313917144E-01 -0.14122630946E-01  0.62320587979E-02  0.10184164254E+01  0.10180967896E+01 0.  0.
     999903    2    3    3    0    0 -0.13405674143E-01  0.10873037613E+00  0.62321037697E-01  0.12747543643E+00  0.19080575452E-01 0.  0.
         14    1    1    2    0    0 -0.20313917144E-01  0.14122630946E-01 -0.62320587979E-02  0.25513574650E-01  0.00000000000E+00 0.  1.
     999901    1    3    3    0    0  0.33719591287E-01 -0.12285300708E+00 -0.56088978899E-01  0.89094098892E+00  0.88000000000E+00 0. -1.
        -11    1    4    4    0    0 -0.89055848964E-02  0.10484782068E+00  0.59373462305E-01  0.12082153819E+00  0.51100000000E-03 0. -1.
         11    1    4    4    0    0 -0.45000892470E-02  0.38825554577E-02  0.29475753917E-02  0.66538982411E-02  0.51100000000E-03 0.  1.
</event>
<event>
 8    1  0.1117354E+005  0.1043930E+01  0.7957747E-01            NaN
         13   -1    0    0    0    0  0.00000000000E+00  0.00000000000E+00  0.74505805969E-08  0.10566000000E+00  0.10566000000E+00 0. -1.
     999900   -1    0    0    0    0 -0.00000000000E+00 -0.00000000000E+00 -0.74505805969E-08  0.93827000000E+00  0.93827000000E+00 0. -1.
     999902    2    1    2    0    0  0.18392264414E-01  0.11939522283E-01 -0.78484959210E-02  0.10206399491E+01  0.10203741859E+01 0.  0.
     999903    2    3    3    0    0  0.12499307667E-01  0.39337674087E-01  0.12229292807E+00  0.13062749082E+00  0.20107108391E-01 0.  0.
         14    1    1    2    0    0 -0.18392264414E-01 -0.11939522283E-01  0.78484959210E-02  0.23290050898E-01  0.00000000000E+00 0.  1.
     999901    1    3    3    0    0  0.58929567467E-02 -0.27398151804E-01 -0.13014142399E+00  0.89001245828E+00  0.88000000000E+00 0. -1.
        -11    1    4    4    0    0  0.91599529231E-02  0.29425358852E-01  0.11111376634E+00  0.11530952551E+00  0.51100000000E-03 0.  1.
         11    1    4    4    0    0  0.33393547442E-02  0.99123152348E-02  0.11179161726E-01  0.15317965313E-01  0.51100000000E-03 0. -1.
</event>
<event>
 8    1  0.1117354E+005  0.1043930E+01  0.7957747E-01            NaN
         13   -1    0    0    0    0  0.00000000000E+00  0.00000000000E+00  0.74505805969E-08  0.10566000000E+00  0.10566000000E+00 0. -1.
     999900   -1    0    0    0    0 -0.00000000000E+00 -0.00000000000E+00 -0.74505805969E-08  0.93827000000E+00  0.93827000000E+00 0. -1.
     999902    2    1    2    0    0 -0.78036662762E-02 -0.21137030519E-01 -0.14729915924E-02  0.10213503417E+01  0.10211007195E+01 0.  0.
     999903    2    3    3    0    0 -0.13081821119E+00 -0.15632369376E-02  0.73244675809E-02  0.13253477758E+00  0.19899028978E-01 0.  0.
         14    1    1    2    0    0  0.78036662762E-02  0.21137030519E-01  0.14729915924E-02  0.22579658340E-01  0.00000000000E+00 0. -1.
     999901    1    3    3    0    0  0.12301454492E+00 -0.19573793582E-01 -0.87974591734E-02  0.88881556408E+00  0.88000000000E+00 0.  1.
        -11    1    4    4    0    0 -0.49248920608E-02  0.31542534387E-02 -0.20137206403E-02  0.62064537687E-02  0.51100000000E-03 0.  1.
         11    1    4    4    0    0 -0.12589331913E+00 -0.47174903763E-02  0.93381882212E-02  0.12632832381E+00  0.51100000000E-03 0. -1.
</event>
<event>
 8    1  0.1117354E+005  0.1043930E+01  0.7957747E-01            NaN
         13   -1    0    0    0    0  0.00000000000E+00  0.00000000000E+00  0.74505805969E-08  0.10566000000E+00  0.10566000000E+00 0. -1.
     999900   -1    0    0    0    0 -0.00000000000E+00 -0.00000000000E+00 -0.74505805969E-08  0.93827000000E+00  0.93827000000E+00 0.  1.
     999902    2    1    2    0    0  0.58122489687E-02 -0.15978125595E-01  0.20674350196E-02  0.10268023316E+01  0.10266594719E+01 0.  0.
     999903    2    3    3    0    0 -0.48924807170E-01 -0.89527263929E-01 -0.89728070222E-01  0.13729008561E+00  0.19714798463E-01 0.  0.
         14    1    1    2    0    0 -0.58122489687E-02  0.15978125595E-01 -0.20674350196E-02  0.17127668352E-01  0.00000000000E+00 0. -1.
     999901    1    3    3    0    0  0.54737056139E-01  0.73549138334E-01  0.91795505242E-01  0.88951224604E+00  0.88000000000E+00 0. -1.
        -11    1    4    4    0    0 -0.14849344469E-01 -0.17919852198E-01 -0.11767672717E-01  0.26083776110E-01  0.51100000000E-03 0.  1.
         11    1    4    4    0    0 -0.34075462701E-01 -0.71607411731E-01 -0.77960397505E-01  0.11120630950E+00  0.51100000000E-03 0. -1.
</event>
<event>
 8    1  0.1117354E+005  0.1043930E+01  0.7957747E-01            NaN
         13   -1    0    0    0    0  0.00000000000E+00  0.00000000000E+00  0.74505805969E-08  0.10566000000E+00  0.10566000000E+00 0.  1.
     999900   -1    0    0    0    0 -0.00000000000E+00 -0.00000000000E+00 -0.74505805969E-08  0.93827000000E+00  0.93827000000E+00 0.  1.
     999902    2    1    2    0    0 -0.16696140604E-01  0.15757050796E-01 -0.48037260544E-02  0.10204753300E+01  0.10202057526E+01 0.  0.
     999903    2    3    3    0    0 -0.42282796097E-01  0.77876830689E-01 -0.97264095576E-01  0.13308451197E+00  0.19963652808E-01 0.  0.
         14    1    1    2    0    0  0.16696140604E-01 -0.15757050796E-01  0.48037260544E-02  0.23454670002E-01  0.00000000000E+00 0. -1.
     999901    1    3    3    0    0  0.25586655493E-01 -0.62119779892E-01  0.92460369522E-01  0.88739081803E+00  0.88000000000E+00 0.  1.
        -11    1    4    4    0    0 -0.26401863318E-01  0.56966916698E-01 -0.55787707081E-01  0.83992960223E-01  0.51100000000E-03 0.  1.
         11    1    4    4    0    0 -0.15880932779E-01  0.20909913991E-01 -0.41476388495E-01  0.49091551744E-01  0.51100000000E-03 0. -1.
</event>
<event>
 8    1  0.1117354E+005  0.1043930E+01  0.7957747E-01            NaN
         13   -1    0    0    0    0  0.00000000000E+00  0.00000000000E+00  0.74505805969E-08  0.10566000000E+00  0.10566000000E+00 0.  1.
     999900   -1    0    0    0    0 -0.00000000000E+00 -0.00000000000E+00 -0.74505805969E-08  0.93827000000E+00  0.93827000000E+00 0.  1.
     999902    2    1    2    0    0 -0.85956281336E-02 -0.11912954651E-01 -0.19118784719E-01  0.10198191883E+01  0.10195341316E+01 0.  0.
     999903    2    3    3    0    0  0.57082934797E-01  0.52179885647E-01 -0.10378190541E+00  0.13100570404E+00  0.20263481676E-01 0.  0.
         14    1    1    2    0    0  0.85956281336E-02  0.11912954651E-01  0.19118784719E-01  0.24110811697E-01  0.00000000000E+00 0.  1.
     999901    1    3    3    0    0 -0.65678562930E-01 -0.64092840298E-01  0.84663120688E-01  0.88881348426E+00  0.88000000000E+00 0.  1.
        -11    1    4    4    0    0  0.41343036616E-01  0.33581491531E-01 -0.55518300926E-01  0.76938326657E-01  0.51100000000E-03 0. -1.
         11    1    4    4    0    0  0.15739898181E-01  0.18598394116E-01 -0.48263604481E-01  0.54067377382E-01  0.51100000000E-03 0.  1.
</event>
<event>
 8    1  0.1117354E+005  0.1043930E+01  0.7957747E-01            NaN
         13   -1    0    0    0    0  0.00000000000E+00  0.00000000000E+00  0.74505805969E-08  0.10566000000E+00  0.10566000000E+00 0.  1.
     999900   -1    0    0    0    0 -0.00000000000E+00 -0.00000000000E+00 -0.74505805969E-08  0.93827000000E+00  0.93827000000E+00 0.  1.
     999902    2    1    2    0    0  0.13968323921E-01  0.18728898772E-01 -0.12134322164E-01  0.10176026853E+01  0.10172620595E+01 0.  0.
     999903    2    3    3    0    0  0.29865586125E-01 -0.11751941653E+00  0.28148063317E-01  0.12606525094E+00  0.19934079616E-01 0.  0.
         14    1    1    2    0    0 -0.13968323921E-01 -0.18728898772E-01  0.12134322164E-01  0.26327314651E-01  0.00000000000E+00 0.  1.
     999901    1    3    3    0    0 -0.15897262204E-01  0.13624831530E+00 -0.40282385481E-01  0.89153743441E+00  0.88000000000E+00 0. -1.
        -11    1    4    4    0    0  0.20137174278E-01 -0.40331219442E-01  0.10442185165E-01  0.46275408174E-01  0.51100000000E-03 0. -1.
         11    1    4    4    0    0  0.97284118475E-02 -0.77188197089E-01  0.17705878152E-01  0.79789842768E-01  0.51100000000E-03 0.  1.
</event>
<event>
 8    1  0.1117354E+005  0.1043930E+01  0.7957747E-01            NaN
         13   -1    0    0    0    0  0.00000000000E+00  0.00000000000E+00  0.74505805969E-08  0.10566000000E+00  0.10566000000E+00 0.  1.
     999900   -1    0    0    0    0 -0.00000000000E+00 -0.00000000000E+00 -0.74505805969E-08  0.93827000000E+00  0.93827000000E+00 0.  1.
     999902    2    1    2    0    0 -0.13408072805E-01  0.16195817156E-02 -0.19642002084E-01  0.10200928922E+01  0.10198143464E+01 0.  0.
     999903    2    3    3    0    0 -0.10414158449E+00  0.67195171786E-01  0.36266628057E-01  0.13124054055E+00  0.23412612881E-01 0.  0.
         14    1    1    2    0    0  0.13408072805E-01 -0.16195817156E-02  0.19642002084E-01  0.23837107776E-01  0.00000000000E+00 0.  1.
     999901    1    3    3    0    0  0.90733511681E-01 -0.65575590071E-01 -0.55908630141E-01  0.88885235168E+00  0.88000000000E+00 0.  1.
        -11    1    4    4    0    0 -0.46200501810E-01  0.37202441562E-01  0.69973044706E-02  0.59730489840E-01  0.51100000000E-03 0. -1.
         11    1    4    4    0    0 -0.57941082677E-01  0.29992730224E-01  0.29269323587E-01  0.71510050708E-01  0.51100000000E-03 0.  1.
</event>
<event>
 8    1  0.1117354E+005  0.1043930E+01  0.7957747E-01            NaN
         13   -1    0    0    0    0  0.00000000000E+00  0.00000000000E+00  0.74505805969E-08  0.10566000000E+00  0.10566000000E+00 0. -1.
     999900   -1    0    0    0    0 -0.00000000000E+00 -0.00000000000E+00 -0.74505805969E-08  0.93827000000E+00  0.93827000000E+00 0. -1.
     999902    2    1    2    0    0  0.14794914560E-01 -0.96280903470E-02  0.13655195158E-01  0.10216128771E+01  0.10213690893E+01 0.  0.
     999903    2    3    3    0    0  0.11306927117E+00 -0.33141188618E-01  0.61539020443E-01  0.13453702030E+00  0.20740306851E-01 0.  0.
         14    1    1    2    0    0 -0.14794914560E-01  0.96280903470E-02 -0.13655195158E-01  0.22317122919E-01  0.00000000000E+00 0.  1.
     999901    1    3    3    0    0 -0.98274356612E-01  0.23513098271E-01 -0.47883825285E-01  0.88707585678E+00  0.88000000000E+00 0. -1.
        -11    1    4    4    0    0  0.19286036589E-01 -0.44666059586E-03  0.38497028542E-02  0.19678212471E-01  0.51100000000E-03 0. -1.
         11    1    4    4    0    0  0.93783234583E-01 -0.32694528022E-01  0.57689317589E-01  0.11485880783E+00  0.51100000000E-03 0.  1.
</event>
<event>
 8    1  0.1117354E+005  0.1043930E+01  0.7957747E-01            NaN
         13   -1    0    0    0    0  0.00000000000E+00  0.00000000000E+00  0.74505805969E-08  0.10566000000E+00  0.10566000000E+00 0.  1.
     999900   -1    0    0    0    0 -0.00000000000E+00 -0.00000000000E+00 -0.74505805969E-08  0.93827000000E+00  0.93827000000E+00 0. -1.
     999902    2    1    2    0    0  0.90586528644E-02  0.11269479348E-01  0.18498770363E-01  0.10204509698E+01  0.10201808255E+01 0.  0.
     999903    2    3    3    0    0  0.58209957799E-01 -0.94697458523E-01  0.67007573420E-01  0.13140769371E+00  0.20541646310E-01 0.  0.
         14    1    1    2    0    0 -0.90586528644E-02 -0.11269479348E-01 -0.18498770363E-01  0.23479030249E-01  0.00000000000E+00 0. -1.
     999901    1    3    3    0    0 -0.49151304935E-01  0.10596693787E+00 -0.48508803057E-01  0.88904327604E+00  0.88000000000E+00 0. -1.
        -11    1    4    4    0    0  0.24319379714E-01 -0.56147520048E-01  0.42670855747E-01  0.74599190937E-01  0.51100000000E-03 0. -1.
         11    1    4    4    0    0  0.33890578085E-01 -0.38549938474E-01  0.24336717673E-01  0.56808502774E-01  0.51100000000E-03 0.  1.
</event>
<event>
 8    1  0.1117354E+005  0.1043930E+01  0.7957747E-01            NaN
         13   -1    0    0    0    0  0.00000000000E+00  0.00000000000E+00  0.74505805969E-08  0.10566000000E+00  0.10566000000E+00 0. -1.
     999900   -1    0    0    0    0 -0.00000000000E+00 -0.00000000000E+00 -0.74505805969E-08  0.93827000000E+00  0.93827000000E+00 0.  1.
     999902    2    1    2    0    0 -0.40871547796E-02 -0.95364261858E-02 -0.21631517006E-01  0.10199389436E+01  0.10196567451E+01 0.  0.
     999903    2    3    3    0    0 -0.11251362767E+00  0.24986687194E-01  0.56845501396E-01  0.12914896399E+00  0.12821580317E-01 0.  0.
         14    1    1    2    0    0  0.40871547796E-02  0.95364261858E-02  0.21631517006E-01  0.23991056387E-01  0.00000000000E+00 0. -1.
     999901    1    3    3    0    0  0.10842647289E+00 -0.34523113380E-01 -0.78477018402E-01  0.89078997962E+00  0.88000000000E+00 0. -1.
        -11    1    4    4    0    0 -0.61923538577E-01  0.73801868384E-02  0.32116387896E-01  0.70147810231E-01  0.51100000000E-03 0. -1.
         11    1    4    4    0    0 -0.50590089094E-01  0.17606500355E-01  0.24729113500E-01  0.59001153759E-01  0.51100000000E-03 0.  1.
</event>
<event>
 8    1  0.1117354E+005  0.1043930E+01  0.7957747E-01            NaN
         13   -1    0    0    0    0  0.00000000000E+00  0.00000000000E+00  0.74505805969E-08  0.10566000000E+00  0.10566000000E+00 0.  1.
     999900   -1    0    0    0    0 -0.00000000000E+00 -0.00000000000E+00 -0.74505805969E-08  0.93827000000E+00  0.93827000000E+00 0. -1.
     999902    2    1    2    0    0 -0.20584069475E-01  0.14874032584E-02  0.16829025913E-01  0.10173004601E+01  0.10169518640E+01 0.  0.
     999903    2    3    3    0    0  0.10884774211E-01  0.10555792304E+00 -0.66537185571E-01  0.12669904167E+00  0.19091795918E-01 0.  0.
         14    1    1    2    0    0  0.20584069475E-01 -0.14874032584E-02 -0.16829025913E-01  0.26629539947E-01  0.00000000000E+00 0. -1.
     999901    1    3    3    0    0 -0.31468843686E-01 -0.10407051978E+00  0.83366211483E-01  0.89060141838E+00  0.88000000000E+00 0.  1.
        -11    1    4    4    0    0  0.10852279779E-01  0.25831051796E-01 -0.19328999311E-01  0.34042422779E-01  0.51100000000E-03 0.  1.
         11    1    4    4    0    0  0.32494432367E-04  0.79726871239E-01 -0.47208186260E-01  0.92656618891E-01  0.51100000000E-03 0. -1.
</event>
<event>
 8    1  0.1117354E+005  0.1043930E+01  0.7957747E-01            NaN
         13   -1    0    0    0    0  0.00000000000E+00  0.00000000000E+00  0.74505805969E-08  0.10566000000E+00  0.10566000000E+00 0.  1.
     999900   -1    0    0    0    0 -0.00000000000E+00 -0.00000000000E+00 -0.74505805969E-08  0.93827000000E+00  0.93827000000E+00 0. -1.
     999902    2    1    2    0    0  0.49693976505E-02 -0.18197982355E-01  0.14143307105E-01  0.10203525826E+01  0.10200801430E+01 0.  0.
     999903    2    3    3    0    0  0.27838491491E-01 -0.10999546616E+00 -0.63928889909E-01  0.13184538431E+00  0.20550382369E-01 0.  0.
         14    1    1    2    0    0 -0.49693976505E-02  0.18197982355E-01 -0.14143307105E-01  0.23577417387E-01  0.00000000000E+00 0. -1.
     999901    1    3    3    0    0 -0.22869093840E-01  0.91797483804E-01  0.78072197014E-01  0.88850719830E+00  0.88000000000E+00 0. -1.
        -11    1    4    4    0    0  0.11988763452E-02 -0.45099362265E-01 -0.23364914044E-01  0.50809153806E-01  0.51100000000E-03 0. -1.
         11    1    4    4    0    0  0.26639615146E-01 -0.64896103894E-01 -0.40563975864E-01  0.81036230506E-01  0.51100000000E-03 0.  1.
</event>
<event>
 8    1  0.1117354E+005  0.1043930E+01  0.7957747E-01            NaN
         13   -1    0    0    0    0  0.00000000000E+00  0.00000000000E+00  0.74505805969E-08  0.10566000000E+00  0.10566000000E+00 0. -1.
     999900   -1    0    0    0    0 -0.00000000000E+00 -0.00000000000E+00 -0.74505805969E-08  0.93827000000E+00  0.93827000000E+00 0.  1.
     999902    2    1    2    0    0 -0.12645498582E-02  0.19632393982E-01  0.12080121160E-01  0.10208440886E+01  0.10205830166E+01 0.  0.
     999903    2    3    3    0    0 -0.45255174573E-02  0.96017138580E-01 -0.88052905914E-01  0.13187171203E+00  0.19926439346E-01 0.  0.
         14    1    1    2    0    0  0.12645498582E-02 -0.19632393982E-01 -0.12080121160E-01  0.23085911441E-01  0.00000000000E+00 0.  1.
     999901    1    3    3    0    0  0.32609675991E-02 -0.76384744598E-01  0.10013302707E+00  0.88897237653E+00  0.88000000000E+00 0. -1.
        -11    1    4    4    0    0 -0.19215543251E-02  0.22922640091E-01 -0.10574233856E-01  0.25322230202E-01  0.51100000000E-03 0. -1.
         11    1    4    4    0    0 -0.26039631322E-02  0.73094498489E-01 -0.77478672058E-01  0.10654948183E+00  0.51100000000E-03 0.  1.
</event>
<event>
 8    1  0.1117354E+005  0.1043930E+01  0.7957747E-01            NaN
         13   -1    0    0    0    0  0.00000000000E+00  0.00000000000E+00  0.74505805969E-08  0.10566000000E+00  0.10566000000E+00 0. -1.
     999900   -1    0    0    0    0 -0.00000000000E+00 -0.00000000000E+00 -0.74505805969E-08  0.93827000000E+00  0.93827000000E+00 0. -1.
     999902    2    1    2    0    0  0.17073100674E-02 -0.16047294850E-01 -0.13471880699E-01  0.10229080555E+01  0.10226920201E+01 0.  0.
     999903    2    3    3    0    0  0.84106292336E-01  0.87783099806E-01  0.45479139912E-01  0.13103050454E+00  0.17913679981E-01 0.  0.
         14    1    1    2    0    0 -0.17073100674E-02  0.16047294850E-01  0.13471880699E-01  0.21021944469E-01  0.00000000000E+00 0. -1.
     999901    1    3    3    0    0 -0.82398982268E-01 -0.10383039466E+00 -0.58951020612E-01  0.89187755099E+00  0.88000000000E+00 0. -1.
        -11    1    4    4    0    0  0.18296471106E-01  0.18652590805E-01  0.17909511194E-01  0.31681093903E-01  0.51100000000E-03 0. -1.
         11    1    4    4    0    0  0.65809821229E-01  0.69130509001E-01  0.27569628718E-01  0.99349410635E-01  0.51100000000E-03 0.  1.
</event>
<event>
 8    1  0.1117354E+005  0.1043930E+01  0.7957747E-01            NaN
         13   -1    0    0    0    0  0.00000000000E+00  0.00000000000E+00  0.74505805969E-08  0.10566000000E+00  0.10566000000E+00 0.  1.
     999900   -1    0    0    0    0 -0.00000000000E+00 -0.00000000000E+00 -0.74505805969E-08  0.93827000000E+00  0.93827000000E+00 0. -1.
     999902    2    1    2    0    0 -0.22469127252E-01  0.11624972588E-01  0.65337591774E-02  0.10178016308E+01  0.10174661999E+01 0.  0.
     999903    2    3    3    0    0 -0.11425365373E+00 -0.58413778631E-01 -0.13716974921E-01  0.13002918351E+00  0.15917482141E-01 0.  0.
         14    1    1    2    0    0  0.22469127252E-01 -0.11624972588E-01 -0.65337591774E-02  0.26128369182E-01  0.00000000000E+00 0. -1.
     999901    1    3    3    0    0  0.91784526478E-01  0.70038751219E-01  0.20250734098E-01  0.88777244731E+00  0.88000000000E+00 0.  1.
        -11    1    4    4    0    0 -0.31187626229E-01 -0.88272132975E-02 -0.61173081222E-02  0.32988942148E-01  0.51100000000E-03 0.  1.
         11    1    4    4    0    0 -0.83066027501E-01 -0.49586565334E-01 -0.75996667986E-02  0.97040241358E-01  0.51100000000E-03 0. -1.
</event>
<event>
 8    1  0.1117354E+005  0.1043930E+01  0.7957747E-01            NaN
         13   -1    0    0    0    0  0.00000000000E+00  0.00000000000E+00  0.74505805969E-08  0.10566000000E+00  0.10566000000E+00 0.  1.
     999900   -1    0    0    0    0 -0.00000000000E+00 -0.00000000000E+00 -0.74505805969E-08  0.93827000000E+00  0.93827000000E+00 0. -1.
     999902    2    1    2    0    0 -0.37403621602E-02  0.12939716090E-01  0.21586919776E-01  0.10184855179E+01  0.10181676329E+01 0.  0.
     999903    2    3    3    0    0  0.37296777745E-01 -0.12002758625E+00  0.56043066471E-02  0.12740763456E+00  0.20090445506E-01 0.  0.
         14    1    1    2    0    0  0.37403621602E-02 -0.12939716090E-01 -0.21586919776E-01  0.25444482054E-01  0.00000000000E+00 0. -1.
     999901    1    3    3    0    0 -0.41037139905E-01  0.13296730233E+00  0.15982613129E-01  0.89107788339E+00  0.88000000000E+00 0.  1.
        -11    1    4    4    0    0  0.31971648010E-01 -0.92008667713E-01  0.12091594835E-01  0.98154210289E-01  0.51100000000E-03 0.  1.
         11    1    4    4    0    0  0.53251297348E-02 -0.28018918533E-01 -0.64872881884E-02  0.29253424269E-01  0.51100000000E-03 0. -1.
</event>
<event>
 8    1  0.1117354E+005  0.1043930E+01  0.7957747E-01            NaN
         13   -1    0    0    0    0  0.00000000000E+00  0.00000000000E+00  0.74505805969E-08  0.10566000000E+00  0.10566000000E+00 0. -1.
     999900   -1    0    0    0    0 -0.00000000000E+00 -0.00000000000E+00 -0.74505805969E-08  0.93827000000E+00  0.93827000000E+00 0.  1.
     999902    2    1    2    0    0 -0.30682937018E-02  0.23468177487E-01  0.40415950156E-02  0.10199194967E+01  0.10196368350E+01 0.  0.
     999903    2    3    3    0    0 -0.71763011938E-02 -0.11156615656E+00 -0.57920542729E-01  0.12745635813E+00  0.19794629832E-01 0.  0.
         14    1    1    2    0    0  0.30682937018E-02 -0.23468177487E-01 -0.40415950156E-02  0.24010503349E-01  0.00000000000E+00 0. -1.
     999901    1    3    3    0    0  0.41080074920E-02  0.13503433405E+00  0.61962137745E-01  0.89246313852E+00  0.88000000000E+00 0. -1.
        -11    1    4    4    0    0  0.14378537767E-02 -0.69883421569E-01 -0.44334454155E-01  0.82774180636E-01  0.51100000000E-03 0. -1.
         11    1    4    4    0    0 -0.86141549705E-02 -0.41682734992E-01 -0.13586088574E-01  0.44682177498E-01  0.51100000000E-03 0.  1.
</event>
<event>
 8    1  0.1117354E+005  0.1043930E+01  0.7957747E-01            NaN
         13   -1    0    0    0    0  0.00000000000E+00  0.00000000000E+00  0.74505805969E-08  0.10566000000E+00  0.10566000000E+00 0. -1.
     999900   -1    0    0    0    0 -0.00000000000E+00 -0.00000000000E+00 -0.74505805969E-08  0.93827000000E+00  0.93827000000E+00 0.  1.
     999902    2    1    2    0    0  0.37430072207E-02  0.22238266328E-01  0.82667916501E-02  0.10199114564E+01  0.10196286032E+01 0.  0.
     999903    2    3    3    0    0  0.58404930048E-01  0.11401801755E+00  0.28653779045E-01  0.13321698941E+00  0.22682218447E-01 0.  0.
         14    1    1    2    0    0 -0.37430072207E-02 -0.22238266328E-01 -0.82667916501E-02  0.24018543597E-01  0.00000000000E+00 0.  1.
     999901    1    3    3    0    0 -0.54661922827E-01 -0.91779751223E-01 -0.20386987395E-01  0.88669446699E+00  0.88000000000E+00 0. -1.
        -11    1    4    4    0    0  0.97010590981E-02  0.34386024104E-01  0.56678440172E-03  0.35736417936E-01  0.51100000000E-03 0. -1.
         11    1    4    4    0    0  0.48703870950E-01  0.79631993447E-01  0.28086994643E-01  0.97480571474E-01  0.51100000000E-03 0.  1.
</event>
<event>
 8    1  0.1117354E+005  0.1043930E+01  0.7957747E-01            NaN
         13   -1    0    0    0    0  0.00000000000E+00  0.00000000000E+00  0.74505805969E-08  0.10566000000E+00  0.10566000000E+00 0. -1.
     999900   -1    0    0    0    0 -0.00000000000E+00 -0.00000000000E+00 -0.74505805969E-08  0.93827000000E+00  0.93827000000E+00 0. -1.
     999902    2    1    2    0    0 -0.17108610916E-01 -0.91438435142E-02  0.13908294453E-01  0.10200604567E+01  0.10197811433E+01 0.  0.
     999903    2    3    3    0    0  0.10042730945E+00  0.72199928473E-01 -0.24745852114E-01  0.12768965663E+00  0.19844824428E-01 0.  0.
         14    1    1    2    0    0  0.17108610916E-01  0.91438435142E-02 -0.13908294453E-01  0.23869543277E-01  0.00000000000E+00 0.  1.
     999901    1    3    3    0    0 -0.11753592037E+00 -0.81343771987E-01  0.38654146566E-01  0.89237080010E+00  0.88000000000E+00 0.  1.
        -11    1    4    4    0    0  0.55983425110E-01  0.40351283053E-01 -0.23804573842E-01  0.73001977972E-01  0.51100000000E-03 0. -1.
         11    1    4    4    0    0  0.44443884344E-01  0.31848645420E-01 -0.94127827175E-03  0.54687678653E-01  0.51100000000E-03 0.  1.
</event>
<event>
 8    1  0.1117354E+005  0.1043930E+01  0.7957747E-01            NaN
         13   -1    0    0    0    0  0.00000000000E+00  0.00000000000E+00  0.74505805969E-08  0.10566000000E+00  0.10566000000E+00 0. -1.
     999900   -1    0    0    0    0 -0.00000000000E+00 -0.00000000000E+00 -0.74505805969E-08  0.93827000000E+00  0.93827000000E+00 0.  1.
     999902    2    1    2    0    0  0.17523730191E-01 -0.15821789778E-01 -0.66579587716E-02  0.10193996399E+01  0.10191044536E+01 0.  0.
     999903    2    3    3    0    0 -0.30089216825E-02 -0.11287681985E-01  0.12700655931E+00  0.12905793509E+00  0.19718497081E-01 0.  0.
         14    1    1    2    0    0 -0.17523730191E-01  0.15821789778E-01  0.66579587716E-02  0.24530360099E-01  0.00000000000E+00 0. -1.
     999901    1    3    3    0    0  0.20532651874E-01 -0.45341077931E-02 -0.13366451809E+00  0.89034170481E+00  0.88000000000E+00 0.  1.
        -11    1    4    4    0    0 -0.68479046423E-02  0.61454497340E-03  0.83572378374E-01  0.83856275923E-01  0.51100000000E-03 0.  1.
         11    1    4    4    0    0  0.38389829598E-02 -0.11902226958E-01  0.43434180939E-01  0.45201659169E-01  0.51100000000E-03 0. -1.
</event>
<event>
 8    1  0.1117354E+005  0.1043930E+01  0.7957747E-01            NaN
         13   -1    0    0    0    0  0.00000000000E+00  0.00000000000E+00  0.74505805969E-08  0.10566000000E+00  0.10566000000E+00 0.  1.
     999900   -1    0    0    0    0 -0.00000000000E+00 -0.00000000000E+00 -0.74505805969E-08  0.93827000000E+00  0.93827000000E+00 0.  1.
     999902    2    1    2    0    0  0.22110725845E-02  0.22802754603E-01 -0.56817192221E-02  0.10203262632E+01  0.10200532079E+01 0.  0.
     999903    2    3    3    0    0 -0.56389762944E-01  0.35818199758E-02  0.11529157241E+00  0.12991173074E+00  0.19805966657E-01 0.  0.
         14    1    1    2    0    0 -0.22110725845E-02 -0.22802754603E-01  0.56817192221E-02  0.23603736840E-01  0.00000000000E+00 0.  1.
     999901    1    3    3    0    0  0.58600835529E-01  0.19220934627E-01 -0.12097329164E+00  0.89041453242E+00  0.88000000000E+00 0.  1.
        -11    1    4    4    0    0 -0.28295769934E-01 -0.27984899079E-02  0.38289405654E-01  0.47695092497E-01  0.51100000000E-03 0.  1.
         11    1    4    4    0    0 -0.28093993010E-01  0.63803098837E-02  0.77002166761E-01  0.82216638245E-01  0.51100000000E-03 0. -1.
</event>
<event>
 8    1  0.1117354E+005  0.1043930E+01  0.7957747E-01            NaN
         13   -1    0    0    0    0  0.00000000000E+00  0.00000000000E+00  0.74505805969E-08  0.10566000000E+00  0.10566000000E+00 0.  1.
     999900   -1    0    0    0    0 -0.00000000000E+00 -0.00000000000E+00 -0.74505805969E-08  0.93827000000E+00  0.93827000000E+00 0.  1.
     999902    2    1    2    0    0 -0.60950113557E-02  0.20546607817E-01  0.91055701065E-02  0.10206443035E+01  0.10203786408E+01 0.  0.
     999903    2    3    3    0    0 -0.99563132423E-01  0.36081513921E-01 -0.75530839259E-01  0.13152060861E+00  0.19444017711E-01 0.  0.
         14    1    1    2    0    0  0.60950113557E-02 -0.20546607817E-01 -0.91055701065E-02  0.23285696536E-01  0.00000000000E+00 0. -1.
     999901    1    3    3    0    0  0.93468121067E-01 -0.15534906104E-01  0.84636409366E-01  0.88912369486E+00  0.88000000000E+00 0. -1.
        -11    1    4    4    0    0 -0.68002458693E-01  0.16474730158E-01 -0.55479347835E-01  0.89297089982E-01  0.51100000000E-03 0.  1.
         11    1    4    4    0    0 -0.31560673730E-01  0.19606783763E-01 -0.20051491424E-01  0.42223518626E-01  0.51100000000E-03 0. -1.
</event>
<event>
 8    1  0.1117354E+005  0.1043930E+01  0.7957747E-01            NaN
         13   -1    0    0    0    0  0.00000000000E+00  0.00000000000E+00  0.74505805969E-08  0.10566000000E+00  0.10566000000E+00 0.  1.
     999900   -1    0    0    0    0 -0.00000000000E+00 -0.00000000000E+00 -0.74505805969E-08  0.93827000000E+00  0.93827000000E+00 0. -1.
     999902    2    1    2    0    0  0.48642617203E-02 -0.18524602040E-01  0.16648683768E-01  0.10185528332E+01  0.10182366490E+01 0.  0.
     999903    2    3    3    0    0 -0.79564177492E-01  0.71134148100E-01 -0.64560430477E-01  0.12627385607E+00  0.19659912939E-01 0.  0.
         14    1    1    2    0    0 -0.48642617203E-02  0.18524602040E-01 -0.16648683768E-01  0.25377166785E-01  0.00000000000E+00 0. -1.
     999901    1    3    3    0    0  0.84428439213E-01 -0.89658750140E-01  0.81209114244E-01  0.89227897715E+00  0.88000000000E+00 0.  1.
        -11    1    4    4    0    0 -0.61227131430E-01  0.63912207146E-01 -0.49066097119E-01  0.10119918405E+00  0.51100000000E-03 0. -1.
         11    1    4    4    0    0 -0.18337046063E-01  0.72219409544E-02 -0.15494333358E-01  0.25074672015E-01  0.51100000000E-03 0.  1.
</event>
<event>
 8    1  0.1117354E+005  0.1043930E+01  0.7957747E-01            NaN
         13   -1    0    0    0    0  0.00000000000E+00  0.00000000000E+00  0.74505805969E-08  0.10566000000E+00  0.10566000000E+00 0. -1.
     999900   -1    0    0    0    0 -0.00000000000E+00 -0.00000000000E+00 -0.74505805969E-08  0.93827000000E+00  0.93827000000E+00 0.  1.
     999902    2    1    2    0    0 -0.36966416090E-02  0.38155199230E-03 -0.23409692679E-01  0.10202271636E+01  0.10199517836E+01 0.  0.
     999903    2    3    3    0    0  0.10415304036E+00 -0.73088528734E-01 -0.48759152333E-02  0.13041094239E+00  0.28168253355E-01 0.  0.
         14    1    1    2    0    0  0.36966416090E-02 -0.38155199230E-03  0.23409692679E-01  0.23702836380E-01  0.00000000000E+00 0. -1.
     999901    1    3    3    0    0 -0.10784968197E+00  0.73470080726E-01 -0.18533777446E-01  0.88981622123E+00  0.88000000000E+00 0.  1.
        -11    1    4    4    0    0  0.96413237887E-01 -0.56016571232E-01 -0.27584402772E-02  0.11154030126E+00  0.51100000000E-03 0.  1.
         11    1    4    4    0    0  0.77398024700E-02 -0.17071957501E-01 -0.21174749561E-02  0.18870641123E-01  0.51100000000E-03 0. -1.
</event>
<event>
 8    1  0.1117354E+005  0.1043930E+01  0.7957747E-01            NaN
         13   -1    0    0    0    0  0.00000000000E+00  0.00000000000E+00  0.74505805969E-08  0.10566000000E+00  0.10566000000E+00 0. -1.
     999900   -1    0    0    0    0 -0.00000000000E+00 -0.00000000000E+00 -0.74505805969E-08  0.93827000000E+00  0.93827000000E+00 0.  1.
     999902    2    1    2    0    0 -0.55733963861E-02  0.18122642491E-01  0.18454135611E-01  0.10174715790E+01  0.10171275073E+01 0.  0.
     999903    2    3    3    0    0  0.85301952904E-02 -0.49996171331E-01 -0.11250411420E+00  0.12506519892E+00  0.20291547288E-01 0.  0.
         14    1    1    2    0    0  0.55733963861E-02 -0.18122642491E-01 -0.18454135611E-01  0.26458420952E-01  0.00000000000E+00 0.  1.
     999901    1    3    3    0    0 -0.14103591676E-01  0.68118813822E-01  0.13095824981E+00  0.89240638012E+00  0.88000000000E+00 0. -1.
        -11    1    4    4    0    0  0.13271810919E-01 -0.28090601929E-01 -0.52450186084E-01  0.60963152995E-01  0.51100000000E-03 0.  1.
         11    1    4    4    0    0 -0.47416156291E-02 -0.21905569402E-01 -0.60053928111E-01  0.64102045928E-01  0.51100000000E-03 0. -1.
</event>
<event>
 8    1  0.1117354E+005  0.1043930E+01  0.7957747E-01            NaN
         13   -1    0    0    0    0  0.00000000000E+00  0.00000000000E+00  0.74505805969E-08  0.10566000000E+00  0.10566000000E+00 0.  1.
     999900   -1    0    0    0    0 -0.00000000000E+00 -0.00000000000E+00 -0.74505805969E-08  0.93827000000E+00  0.93827000000E+00 0. -1.
     999902    2    1    2    0    0  0.10140333831E-01  0.11403205249E-01 -0.19460537451E-01  0.10192000186E+01  0.10188999490E+01 0.  0.
     999903    2    3    3    0    0  0.12934382867E+00  0.54536986525E-02 -0.44478918895E-02  0.13101633869E+00  0.19645060886E-01 0.  0.
         14    1    1    2    0    0 -0.10140333831E-01 -0.11403205249E-01  0.19460537451E-01  0.24729981359E-01  0.00000000000E+00 0. -1.
     999901    1    3    3    0    0 -0.11920349484E+00  0.59495065961E-02 -0.15012645562E-01  0.88818367995E+00  0.88000000000E+00 0.  1.
        -11    1    4    4    0    0  0.77943793516E-01 -0.27562208451E-02  0.48228246458E-02  0.78143153632E-01  0.51100000000E-03 0.  1.
         11    1    4    4    0    0  0.51400035152E-01  0.82099194975E-02 -0.92707165352E-02  0.52873185055E-01  0.51100000000E-03 0. -1.
</event>
<event>
 8    1  0.1117354E+005  0.1043930E+01  0.7957747E-01            NaN
         13   -1    0    0    0    0  0.00000000000E+00  0.00000000000E+00  0.74505805969E-08  0.10566000000E+00  0.10566000000E+00 0. -1.
     999900   -1    0    0    0    0 -0.00000000000E+00 -0.00000000000E+00 -0.74505805969E-08  0.93827000000E+00  0.93827000000E+00 0. -1.
     999902    2    1    2    0    0 -0.24848533793E-01 -0.29485869796E-02  0.15436234641E-02  0.10188595678E+01  0.10185510750E+01 0.  0.
     999903    2    3    3    0    0 -0.89464241284E-01  0.45986556962E-01  0.82245176075E-01  0.13145741627E+00  0.19954182881E-01 0.  0.
         14    1    1    2    0    0  0.24848533793E-01  0.29485869796E-02 -0.15436234641E-02  0.25070432190E-01  0.00000000000E+00 0.  1.
     999901    1    3    3    0    0  0.64615707491E-01 -0.48935143942E-01 -0.80701552611E-01  0.88740215154E+00  0.88000000000E+00 0. -1.
        -11    1    4    4    0    0 -0.46464549597E-01  0.25584303554E-01  0.55872717380E-01  0.77042407971E-01  0.51100000000E-03 0. -1.
         11    1    4    4    0    0 -0.42999691686E-01  0.20402253408E-01  0.26372458696E-01  0.54415008297E-01  0.51100000000E-03 0.  1.
</event>
<event>
 8    1  0.1117354E+005  0.1043930E+01  0.7957747E-01            NaN
         13   -1    0    0    0    0  0.00000000000E+00  0.00000000000E+00  0.74505805969E-08  0.10566000000E+00  0.10566000000E+00 0. -1.
     999900   -1    0    0    0    0 -0.00000000000E+00 -0.00000000000E+00 -0.74505805969E-08  0.93827000000E+00  0.93827000000E+00 0. -1.
     999902    2    1    2    0    0 -0.23827341817E-02  0.18542741721E-01  0.82184812995E-02  0.10235080969E+01  0.10233043390E+01 0.  0.
     999903    2    3    3    0    0  0.93024902528E-01  0.70501262289E-01  0.64857236860E-01  0.13502047532E+00  0.20000177722E-01 0.  0.
         14    1    1    2    0    0  0.23827341817E-02 -0.18542741721E-01 -0.82184812995E-02  0.20421903134E-01  0.00000000000E+00 0.  1.
     999901    1    3    3    0    0 -0.95407636710E-01 -0.51958520568E-01 -0.56638755561E-01  0.88848762154E+00  0.88000000000E+00 0.  1.
        -11    1    4    4    0    0  0.65770347543E-01  0.54366314727E-01  0.56217990864E-01  0.10218687984E+00  0.51100000000E-03 0.  1.
         11    1    4    4    0    0  0.27254554986E-01  0.16134947563E-01  0.86392459961E-02  0.32833595488E-01  0.51100000000E-03 0. -1.
</event>
<event>
 8    1  0.1117354E+005  0.1043930E+01  0.7957747E-01            NaN
         13   -1    0    0    0    0  0.00000000000E+00  0.00000000000E+00  0.74505805969E-08  0.10566000000E+00  0.10566000000E+00 0.  1.
     999900   -1    0    0    0    0 -0.00000000000E+00 -0.00000000000E+00 -0.74505805969E-08  0.93827000000E+00  0.93827000000E+00 0. -1.
     999902    2    1    2    0    0 -0.89927211182E-02 -0.17173286570E-01  0.10034037588E-01  0.10221017450E+01  0.10218686337E+01 0.  0.
     999903    2    3    3    0    0  0.96430633979E-01  0.68968777202E-01  0.51110249463E-01  0.13068613257E+00  0.20274324851E-01 0.  0.
         14    1    1    2    0    0  0.89927211182E-02  0.17173286570E-01 -0.10034037588E-01  0.21828254970E-01  0.00000000000E+00 0. -1.
     999901    1    3    3    0    0 -0.10542335510E+00 -0.86142063772E-01 -0.41076211875E-01  0.89141561246E+00  0.88000000000E+00 0. -1.
        -11    1    4    4    0    0  0.61733431986E-01  0.49335299361E-01  0.24446494004E-01  0.82721705603E-01  0.51100000000E-03 0. -1.
         11    1    4    4    0    0  0.34697201993E-01  0.19633477841E-01  0.26663755460E-01  0.47964426969E-01  0.51100000000E-03 0.  1.
</event>
<event>
 8    1  0.1117354E+005  0.1043930E+01  0.7957747E-01            NaN
         13   -1    0    0    0    0  0.00000000000E+00  0.00000000000E+00  0.74505805969E-08  0.10566000000E+00  0.10566000000E+00 0. -1.
     999900   -1    0    0    0    0 -0.00000000000E+00 -0.00000000000E+00 -0.74505805969E-08  0.93827000000E+00  0.93827000000E+00 0. -1.
     999902    2    1    2    0    0 -0.20085852696E-01  0.64650647640E-02  0.90958483082E-02  0.10209523370E+01  0.10206937354E+01 0.  0.
     999903    2    3    3    0    0 -0.43819772161E-01  0.68246384212E-01 -0.10165000848E+00  0.13154530129E+00  0.19841891957E-01 0.  0.
         14    1    1    2    0    0  0.20085852696E-01 -0.64650647640E-02 -0.90958483082E-02  0.22977663009E-01  0.00000000000E+00 0. -1.
     999901    1    3    3    0    0  0.23733919465E-01 -0.61781319448E-01  0.11074585679E+00  0.88940703570E+00  0.88000000000E+00 0. -1.
        -11    1    4    4    0    0 -0.17659646346E-01  0.26650527069E-01 -0.55931181107E-01  0.64425707937E-01  0.51100000000E-03 0.  1.
         11    1    4    4    0    0 -0.26160125815E-01  0.41595857143E-01 -0.45718827372E-01  0.67119593349E-01  0.51100000000E-03 0. -1.
</event>
<event>
 8    1  0.1117354E+005  0.1043930E+01  0.7957747E-01            NaN
         13   -1    0    0    0    0  0.00000000000E+00  0.00000000000E+00  0.74505805969E-08  0.10566000000E+00  0.10566000000E+00 0. -1.
     999900   -1    0    0    0    0 -0.00000000000E+00 -0.00000000000E+00 -0.74505805969E-08  0.93827000000E+00  0.93827000000E+00 0. -1.
     999902    2    1    2    0    0 -0.11580938165E-01 -0.26713837623E-02  0.19124878907E-01  0.10214129972E+01  0.10211647739E+01 0.  0.
     999903    2    3    3    0    0  0.94909733192E-01 -0.27592517638E-01  0.85427144469E-01  0.13216763379E+00  0.20032022510E-01 0.  0.
         14    1    1    2    0    0  0.11580938165E-01  0.26713837623E-02 -0.19124878907E-01  0.22517002757E-01  0.00000000000E+00 0.  1.
     999901    1    3    3    0    0 -0.10649067136E+00  0.24921133875E-01 -0.66302265563E-01  0.88924536345E+00  0.88000000000E+00 0. -1.
        -11    1    4    4    0    0  0.32051844400E-01 -0.19104311576E-01  0.28803186408E-01  0.47140005499E-01  0.51100000000E-03 0. -1.
         11    1    4    4    0    0  0.62857888793E-01 -0.84882060619E-02  0.56623958061E-01  0.85027628293E-01  0.51100000000E-03 0.  1.
</event>
<event>
 8    1  0.1117354E+005  0.1043930E+01  0.7957747E-01            NaN
         13   -1    0    0    0    0  0.00000000000E+00  0.00000000000E+00  0.74505805969E-08  0.10566000000E+00  0.10566000000E+00 0.  1.
     999900   -1    0    0    0    0 -0.00000000000E+00 -0.00000000000E+00 -0.74505805969E-08  0.93827000000E+00  0.93827000000E+00 0.  1.
     999902    2    1    2    0    0 -0.82883959333E-02 -0.11243780985E-01 -0.18550587969E-01  0.10207083628E+01  0.10204441766E+01 0.  0.
     999903    2    3    3    0    0 -0.51540058774E-01  0.11783058827E+00 -0.36838579860E-02  0.13011759330E+00  0.19405980717E-01 0.  0.
         14    1    1    2    0    0  0.82883959333E-02  0.11243780985E-01  0.18550587969E-01  0.23221637151E-01  0.00000000000E+00 0.  1.
     999901    1    3    3    0    0  0.43251662841E-01 -0.12907436925E+00 -0.14866729983E-01  0.89059076954E+00  0.88000000000E+00 0.  1.
        -11    1    4    4    0    0 -0.12834090598E-01  0.12834339190E-01 -0.83971261356E-03  0.18176918941E-01  0.51100000000E-03 0.  1.
         11    1    4    4    0    0 -0.38705968176E-01  0.10499624908E+00 -0.28441453724E-02  0.11194067436E+00  0.51100000000E-03 0. -1.
</event>
<event>
 8    1  0.1117354E+005  0.1043930E+01  0.7957747E-01            NaN
         13   -1    0    0    0    0  0.00000000000E+00  0.00000000000E+00  0.74505805969E-08  0.10566000000E+00  0.10566000000E+00 0. -1.
     999900   -1    0    0    0    0 -0.00000000000E+00 -0.00000000000E+00 -0.74505805969E-08  0.93827000000E+00  0.93827000000E+00 0. -1.
     999902    2    1    2    0    0 -0.50241453658E-02  0.51912588745E-03 -0.21732627394E-01  0.10216181506E+01  0.10213744794E+01 0.  0.
     999903    2    3    3    0    0  0.96773312533E-01  0.86484256978E-01  0.59448303867E-03  0.13130852694E+00  0.19924234318E-01 0.  0.
         14    1    1    2    0    0  0.50241453658E-02 -0.51912588745E-03  0.21732627394E-01  0.22311849358E-01  0.00000000000E+00 0. -1.
     999901    1    3    3    0    0 -0.10179745790E+00 -0.85965131090E-01 -0.22327110433E-01  0.89030962370E+00  0.88000000000E+00 0. -1.
        -11    1    4    4    0    0  0.52235699008E-01  0.56400800672E-01  0.69334026933E-02  0.77187769505E-01  0.51100000000E-03 0.  1.
         11    1    4    4    0    0  0.44537613524E-01  0.30083456306E-01 -0.63389196546E-02  0.54120757433E-01  0.51100000000E-03 0. -1.
</event>
<event>
 8    1  0.1117354E+005  0.1043930E+01  0.7957747E-01            NaN
         13   -1    0    0    0    0  0.00000000000E+00  0.00000000000E+00  0.74505805969E-08  0.10566000000E+00  0.10566000000E+00 0.  1.
     999900   -1    0    0    0    0 -0.00000000000E+00 -0.00000000000E+00 -0.74505805969E-08  0.93827000000E+00  0.93827000000E+00 0.  1.
     999902    2    1    2    0    0  0.35464761300E-02 -0.13024010128E-01  0.18844678073E-01  0.10207497449E+01  0.10204865102E+01 0.  0.
     999903    2    3    3    0    0  0.18343257447E-01  0.42979936513E-01 -0.11809987788E+00  0.12827610490E+00  0.17984101152E-01 0.  0.
         14    1    1    2    0    0 -0.35464761300E-02  0.13024010128E-01 -0.18844678073E-01  0.23180255055E-01  0.00000000000E+00 0. -1.
     999901    1    3    3    0    0 -0.14796781317E-01 -0.56003946641E-01  0.13694455596E+00  0.89247364005E+00  0.88000000000E+00 0. -1.
        -11    1    4    4    0    0  0.48901930373E-02  0.15838419746E-01 -0.65576494309E-01  0.67641017547E-01  0.51100000000E-03 0. -1.
         11    1    4    4    0    0  0.13453064410E-01  0.27141516766E-01 -0.52523383576E-01  0.60635087348E-01  0.51100000000E-03 0.  1.
</event>
<event>
 8    1  0.1117354E+005  0.1043930E+01  0.7957747E-01            NaN
         13   -1    0    0    0    0  0.00000000000E+00  0.00000000000E+00  0.74505805969E-08  0.10566000000E+00  0.10566000000E+00 0.  1.
     999900   -1    0    0    0    0 -0.00000000000E+00 -0.00000000000E+00 -0.74505805969E-08  0.93827000000E+00  0.93827000000E+00 0.  1.
     999902    2    1    2    0    0  0.22939008460E-01 -0.10109918573E-02  0.40141030220E-02  0.10206204904E+01  0.10203542778E+01 0.  0.
     999903    2    3    3    0    0 -0.56477632296E-01  0.10941720947E+00 -0.34450436621E-01  0.12934000074E+00  0.19497551906E-01 0.  0.
         14    1    1    2    0    0 -0.22939008460E-01  0.10109918573E-02 -0.40141030220E-02  0.23309509578E-01  0.00000000000E+00 0.  1.
     999901    1    3    3    0    0  0.79416640756E-01 -0.11042820133E+00  0.38464539643E-01  0.89128048968E+00  0.88000000000E+00 0. -1.
        -11    1    4    4    0    0 -0.37620586379E-01  0.86877321379E-01 -0.31605410572E-01  0.99810523433E-01  0.51100000000E-03 0.  1.
         11    1    4    4    0    0 -0.18857045917E-01  0.22539888091E-01 -0.28450260485E-02  0.29529477308E-01  0.51100000000E-03 0. -1.
</event>
<event>
 8    1  0.1117354E+005  0.1043930E+01  0.7957747E-01            NaN
         13   -1    0    0    0    0  0.00000000000E+00  0.00000000000E+00  0.74505805969E-08  0.10566000000E+00  0.10566000000E+00 0. -1.
     999900   -1    0    0    0    0 -0.00000000000E+00 -0.00000000000E+00 -0.74505805969E-08  0.93827000000E+00  0.93827000000E+00 0.  1.
     999902    2    1    2    0    0  0.12774360068E-02 -0.22526848776E-03 -0.23233220287E-01  0.10206605971E+01  0.10203953103E+01 0.  0.
     999903    2    3    3    0    0 -0.60237838140E-01 -0.42106001098E-01 -0.10944327928E+00  0.13332171084E+00  0.19883026150E-01 0.  0.
         14    1    1    2    0    0 -0.12774360068E-02  0.22526848776E-03  0.23233220287E-01  0.23269402947E-01  0.00000000000E+00 0. -1.
     999901    1    3    3    0    0  0.61515274147E-01  0.41880732610E-01  0.86210058993E-01  0.88733888621E+00  0.88000000000E+00 0. -1.
        -11    1    4    4    0    0 -0.33761924450E-01 -0.34493408340E-01 -0.75372673129E-01  0.89503987269E-01  0.51100000000E-03 0. -1.
         11    1    4    4    0    0 -0.26475913690E-01 -0.76125927575E-02 -0.34070606151E-01  0.43817723569E-01  0.51100000000E-03 0.  1.
</event>
<event>
 8    1  0.1117354E+005  0.1043930E+01  0.7957747E-01            NaN
         13   -1    0    0    0    0  0.00000000000E+00  0.00000000000E+00  0.74505805969E-08  0.10566000000E+00  0.10566000000E+00 0. -1.
     999900   -1    0    0    0    0 -0.00000000000E+00 -0.00000000000E+00 -0.74505805969E-08  0.93827000000E+00  0.93827000000E+00 0. -1.
     999902    2    1    2    0    0 -0.18613965278E-01 -0.11052892739E-01  0.13091991745E-01  0.10186308619E+01  0.10183166435E+01 0.  0.
     999903    2    3    3    0    0 -0.59166487225E-01  0.10883833294E+00 -0.28158237567E-01  0.12861962912E+00  0.20091459043E-01 0.  0.
         14    1    1    2    0    0  0.18613965278E-01  0.11052892739E-01 -0.13091991745E-01  0.25299138110E-01  0.00000000000E+00 0.  1.
     999901    1    3    3    0    0  0.40552521947E-01 -0.11989122567E+00  0.41250229312E-01  0.89001123277E+00  0.88000000000E+00 0.  1.
        -11    1    4    4    0    0 -0.23117674219E-01  0.57493943446E-01 -0.21207195655E-01  0.65497989762E-01  0.51100000000E-03 0.  1.
         11    1    4    4    0    0 -0.36048813006E-01  0.51344389489E-01 -0.69510419127E-02  0.63121639362E-01  0.51100000000E-03 0. -1.
</event>
<event>
 8    1  0.1117354E+005  0.1043930E+01  0.7957747E-01            NaN
         13   -1    0    0    0    0  0.00000000000E+00  0.00000000000E+00  0.74505805969E-08  0.10566000000E+00  0.10566000000E+00 0.  1.
     999900   -1    0    0    0    0 -0.00000000000E+00 -0.00000000000E+00 -0.74505805969E-08  0.93827000000E+00  0.93827000000E+00 0. -1.
     999902    2    1    2    0    0  0.19472541934E-01  0.11536731706E-01 -0.88658241406E-02  0.10196219991E+01  0.10193322041E+01 0.  0.
     999903    2    3    3    0    0  0.47488916535E-01 -0.78119694663E-02 -0.12115586541E+00  0.13183354301E+00  0.19624354180E-01 0.  0.
         14    1    1    2    0    0 -0.19472541934E-01 -0.11536731706E-01  0.88658241406E-02  0.24308000854E-01  0.00000000000E+00 0.  1.
     999901    1    3    3    0    0 -0.28016374602E-01  0.19348701172E-01  0.11229004127E+00  0.88778845614E+00  0.88000000000E+00 0.  1.
        -11    1    4    4    0    0  0.20954573310E-01 -0.12940065236E-01 -0.50609374785E-01  0.56285960665E-01  0.51100000000E-03 0. -1.
         11    1    4    4    0    0  0.26534343225E-01  0.51280957692E-02 -0.70546490630E-01  0.75547582343E-01  0.51100000000E-03 0.  1.
</event>
<event>
 8    1  0.1117354E+005  0.1043930E+01  0.7957747E-01            NaN
         13   -1    0    0    0    0  0.00000000000E+00  0.00000000000E+00  0.74505805969E-08  0.10566000000E+00  0.10566000000E+00 0. -1.
     999900   -1    0    0    0    0 -0.00000000000E+00 -0.00000000000E+00 -0.74505805969E-08  0.93827000000E+00  0.93827000000E+00 0. -1.
     999902    2    1    2    0    0 -0.13280113517E-01 -0.17370816854E-01  0.12205855807E-01  0.10188882427E+01  0.10185804639E+01 0.  0.
     999903    2    3    3    0    0  0.38543816545E-01 -0.46360294377E-01  0.11460622033E+00  0.13096260155E+00  0.19537517185E-01 0.  0.
         14    1    1    2    0    0  0.13280113517E-01  0.17370816854E-01 -0.12205855807E-01  0.25041757310E-01  0.00000000000E+00 0.  1.
     999901    1    3    3    0    0 -0.51823930062E-01  0.28989477523E-01 -0.10240036453E+00  0.88792564114E+00  0.88000000000E+00 0. -1.
        -11    1    4    4    0    0  0.11477218910E-01 -0.37194686008E-02  0.14778998166E-01  0.19085096498E-01  0.51100000000E-03 0. -1.
         11    1    4    4    0    0  0.27066597635E-01 -0.42640825776E-01  0.99827222167E-01  0.11187750505E+00  0.51100000000E-03 0.  1.
</event>
<event>
 8    1  0.1117354E+005  0.1043930E+01  0.7957747E-01            NaN
         13   -1    0    0    0    0  0.00000000000E+00  0.00000000000E+00  0.74505805969E-08  0.10566000000E+00  0.10566000000E+00 0.  1.
     999900   -1    0    0    0    0 -0.00000000000E+00 -0.00000000000E+00 -0.74505805969E-08  0.93827000000E+00  0.93827000000E+00 0. -1.
     999902    2    1    2    0    0 -0.79561491037E-02 -0.12115125976E-01  0.19331534867E-01  0.10197683604E+01  0.10194820862E+01 0.  0.
     999903    2    3    3    0    0 -0.95099402878E-01 -0.67241653539E-01 -0.54521109623E-01  0.13067494925E+00  0.23196003292E-01 0.  0.
         14    1    1    2    0    0  0.79561491037E-02  0.12115125976E-01 -0.19331534867E-01  0.24161639561E-01  0.00000000000E+00 0. -1.
     999901    1    3    3    0    0  0.87143253774E-01  0.55126527563E-01  0.73852644490E-01  0.88909341119E+00  0.88000000000E+00 0. -1.
        -11    1    4    4    0    0 -0.63859809793E-01 -0.51614402530E-01 -0.27790498781E-01  0.86687339322E-01  0.51100000000E-03 0.  1.
         11    1    4    4    0    0 -0.31239593085E-01 -0.15627251009E-01 -0.26730610842E-01  0.43987609928E-01  0.51100000000E-03 0. -1.
</event>
<event>
 8    1  0.1117354E+005  0.1043930E+01  0.7957747E-01            NaN
         13   -1    0    0    0    0  0.00000000000E+00  0.00000000000E+00  0.74505805969E-08  0.10566000000E+00  0.10566000000E+00 0.  1.
     999900   -1    0    0    0    0 -0.00000000000E+00 -0.00000000000E+00 -0.74505805969E-08  0.93827000000E+00  0.93827000000E+00 0.  1.
     999902    2    1    2    0    0  0.16360405567E-01 -0.16836100022E-01 -0.21299766998E-02  0.10203576871E+01  0.10200853669E+01 0.  0.
     999903    2    3    3    0    0  0.30391950546E-02  0.12286114102E+00  0.32134609470E-01  0.12858034064E+00  0.19904125056E-01 0.  0.
         14    1    1    2    0    0 -0.16360405567E-01  0.16836100022E-01  0.21299766998E-02  0.23572312890E-01  0.00000000000E+00 0.  1.
     999901    1    3    3    0    0  0.13321210512E-01 -0.13969724104E+00 -0.34264586170E-01  0.89177734647E+00  0.88000000000E+00 0. -1.
        -11    1    4    4    0    0  0.10529185008E-01  0.95635164015E-01  0.26261961372E-01  0.99734146957E-01  0.51100000000E-03 0.  1.
         11    1    4    4    0    0 -0.74899899535E-02  0.27225977008E-01  0.58726480975E-02  0.28846193687E-01  0.51100000000E-03 0. -1.
</event>
<event>
 8    1  0.1117354E+005  0.1043930E+01  0.7957747E-01            NaN
         13   -1    0    0    0    0  0.00000000000E+00  0.00000000000E+00  0.74505805969E-08  0.10566000000E+00  0.10566000000E+00 0. -1.
     999900   -1    0    0    0    0 -0.00000000000E+00 -0.00000000000E+00 -0.74505805969E-08  0.93827000000E+00  0.93827000000E+00 0. -1.
     999902    2    1    2    0    0 -0.10212969735E-01  0.25363317158E-01 -0.90707569766E-02  0.10151223406E+01  0.10147134990E+01 0.  0.
     999903    2    3    3    0    0 -0.11567428851E+00 -0.23467168004E-01 -0.42072311252E-01  0.12686809286E+00  0.19854083080E-01 0.  0.
         14    1    1    2    0    0  0.10212969735E-01 -0.25363317158E-01  0.90707569766E-02  0.28807659401E-01  0.00000000000E+00 0. -1.
     999901    1    3    3    0    0  0.10546131878E+00  0.48830485162E-01  0.33001554275E-01  0.88825424774E+00  0.88000000000E+00 0. -1.
        -11    1    4    4    0    0 -0.48470665747E-01 -0.59938628487E-02 -0.79072467464E-02  0.49478454927E-01  0.51100000000E-03 0. -1.
         11    1    4    4    0    0 -0.67203622766E-01 -0.17473305156E-01 -0.34165064505E-01  0.77389637934E-01  0.51100000000E-03 0.  1.
</event>
<event>
 8    1  0.1117354E+005  0.1043930E+01  0.7957747E-01            NaN
         13   -1    0    0    0    0  0.00000000000E+00  0.00000000000E+00  0.74505805969E-08  0.10566000000E+00  0.10566000000E+00 0.  1.
     999900   -1    0    0    0    0 -0.00000000000E+00 -0.00000000000E+00 -0.74505805969E-08  0.93827000000E+00  0.93827000000E+00 0.  1.
     999902    2    1    2    0    0 -0.76895442182E-02  0.15812171027E-01  0.15822832680E-01  0.10202759120E+01  0.10200016769E+01 0.  0.
     999903    2    3    3    0    0 -0.73086734275E-01  0.56438573224E-01 -0.90010731730E-01  0.13059729570E+00  0.20657650981E-01 0.  0.
         14    1    1    2    0    0  0.76895442182E-02 -0.15812171027E-01 -0.15822832680E-01  0.23654087953E-01  0.00000000000E+00 0.  1.
     999901    1    3    3    0    0  0.65397190057E-01 -0.40626402197E-01  0.10583356441E+00  0.88967861634E+00  0.88000000000E+00 0. -1.
        -11    1    4    4    0    0 -0.34805649356E-01  0.15344645175E-01 -0.30403001630E-01  0.48697997821E-01  0.51100000000E-03 0.  1.
         11    1    4    4    0    0 -0.38281084919E-01  0.41093928049E-01 -0.59607730100E-01  0.81899297883E-01  0.51100000000E-03 0. -1.
</event>
<event>
 8    1  0.1117354E+005  0.1043930E+01  0.7957747E-01            NaN
         13   -1    0    0    0    0  0.00000000000E+00  0.00000000000E+00  0.74505805969E-08  0.10566000000E+00  0.10566000000E+00 0. -1.
     999900   -1    0    0    0    0 -0.00000000000E+00 -0.00000000000E+00 -0.74505805969E-08  0.93827000000E+00  0.93827000000E+00 0. -1.
     999902    2    1    2    0    0 -0.19089260949E-01 -0.15127438069E-01  0.79450511327E-04  0.10195733668E+01  0.10192823970E+01 0.  0.
     999903    2    3    3    0    0  0.81019013698E-01 -0.66996758959E-01  0.72783477543E-01  0.12940598447E+00  0.19895424648E-01 0.  0.
         14    1    1    2    0    0  0.19089260949E-01  0.15127438069E-01 -0.79450511326E-04  0.24356633152E-01  0.00000000000E+00 0.  1.
     999901    1    3    3    0    0 -0.10010827465E+00  0.51869320890E-01 -0.72704027031E-01  0.89016738238E+00  0.88000000000E+00 0. -1.
        -11    1    4    4    0    0  0.81373946389E-01 -0.63486743751E-01  0.71729254136E-01  0.12568863434E+00  0.51100000000E-03 0.  1.
         11    1    4    4    0    0 -0.35493269131E-03 -0.35100152087E-02  0.10542234064E-02  0.37173501276E-02  0.51100000000E-03 0. -1.
</event>
<event>
 8    1  0.1117354E+005  0.1043930E+01  0.7957747E-01            NaN
         13   -1    0    0    0    0  0.00000000000E+00  0.00000000000E+00  0.74505805969E-08  0.10566000000E+00  0.10566000000E+00 0.  1.
     999900   -1    0    0    0    0 -0.00000000000E+00 -0.00000000000E+00 -0.74505805969E-08  0.93827000000E+00  0.93827000000E+00 0.  1.
     999902    2    1    2    0    0  0.39611281508E-02 -0.23070450851E-01 -0.14872090080E-02  0.10204747654E+01  0.10202051749E+01 0.  0.
     999903    2    3    3    0    0  0.11330393990E+00  0.43226086402E-01 -0.40949661372E-01  0.13035771330E+00  0.24697799645E-01 0.  0.
         14    1    1    2    0    0 -0.39611281508E-02  0.23070450851E-01  0.14872090080E-02  0.23455234582E-01  0.00000000000E+00 0.  1.
     999901    1    3    3    0    0 -0.10934281175E+00 -0.66296537252E-01  0.39462452364E-01  0.89011705212E+00  0.88000000000E+00 0.  1.
        -11    1    4    4    0    0  0.73146199789E-01  0.26987242975E-01 -0.38535172782E-01  0.86970676031E-01  0.51100000000E-03 0.  1.
         11    1    4    4    0    0  0.40157740108E-01  0.16238843426E-01 -0.24144885903E-02  0.43387037264E-01  0.51100000000E-03 0. -1.
</event>
<event>
 8    1  0.1117354E+005  0.1043930E+01  0.7957747E-01            NaN
         13   -1    0    0    0    0  0.00000000000E+00  0.00000000000E+00  0.74505805969E-08  0.10566000000E+00  0.10566000000E+00 0. -1.
     999900   -1    0    0    0    0 -0.00000000000E+00 -0.00000000000E+00 -0.74505805969E-08  0.93827000000E+00  0.93827000000E+00 0.  1.
     999902    2    1    2    0    0 -0.10002172254E-01  0.21996661883E-01  0.12129403182E-02  0.10197356245E+01  0.10194485647E+01 0.  0.
     999903    2    3    3    0    0  0.21338369933E-01  0.12678078946E+00 -0.25102111940E-01  0.13257474561E+00  0.20426760425E-01 0.  0.
         14    1    1    2    0    0  0.10002172254E-01 -0.21996661883E-01 -0.12129403182E-02  0.24194375545E-01  0.00000000000E+00 0.  1.
     999901    1    3    3    0    0 -0.31340542188E-01 -0.10478412758E+00  0.26315052259E-01  0.88716087884E+00  0.88000000000E+00 0. -1.
        -11    1    4    4    0    0  0.11338003693E-01  0.10379466293E+00 -0.25566825795E-01  0.10749793525E+00  0.51100000000E-03 0. -1.
         11    1    4    4    0    0  0.10000366240E-01  0.22986126529E-01  0.46471385490E-03  0.25076810358E-01  0.51100000000E-03 0.  1.
</event>
<event>
 8    1  0.1117354E+005  0.1043930E+01  0.7957747E-01            NaN
         13   -1    0    0    0    0  0.00000000000E+00  0.00000000000E+00  0.74505805969E-08  0.10566000000E+00  0.10566000000E+00 0. -1.
     999900   -1    0    0    0    0 -0.00000000000E+00 -0.00000000000E+00 -0.74505805969E-08  0.93827000000E+00  0.93827000000E+00 0. -1.
     999902    2    1    2    0    0  0.21975768763E-01 -0.69961554734E-02  0.66015049711E-02  0.10199412428E+01  0.10196590991E+01 0.  0.
     999903    2    3    3    0    0  0.70460095409E-01  0.10095496397E+00  0.41505306197E-01  0.13133421522E+00  0.19221234361E-01 0.  0.
         14    1    1    2    0    0 -0.21975768763E-01  0.69961554734E-02 -0.66015049711E-02  0.23988757201E-01  0.00000000000E+00 0.  1.
     999901    1    3    3    0    0 -0.48484326645E-01 -0.10795111944E+00 -0.34903801226E-01  0.88860702758E+00  0.88000000000E+00 0.  1.
        -11    1    4    4    0    0  0.43779788598E-01  0.48250370687E-01  0.26841812603E-01  0.70466390470E-01  0.51100000000E-03 0.  1.
         11    1    4    4    0    0  0.26680306811E-01  0.52704593283E-01  0.14663493594E-01  0.60867824752E-01  0.51100000000E-03 0. -1.
</event>
<event>
 8    1  0.1117354E+005  0.1043930E+01  0.7957747E-01            NaN
         13   -1    0    0    0    0  0.00000000000E+00  0.00000000000E+00  0.74505805969E-08  0.10566000000E+00  0.10566000000E+00 0.  1.
     999900   -1    0    0    0    0 -0.00000000000E+00 -0.00000000000E+00 -0.74505805969E-08  0.93827000000E+00  0.93827000000E+00 0. -1.
     999902    2    1    2    0    0 -0.61478271509E-02 -0.58035394069E-02 -0.21364446585E-01  0.10209535680E+01  0.10206949944E+01 0.  0.
     999903    2    3    3    0    0 -0.26089862252E-01 -0.57783264892E-01 -0.11681076605E+00  0.13404343925E+00  0.17415565633E-01 0.  0.
         14    1    1    2    0    0  0.61478271509E-02  0.58035394069E-02  0.21364446585E-01  0.22976431973E-01  0.00000000000E+00 0.  1.
     999901    1    3    3    0    0  0.19942035101E-01  0.51979725485E-01  0.95446319469E-01  0.88691012878E+00  0.88000000000E+00 0.  1.
        -11    1    4    4    0    0 -0.18714922966E-01 -0.26923914274E-01 -0.46466159197E-01  0.56872757740E-01  0.51100000000E-03 0.  1.
         11    1    4    4    0    0 -0.73749392863E-02 -0.30859350618E-01 -0.70344606857E-01  0.77170681511E-01  0.51100000000E-03 0. -1.
</event>
<event>
 8    1  0.1117354E+005  0.1043930E+01  0.7957747E-01            NaN
         13   -1    0    0    0    0  0.00000000000E+00  0.00000000000E+00  0.74505805969E-08  0.10566000000E+00  0.10566000000E+00 0. -1.
     999900   -1    0    0    0    0 -0.00000000000E+00 -0.00000000000E+00 -0.74505805969E-08  0.93827000000E+00  0.93827000000E+00 0.  1.
     999902    2    1    2    0    0 -0.43305442574E-02  0.15735707926E-01  0.15930493460E-01  0.10211232743E+01  0.10208685491E+01 0.  0.
     999903    2    3    3    0    0  0.86219644963E-01  0.53994823122E-01 -0.79007524453E-01  0.13057494659E+00  0.21409335672E-01 0.  0.
         14    1    1    2    0    0  0.43305442574E-02 -0.15735707926E-01 -0.15930493460E-01  0.22806725749E-01  0.00000000000E+00 0.  1.
     999901    1    3    3    0    0 -0.90550189220E-01 -0.38259115196E-01  0.94938017913E-01  0.89054832767E+00  0.88000000000E+00 0. -1.
        -11    1    4    4    0    0  0.20603292235E-01  0.14570982596E-01 -0.88752614184E-02  0.26755197084E-01  0.51100000000E-03 0.  1.
         11    1    4    4    0    0  0.65616352728E-01  0.39423840526E-01 -0.70132263035E-01  0.10381974950E+00  0.51100000000E-03 0. -1.
</event>
<event>
 8    1  0.1117354E+005  0.1043930E+01  0.7957747E-01            NaN
         13   -1    0    0    0    0  0.00000000000E+00  0.00000000000E+00  0.74505805969E-08  0.10566000000E+00  0.10566000000E+00 0.  1.
     999900   -1    0    0    0    0 -0.00000000000E+00 -0.00000000000E+00 -0.74505805969E-08  0.93827000000E+00  0.93827000000E+00 0. -1.
     999902    2    1    2    0    0 -0.17685833200E-01 -0.16203461105E-01  0.21143666958E-02  0.10198507269E+01  0.10195664244E+01 0.  0.
     999903    2    3    3    0    0  0.97936082681E-01  0.11767777959E-01  0.79786091400E-01  0.12845647377E+00  0.20131775472E-01 0.  0.
         14    1    1    2    0    0  0.17685833200E-01  0.16203461105E-01 -0.21143666958E-02  0.24079273126E-01  0.00000000000E+00 0.  1.
     999901    1    3    3    0    0 -0.11562191588E+00 -0.27971239064E-01 -0.77671724705E-01  0.89139425310E+00  0.88000000000E+00 0. -1.
        -11    1    4    4    0    0  0.95555290638E-02  0.30742718595E-02  0.16854710315E-02  0.10191232347E-01  0.51100000000E-03 0. -1.
         11    1    4    4    0    0  0.88380553617E-01  0.86935060999E-02  0.78100620369E-01  0.11826524142E+00  0.51100000000E-03 0.  1.
</event>
<event>
 8    1  0.1174500E+005  0.1043930E+01  0.7957747E-01            NaN
         13   -1    0    0    0    0  0.00000000000E+00  0.00000000000E+00  0.74505805969E-08  0.10566000000E+00  0.10566000000E+00 0.  1.
     999900   -1    0    0    0    0 -0.00000000000E+00 -0.00000000000E+00 -0.74505805969E-08  0.93827000000E+00  0.93827000000E+00 0.  1.
     999902    2    1    2    0    0 -0.11784830041E-01 -0.74688066679E-02  0.19735916947E-01  0.10197603556E+01  0.10194738894E+01 0.  0.
     999903    2    3    3    0    0  0.15186548456E-01 -0.32138232273E-01 -0.12130596663E+00  0.12778005945E+00  0.18684454129E-01 0.  0.
         14    1    1    2    0    0  0.11784830041E-01  0.74688066679E-02 -0.19735916947E-01  0.24169644389E-01  0.00000000000E+00 0. -1.
     999901    1    3    3    0    0 -0.26971378498E-01  0.24669425605E-01  0.14104188357E+00  0.89198029616E+00  0.88000000000E+00 0. -1.
        -11    1    4    4    0    0  0.59270387305E-02 -0.28129425073E-01 -0.73610891694E-01  0.79026697008E-01  0.51100000000E-03 0.  1.
         11    1    4    4    0    0  0.92595097259E-02 -0.40088072004E-02 -0.47695074932E-01  0.48753362441E-01  0.51100000000E-03 0. -1.
</event>
<event>
 8    1  0.1117354E+005  0.1043930E+01  0.7957747E-01            NaN
         13   -1    0    0    0    0  0.00000000000E+00  0.00000000000E+00  0.74505805969E-08  0.10566000000E+00  0.10566000000E+00 0.  1.
     999900   -1    0    0    0    0 -0.00000000000E+00 -0.00000000000E+00 -0.74505805969E-08  0.93827000000E+00  0.93827000000E+00 0. -1.
     999902    2    1    2    0    0 -0.19065518936E-01  0.10006613767E-01  0.28178349395E-02  0.10222144175E+01  0.10219837321E+01 0.  0.
     999903    2    3    3    0    0  0.52694631651E-01  0.11902441011E+00 -0.14039429975E-01  0.13242873174E+00  0.19918056868E-01 0.  0.
         14    1    1    2    0    0  0.19065518936E-01 -0.10006613767E-01 -0.28178349395E-02  0.21715582541E-01  0.00000000000E+00 0. -1.
     999901    1    3    3    0    0 -0.71760150587E-01 -0.10901779634E+00  0.16857264915E-01  0.88978568572E+00  0.88000000000E+00 0. -1.
        -11    1    4    4    0    0  0.44631973484E-01  0.78668334815E-01 -0.75480301399E-02  0.90763174469E-01  0.51100000000E-03 0.  1.
         11    1    4    4    0    0  0.80626581670E-02  0.40356075293E-01 -0.64913998353E-02  0.41665557270E-01  0.51100000000E-03 0. -1.
</event>
<event>
 8    1  0.1117354E+005  0.1043930E+01  0.7957747E-01            NaN
         13   -1    0    0    0    0  0.00000000000E+00  0.00000000000E+00  0.74505805969E-08  0.10566000000E+00  0.10566000000E+00 0.  1.
     999900   -1    0    0    0    0 -0.00000000000E+00 -0.00000000000E+00 -0.74505805969E-08  0.93827000000E+00  0.93827000000E+00 0. -1.
     999902    2    1    2    0    0 -0.98253530693E-02  0.21592618585E-01 -0.10957276670E-04  0.10202070394E+01  0.10199311861E+01 0.  0.
     999903    2    3    3    0    0 -0.80349408937E-01  0.10096419697E+00  0.27395479708E-01  0.13340119666E+00  0.19888951063E-01 0.  0.
         14    1    1    2    0    0  0.98253530693E-02 -0.21592618585E-01  0.10957276670E-04  0.23722960615E-01  0.00000000000E+00 0. -1.
     999901    1    3    3    0    0  0.70524055867E-01 -0.79371578385E-01 -0.27406436985E-01  0.88680584273E+00  0.88000000000E+00 0. -1.
        -11    1    4    4    0    0 -0.18914244585E-01  0.36619267307E-01  0.40071085124E-02  0.41413010346E-01  0.51100000000E-03 0. -1.
         11    1    4    4    0    0 -0.61435164351E-01  0.64344929663E-01  0.23388371196E-01  0.91988186309E-01  0.51100000000E-03 0.  1.
</event>
<event>
 8    1  0.1117354E+005  0.1043930E+01  0.7957747E-01            NaN
         13   -1    0    0    0    0  0.00000000000E+00  0.00000000000E+00  0.74505805969E-08  0.10566000000E+00  0.10566000000E+00 0.  1.
     999900   -1    0    0    0    0 -0.00000000000E+00 -0.00000000000E+00 -0.74505805969E-08  0.93827000000E+00  0.93827000000E+00 0. -1.
     999902    2    1    2    0    0  0.19646052979E-01  0.57235941644E-02 -0.11582180670E-01  0.10204167306E+01  0.10201457887E+01 0.  0.
     999903    2    3    3    0    0  0.10061380710E+00  0.35561714070E-01  0.75191452077E-01  0.13194852413E+00  0.19206375698E-01 0.  0.
         14    1    1    2    0    0 -0.19646052979E-01 -0.57235941644E-02  0.11582180670E-01  0.23513269378E-01  0.00000000000E+00 0. -1.
     999901    1    3    3    0    0 -0.80967754123E-01 -0.29838119906E-01 -0.86773632747E-01  0.88846820649E+00  0.88000000000E+00 0. -1.
        -11    1    4    4    0    0  0.37136999536E-01  0.13394514897E-01  0.16847825870E-01  0.42926450137E-01  0.51100000000E-03 0. -1.
         11    1    4    4    0    0  0.63476807566E-01  0.22167199173E-01  0.58343626207E-01  0.89022073992E-01  0.51100000000E-03 0.  1.
</event>
<event>
 8    1  0.1117354E+005  0.1043930E+01  0.7957747E-01            NaN
         13   -1    0    0    0    0  0.00000000000E+00  0.00000000000E+00  0.74505805969E-08  0.10566000000E+00  0.10566000000E+00 0.  1.
     999900   -1    0    0    0    0 -0.00000000000E+00 -0.00000000000E+00 -0.74505805969E-08  0.93827000000E+00  0.93827000000E+00 0. -1.
     999902    2    1    2    0    0  0.20184352547E-01  0.46269897958E-02 -0.13803574532E-01  0.10190431402E+01  0.10187392040E+01 0.  0.
     999903    2    3    3    0    0 -0.21557535689E-01 -0.36048499028E-01  0.11845823373E+00  0.12725276876E+00  0.19917138083E-01 0.  0.
         14    1    1    2    0    0 -0.20184352547E-01 -0.46269897958E-02  0.13803574532E-01  0.24886859829E-01  0.00000000000E+00 0.  1.
     999901    1    3    3    0    0  0.41741888236E-01  0.40675488824E-01 -0.13226180827E+00  0.89179037142E+00  0.88000000000E+00 0. -1.
        -11    1    4    4    0    0 -0.25575087262E-02 -0.23584449225E-01  0.62718927784E-01  0.67057379307E-01  0.51100000000E-03 0.  1.
         11    1    4    4    0    0 -0.19000026963E-01 -0.12464049803E-01  0.55739305950E-01  0.60195389448E-01  0.51100000000E-03 0. -1.
</event>
<event>
 8    1  0.1117354E+005  0.1043930E+01  0.7957747E-01            NaN
         13   -1    0    0    0    0  0.00000000000E+00  0.00000000000E+00  0.74505805969E-08  0.10566000000E+00  0.10566000000E+00 0.  1.
     999900   -1    0    0    0    0 -0.00000000000E+00 -0.00000000000E+00 -0.74505805969E-08  0.93827000000E+00  0.93827000000E+00 0.  1.
     999902    2    1    2    0    0 -0.16768849836E-02 -0.78116378302E-03  0.23873681904E-01  0.10199847531E+01  0.10197036441E+01 0.  0.
     999903    2    3    3    0    0 -0.10637292760E+00  0.36700685484E-01  0.65973615870E-01  0.13198781912E+00  0.20152577105E-01 0.  0.
         14    1    1    2    0    0  0.16768849836E-02  0.78116378302E-03 -0.23873681904E-01  0.23945246872E-01  0.00000000000E+00 0. -1.
     999901    1    3    3    0    0  0.10469604262E+00 -0.37481849267E-01 -0.42099933966E-01  0.88799693401E+00  0.88000000000E+00 0.  1.
        -11    1    4    4    0    0 -0.82883495245E-01  0.35294050618E-01  0.46175223044E-01  0.10123120140E+00  0.51100000000E-03 0.  1.
         11    1    4    4    0    0 -0.23489432357E-01  0.14066348662E-02  0.19798392826E-01  0.30756617721E-01  0.51100000000E-03 0. -1.
</event>
<event>
 8    1  0.1117354E+005  0.1043930E+01  0.7957747E-01            NaN
         13   -1    0    0    0    0  0.00000000000E+00  0.00000000000E+00  0.74505805969E-08  0.10566000000E+00  0.10566000000E+00 0.  1.
     999900   -1    0    0    0    0 -0.00000000000E+00 -0.00000000000E+00 -0.74505805969E-08  0.93827000000E+00  0.93827000000E+00 0.  1.
     999902    2    1    2    0    0 -0.18857929577E-01  0.63191473648E-02  0.13009361993E-01  0.10201645496E+01  0.10198876956E+01 0.  0.
     999903    2    3    3    0    0 -0.49958493003E-01 -0.11890490217E+00  0.97232863116E-02  0.13074951383E+00  0.19148532238E-01 0.  0.
         14    1    1    2    0    0  0.18857929577E-01 -0.63191473648E-02 -0.13009361993E-01  0.23765450360E-01  0.00000000000E+00 0.  1.
     999901    1    3    3    0    0  0.31100563426E-01  0.12522404954E+00  0.32860756818E-02  0.88941503581E+00  0.88000000000E+00 0.  1.
        -11    1    4    4    0    0 -0.35821426919E-01 -0.61088484358E-01  0.35298855855E-02  0.70906267431E-01  0.51100000000E-03 0. -1.
         11    1    4    4    0    0 -0.14137066085E-01 -0.57816417814E-01  0.61934007261E-02  0.59843246401E-01  0.51100000000E-03 0.  1.
</event>
<event>
 8    1  0.1117354E+005  0.1043930E+01  0.7957747E-01            NaN
         13   -1    0    0    0    0  0.00000000000E+00  0.00000000000E+00  0.74505805969E-08  0.10566000000E+00  0.10566000000E+00 0.  1.
     999900   -1    0    0    0    0 -0.00000000000E+00 -0.00000000000E+00 -0.74505805969E-08  0.93827000000E+00  0.93827000000E+00 0.  1.
     999902    2    1    2    0    0 -0.17757134837E-01 -0.99011703253E-02  0.11634812748E-01  0.10205052721E+01  0.10202363905E+01 0.  0.
     999903    2    3    3    0    0 -0.92232810686E-01 -0.93907377408E-01 -0.45723819967E-02  0.13322496557E+00  0.20062349694E-01 0.  0.
         14    1    1    2    0    0  0.17757134837E-01  0.99011703253E-02 -0.11634812748E-01  0.23424727941E-01  0.00000000000E+00 0. -1.
     999901    1    3    3    0    0  0.74475675849E-01  0.84006207083E-01  0.16207194745E-01  0.88728030649E+00  0.88000000000E+00 0. -1.
        -11    1    4    4    0    0 -0.62309654903E-01 -0.62485487296E-01  0.63651158860E-02  0.88474318523E-01  0.51100000000E-03 0. -1.
         11    1    4    4    0    0 -0.29923155783E-01 -0.31421890112E-01 -0.10937497883E-01  0.44750647047E-01  0.51100000000E-03 0.  1.
</event>
<event>
 8    1  0.1117354E+005  0.1043930E+01  0.7957747E-01            NaN
         13   -1    0    0    0    0  0.00000000000E+00  0.00000000000E+00  0.74505805969E-08  0.10566000000E+00  0.10566000000E+00 0.  1.
     999900   -1    0    0    0    0 -0.00000000000E+00 -0.00000000000E+00 -0.74505805969E-08  0.93827000000E+00  0.93827000000E+00 0.  1.
     999902    2    1    2    0    0 -0.76425806670E-02 -0.66689035883E-03  0.21632350062E-01  0.10209776069E+01  0.10207195802E+01 0.  0.
     999903    2    3    3    0    0 -0.51050507098E-01  0.11593703712E+00  0.32014133665E-01  0.13216463136E+00  0.19875466681E-01 0.  0.
         14    1    1    2    0    0  0.76425806670E-02  0.66689035883E-03 -0.21632350062E-01  0.22952393148E-01  0.00000000000E+00 0. -1.
     999901    1    3    3    0    0  0.43407926431E-01 -0.11660392748E+00 -0.10381783603E-01  0.88881297550E+00  0.88000000000E+00 0.  1.
        -11    1    4    4    0    0 -0.18104395866E-01  0.64267454914E-01  0.13232224656E-01  0.68069286768E-01  0.51100000000E-03 0.  1.
         11    1    4    4    0    0 -0.32946111232E-01  0.51669582206E-01  0.18781909010E-01  0.64095344587E-01  0.51100000000E-03 0. -1.
</event>
<event>
 8    1  0.1117354E+005  0.1043930E+01  0.7957747E-01            NaN
         13   -1    0    0    0    0  0.00000000000E+00  0.00000000000E+00  0.74505805969E-08  0.10566000000E+00  0.10566000000E+00 0. -1.
     999900   -1    0    0    0    0 -0.00000000000E+00 -0.00000000000E+00 -0.74505805969E-08  0.93827000000E+00  0.93827000000E+00 0.  1.
     999902    2    1    2    0    0  0.54829203823E-02  0.21175125583E-01  0.10880813911E-01  0.10194996813E+01  0.10192069269E+01 0.  0.
     999903    2    3    3    0    0  0.37210737755E-01  0.12052518728E+00 -0.33923509499E-01  0.13220913333E+00  0.20432588339E-01 0.  0.
         14    1    1    2    0    0 -0.54829203823E-02 -0.21175125583E-01 -0.10880813911E-01  0.24430318678E-01  0.00000000000E+00 0.  1.
     999901    1    3    3    0    0 -0.31727817373E-01 -0.99350061699E-01  0.44804323410E-01  0.88729054799E+00  0.88000000000E+00 0. -1.
        -11    1    4    4    0    0  0.23550025200E-01  0.97460322593E-01 -0.20985628046E-01  0.10243913252E+00  0.51100000000E-03 0. -1.
         11    1    4    4    0    0  0.13660712555E-01  0.23064864688E-01 -0.12937881454E-01  0.29770000808E-01  0.51100000000E-03 0.  1.
</event>
<event>
 8    1  0.1117354E+005  0.1043930E+01  0.7957747E-01            NaN
         13   -1    0    0    0    0  0.00000000000E+00  0.00000000000E+00  0.74505805969E-08  0.10566000000E+00  0.10566000000E+00 0.  1.
     999900   -1    0    0    0    0 -0.00000000000E+00 -0.00000000000E+00 -0.74505805969E-08  0.93827000000E+00  0.93827000000E+00 0. -1.
     999902    2    1    2    0    0 -0.21108462858E-01  0.58246286585E-02  0.81704475493E-02  0.10205580143E+01  0.10202903561E+01 0.  0.
     999903    2    3    3    0    0 -0.10127185713E+00 -0.50070271091E-01 -0.65542249456E-01  0.13208518335E+00  0.19689796975E-01 0.  0.
         14    1    1    2    0    0  0.21108462858E-01 -0.58246286585E-02 -0.81704475493E-02  0.23371985718E-01  0.00000000000E+00 0. -1.
     999901    1    3    3    0    0  0.80163394268E-01  0.55894899749E-01  0.73712697005E-01  0.88847283093E+00  0.88000000000E+00 0. -1.
        -11    1    4    4    0    0 -0.79882084356E-01 -0.30391602017E-01 -0.46054730450E-01  0.97088084707E-01  0.51100000000E-03 0.  1.
         11    1    4    4    0    0 -0.21389772770E-01 -0.19678669074E-01 -0.19487519006E-01  0.34997098647E-01  0.51100000000E-03 0. -1.
</event>
<event>
 8    1  0.1117354E+005  0.1043930E+01  0.7957747E-01            NaN
         13   -1    0    0    0    0  0.00000000000E+00  0.00000000000E+00  0.74505805969E-08  0.10566000000E+00  0.10566000000E+00 0. -1.
     999900   -1    0    0    0    0 -0.00000000000E+00 -0.00000000000E+00 -0.74505805969E-08  0.93827000000E+00  0.93827000000E+00 0.  1.
     999902    2    1    2    0    0 -0.58654977983E-03 -0.50379883457E-02  0.23925239010E-01  0.10194730495E+01  0.10191796486E+01 0.  0.
     999903    2    3    3    0    0  0.87386211448E-01 -0.74152274034E-03  0.97236255398E-01  0.13204295563E+00  0.18535181718E-01 0.  0.
         14    1    1    2    0    0  0.58654977983E-03  0.50379883457E-02 -0.23925239010E-01  0.24456950524E-01  0.00000000000E+00 0.  1.
     999901    1    3    3    0    0 -0.87972761228E-01 -0.42964656054E-02 -0.73311016388E-01  0.88743009384E+00  0.88000000000E+00 0.  1.
        -11    1    4    4    0    0  0.16407822100E-01 -0.74619686040E-02  0.20103318449E-01  0.27005594516E-01  0.51100000000E-03 0.  1.
         11    1    4    4    0    0  0.70978389348E-01  0.67204458637E-02  0.77132936949E-01  0.10503736112E+00  0.51100000000E-03 0. -1.
</event>
<event>
 7    1  0.1194156E+005  0.1043930E+01  0.7957747E-01            NaN
         13   -1    0    0    0    0  0.00000000000E+00  0.00000000000E+00  0.74505805969E-08  0.10566000000E+00  0.10566000000E+00 0.  1.
     999900   -1    0    0    0    0 -0.00000000000E+00 -0.00000000000E+00 -0.74505805969E-08  0.93827000000E+00  0.93827000000E+00 0. -1.
     999903    2    1    2    0    0 -0.80795847710E-01 -0.17222813328E-01 -0.54813139393E-01  0.10099844639E+00  0.19277230555E-01 0.  0.
         14    1    1    2    0    0  0.42406374484E-01  0.20084264782E-01  0.40484887707E-01  0.61973417054E-01  0.00000000000E+00 0.  1.
     999901    1    1    2    0    0  0.38389473225E-01 -0.28614514531E-02  0.14328251686E-01  0.88095813655E+00  0.88000000000E+00 0.  1.
        -11    1    3    3    0    0 -0.32405114783E-01  0.24186903597E-02 -0.18613224709E-01  0.37452033085E-01  0.51100000000E-03 0.  1.
         11    1    3    3    0    0 -0.48390732927E-01 -0.19641503688E-01 -0.36199914684E-01  0.63546413309E-01  0.51100000000E-03 0. -1.
</event>
<event>
 8    1  0.1117354E+005  0.1043930E+01  0.7957747E-01            NaN
         13   -1    0    0    0    0  0.00000000000E+00  0.00000000000E+00  0.74505805969E-08  0.10566000000E+00  0.10566000000E+00 0. -1.
     999900   -1    0    0    0    0 -0.00000000000E+00 -0.00000000000E+00 -0.74505805969E-08  0.93827000000E+00  0.93827000000E+00 0. -1.
     999902    2    1    2    0    0 -0.44083217193E-02 -0.25977703163E-02  0.22488274307E-01  0.10208669518E+01  0.10206064026E+01 0.  0.
     999903    2    3    3    0    0  0.96746944606E-01 -0.84194468123E-01  0.12884316471E-01  0.13127005151E+00  0.24842323953E-01 0.  0.
         14    1    1    2    0    0  0.44083217193E-02  0.25977703163E-02 -0.22488274307E-01  0.23063048201E-01  0.00000000000E+00 0.  1.
     999901    1    3    3    0    0 -0.10115526633E+00  0.81596697806E-01  0.96039578360E-02  0.88959690029E+00  0.88000000000E+00 0.  1.
        -11    1    4    4    0    0  0.26554480149E-01 -0.18497250497E-01 -0.69484260851E-02  0.33103329712E-01  0.51100000000E-03 0. -1.
         11    1    4    4    0    0  0.70192464457E-01 -0.65697217626E-01  0.19832742556E-01  0.98166721798E-01  0.51100000000E-03 0.  1.
</event>
<event>
 8    1  0.1117354E+005  0.1043930E+01  0.7957747E-01            NaN
         13   -1    0    0    0    0  0.00000000000E+00  0.00000000000E+00  0.74505805969E-08  0.10566000000E+00  0.10566000000E+00 0. -1.
     999900   -1    0    0    0    0 -0.00000000000E+00 -0.00000000000E+00 -0.74505805969E-08  0.93827000000E+00  0.93827000000E+00 0.  1.
     999902    2    1    2    0    0 -0.86181567627E-02  0.16608036359E-02  0.21663352072E-01  0.10205562601E+01  0.10202885613E+01 0.  0.
     999903    2    3    3    0    0  0.71113084447E-01 -0.29490138856E-02  0.11006441495E+00  0.13252863148E+00  0.19593245287E-01 0.  0.
         14    1    1    2    0    0  0.86181567627E-02 -0.16608036359E-02 -0.21663352072E-01  0.23373739917E-01  0.00000000000E+00 0.  1.
     999901    1    3    3    0    0 -0.79731241209E-01  0.46098175215E-02 -0.88401062880E-01  0.88802762860E+00  0.88000000000E+00 0. -1.
        -11    1    4    4    0    0  0.37312012718E-01 -0.66392017993E-02  0.42888560237E-01  0.57235959097E-01  0.51100000000E-03 0.  1.
         11    1    4    4    0    0  0.33801071729E-01  0.36901879137E-02  0.67175854716E-01  0.75292672384E-01  0.51100000000E-03 0. -1.
</event>
<event>
 8    1  0.1227853E+005  0.1043930E+01  0.7957747E-01            NaN
         13   -1    0    0    0    0  0.00000000000E+00  0.00000000000E+00  0.74505805969E-08  0.10566000000E+00  0.10566000000E+00 0. -1.
     999900   -1    0    0    0    0 -0.00000000000E+00 -0.00000000000E+00 -0.74505805969E-08  0.93827000000E+00  0.93827000000E+00 0. -1.
     999902    2    1    2    0    0 -0.21798485321E-01 -0.88831947903E-02 -0.81227598990E-02  0.10190289089E+01  0.10187246207E+01 0.  0.
     999903    2    3    3    0    0  0.69070854938E-01  0.26761768449E-02 -0.10699357349E+00  0.12876698456E+00  0.18851170258E-01 0.  0.
         14    1    1    2    0    0  0.21798485321E-01  0.88831947903E-02  0.81227598990E-02  0.24901091147E-01  0.00000000000E+00 0. -1.
     999901    1    3    3    0    0 -0.90869340259E-01 -0.11559371635E-01  0.98870813587E-01  0.89026192430E+00  0.88000000000E+00 0.  1.
        -11    1    4    4    0    0  0.31366641411E-01 -0.17308670829E-02 -0.32772658741E-01  0.45400114276E-01  0.51100000000E-03 0. -1.
         11    1    4    4    0    0  0.37704213527E-01  0.44070439278E-02 -0.74220914745E-01  0.83366870281E-01  0.51100000000E-03 0.  1.
</event>
<event>
 8    1  0.1117354E+005  0.1043930E+01  0.7957747E-01            NaN
         13   -1    0    0    0    0  0.00000000000E+00  0.00000000000E+00  0.74505805969E-08  0.10566000000E+00  0.10566000000E+00 0. -1.
     999900   -1    0    0    0    0 -0.00000000000E+00 -0.00000000000E+00 -0.74505805969E-08  0.93827000000E+00  0.93827000000E+00 0.  1.
     999902    2    1    2    0    0 -0.31814236130E-02 -0.13186072570E-01  0.18437244172E-01  0.10210405715E+01  0.10207839745E+01 0.  0.
     999903    2    3    3    0    0 -0.29239063987E-02 -0.12724300674E+00 -0.30172052304E-01  0.13234944725E+00  0.20166592557E-01 0.  0.
         14    1    1    2    0    0  0.31814236130E-02  0.13186072570E-01 -0.18437244172E-01  0.22889428536E-01  0.00000000000E+00 0.  1.
     999901    1    3    3    0    0 -0.25751721431E-03  0.11405693417E+00  0.48609296476E-01  0.88869112421E+00  0.88000000000E+00 0. -1.
        -11    1    4    4    0    0  0.33832041707E-02 -0.65240009098E-01 -0.24477795945E-01  0.69764808270E-01  0.51100000000E-03 0.  1.
         11    1    4    4    0    0 -0.63071105694E-02 -0.62002997641E-01 -0.56942563586E-02  0.62584638983E-01  0.51100000000E-03 0. -1.
</event>
<event>
 8    1  0.1117354E+005  0.1043930E+01  0.7957747E-01            NaN
         13   -1    0    0    0    0  0.00000000000E+00  0.00000000000E+00  0.74505805969E-08  0.10566000000E+00  0.10566000000E+00 0.  1.
     999900   -1    0    0    0    0 -0.00000000000E+00 -0.00000000000E+00 -0.74505805969E-08  0.93827000000E+00  0.93827000000E+00 0.  1.
     999902    2    1    2    0    0 -0.19796029296E-02 -0.14206472970E-01 -0.17467530750E-01  0.10213278467E+01  0.10210777214E+01 0.  0.
     999903    2    3    3    0    0  0.87274052325E-01  0.16096985499E-01 -0.96702357686E-01  0.13275445507E+00  0.19912965785E-01 0.  0.
         14    1    1    2    0    0  0.19796029296E-02  0.14206472970E-01  0.17467530750E-01  0.22602153271E-01  0.00000000000E+00 0.  1.
     999901    1    3    3    0    0 -0.89253655255E-01 -0.30303458470E-01  0.79234826936E-01  0.88857339166E+00  0.88000000000E+00 0. -1.
        -11    1    4    4    0    0  0.52952615725E-01  0.59637486224E-04 -0.59580434813E-01  0.79712435681E-01  0.51100000000E-03 0. -1.
         11    1    4    4    0    0  0.34321436601E-01  0.16037348013E-01 -0.37121922873E-01  0.53042019385E-01  0.51100000000E-03 0.  1.
</event>
<event>
 8    1  0.1117354E+005  0.1043930E+01  0.7957747E-01            NaN
         13   -1    0    0    0    0  0.00000000000E+00  0.00000000000E+00  0.74505805969E-08  0.10566000000E+00  0.10566000000E+00 0. -1.
     999900   -1    0    0    0    0 -0.00000000000E+00 -0.00000000000E+00 -0.74505805969E-08  0.93827000000E+00  0.93827000000E+00 0.  1.
     999902    2    1    2    0    0 -0.15019742168E-01 -0.11422593226E-01  0.13502597663E-01  0.10207268012E+01  0.10204630391E+01 0.  0.
     999903    2    3    3    0    0 -0.59386895230E-02  0.12175952407E+00  0.38355165139E-01  0.13031252010E+00  0.25486946975E-01 0.  0.
         14    1    1    2    0    0  0.15019742168E-01  0.11422593226E-01 -0.13502597663E-01  0.23203198798E-01  0.00000000000E+00 0.  1.
     999901    1    3    3    0    0 -0.90810526455E-02 -0.13318211730E+00 -0.24852567477E-01  0.89041428110E+00  0.88000000000E+00 0.  1.
        -11    1    4    4    0    0 -0.89388477205E-02  0.66433509815E-01  0.90850321547E-02  0.67646974472E-01  0.51100000000E-03 0. -1.
         11    1    4    4    0    0  0.30001581975E-02  0.55326014255E-01  0.29270132985E-01  0.62665545625E-01  0.51100000000E-03 0.  1.
</event>
<event>
 8    1  0.1117354E+005  0.1043930E+01  0.7957747E-01            NaN
         13   -1    0    0    0    0  0.00000000000E+00  0.00000000000E+00  0.74505805969E-08  0.10566000000E+00  0.10566000000E+00 0. -1.
     999900   -1    0    0    0    0 -0.00000000000E+00 -0.00000000000E+00 -0.74505805969E-08  0.93827000000E+00  0.93827000000E+00 0. -1.
     999902    2    1    2    0    0 -0.17949345474E-01  0.15948068018E-01 -0.24390595805E-02  0.10197956078E+01  0.10195099866E+01 0.  0.
     999903    2    3    3    0    0 -0.36072237475E-01  0.95373122817E-01  0.81756521235E-01  0.13203118273E+00  0.18731406155E-01 0.  0.
         14    1    1    2    0    0  0.17949345474E-01 -0.15948068018E-01  0.24390595805E-02  0.24134392225E-01  0.00000000000E+00 0. -1.
     999901    1    3    3    0    0  0.18122892002E-01 -0.79425054799E-01 -0.84195580816E-01  0.88776442504E+00  0.88000000000E+00 0.  1.
        -11    1    4    4    0    0 -0.28385313598E-01  0.51371886470E-01  0.51428787221E-01  0.78038311255E-01  0.51100000000E-03 0. -1.
         11    1    4    4    0    0 -0.76869238772E-02  0.44001236347E-01  0.30327734014E-01  0.53992871476E-01  0.51100000000E-03 0.  1.
</event>
<event>
 8    1  0.1117354E+005  0.1043930E+01  0.7957747E-01            NaN
         13   -1    0    0    0    0  0.00000000000E+00  0.00000000000E+00  0.74505805969E-08  0.10566000000E+00  0.10566000000E+00 0.  1.
     999900   -1    0    0    0    0 -0.00000000000E+00 -0.00000000000E+00 -0.74505805969E-08  0.93827000000E+00  0.93827000000E+00 0. -1.
     999902    2    1    2    0    0 -0.18834770987E-01  0.75315710002E-02  0.11909305550E-01  0.10204075699E+01  0.10201364144E+01 0.  0.
     999903    2    3    3    0    0  0.16716274377E-01  0.10705376329E+00 -0.69483471249E-01  0.13035514014E+00  0.20605041124E-01 0.  0.
         14    1    1    2    0    0  0.18834770987E-01 -0.75315710002E-02 -0.11909305550E-01  0.23522430116E-01  0.00000000000E+00 0. -1.
     999901    1    3    3    0    0 -0.35551045364E-01 -0.99522192290E-01  0.81392776800E-01  0.89005242975E+00  0.88000000000E+00 0.  1.
        -11    1    4    4    0    0 -0.44692559044E-02  0.10254361736E-01 -0.67538872203E-02  0.13076784640E-01  0.51100000000E-03 0. -1.
         11    1    4    4    0    0  0.21185530281E-01  0.96799401554E-01 -0.62729584029E-01  0.11727835550E+00  0.51100000000E-03 0.  1.
</event>
<event>
 8    1  0.1117354E+005  0.1043930E+01  0.7957747E-01            NaN
         13   -1    0    0    0    0  0.00000000000E+00  0.00000000000E+00  0.74505805969E-08  0.10566000000E+00  0.10566000000E+00 0.  1.
     999900   -1    0    0    0    0 -0.00000000000E+00 -0.00000000000E+00 -0.74505805969E-08  0.93827000000E+00  0.93827000000E+00 0.  1.
     999902    2    1    2    0    0 -0.19130972037E-01  0.88586201012E-02 -0.11775789732E-01  0.10197817399E+01  0.10194957865E+01 0.  0.
     999903    2    3    3    0    0  0.11822800706E+00 -0.43295745706E-01 -0.23182016373E-02  0.12755026043E+00  0.20280819223E-01 0.  0.
         14    1    1    2    0    0  0.19130972037E-01 -0.88586201012E-02  0.11775789732E-01  0.24148260082E-01  0.00000000000E+00 0.  1.
     999901    1    3    3    0    0 -0.13735897910E+00  0.52154365807E-01 -0.94575880948E-02  0.89223147948E+00  0.88000000000E+00 0.  1.
        -11    1    4    4    0    0  0.81439427985E-01 -0.27359875453E-01  0.75917042394E-02  0.86248700335E-01  0.51100000000E-03 0.  1.
         11    1    4    4    0    0  0.36788579074E-01 -0.15935870253E-01 -0.99099058767E-02  0.41301560098E-01  0.51100000000E-03 0. -1.
</event>
<event>
 8    1  0.1117354E+005  0.1043930E+01  0.7957747E-01            NaN
         13   -1    0    0    0    0  0.00000000000E+00  0.00000000000E+00  0.74505805969E-08  0.10566000000E+00  0.10566000000E+00 0.  1.
     999900   -1    0    0    0    0 -0.00000000000E+00 -0.00000000000E+00 -0.74505805969E-08  0.93827000000E+00  0.93827000000E+00 0.  1.
     999902    2    1    2    0    0  0.20396630940E-01 -0.11455668800E-01  0.46516855610E-02  0.10200785204E+01  0.10197996346E+01 0.  0.
     999903    2    3    3    0    0  0.44827439356E-01  0.82869556468E-01 -0.87086234298E-01  0.12996057401E+00  0.20709318762E-01 0.  0.
         14    1    1    2    0    0 -0.20396630940E-01  0.11455668800E-01 -0.46516855610E-02  0.23851479617E-01  0.00000000000E+00 0.  1.
     999901    1    3    3    0    0 -0.24430808415E-01 -0.94325225268E-01  0.91737919859E-01  0.89011794638E+00  0.88000000000E+00 0. -1.
        -11    1    4    4    0    0  0.34928800699E-01  0.77875366891E-01 -0.76298970814E-01  0.11448313393E+00  0.51100000000E-03 0. -1.
         11    1    4    4    0    0  0.98986386566E-02  0.49941895769E-02 -0.10787263484E-01  0.15477440074E-01  0.51100000000E-03 0.  1.
</event>
<event>
 8    1  0.1117354E+005  0.1043930E+01  0.7957747E-01            NaN
         13   -1    0    0    0    0  0.00000000000E+00  0.00000000000E+00  0.74505805969E-08  0.10566000000E+00  0.10566000000E+00 0.  1.
     999900   -1    0    0    0    0 -0.00000000000E+00 -0.00000000000E+00 -0.74505805969E-08  0.93827000000E+00  0.93827000000E+00 0. -1.
     999902    2    1    2    0    0 -0.13118705306E-01  0.67479305919E-02 -0.19044330562E-01  0.10198401365E+01  0.10195555809E+01 0.  0.
     999903    2    3    3    0    0  0.44368133784E-01 -0.57914414084E-01  0.10317528371E+00  0.12719037900E+00  0.14479043038E-01 0.  0.
         14    1    1    2    0    0  0.13118705306E-01 -0.67479305919E-02  0.19044330562E-01  0.24089863485E-01  0.00000000000E+00 0.  1.
     999901    1    3    3    0    0 -0.57486839090E-01  0.64662344676E-01 -0.12221961427E+00  0.89264975752E+00  0.88000000000E+00 0. -1.
        -11    1    4    4    0    0  0.37166425946E-01 -0.38656823277E-01  0.78473552009E-01  0.95047633791E-01  0.51100000000E-03 0.  1.
         11    1    4    4    0    0  0.72017078379E-02 -0.19257590807E-01  0.24701731697E-01  0.32142745205E-01  0.51100000000E-03 0. -1.
</event>
<event>
 8    1  0.1117354E+005  0.1043930E+01  0.7957747E-01            NaN
         13   -1    0    0    0    0  0.00000000000E+00  0.00000000000E+00  0.74505805969E-08  0.10566000000E+00  0.10566000000E+00 0.  1.
     999900   -1    0    0    0    0 -0.00000000000E+00 -0.00000000000E+00 -0.74505805969E-08  0.93827000000E+00  0.93827000000E+00 0. -1.
     999902    2    1    2    0    0  0.17932106802E-01  0.38544892441E-02 -0.86621990402E-02  0.10236457393E+01  0.10234447461E+01 0.  0.
     999903    2    3    3    0    0 -0.23627233754E-01  0.12104500231E+00 -0.49716241532E-01  0.13395690065E+00  0.16205178190E-01 0.  0.
         14    1    1    2    0    0 -0.17932106802E-01 -0.38544892441E-02  0.86621990402E-02  0.20284260743E-01  0.00000000000E+00 0.  1.
     999901    1    3    3    0    0  0.41559340556E-01 -0.11719051307E+00  0.41054042492E-01  0.88968883861E+00  0.88000000000E+00 0.  1.
        -11    1    4    4    0    0 -0.80711130915E-03  0.36645955707E-01 -0.10492940647E-01  0.38130570711E-01  0.51100000000E-03 0. -1.
         11    1    4    4    0    0 -0.22820122445E-01  0.84399046602E-01 -0.39223300885E-01  0.95826329937E-01  0.51100000000E-03 0.  1.
</event>
<event>
 7    1  0.1117354E+005  0.1043930E+01  0.7957747E-01            NaN
         13   -1    0    0    0    0  0.00000000000E+00  0.00000000000E+00  0.74505805969E-08  0.10566000000E+00  0.10566000000E+00 0. -1.
     999900   -1    0    0    0    0 -0.00000000000E+00 -0.00000000000E+00 -0.74505805969E-08  0.93827000000E+00  0.93827000000E+00 0. -1.
     999902    2    1    2    0    0  0.32064565484E-02  0.22122594691E-01 -0.92823045730E-02  0.10197256257E+01  0.10194383257E+01 0.  0.
         14    1    1    2    0    0 -0.32064565484E-02 -0.22122594691E-01  0.92823045730E-02  0.24204374349E-01  0.00000000000E+00 0. -1.
     999901    1    3    3    0    0 -0.30380611712E-01 -0.94393774556E-01  0.90861545306E-03  0.88556986840E+00  0.88000000000E+00 0.  1.
        -11    1    3    3    0    0  0.28118333717E-01  0.86835608741E-01  0.17793847501E-01  0.92994331904E-01  0.51100000000E-03 0. -1.
         11    1    3    3    0    0  0.54687345429E-02  0.29680760506E-01 -0.27984767527E-01  0.41161425343E-01  0.51100000000E-03 0.  1.
</event>
<event>
 8    1  0.1117354E+005  0.1043930E+01  0.7957747E-01            NaN
         13   -1    0    0    0    0  0.00000000000E+00  0.00000000000E+00  0.74505805969E-08  0.10566000000E+00  0.10566000000E+00 0.  1.
     999900   -1    0    0    0    0 -0.00000000000E+00 -0.00000000000E+00 -0.74505805969E-08  0.93827000000E+00  0.93827000000E+00 0. -1.
     999902    2    1    2    0    0  0.13220992285E-01  0.24910580161E-02  0.18630438572E-01  0.10209497204E+01  0.10206910592E+01 0.  0.
     999903    2    3    3    0    0 -0.68162922921E-01  0.89465102338E-01  0.65492030091E-01  0.13168944651E+00  0.20067778138E-01 0.  0.
         14    1    1    2    0    0 -0.13220992285E-01 -0.24910580161E-02 -0.18630438572E-01  0.22980279554E-01  0.00000000000E+00 0. -1.
     999901    1    3    3    0    0  0.81383915205E-01 -0.86974044322E-01 -0.46861591519E-01  0.88926027394E+00  0.88000000000E+00 0. -1.
        -11    1    4    4    0    0 -0.18379802700E-01  0.21982799181E-01  0.27160317056E-01  0.39484231672E-01  0.51100000000E-03 0. -1.
         11    1    4    4    0    0 -0.49783120221E-01  0.67482303156E-01  0.38331713034E-01  0.92205214838E-01  0.51100000000E-03 0.  1.
</event>
<event>
 8    1  0.1117354E+005  0.1043930E+01  0.7957747E-01            NaN
         13   -1    0    0    0    0  0.00000000000E+00  0.00000000000E+00  0.74505805969E-08  0.10566000000E+00  0.10566000000E+00 0. -1.
     999900   -1    0    0    0    0 -0.00000000000E+00 -0.00000000000E+00 -0.74505805969E-08  0.93827000000E+00  0.93827000000E+00 0. -1.
     999902    2    1    2    0    0  0.11186566777E-01 -0.11182296074E-01  0.20409766636E-01  0.10181086601E+01  0.10177811661E+01 0.  0.
     999903    2    3    3    0    0 -0.11099810208E+00  0.41736088023E-01 -0.38011122593E-01  0.12617679665E+00  0.20328769329E-01 0.  0.
         14    1    1    2    0    0 -0.11186566777E-01  0.11182296074E-01 -0.20409766636E-01  0.25821339932E-01  0.00000000000E+00 0.  1.
     999901    1    3    3    0    0  0.12218466886E+00 -0.52918384097E-01  0.58420889230E-01  0.89193186342E+00  0.88000000000E+00 0.  1.
        -11    1    4    4    0    0 -0.98911790190E-01  0.43173764378E-01 -0.31857450115E-01  0.11252854935E+00  0.51100000000E-03 0. -1.
         11    1    4    4    0    0 -0.12086311895E-01 -0.14376763551E-02 -0.61536724779E-02  0.13648247305E-01  0.51100000000E-03 0.  1.
</event>
<event>
 8    1  0.1117354E+005  0.1043930E+01  0.7957747E-01            NaN
         13   -1    0    0    0    0  0.00000000000E+00  0.00000000000E+00  0.74505805969E-08  0.10566000000E+00  0.10566000000E+00 0. -1.
     999900   -1    0    0    0    0 -0.00000000000E+00 -0.00000000000E+00 -0.74505805969E-08  0.93827000000E+00  0.93827000000E+00 0. -1.
     999902    2    1    2    0    0  0.16963676430E-01  0.14695500455E-01  0.25928621827E-02  0.10213369262E+01  0.10210870040E+01 0.  0.
     999903    2    3    3    0    0  0.38774706035E-01 -0.77552930261E-01 -0.95471962629E-01  0.13083021430E+00  0.21993510540E-01 0.  0.
         14    1    1    2    0    0 -0.16963676430E-01 -0.14695500455E-01 -0.25928621827E-02  0.22593073849E-01  0.00000000000E+00 0.  1.
     999901    1    3    3    0    0 -0.21811029605E-01  0.92248430717E-01  0.98064824811E-01  0.89050671185E+00  0.88000000000E+00 0.  1.
        -11    1    4    4    0    0  0.27118998436E-01 -0.49032098536E-01 -0.75832356646E-01  0.94288886930E-01  0.51100000000E-03 0. -1.
         11    1    4    4    0    0  0.11655707600E-01 -0.28520831725E-01 -0.19639605982E-01  0.36541327372E-01  0.51100000000E-03 0.  1.
</event>
<event>
 7    1  0.1117354E+005  0.1043930E+01  0.7957747E-01            NaN
         13   -1    0    0    0    0  0.00000000000E+00  0.00000000000E+00  0.74505805969E-08  0.10566000000E+00  0.10566000000E+00 0.  1.
     999900   -1    0    0    0    0 -0.00000000000E+00 -0.00000000000E+00 -0.74505805969E-08  0.93827000000E+00  0.93827000000E+00 0.  1.
     999903    2    1    2    0    0 -0.30542127497E-01 -0.75546154256E-01 -0.73060356984E-01  0.11137993972E+00  0.20679270661E-01 0.  0.
         14    1    1    2    0    0  0.43891512904E-01 -0.64303445419E-02  0.14629179509E-01  0.46710032424E-01  0.00000000000E+00 0.  1.
     999901    1    1    2    0    0 -0.13349385407E-01  0.81976498798E-01  0.58431177475E-01  0.88584002785E+00  0.88000000000E+00 0.  1.
        -11    1    3    3    0    0 -0.16260235628E-01 -0.62930366459E-01 -0.57111736594E-01  0.86525359653E-01  0.51100000000E-03 0.  1.
         11    1    3    3    0    0 -0.14281891869E-01 -0.12615787798E-01 -0.15948620390E-01  0.24854580070E-01  0.51100000000E-03 0. -1.
</event>
<event>
 8    1  0.1117354E+005  0.1043930E+01  0.7957747E-01            NaN
         13   -1    0    0    0    0  0.00000000000E+00  0.00000000000E+00  0.74505805969E-08  0.10566000000E+00  0.10566000000E+00 0. -1.
     999900   -1    0    0    0    0 -0.00000000000E+00 -0.00000000000E+00 -0.74505805969E-08  0.93827000000E+00  0.93827000000E+00 0.  1.
     999902    2    1    2    0    0  0.67046129315E-02 -0.83070781880E-02  0.20489075010E-01  0.10208267193E+01  0.10205652499E+01 0.  0.
     999903    2    3    3    0    0  0.22298330944E-01  0.98861791736E-01  0.82141629118E-01  0.13204701201E+00  0.20452303525E-01 0.  0.
         14    1    1    2    0    0 -0.67046129315E-02  0.83070781880E-02 -0.20489075010E-01  0.23103280662E-01  0.00000000000E+00 0.  1.
     999901    1    3    3    0    0 -0.15593718012E-01 -0.10716886992E+00 -0.61652554108E-01  0.88877970732E+00  0.88000000000E+00 0.  1.
        -11    1    4    4    0    0  0.17407604244E-01  0.66616534870E-01  0.43352796413E-01  0.81366537848E-01  0.51100000000E-03 0. -1.
         11    1    4    4    0    0  0.48907267000E-02  0.32245256866E-01  0.38788832706E-01  0.50680474166E-01  0.51100000000E-03 0.  1.
</event>
<event>
 8    1  0.1117354E+005  0.1043930E+01  0.7957747E-01            NaN
         13   -1    0    0    0    0  0.00000000000E+00  0.00000000000E+00  0.74505805969E-08  0.10566000000E+00  0.10566000000E+00 0. -1.
     999900   -1    0    0    0    0 -0.00000000000E+00 -0.00000000000E+00 -0.74505805969E-08  0.93827000000E+00  0.93827000000E+00 0.  1.
     999902    2    1    2    0    0 -0.63152687504E-02  0.11529150443E-01  0.12544171042E-01  0.10257596902E+01  0.10255987432E+01 0.  0.
     999903    2    3    3    0    0  0.71925570000E-01  0.10453096093E+00  0.48212506459E-01  0.13669096638E+00  0.16123433232E-01 0.  0.
         14    1    1    2    0    0  0.63152687504E-02 -0.11529150443E-01 -0.12544171042E-01  0.18170309751E-01  0.00000000000E+00 0.  1.
     999901    1    3    3    0    0 -0.78240838751E-01 -0.93001810487E-01 -0.35668335417E-01  0.88906872386E+00  0.88000000000E+00 0.  1.
        -11    1    4    4    0    0  0.95799251750E-02  0.68400500105E-02  0.21268435417E-02  0.11972712097E-01  0.51100000000E-03 0.  1.
         11    1    4    4    0    0  0.62345644825E-01  0.97690910920E-01  0.46085662917E-01  0.12471825429E+00  0.51100000000E-03 0. -1.
</event>
<event>
 8    1  0.1117354E+005  0.1043930E+01  0.7957747E-01            NaN
         13   -1    0    0    0    0  0.00000000000E+00  0.00000000000E+00  0.74505805969E-08  0.10566000000E+00  0.10566000000E+00 0.  1.
     999900   -1    0    0    0    0 -0.00000000000E+00 -0.00000000000E+00 -0.74505805969E-08  0.93827000000E+00  0.93827000000E+00 0. -1.
     999902    2    1    2    0    0 -0.13580449320E-01 -0.18369506709E-01 -0.38090933538E-02  0.10207701949E+01  0.10205074298E+01 0.  0.
     999903    2    3    3    0    0 -0.66587089304E-01 -0.10528900620E+00  0.43963391470E-01  0.13361354943E+00  0.20004637331E-01 0.  0.
         14    1    1    2    0    0  0.13580449320E-01  0.18369506709E-01  0.38090933538E-02  0.23159805108E-01  0.00000000000E+00 0. -1.
     999901    1    3    3    0    0  0.53006639984E-01  0.86919499488E-01 -0.47772484824E-01  0.88715664546E+00  0.88000000000E+00 0. -1.
        -11    1    4    4    0    0 -0.55244283423E-02 -0.17180590132E-02  0.33615029056E-02  0.67105780724E-02  0.51100000000E-03 0.  1.
         11    1    4    4    0    0 -0.61062660962E-01 -0.10357094718E+00  0.40601888564E-01  0.12690297136E+00  0.51100000000E-03 0. -1.
</event>
<event>
 8    1  0.1117354E+005  0.1043930E+01  0.7957747E-01            NaN
         13   -1    0    0    0    0  0.00000000000E+00  0.00000000000E+00  0.74505805969E-08  0.10566000000E+00  0.10566000000E+00 0.  1.
     999900   -1    0    0    0    0 -0.00000000000E+00 -0.00000000000E+00 -0.74505805969E-08  0.93827000000E+00  0.93827000000E+00 0. -1.
     999902    2    1    2    0    0 -0.17776919189E-01 -0.63146520331E-02  0.10237555756E-01  0.10224660480E+01  0.10222407339E+01 0.  0.
     999903    2    3    3    0    0 -0.19568446324E-01  0.34804470097E-01 -0.12352515536E+00  0.13140687230E+00  0.20372207831E-01 0.  0.
         14    1    1    2    0    0  0.17776919189E-01  0.63146520331E-02 -0.10237555756E-01  0.21463951967E-01  0.00000000000E+00 0. -1.
     999901    1    3    3    0    0  0.17915271341E-02 -0.41119122130E-01  0.13376271111E+00  0.89105917573E+00  0.88000000000E+00 0.  1.
        -11    1    4    4    0    0 -0.40887000136E-03  0.34019034058E-02 -0.39860743220E-01  0.40010999644E-01  0.51100000000E-03 0.  1.
         11    1    4    4    0    0 -0.19159576322E-01  0.31402566691E-01 -0.83664412136E-01  0.91395872656E-01  0.51100000000E-03 0. -1.
</event>
<event>
 8    1  0.1117354E+005  0.1043930E+01  0.7957747E-01            NaN
         13   -1    0    0    0    0  0.00000000000E+00  0.00000000000E+00  0.74505805969E-08  0.10566000000E+00  0.10566000000E+00 0.  1.
     999900   -1    0    0    0    0 -0.00000000000E+00 -0.00000000000E+00 -0.74505805969E-08  0.93827000000E+00  0.93827000000E+00 0.  1.
     999902    2    1    2    0    0  0.91493902480E-02  0.18568732377E-01  0.91999035482E-02  0.10212772432E+01  0.10210259841E+01 0.  0.
     999903    2    3    3    0    0 -0.57483956050E-02  0.12125198399E-01 -0.12823415975E+00  0.13046211936E+00  0.19907294505E-01 0.  0.
         14    1    1    2    0    0 -0.91493902480E-02 -0.18568732377E-01 -0.91999035482E-02  0.22652756770E-01  0.00000000000E+00 0. -1.
     999901    1    3    3    0    0  0.14897785853E-01  0.64435339779E-02  0.13743406330E+00  0.89081512387E+00  0.88000000000E+00 0. -1.
        -11    1    4    4    0    0 -0.68764478116E-02  0.15529502924E-01 -0.67003335523E-01  0.69124229383E-01  0.51100000000E-03 0.  1.
         11    1    4    4    0    0  0.11280522065E-02 -0.34043045258E-02 -0.61230824225E-01  0.61337889981E-01  0.51100000000E-03 0. -1.
</event>
<event>
 8    1  0.1117354E+005  0.1043930E+01  0.7957747E-01            NaN
         13   -1    0    0    0    0  0.00000000000E+00  0.00000000000E+00  0.74505805969E-08  0.10566000000E+00  0.10566000000E+00 0.  1.
     999900   -1    0    0    0    0 -0.00000000000E+00 -0.00000000000E+00 -0.74505805969E-08  0.93827000000E+00  0.93827000000E+00 0.  1.
     999902    2    1    2    0    0  0.95029797362E-02  0.19075243017E-02 -0.23197514910E-01  0.10187889982E+01  0.10184787445E+01 0.  0.
     999903    2    3    3    0    0 -0.12629306855E+00  0.62784948166E-02 -0.36164857499E-02  0.12814704500E+00  0.20475046078E-01 0.  0.
         14    1    1    2    0    0 -0.95029797362E-02 -0.19075243017E-02  0.23197514910E-01  0.25141001787E-01  0.00000000000E+00 0.  1.
     999901    1    3    3    0    0  0.13579604829E+00 -0.43709705149E-02 -0.19581029160E-01  0.89064195321E+00  0.88000000000E+00 0. -1.
        -11    1    4    4    0    0 -0.92990603246E-01 -0.26801761428E-02  0.27638631588E-02  0.93071669679E-01  0.51100000000E-03 0. -1.
         11    1    4    4    0    0 -0.33302465308E-01  0.89586709595E-02 -0.63803489087E-02  0.35075375324E-01  0.51100000000E-03 0.  1.
</event>
<event>
 8    1  0.1117354E+005  0.1043930E+01  0.7957747E-01            NaN
         13   -1    0    0    0    0  0.00000000000E+00  0.00000000000E+00  0.74505805969E-08  0.10566000000E+00  0.10566000000E+00 0. -1.
     999900   -1    0    0    0    0 -0.00000000000E+00 -0.00000000000E+00 -0.74505805969E-08  0.93827000000E+00  0.93827000000E+00 0. -1.
     999902    2    1    2    0    0  0.30944181670E-02 -0.14165892043E-01  0.19401951020E-01  0.10197084471E+01  0.10194207343E+01 0.  0.
     999903    2    3    3    0    0  0.11919967616E+00  0.24581424116E-01 -0.38878429027E-01  0.12932741174E+00  0.20030925503E-01 0.  0.
         14    1    1    2    0    0 -0.30944181670E-02  0.14165892043E-01 -0.19401951020E-01  0.24221552893E-01  0.00000000000E+00 0.  1.
     999901    1    3    3    0    0 -0.11610525799E+00 -0.38747316159E-01  0.58280380047E-01  0.89038103537E+00  0.88000000000E+00 0. -1.
        -11    1    4    4    0    0  0.51430514350E-01  0.17848706111E-01 -0.99991649002E-02  0.55352674153E-01  0.51100000000E-03 0.  1.
         11    1    4    4    0    0  0.67769161806E-01  0.67327180050E-02 -0.28879264127E-01  0.73974737587E-01  0.51100000000E-03 0. -1.
</event>
<event>
 8    1  0.1117354E+005  0.1043930E+01  0.7957747E-01            NaN
         13   -1    0    0    0    0  0.00000000000E+00  0.00000000000E+00  0.74505805969E-08  0.10566000000E+00  0.10566000000E+00 0.  1.
     999900   -1    0    0    0    0 -0.00000000000E+00 -0.00000000000E+00 -0.74505805969E-08  0.93827000000E+00  0.93827000000E+00 0. -1.
     999902    2    1    2    0    0  0.25202398620E-02  0.19709769003E-01 -0.12439788077E-01  0.10204869855E+01  0.10202176790E+01 0.  0.
     999903    2    3    3    0    0  0.39033552618E-01 -0.65062896087E-01 -0.10470151669E+00  0.13086242796E+00  0.20143703117E-01 0.  0.
         14    1    1    2    0    0 -0.25202398620E-02 -0.19709769003E-01  0.12439788077E-01  0.23443014535E-01  0.00000000000E+00 0.  1.
     999901    1    3    3    0    0 -0.36513312756E-01  0.84772665090E-01  0.92261728617E-01  0.88962455751E+00  0.88000000000E+00 0.  1.
        -11    1    4    4    0    0  0.93633968352E-02 -0.21199496530E-01 -0.18348839411E-01  0.29564047121E-01  0.51100000000E-03 0.  1.
         11    1    4    4    0    0  0.29670155783E-01 -0.43863399556E-01 -0.86352677283E-01  0.10129838084E+00  0.51100000000E-03 0. -1.
</event>
<event>
 8    1  0.1117354E+005  0.1043930E+01  0.7957747E-01            NaN
         13   -1    0    0    0    0  0.00000000000E+00  0.00000000000E+00  0.74505805969E-08  0.10566000000E+00  0.10566000000E+00 0. -1.
     999900   -1    0    0    0    0 -0.00000000000E+00 -0.00000000000E+00 -0.74505805969E-08  0.93827000000E+00  0.93827000000E+00 0.  1.
     999902    2    1    2    0    0  0.65398369322E-03  0.94046616941E-03 -0.23674236258E-01  0.10202280669E+01  0.10199527081E+01 0.  0.
     999903    2    3    3    0    0  0.10478250234E+00  0.43635044727E-01 -0.64482861132E-01  0.13212282576E+00  0.20371838000E-01 0.  0.
         14    1    1    2    0    0 -0.65398369322E-03 -0.94046616941E-03  0.23674236258E-01  0.23701933121E-01  0.00000000000E+00 0. -1.
     999901    1    3    3    0    0 -0.10412851864E+00 -0.42694578557E-01  0.40808624874E-01  0.88810524112E+00  0.88000000000E+00 0.  1.
        -11    1    4    4    0    0  0.17684489169E-01  0.11065525927E-01 -0.20513344483E-01  0.29261671930E-01  0.51100000000E-03 0. -1.
         11    1    4    4    0    0  0.87098013168E-01  0.32569518800E-01 -0.43969516648E-01  0.10286115383E+00  0.51100000000E-03 0.  1.
</event>
<event>
 8    1  0.1117354E+005  0.1043930E+01  0.7957747E-01            NaN
         13   -1    0    0    0    0  0.00000000000E+00  0.00000000000E+00  0.74505805969E-08  0.10566000000E+00  0.10566000000E+00 0. -1.
     999900   -1    0    0    0    0 -0.00000000000E+00 -0.00000000000E+00 -0.74505805969E-08  0.93827000000E+00  0.93827000000E+00 0.  1.
     999902    2    1    2    0    0 -0.13500275549E-01  0.43442975750E-02  0.19425758535E-01  0.10198781715E+01  0.10195945244E+01 0.  0.
     999903    2    3    3    0    0  0.57251577959E-01  0.51546772523E-01  0.10479444377E+00  0.13166552191E+00  0.20472451671E-01 0.  0.
         14    1    1    2    0    0  0.13500275549E-01 -0.43442975750E-02 -0.19425758535E-01  0.24051828537E-01  0.00000000000E+00 0. -1.
     999901    1    3    3    0    0 -0.70751853508E-01 -0.47202474948E-01 -0.85368685234E-01  0.88821264956E+00  0.88000000000E+00 0.  1.
        -11    1    4    4    0    0  0.83630433266E-02  0.14210978907E-01  0.34587358864E-01  0.38320215674E-01  0.51100000000E-03 0.  1.
         11    1    4    4    0    0  0.48888534632E-01  0.37335793616E-01  0.70207084905E-01  0.93345306231E-01  0.51100000000E-03 0. -1.
</event>
<event>
 8    1  0.1117354E+005  0.1043930E+01  0.7957747E-01            NaN
         13   -1    0    0    0    0  0.00000000000E+00  0.00000000000E+00  0.74505805969E-08  0.10566000000E+00  0.10566000000E+00 0.  1.
     999900   -1    0    0    0    0 -0.00000000000E+00 -0.00000000000E+00 -0.74505805969E-08  0.93827000000E+00  0.93827000000E+00 0.  1.
     999902    2    1    2    0    0 -0.31897915030E-02 -0.25245507043E-02  0.22486617112E-01  0.10210783901E+01  0.10208226499E+01 0.  0.
     999903    2    3    3    0    0 -0.52050734448E-01  0.10461366115E+00  0.59022167175E-01  0.13248352481E+00  0.20370838798E-01 0.  0.
         14    1    1    2    0    0  0.31897915030E-02  0.25245507043E-02 -0.22486617112E-01  0.22851609905E-01  0.00000000000E+00 0. -1.
     999901    1    3    3    0    0  0.48860942945E-01 -0.10713821186E+00 -0.36535550063E-01  0.88859486528E+00  0.88000000000E+00 0. -1.
        -11    1    4    4    0    0 -0.21114956445E-01  0.60827976993E-01  0.25523821753E-01  0.69264787364E-01  0.51100000000E-03 0. -1.
         11    1    4    4    0    0 -0.30935778003E-01  0.43785684158E-01  0.33498345422E-01  0.63218737451E-01  0.51100000000E-03 0.  1.
</event>
<event>
 8    1  0.1117354E+005  0.1043930E+01  0.7957747E-01            NaN
         13   -1    0    0    0    0  0.00000000000E+00  0.00000000000E+00  0.74505805969E-08  0.10566000000E+00  0.10566000000E+00 0. -1.
     999900   -1    0    0    0    0 -0.00000000000E+00 -0.00000000000E+00 -0.74505805969E-08  0.93827000000E+00  0.93827000000E+00 0.  1.
     999902    2    1    2    0    0 -0.15881857788E-01 -0.12790901616E-02  0.19715018525E-01  0.10185814017E+01  0.10182659380E+01 0.  0.
     999903    2    3    3    0    0 -0.76838243780E-02  0.11483120312E+00 -0.52198117215E-01  0.12800838000E+00  0.20402341584E-01 0.  0.
         14    1    1    2    0    0  0.15881857788E-01  0.12790901616E-02 -0.19715018525E-01  0.25348598263E-01  0.00000000000E+00 0.  1.
     999901    1    3    3    0    0 -0.81980334101E-02 -0.11611029328E+00  0.71913135740E-01  0.89057302174E+00  0.88000000000E+00 0. -1.
        -11    1    4    4    0    0 -0.64772893669E-02  0.92134667076E-01 -0.32460343595E-01  0.97901415629E-01  0.51100000000E-03 0. -1.
         11    1    4    4    0    0 -0.12065350112E-02  0.22696536043E-01 -0.19737773620E-01  0.30106964370E-01  0.51100000000E-03 0.  1.
</event>
<event>
 8    1  0.1117354E+005  0.1043930E+01  0.7957747E-01            NaN
         13   -1    0    0    0    0  0.00000000000E+00  0.00000000000E+00  0.74505805969E-08  0.10566000000E+00  0.10566000000E+00 0.  1.
     999900   -1    0    0    0    0 -0.00000000000E+00 -0.00000000000E+00 -0.74505805969E-08  0.93827000000E+00  0.93827000000E+00 0.  1.
     999902    2    1    2    0    0 -0.16640234637E-01 -0.14865333202E-01  0.10589255594E-01  0.10192316625E+01  0.10189323697E+01 0.  0.
     999903    2    3    3    0    0  0.17941121643E-01  0.16049392342E-01  0.12660349545E+00  0.13040609229E+00  0.19945851809E-01 0.  0.
         14    1    1    2    0    0  0.16640234637E-01  0.14865333202E-01 -0.10589255594E-01  0.24698337475E-01  0.00000000000E+00 0. -1.
     999901    1    3    3    0    0 -0.34581356280E-01 -0.30914725544E-01 -0.11601423986E+00  0.88882557024E+00  0.88000000000E+00 0.  1.
        -11    1    4    4    0    0  0.93630821154E-02  0.93959012855E-02  0.25764272313E-01  0.28982910766E-01  0.51100000000E-03 0. -1.
         11    1    4    4    0    0  0.85780395277E-02  0.66534910564E-02  0.10083922314E+00  0.10142318152E+00  0.51100000000E-03 0.  1.
</event>
<event>
 8    1  0.1117354E+005  0.1043930E+01  0.7957747E-01            NaN
         13   -1    0    0    0    0  0.00000000000E+00  0.00000000000E+00  0.74505805969E-08  0.10566000000E+00  0.10566000000E+00 0. -1.
     999900   -1    0    0    0    0 -0.00000000000E+00 -0.00000000000E+00 -0.74505805969E-08  0.93827000000E+00  0.93827000000E+00 0.  1.
     999902    2    1    2    0    0 -0.22545598363E-01 -0.26214628439E-02 -0.43586453496E-02  0.10208177984E+01  0.10205561247E+01 0.  0.
     999903    2    3    3    0    0  0.54040777836E-01 -0.34085740349E-01  0.11071267990E+00  0.12947225168E+00  0.20579676885E-01 0.  0.
         14    1    1    2    0    0  0.22545598363E-01  0.26214628439E-02  0.43586453496E-02  0.23112201588E-01  0.00000000000E+00 0. -1.
     999901    1    3    3    0    0 -0.76586376199E-01  0.31464277505E-01 -0.11507132525E+00  0.89134554673E+00  0.88000000000E+00 0.  1.
        -11    1    4    4    0    0  0.27089662471E-01 -0.18190806937E-01  0.36672987583E-01  0.49090980934E-01  0.51100000000E-03 0. -1.
         11    1    4    4    0    0  0.26951115364E-01 -0.15894933411E-01  0.74039692319E-01  0.80381270749E-01  0.51100000000E-03 0.  1.
</event>
<event>
 8    1  0.1117354E+005  0.1043930E+01  0.7957747E-01            NaN
         13   -1    0    0    0    0  0.00000000000E+00  0.00000000000E+00  0.74505805969E-08  0.10566000000E+00  0.10566000000E+00 0. -1.
     999900   -1    0    0    0    0 -0.00000000000E+00 -0.00000000000E+00 -0.74505805969E-08  0.93827000000E+00  0.93827000000E+00 0.  1.
     999902    2    1    2    0    0 -0.21965061924E-01  0.10845732483E-01 -0.40247072875E-02  0.10191047683E+01  0.10188023541E+01 0.  0.
     999903    2    3    3    0    0 -0.12905744054E+00  0.14989408935E-01 -0.16894767966E-01  0.13250926526E+00  0.19818346466E-01 0.  0.
         14    1    1    2    0    0  0.21965061924E-01 -0.10845732483E-01  0.40247072875E-02  0.24825231664E-01  0.00000000000E+00 0.  1.
     999901    1    3    3    0    0  0.10709237861E+00 -0.41436764521E-02  0.12870060678E-01  0.88659550308E+00  0.88000000000E+00 0.  1.
        -11    1    4    4    0    0 -0.17041761605E-01  0.90516294318E-03  0.43733767696E-02  0.17624656136E-01  0.51100000000E-03 0. -1.
         11    1    4    4    0    0 -0.11201567893E+00  0.14084245992E-01 -0.21268144735E-01  0.11488460912E+00  0.51100000000E-03 0.  1.
</event>
<event>
 7    1  0.1117354E+005  0.1043930E+01  0.7957747E-01            NaN
         13   -1    0    0    0    0  0.00000000000E+00  0.00000000000E+00  0.74505805969E-08  0.10566000000E+00  0.10566000000E+00 0.  1.
     999900   -1    0    0    0    0 -0.00000000000E+00 -0.00000000000E+00 -0.74505805969E-08  0.93827000000E+00  0.93827000000E+00 0. -1.
     999903    2    1    2    0    0 -0.81121415076E-01 -0.34112698596E-01 -0.49921241039E-01  0.10305172222E+00  0.19574650876E-01 0.  0.
         14    1    1    2    0    0  0.32398004389E-01 -0.38579640557E-01  0.24869885965E-01  0.56183009726E-01  0.00000000000E+00 0.  1.
     999901    1    1    2    0    0  0.48723410687E-01  0.72692339153E-01  0.25051355074E-01  0.88469526805E+00  0.88000000000E+00 0.  1.
        -11    1    3    3    0    0 -0.27140201493E-01 -0.17608152635E-02 -0.14198989935E-01  0.30684905795E-01  0.51100000000E-03 0.  1.
         11    1    3    3    0    0 -0.53981213583E-01 -0.32351883332E-01 -0.35722251104E-01  0.72366816428E-01  0.51100000000E-03 0. -1.
</event>
<event>
 8    1  0.1117354E+005  0.1043930E+01  0.7957747E-01            NaN
         13   -1    0    0    0    0  0.00000000000E+00  0.00000000000E+00  0.74505805969E-08  0.10566000000E+00  0.10566000000E+00 0.  1.
     999900   -1    0    0    0    0 -0.00000000000E+00 -0.00000000000E+00 -0.74505805969E-08  0.93827000000E+00  0.93827000000E+00 0. -1.
     999902    2    1    2    0    0  0.15713480019E-01 -0.68599119265E-02 -0.16987043452E-01  0.10197943108E+01  0.10195086586E+01 0.  0.
     999903    2    3    3    0    0  0.83601369750E-01  0.95110163603E-01 -0.23694201649E-01  0.13128339484E+00  0.25274143407E-01 0.  0.
         14    1    1    2    0    0 -0.15713480019E-01  0.68599119265E-02  0.16987043452E-01  0.24135689160E-01  0.00000000000E+00 0.  1.
     999901    1    3    3    0    0 -0.67887889731E-01 -0.10197007553E+00  0.67071581969E-02  0.88851091600E+00  0.88000000000E+00 0.  1.
        -11    1    4    4    0    0  0.26516815236E-01  0.32146096880E-01  0.40700823346E-02  0.41872899662E-01  0.51100000000E-03 0. -1.
         11    1    4    4    0    0  0.57084554514E-01  0.62964066723E-01 -0.27764283984E-01  0.89410495181E-01  0.51100000000E-03 0.  1.
</event>
<event>
 8    1  0.1117354E+005  0.1043930E+01  0.7957747E-01            NaN
         13   -1    0    0    0    0  0.00000000000E+00  0.00000000000E+00  0.74505805969E-08  0.10566000000E+00  0.10566000000E+00 0. -1.
     999900   -1    0    0    0    0 -0.00000000000E+00 -0.00000000000E+00 -0.74505805969E-08  0.93827000000E+00  0.93827000000E+00 0. -1.
     999902    2    1    2    0    0  0.20856541209E-01 -0.95504051147E-02  0.62399446504E-02  0.10201572749E+01  0.10198802494E+01 0.  0.
     999903    2    3    3    0    0  0.37233705411E-01 -0.87307095643E-01  0.90289890418E-01  0.13258828727E+00  0.20457561977E-01 0.  0.
         14    1    1    2    0    0 -0.20856541209E-01  0.95504051147E-02 -0.62399446504E-02  0.23772725092E-01  0.00000000000E+00 0. -1.
     999901    1    3    3    0    0 -0.16377164202E-01  0.77756690528E-01 -0.84049945767E-01  0.88756898764E+00  0.88000000000E+00 0.  1.
        -11    1    4    4    0    0  0.15973685543E-01 -0.42626275074E-01  0.29682496498E-01  0.54345834025E-01  0.51100000000E-03 0. -1.
         11    1    4    4    0    0  0.21260019868E-01 -0.44680820568E-01  0.60607393919E-01  0.78242453247E-01  0.51100000000E-03 0.  1.
</event>
<event>
 8    1  0.1117354E+005  0.1043930E+01  0.7957747E-01            NaN
         13   -1    0    0    0    0  0.00000000000E+00  0.00000000000E+00  0.74505805969E-08  0.10566000000E+00  0.10566000000E+00 0. -1.
     999900   -1    0    0    0    0 -0.00000000000E+00 -0.00000000000E+00 -0.74505805969E-08  0.93827000000E+00  0.93827000000E+00 0. -1.
     999902    2    1    2    0    0  0.10643130317E-01  0.18580817397E-01  0.93871866644E-02  0.10205496178E+01  0.10202817651E+01 0.  0.
     999903    2    3    3    0    0  0.21459100515E-01 -0.22925246668E-01 -0.12409381021E+00  0.12945090549E+00  0.19292570351E-01 0.  0.
         14    1    1    2    0    0 -0.10643130317E-01 -0.18580817397E-01 -0.93871866644E-02  0.23380382194E-01  0.00000000000E+00 0. -1.
     999901    1    3    3    0    0 -0.10815970198E-01  0.41506064065E-01  0.13348099687E+00  0.89109871232E+00  0.88000000000E+00 0.  1.
        -11    1    4    4    0    0  0.21839974763E-01 -0.10299190458E-01 -0.84914224394E-01  0.88282186466E-01  0.51100000000E-03 0.  1.
         11    1    4    4    0    0 -0.38087424798E-03 -0.12626056210E-01 -0.39179585812E-01  0.41168719024E-01  0.51100000000E-03 0. -1.
</event>
<event>
 8    1  0.1117354E+005  0.1043930E+01  0.7957747E-01            NaN
         13   -1    0    0    0    0  0.00000000000E+00  0.00000000000E+00  0.74505805969E-08  0.10566000000E+00  0.10566000000E+00 0.  1.
     999900   -1    0    0    0    0 -0.00000000000E+00 -0.00000000000E+00 -0.74505805969E-08  0.93827000000E+00  0.93827000000E+00 0.  1.
     999902    2    1    2    0    0  0.91356603053E-02 -0.13460504859E-01 -0.18086673879E-01  0.10196036100E+01  0.10193133709E+01 0.  0.
     999903    2    3    3    0    0  0.17801216488E-01  0.57823348313E-01  0.11033616824E+00  0.12738788158E+00  0.19828752718E-01 0.  0.
         14    1    1    2    0    0 -0.91356603053E-02  0.13460504859E-01  0.18086673879E-01  0.24326390038E-01  0.00000000000E+00 0.  1.
     999901    1    3    3    0    0 -0.86655561831E-02 -0.71283853172E-01 -0.12842284212E+00  0.89221572838E+00  0.88000000000E+00 0.  1.
        -11    1    4    4    0    0 -0.13836395244E-02  0.19135574865E-01  0.22985881397E-01  0.29944891857E-01  0.51100000000E-03 0. -1.
         11    1    4    4    0    0  0.19184856013E-01  0.38687773448E-01  0.87350286841E-01  0.97442989727E-01  0.51100000000E-03 0.  1.
</event>
<event>
 8    1  0.1117354E+005  0.1043930E+01  0.7957747E-01            NaN
         13   -1    0    0    0    0  0.00000000000E+00  0.00000000000E+00  0.74505805969E-08  0.10566000000E+00  0.10566000000E+00 0. -1.
     999900   -1    0    0    0    0 -0.00000000000E+00 -0.00000000000E+00 -0.74505805969E-08  0.93827000000E+00  0.93827000000E+00 0. -1.
     999902    2    1    2    0    0  0.19972443286E-01 -0.38038342398E-02 -0.12385297548E-01  0.10201232102E+01  0.10198453808E+01 0.  0.
     999903    2    3    3    0    0  0.31435090212E-02 -0.10680269020E+00  0.71498195784E-01  0.12999489483E+00  0.19234978468E-01 0.  0.
         14    1    1    2    0    0 -0.19972443286E-01  0.38038342398E-02  0.12385297548E-01  0.23806789811E-01  0.00000000000E+00 0.  1.
     999901    1    3    3    0    0  0.16828934265E-01  0.10299885596E+00 -0.83883493332E-01  0.89012831536E+00  0.88000000000E+00 0.  1.
        -11    1    4    4    0    0  0.45382364145E-02 -0.22420541347E-01  0.75015798990E-02  0.24079266726E-01  0.51100000000E-03 0. -1.
         11    1    4    4    0    0 -0.13947273932E-02 -0.84382148856E-01  0.63996615885E-01  0.10591562810E+00  0.51100000000E-03 0.  1.
</event>
<event>
 8    1  0.1117354E+005  0.1043930E+01  0.7957747E-01            NaN
         13   -1    0    0    0    0  0.00000000000E+00  0.00000000000E+00  0.74505805969E-08  0.10566000000E+00  0.10566000000E+00 0. -1.
     999900   -1    0    0    0    0 -0.00000000000E+00 -0.00000000000E+00 -0.74505805969E-08  0.93827000000E+00  0.93827000000E+00 0. -1.
     999902    2    1    2    0    0 -0.13317513130E-01 -0.19244947034E-01  0.10029969844E-02  0.10205050102E+01  0.10202361226E+01 0.  0.
     999903    2    3    3    0    0 -0.92712095726E-01 -0.79833536222E-01 -0.48977479918E-01  0.13344665536E+00  0.20983090547E-01 0.  0.
         14    1    1    2    0    0  0.13317513130E-01  0.19244947034E-01 -0.10029969844E-02  0.23424989760E-01  0.00000000000E+00 0.  1.
     999901    1    3    3    0    0  0.79394582596E-01  0.60588589188E-01  0.49980476902E-01  0.88705835488E+00  0.88000000000E+00 0. -1.
        -11    1    4    4    0    0 -0.28745026285E-01 -0.15260430971E-01 -0.68368258385E-02  0.33258992741E-01  0.51100000000E-03 0.  1.
         11    1    4    4    0    0 -0.63967069441E-01 -0.64573105251E-01 -0.42140654079E-01  0.10018766262E+00  0.51100000000E-03 0. -1.
</event>
<event>
 8    1  0.1117354E+005  0.1043930E+01  0.7957747E-01            NaN
         13   -1    0    0    0    0  0.00000000000E+00  0.00000000000E+00  0.74505805969E-08  0.10566000000E+00  0.10566000000E+00 0.  1.
     999900   -1    0    0    0    0 -0.00000000000E+00 -0.00000000000E+00 -0.74505805969E-08  0.93827000000E+00  0.93827000000E+00 0. -1.
     999902    2    1    2    0    0 -0.68212854697E-02  0.10826887037E-02 -0.22435119091E-01  0.10204558287E+01  0.10201857976E+01 0.  0.
     999903    2    3    3    0    0  0.92875963993E-01  0.84430237815E-01  0.25880583480E-01  0.12960187735E+00  0.19298504257E-01 0.  0.
         14    1    1    2    0    0  0.68212854697E-02 -0.10826887037E-02  0.22435119091E-01  0.23474171314E-01  0.00000000000E+00 0.  1.
     999901    1    3    3    0    0 -0.99697249463E-01 -0.83347549111E-01 -0.48315702571E-01  0.89085395133E+00  0.88000000000E+00 0. -1.
        -11    1    4    4    0    0  0.74383004694E-01  0.56247246736E-01  0.20075485801E-01  0.95393240870E-01  0.51100000000E-03 0. -1.
         11    1    4    4    0    0  0.18492959299E-01  0.28182991079E-01  0.58050976798E-02  0.34208636481E-01  0.51100000000E-03 0.  1.
</event>
<event>
 8    1  0.1117354E+005  0.1043930E+01  0.7957747E-01            NaN
         13   -1    0    0    0    0  0.00000000000E+00  0.00000000000E+00  0.74505805969E-08  0.10566000000E+00  0.10566000000E+00 0.  1.
     999900   -1    0    0    0    0 -0.00000000000E+00 -0.00000000000E+00 -0.74505805969E-08  0.93827000000E+00  0.93827000000E+00 0. -1.
     999902    2    1    2    0    0 -0.35335257219E-02 -0.22971271708E-01  0.22212525156E-02  0.10205826427E+01  0.10203155549E+01 0.  0.
     999903    2    3    3    0    0  0.10261508225E+00  0.75062215146E-01  0.66627711912E-02  0.12878792500E+00  0.19435685174E-01 0.  0.
         14    1    1    2    0    0  0.35335257219E-02  0.22971271708E-01 -0.22212525156E-02  0.23347357252E-01  0.00000000000E+00 0. -1.
     999901    1    3    3    0    0 -0.10614860797E+00 -0.98033486854E-01 -0.44415186756E-02  0.89179471775E+00  0.88000000000E+00 0.  1.
        -11    1    4    4    0    0  0.33888228517E-01  0.36425469518E-01  0.35913261052E-02  0.49883720850E-01  0.51100000000E-03 0. -1.
         11    1    4    4    0    0  0.68726853730E-01  0.38636745628E-01  0.30714450860E-02  0.78904204148E-01  0.51100000000E-03 0.  1.
</event>
<event>
 8    1  0.1117354E+005  0.1043930E+01  0.7957747E-01            NaN
         13   -1    0    0    0    0  0.00000000000E+00  0.00000000000E+00  0.74505805969E-08  0.10566000000E+00  0.10566000000E+00 0.  1.
     999900   -1    0    0    0    0 -0.00000000000E+00 -0.00000000000E+00 -0.74505805969E-08  0.93827000000E+00  0.93827000000E+00 0. -1.
     999902    2    1    2    0    0  0.15258653239E-01  0.16364702560E-01 -0.16782431155E-01  0.10159607314E+01  0.10155756633E+01 0.  0.
     999903    2    3    3    0    0 -0.47182781636E-01  0.79116190986E-01  0.83160692641E-01  0.12589033530E+00  0.21144483007E-01 0.  0.
         14    1    1    2    0    0 -0.15258653239E-01 -0.16364702560E-01  0.16782431155E-01  0.27969268565E-01  0.00000000000E+00 0. -1.
     999901    1    3    3    0    0  0.62441434875E-01 -0.62751488425E-01 -0.99943123796E-01  0.89007039614E+00  0.88000000000E+00 0.  1.
        -11    1    4    4    0    0 -0.44624525490E-01  0.62803609764E-01  0.74771564422E-01  0.10736242193E+00  0.51100000000E-03 0.  1.
         11    1    4    4    0    0 -0.25582561455E-02  0.16312581221E-01  0.83891282189E-02  0.18527913371E-01  0.51100000000E-03 0. -1.
</event>
<event>
 8    1  0.1117354E+005  0.1043930E+01  0.7957747E-01            NaN
         13   -1    0    0    0    0  0.00000000000E+00  0.00000000000E+00  0.74505805969E-08  0.10566000000E+00  0.10566000000E+00 0.  1.
     999900   -1    0    0    0    0 -0.00000000000E+00 -0.00000000000E+00 -0.74505805969E-08  0.93827000000E+00  0.93827000000E+00 0. -1.
     999902    2    1    2    0    0 -0.41642753288E-02  0.23968100770E-01  0.16039007098E-03  0.10196023045E+01  0.10193120340E+01 0.  0.
     999903    2    3    3    0    0  0.80493702522E-01  0.81720127138E-01 -0.61480667824E-01  0.13151340704E+00  0.18933789656E-01 0.  0.
         14    1    1    2    0    0  0.41642753288E-02 -0.23968100770E-01 -0.16039007098E-03  0.24327695503E-01  0.00000000000E+00 0.  1.
     999901    1    3    3    0    0 -0.84657977851E-01 -0.57752026368E-01  0.61641057895E-01  0.88808889745E+00  0.88000000000E+00 0. -1.
        -11    1    4    4    0    0  0.10992133455E-01  0.21257076663E-01 -0.15858788861E-01  0.28713282837E-01  0.51100000000E-03 0.  1.
         11    1    4    4    0    0  0.69501569067E-01  0.60463050474E-01 -0.45621878963E-01  0.10280012421E+00  0.51100000000E-03 0. -1.
</event>
<event>
 8    1  0.1117354E+005  0.1043930E+01  0.7957747E-01            NaN
         13   -1    0    0    0    0  0.00000000000E+00  0.00000000000E+00  0.74505805969E-08  0.10566000000E+00  0.10566000000E+00 0. -1.
     999900   -1    0    0    0    0 -0.00000000000E+00 -0.00000000000E+00 -0.74505805969E-08  0.93827000000E+00  0.93827000000E+00 0. -1.
     999902    2    1    2    0    0 -0.22175786960E-02 -0.17343307784E-01 -0.17884899789E-01  0.10189184503E+01  0.10186114228E+01 0.  0.
     999903    2    3    3    0    0  0.52912457691E-01  0.11347556922E+00 -0.13436498356E-01  0.12753038226E+00  0.20174883461E-01 0.  0.
         14    1    1    2    0    0  0.22175786960E-02  0.17343307784E-01  0.17884899789E-01  0.25011549745E-01  0.00000000000E+00 0. -1.
     999901    1    3    3    0    0 -0.55130036387E-01 -0.13081887700E+00 -0.44484014327E-02  0.89138806800E+00  0.88000000000E+00 0.  1.
        -11    1    4    4    0    0  0.52251623026E-01  0.97635142044E-01 -0.14222242744E-01  0.11164849475E+00  0.51100000000E-03 0. -1.
         11    1    4    4    0    0  0.66083466439E-03  0.15840427173E-01  0.78574438791E-03  0.15881887505E-01  0.51100000000E-03 0.  1.
</event>
<event>
 8    1  0.1117354E+005  0.1043930E+01  0.7957747E-01            NaN
         13   -1    0    0    0    0  0.00000000000E+00  0.00000000000E+00  0.74505805969E-08  0.10566000000E+00  0.10566000000E+00 0.  1.
     999900   -1    0    0    0    0 -0.00000000000E+00 -0.00000000000E+00 -0.74505805969E-08  0.93827000000E+00  0.93827000000E+00 0.  1.
     999902    2    1    2    0    0 -0.15536256614E-01 -0.17860703882E-01 -0.29663607633E-02  0.10200725209E+01  0.10197934931E+01 0.  0.
     999903    2    3    3    0    0  0.54758491934E-01 -0.93567918546E-01  0.70177062236E-01  0.13101521434E+00  0.22061697672E-01 0.  0.
         14    1    1    2    0    0  0.15536256614E-01  0.17860703882E-01  0.29663607633E-02  0.23857479098E-01  0.00000000000E+00 0. -1.
     999901    1    3    3    0    0 -0.70294748548E-01  0.75707214663E-01 -0.73143423000E-01  0.88905730656E+00  0.88000000000E+00 0.  1.
        -11    1    4    4    0    0  0.20377640806E-01 -0.19575949843E-01  0.25108102201E-01  0.37804020609E-01  0.51100000000E-03 0. -1.
         11    1    4    4    0    0  0.34380851128E-01 -0.73991968702E-01  0.45068960035E-01  0.93211193729E-01  0.51100000000E-03 0.  1.
</event>
<event>
 8    1  0.1117354E+005  0.1043930E+01  0.7957747E-01            NaN
         13   -1    0    0    0    0  0.00000000000E+00  0.00000000000E+00  0.74505805969E-08  0.10566000000E+00  0.10566000000E+00 0.  1.
     999900   -1    0    0    0    0 -0.00000000000E+00 -0.00000000000E+00 -0.74505805969E-08  0.93827000000E+00  0.93827000000E+00 0. -1.
     999902    2    1    2    0    0 -0.89019044399E-02  0.57549214751E-02  0.20839415161E-01  0.10205495755E+01  0.10202817218E+01 0.  0.
     999903    2    3    3    0    0  0.11366959602E+00 -0.52365489026E-01 -0.23918922154E-01  0.12903117214E+00  0.20347163113E-01 0.  0.
         14    1    1    2    0    0  0.89019044399E-02 -0.57549214751E-02 -0.20839415161E-01  0.23380424464E-01  0.00000000000E+00 0. -1.
     999901    1    3    3    0    0 -0.12257150046E+00  0.58120410502E-01  0.44758337316E-01  0.89151840340E+00  0.88000000000E+00 0. -1.
        -11    1    4    4    0    0  0.62909101001E-01 -0.20089350713E-01 -0.62559645460E-02  0.66336530013E-01  0.51100000000E-03 0.  1.
         11    1    4    4    0    0  0.50760495015E-01 -0.32276138313E-01 -0.17662957608E-01  0.62694642124E-01  0.51100000000E-03 0. -1.
</event>
<event>
 8    1  0.1117354E+005  0.1043930E+01  0.7957747E-01            NaN
         13   -1    0    0    0    0  0.00000000000E+00  0.00000000000E+00  0.74505805969E-08  0.10566000000E+00  0.10566000000E+00 0. -1.
     999900   -1    0    0    0    0 -0.00000000000E+00 -0.00000000000E+00 -0.74505805969E-08  0.93827000000E+00  0.93827000000E+00 0.  1.
     999902    2    1    2    0    0  0.91230120049E-02  0.21957591168E-01  0.22136942856E-03  0.10201515610E+01  0.10198744007E+01 0.  0.
     999903    2    3    3    0    0  0.59777709737E-01  0.54516878232E-01  0.10358675375E+00  0.13205786758E+00  0.12790631051E-01 0.  0.
         14    1    1    2    0    0 -0.91230120049E-02 -0.21957591168E-01 -0.22136942856E-03  0.23778439023E-01  0.00000000000E+00 0.  1.
     999901    1    3    3    0    0 -0.50654697732E-01 -0.32559287064E-01 -0.10336538433E+00  0.88809369340E+00  0.88000000000E+00 0.  1.
        -11    1    4    4    0    0  0.37485356361E-01  0.30278661284E-01  0.52388157537E-01  0.71180962636E-01  0.51100000000E-03 0.  1.
         11    1    4    4    0    0  0.22292353376E-01  0.24238216948E-01  0.51198596217E-01  0.60876904943E-01  0.51100000000E-03 0. -1.
</event>
<event>
 8    1  0.1117354E+005  0.1043930E+01  0.7957747E-01            NaN
         13   -1    0    0    0    0  0.00000000000E+00  0.00000000000E+00  0.74505805969E-08  0.10566000000E+00  0.10566000000E+00 0. -1.
     999900   -1    0    0    0    0 -0.00000000000E+00 -0.00000000000E+00 -0.74505805969E-08  0.93827000000E+00  0.93827000000E+00 0.  1.
     999902    2    1    2    0    0 -0.30883015111E-01 -0.10207889990E-02  0.15633626422E-01  0.10093003464E+01  0.10087060902E+01 0.  0.
     999903    2    3    3    0    0  0.61030122326E-01  0.78703839730E-01 -0.59176472192E-01  0.11778445081E+00  0.21268562990E-01 0.  0.
         14    1    1    2    0    0  0.30883015111E-01  0.10207889990E-02 -0.15633626422E-01  0.34629653588E-01  0.00000000000E+00 0. -1.
     999901    1    3    3    0    0 -0.91913137437E-01 -0.79724628729E-01  0.74810098615E-01  0.89151589560E+00  0.88000000000E+00 0. -1.
        -11    1    4    4    0    0  0.84274889198E-02  0.10522046677E-01 -0.17547371006E-01  0.22133851585E-01  0.51100000000E-03 0.  1.
         11    1    4    4    0    0  0.52602633406E-01  0.68181793052E-01 -0.41629101187E-01  0.95650599223E-01  0.51100000000E-03 0. -1.
</event>
<event>
 8    1  0.1117354E+005  0.1043930E+01  0.7957747E-01            NaN
         13   -1    0    0    0    0  0.00000000000E+00  0.00000000000E+00  0.74505805969E-08  0.10566000000E+00  0.10566000000E+00 0.  1.
     999900   -1    0    0    0    0 -0.00000000000E+00 -0.00000000000E+00 -0.74505805969E-08  0.93827000000E+00  0.93827000000E+00 0. -1.
     999902    2    1    2    0    0  0.32093916658E-03  0.84084013641E-02  0.24597588029E-01  0.10179329703E+01  0.10176009466E+01 0.  0.
     999903    2    3    3    0    0 -0.46549345338E-01  0.98454133358E-01 -0.63702576114E-01  0.12770716952E+00  0.19774858187E-01 0.  0.
         14    1    1    2    0    0 -0.32093916658E-03 -0.84084013641E-02 -0.24597588029E-01  0.25997029682E-01  0.00000000000E+00 0. -1.
     999901    1    3    3    0    0  0.46870284505E-01 -0.90045731994E-01  0.88300164144E-01  0.89022580080E+00  0.88000000000E+00 0.  1.
        -11    1    4    4    0    0 -0.31527028356E-01  0.62173535153E-01 -0.29752886942E-01  0.75795761047E-01  0.51100000000E-03 0.  1.
         11    1    4    4    0    0 -0.15022316982E-01  0.36280598205E-01 -0.33949689172E-01  0.51911408472E-01  0.51100000000E-03 0. -1.
</event>
<event>
 8    1  0.1117354E+005  0.1043930E+01  0.7957747E-01            NaN
         13   -1    0    0    0    0  0.00000000000E+00  0.00000000000E+00  0.74505805969E-08  0.10566000000E+00  0.10566000000E+00 0. -1.
     999900   -1    0    0    0    0 -0.00000000000E+00 -0.00000000000E+00 -0.74505805969E-08  0.93827000000E+00  0.93827000000E+00 0. -1.
     999902    2    1    2    0    0  0.21334070344E-01  0.72145903626E-02 -0.32485214878E-02  0.10211759726E+01  0.10209224364E+01 0.  0.
     999903    2    3    3    0    0  0.98357047977E-01  0.88722967052E-02 -0.87957695190E-01  0.13375784612E+00  0.20044418686E-01 0.  0.
         14    1    1    2    0    0 -0.21334070344E-01 -0.72145903626E-02  0.32485214878E-02  0.22754027410E-01  0.00000000000E+00 0. -1.
     999901    1    3    3    0    0 -0.77022977633E-01 -0.16577063426E-02  0.84709173702E-01  0.88741812647E+00  0.88000000000E+00 0.  1.
        -11    1    4    4    0    0  0.31821605898E-01  0.12147215866E-01 -0.27154380220E-01  0.43563642425E-01  0.51100000000E-03 0. -1.
         11    1    4    4    0    0  0.66535442079E-01 -0.32749191606E-02 -0.60803314970E-01  0.90194203697E-01  0.51100000000E-03 0.  1.
</event>
<event>
 8    1  0.1117354E+005  0.1043930E+01  0.7957747E-01            NaN
         13   -1    0    0    0    0  0.00000000000E+00  0.00000000000E+00  0.74505805969E-08  0.10566000000E+00  0.10566000000E+00 0. -1.
     999900   -1    0    0    0    0 -0.00000000000E+00 -0.00000000000E+00 -0.74505805969E-08  0.93827000000E+00  0.93827000000E+00 0. -1.
     999902    2    1    2    0    0  0.72081464677E-02  0.20396629465E-01 -0.74718863408E-02  0.10210431270E+01  0.10207865880E+01 0.  0.
     999903    2    3    3    0    0  0.10101020017E+00 -0.15779629760E-01 -0.81221268533E-01  0.13225377156E+00  0.21026373343E-01 0.  0.
         14    1    1    2    0    0 -0.72081464677E-02 -0.20396629465E-01  0.74718863408E-02  0.22886872974E-01  0.00000000000E+00 0. -1.
     999901    1    3    3    0    0 -0.93802053706E-01  0.36176259225E-01  0.73749382192E-01  0.88878935546E+00  0.88000000000E+00 0.  1.
        -11    1    4    4    0    0  0.37785185674E-01  0.29772660620E-02 -0.36095592099E-01  0.52342499554E-01  0.51100000000E-03 0.  1.
         11    1    4    4    0    0  0.63225014500E-01 -0.18756895822E-01 -0.45125676434E-01  0.79911272008E-01  0.51100000000E-03 0. -1.
</event>
<event>
 8    1  0.1117354E+005  0.1043930E+01  0.7957747E-01            NaN
         13   -1    0    0    0    0  0.00000000000E+00  0.00000000000E+00  0.74505805969E-08  0.10566000000E+00  0.10566000000E+00 0.  1.
     999900   -1    0    0    0    0 -0.00000000000E+00 -0.00000000000E+00 -0.74505805969E-08  0.93827000000E+00  0.93827000000E+00 0.  1.
     999902    2    1    2    0    0  0.22866278889E-01 -0.20878793092E-02 -0.67524240132E-02  0.10199963170E+01  0.10197154827E+01 0.  0.
     999903    2    3    3    0    0  0.14428467139E-01 -0.12851660423E+00 -0.47297028200E-02  0.13091841800E+00  0.19813224252E-01 0.  0.
         14    1    1    2    0    0 -0.22866278889E-01  0.20878793092E-02  0.67524240132E-02  0.23933682966E-01  0.00000000000E+00 0.  1.
     999901    1    3    3    0    0  0.84378117501E-02  0.12642872492E+00 -0.20227211932E-02  0.88907789904E+00  0.88000000000E+00 0.  1.
        -11    1    4    4    0    0  0.13466252477E-01 -0.46066107109E-01  0.30562534554E-02  0.48093949580E-01  0.51100000000E-03 0. -1.
         11    1    4    4    0    0  0.96221466223E-03 -0.82450497122E-01 -0.77859562755E-02  0.82824468419E-01  0.51100000000E-03 0.  1.
</event>
<event>
 8    1  0.1117354E+005  0.1043930E+01  0.7957747E-01            NaN
         13   -1    0    0    0    0  0.00000000000E+00  0.00000000000E+00  0.74505805969E-08  0.10566000000E+00  0.10566000000E+00 0. -1.
     999900   -1    0    0    0    0 -0.00000000000E+00 -0.00000000000E+00 -0.74505805969E-08  0.93827000000E+00  0.93827000000E+00 0.  1.
     999902    2    1    2    0    0  0.10351574369E-01 -0.52572914431E-02 -0.20347540738E-01  0.10205031645E+01  0.10202342340E+01 0.  0.
     999903    2    3    3    0    0 -0.43587135032E-01 -0.10073822256E+00 -0.67450759939E-01  0.13244646262E+00  0.30731622468E-01 0.  0.
         14    1    1    2    0    0 -0.10351574369E-01  0.52572914431E-02  0.20347540738E-01  0.23426835452E-01  0.00000000000E+00 0. -1.
     999901    1    3    3    0    0  0.53938709401E-01  0.95480931117E-01  0.47103219201E-01  0.88805670193E+00  0.88000000000E+00 0. -1.
        -11    1    4    4    0    0 -0.47635040560E-02 -0.41018205591E-01 -0.14803155852E-01  0.43870020572E-01  0.51100000000E-03 0.  1.
         11    1    4    4    0    0 -0.38823630976E-01 -0.59720016969E-01 -0.52647604087E-01  0.88576442049E-01  0.51100000000E-03 0. -1.
</event>
<event>
 8    1  0.1117354E+005  0.1043930E+01  0.7957747E-01            NaN
         13   -1    0    0    0    0  0.00000000000E+00  0.00000000000E+00  0.74505805969E-08  0.10566000000E+00  0.10566000000E+00 0.  1.
     999900   -1    0    0    0    0 -0.00000000000E+00 -0.00000000000E+00 -0.74505805969E-08  0.93827000000E+00  0.93827000000E+00 0.  1.
     999902    2    1    2    0    0 -0.11630616023E-01 -0.36692305106E-02 -0.19286615519E-01  0.10211109724E+01  0.10208559693E+01 0.  0.
     999903    2    3    3    0    0 -0.20432049975E-01 -0.10772388707E+00  0.67963114676E-01  0.13065190418E+00  0.20713053816E-01 0.  0.
         14    1    1    2    0    0  0.11630616023E-01  0.36692305106E-02  0.19286615519E-01  0.22819027582E-01  0.00000000000E+00 0. -1.
     999901    1    3    3    0    0  0.88014339520E-02  0.10405465655E+00 -0.87249730195E-01  0.89045906824E+00  0.88000000000E+00 0.  1.
        -11    1    4    4    0    0  0.23419165367E-03 -0.36265780019E-01  0.30359883227E-01  0.47299527235E-01  0.51100000000E-03 0. -1.
         11    1    4    4    0    0 -0.20666241629E-01 -0.71458107046E-01  0.37603231449E-01  0.83352376943E-01  0.51100000000E-03 0.  1.
</event>
<event>
 8    1  0.1117354E+005  0.1043930E+01  0.7957747E-01            NaN
         13   -1    0    0    0    0  0.00000000000E+00  0.00000000000E+00  0.74505805969E-08  0.10566000000E+00  0.10566000000E+00 0.  1.
     999900   -1    0    0    0    0 -0.00000000000E+00 -0.00000000000E+00 -0.74505805969E-08  0.93827000000E+00  0.93827000000E+00 0.  1.
     999902    2    1    2    0    0  0.21281403523E-01  0.51174941457E-03  0.10508722387E-01  0.10201898806E+01  0.10199136234E+01 0.  0.
     999903    2    3    3    0    0  0.81475190789E-01  0.29506959423E-01  0.99281575443E-01  0.13320361595E+00  0.19429480443E-01 0.  0.
         14    1    1    2    0    0 -0.21281403523E-01 -0.51174941457E-03 -0.10508722387E-01  0.23740119409E-01  0.00000000000E+00 0. -1.
     999901    1    3    3    0    0 -0.60193787266E-01 -0.28995210009E-01 -0.88772853056E-01  0.88698626464E+00  0.88000000000E+00 0.  1.
        -11    1    4    4    0    0  0.20000101404E-01  0.13789105398E-01  0.18837025969E-01  0.30744725600E-01  0.51100000000E-03 0.  1.
         11    1    4    4    0    0  0.61475089385E-01  0.15717854026E-01  0.80444549473E-01  0.10245889035E+00  0.51100000000E-03 0. -1.
</event>
<event>
 8    1  0.1117354E+005  0.1043930E+01  0.7957747E-01            NaN
         13   -1    0    0    0    0  0.00000000000E+00  0.00000000000E+00  0.74505805969E-08  0.10566000000E+00  0.10566000000E+00 0.  1.
     999900   -1    0    0    0    0 -0.00000000000E+00 -0.00000000000E+00 -0.74505805969E-08  0.93827000000E+00  0.93827000000E+00 0.  1.
     999902    2    1    2    0    0 -0.97461553689E-02  0.11155843620E-01 -0.17629022759E-01  0.10209034320E+01  0.10206437158E+01 0.  0.
     999903    2    3    3    0    0 -0.11585393037E+00 -0.32734145234E-01 -0.52662127963E-01  0.13275225707E+00  0.18873383102E-01 0.  0.
         14    1    1    2    0    0  0.97461553689E-02 -0.11155843620E-01  0.17629022759E-01  0.23026568020E-01  0.00000000000E+00 0. -1.
     999901    1    3    3    0    0  0.10610777500E+00  0.43889988854E-01  0.35033105204E-01  0.88815117491E+00  0.88000000000E+00 0. -1.
        -11    1    4    4    0    0 -0.81067836817E-01 -0.26426593067E-01 -0.28407015894E-01  0.89875350683E-01  0.51100000000E-03 0.  1.
         11    1    4    4    0    0 -0.34786093548E-01 -0.63075521664E-02 -0.24255112069E-01  0.42876906385E-01  0.51100000000E-03 0. -1.
</event>
<event>
 8    1  0.1117354E+005  0.1043930E+01  0.7957747E-01            NaN
         13   -1    0    0    0    0  0.00000000000E+00  0.00000000000E+00  0.74505805969E-08  0.10566000000E+00  0.10566000000E+00 0.  1.
     999900   -1    0    0    0    0 -0.00000000000E+00 -0.00000000000E+00 -0.74505805969E-08  0.93827000000E+00  0.93827000000E+00 0.  1.
     999902    2    1    2    0    0  0.19553273526E-01  0.12787790528E-01 -0.28772999935E-03  0.10205646222E+01  0.10202971171E+01 0.  0.
     999903    2    3    3    0    0  0.67351164432E-01  0.11225142380E+00  0.16611715751E-01  0.13351149864E+00  0.20317718204E-01 0.  0.
         14    1    1    2    0    0 -0.19553273526E-01 -0.12787790528E-01  0.28772999935E-03  0.23365377821E-01  0.00000000000E+00 0. -1.
     999901    1    3    3    0    0 -0.47797890907E-01 -0.99463633271E-01 -0.16899445750E-01  0.88705312354E+00  0.88000000000E+00 0.  1.
        -11    1    4    4    0    0  0.13404429219E-01  0.37163169633E-01  0.10334156409E-01  0.40839145553E-01  0.51100000000E-03 0. -1.
         11    1    4    4    0    0  0.53946735213E-01  0.75088254166E-01  0.62775593425E-02  0.92672353084E-01  0.51100000000E-03 0.  1.
</event>
<event>
 8    1  0.1117354E+005  0.1043930E+01  0.7957747E-01            NaN
         13   -1    0    0    0    0  0.00000000000E+00  0.00000000000E+00  0.74505805969E-08  0.10566000000E+00  0.10566000000E+00 0.  1.
     999900   -1    0    0    0    0 -0.00000000000E+00 -0.00000000000E+00 -0.74505805969E-08  0.93827000000E+00  0.93827000000E+00 0.  1.
     999902    2    1    2    0    0  0.20816344083E-01  0.41484564234E-02 -0.10035429370E-01  0.10204515053E+01  0.10201813735E+01 0.  0.
     999903    2    3    3    0    0  0.29823868148E-01  0.81164397215E-01  0.95864677129E-01  0.13071703749E+00  0.20488657379E-01 0.  0.
         14    1    1    2    0    0 -0.20816344083E-01 -0.41484564234E-02  0.10035429370E-01  0.23478494720E-01  0.00000000000E+00 0.  1.
     999901    1    3    3    0    0 -0.90075240647E-02 -0.77015940792E-01 -0.10590010650E+00  0.88973446779E+00  0.88000000000E+00 0.  1.
        -11    1    4    4    0    0  0.59741867000E-02  0.31917733752E-02  0.11716940425E-01  0.13543490611E-01  0.51100000000E-03 0.  1.
         11    1    4    4    0    0  0.23849681448E-01  0.77972623840E-01  0.84147736704E-01  0.11717354687E+00  0.51100000000E-03 0. -1.
</event>
<event>
 8    1  0.1117354E+005  0.1043930E+01  0.7957747E-01            NaN
         13   -1    0    0    0    0  0.00000000000E+00  0.00000000000E+00  0.74505805969E-08  0.10566000000E+00  0.10566000000E+00 0.  1.
     999900   -1    0    0    0    0 -0.00000000000E+00 -0.00000000000E+00 -0.74505805969E-08  0.93827000000E+00  0.93827000000E+00 0.  1.
     999902    2    1    2    0    0 -0.51240146491E-02 -0.13469126405E-01 -0.18894026043E-01  0.10201674851E+01  0.10198907003E+01 0.  0.
     999903    2    3    3    0    0 -0.30062673171E-02  0.12646210312E+00  0.11841517963E-01  0.12857906692E+00  0.19764962212E-01 0.  0.
         14    1    1    2    0    0  0.51240146491E-02  0.13469126405E-01  0.18894026043E-01  0.23762514857E-01  0.00000000000E+00 0.  1.
     999901    1    3    3    0    0 -0.21177473320E-02 -0.13993122953E+00 -0.30735544006E-01  0.89158841823E+00  0.88000000000E+00 0. -1.
        -11    1    4    4    0    0 -0.98399587718E-02  0.10565485315E+00  0.91334976798E-02  0.10650565564E+00  0.51100000000E-03 0.  1.
         11    1    4    4    0    0  0.68336914547E-02  0.20807249977E-01  0.27080202830E-02  0.22073411276E-01  0.51100000000E-03 0. -1.
</event>
<event>
 8    1  0.1117354E+005  0.1043930E+01  0.7957747E-01            NaN
         13   -1    0    0    0    0  0.00000000000E+00  0.00000000000E+00  0.74505805969E-08  0.10566000000E+00  0.10566000000E+00 0.  1.
     999900   -1    0    0    0    0 -0.00000000000E+00 -0.00000000000E+00 -0.74505805969E-08  0.93827000000E+00  0.93827000000E+00 0. -1.
     999902    2    1    2    0    0  0.69292183887E-02  0.13968366527E-01  0.18367857343E-01  0.10198362765E+01  0.10195516285E+01 0.  0.
     999903    2    3    3    0    0  0.10402073856E+00  0.62353861929E-01 -0.44926989476E-01  0.13091886911E+00  0.20322346215E-01 0.  0.
         14    1    1    2    0    0 -0.69292183887E-02 -0.13968366527E-01 -0.18367857343E-01  0.24093723545E-01  0.00000000000E+00 0. -1.
     999901    1    3    3    0    0 -0.97091520175E-01 -0.48385495402E-01  0.63294846819E-01  0.88891740735E+00  0.88000000000E+00 0. -1.
        -11    1    4    4    0    0  0.37453900668E-01  0.27282216101E-01 -0.26770883451E-01  0.53516869419E-01  0.51100000000E-03 0.  1.
         11    1    4    4    0    0  0.66566837895E-01  0.35071645827E-01 -0.18156106025E-01  0.77401999686E-01  0.51100000000E-03 0. -1.
</event>
<event>
 8    1  0.1117354E+005  0.1043930E+01  0.7957747E-01            NaN
         13   -1    0    0    0    0  0.00000000000E+00  0.00000000000E+00  0.74505805969E-08  0.10566000000E+00  0.10566000000E+00 0. -1.
     999900   -1    0    0    0    0 -0.00000000000E+00 -0.00000000000E+00 -0.74505805969E-08  0.93827000000E+00  0.93827000000E+00 0. -1.
     999902    2    1    2    0    0  0.23106869485E-01  0.39924061259E-02  0.46204872071E-03  0.10204762111E+01  0.10202066542E+01 0.  0.
     999903    2    3    3    0    0 -0.10006991055E+00 -0.19598808985E-01  0.75385777741E-01  0.12843213724E+00  0.20339569261E-01 0.  0.
         14    1    1    2    0    0 -0.23106869485E-01 -0.39924061259E-02 -0.46204872071E-03  0.23453788885E-01  0.00000000000E+00 0. -1.
     999901    1    3    3    0    0  0.12317678004E+00  0.23591215111E-01 -0.74923729020E-01  0.89204407388E+00  0.88000000000E+00 0.  1.
        -11    1    4    4    0    0 -0.89076570171E-01 -0.22499242676E-01  0.71455595995E-01  0.11639164315E+00  0.51100000000E-03 0.  1.
         11    1    4    4    0    0 -0.10993340383E-01  0.29004336910E-02  0.39301817454E-02  0.12040494089E-01  0.51100000000E-03 0. -1.
</event>
<event>
 8    1  0.1117354E+005  0.1043930E+01  0.7957747E-01            NaN
         13   -1    0    0    0    0  0.00000000000E+00  0.00000000000E+00  0.74505805969E-08  0.10566000000E+00  0.10566000000E+00 0.  1.
     999900   -1    0    0    0    0 -0.00000000000E+00 -0.00000000000E+00 -0.74505805969E-08  0.93827000000E+00  0.93827000000E+00 0. -1.
     999902    2    1    2    0    0 -0.22677714979E-01  0.75573423834E-02 -0.14283422366E-02  0.10199835526E+01  0.10197024151E+01 0.  0.
     999903    2    3    3    0    0 -0.21394608532E-01 -0.12492168166E+00 -0.20287001704E-01  0.12986671354E+00  0.19764741946E-01 0.  0.
         14    1    1    2    0    0  0.22677714979E-01 -0.75573423834E-02  0.14283422366E-02  0.23946447380E-01  0.00000000000E+00 0. -1.
     999901    1    3    3    0    0 -0.12831064469E-02  0.13247902405E+00  0.18858659467E-01  0.89011683908E+00  0.88000000000E+00 0.  1.
        -11    1    4    4    0    0 -0.12315284148E-01 -0.97928909695E-01 -0.22709706370E-01  0.10128044956E+00  0.51100000000E-03 0.  1.
         11    1    4    4    0    0 -0.90793243840E-02 -0.26992771967E-01  0.24227046668E-02  0.28586263986E-01  0.51100000000E-03 0. -1.
</event>
<event>
 8    1  0.1117354E+005  0.1043930E+01  0.7957747E-01            NaN
         13   -1    0    0    0    0  0.00000000000E+00  0.00000000000E+00  0.74505805969E-08  0.10566000000E+00  0.10566000000E+00 0. -1.
     999900   -1    0    0    0    0 -0.00000000000E+00 -0.00000000000E+00 -0.74505805969E-08  0.93827000000E+00  0.93827000000E+00 0.  1.
     999902    2    1    2    0    0 -0.11641460305E-01 -0.13283821634E-01 -0.16004016951E-01  0.10200948983E+01  0.10198163999E+01 0.  0.
     999903    2    3    3    0    0  0.42213595734E-03  0.12515204432E+00 -0.25085629209E-01  0.12914456576E+00  0.19642242180E-01 0.  0.
         14    1    1    2    0    0  0.11641460305E-01  0.13283821634E-01  0.16004016951E-01  0.23835101716E-01  0.00000000000E+00 0. -1.
     999901    1    3    3    0    0 -0.12063596262E-01 -0.13843586595E+00  0.90816122581E-02  0.89095033252E+00  0.88000000000E+00 0. -1.
        -11    1    4    4    0    0 -0.19239548730E-02  0.11248627626E-01  0.29884391873E-02  0.11807841276E-01  0.51100000000E-03 0. -1.
         11    1    4    4    0    0  0.23460908303E-02  0.11390341669E+00 -0.28074068397E-01  0.11733672449E+00  0.51100000000E-03 0.  1.
</event>
<event>
 8    1  0.1117354E+005  0.1043930E+01  0.7957747E-01            NaN
         13   -1    0    0    0    0  0.00000000000E+00  0.00000000000E+00  0.74505805969E-08  0.10566000000E+00  0.10566000000E+00 0. -1.
     999900   -1    0    0    0    0 -0.00000000000E+00 -0.00000000000E+00 -0.74505805969E-08  0.93827000000E+00  0.93827000000E+00 0. -1.
     999902    2    1    2    0    0 -0.27861346513E-02 -0.15201905980E-01  0.17092516197E-01  0.10208862459E+01  0.10206261375E+01 0.  0.
     999903    2    3    3    0    0 -0.82485040572E-02  0.11377386612E+00  0.60167620118E-01  0.13042566182E+00  0.19446858870E-01 0.  0.
         14    1    1    2    0    0  0.27861346513E-02  0.15201905980E-01 -0.17092516197E-01  0.23043754070E-01  0.00000000000E+00 0.  1.
     999901    1    3    3    0    0  0.54623694059E-02 -0.12897577210E+00 -0.43075103921E-01  0.89046058411E+00  0.88000000000E+00 0.  1.
        -11    1    4    4    0    0  0.31782719265E-02  0.77278808634E-01  0.43111055332E-01  0.88549081809E-01  0.51100000000E-03 0.  1.
         11    1    4    4    0    0 -0.11426775984E-01  0.36495057488E-01  0.17056564786E-01  0.41876580015E-01  0.51100000000E-03 0. -1.
</event>
<event>
 8    1  0.1117354E+005  0.1043930E+01  0.7957747E-01            NaN
         13   -1    0    0    0    0  0.00000000000E+00  0.00000000000E+00  0.74505805969E-08  0.10566000000E+00  0.10566000000E+00 0.  1.
     999900   -1    0    0    0    0 -0.00000000000E+00 -0.00000000000E+00 -0.74505805969E-08  0.93827000000E+00  0.93827000000E+00 0.  1.
     999902    2    1    2    0    0  0.18548914714E-01 -0.10453173162E-01 -0.98163785193E-02  0.10204844812E+01  0.10202151165E+01 0.  0.
     999903    2    3    3    0    0  0.64381709509E-03 -0.12384409390E-01  0.12750223235E+00  0.12965300267E+00  0.19982335946E-01 0.  0.
         14    1    1    2    0    0 -0.18548914714E-01  0.10453173162E-01  0.98163785193E-02  0.23445518835E-01  0.00000000000E+00 0.  1.
     999901    1    3    3    0    0  0.17905097619E-01  0.19312362282E-02 -0.13731861087E+00  0.89083147850E+00  0.88000000000E+00 0.  1.
        -11    1    4    4    0    0  0.77405857438E-02 -0.95968666687E-02  0.10806943092E+00  0.10877168537E+00  0.51100000000E-03 0. -1.
         11    1    4    4    0    0 -0.70967686487E-02 -0.27875427211E-02  0.19432801425E-01  0.20881317293E-01  0.51100000000E-03 0.  1.
</event>
<event>
 8    1  0.1117354E+005  0.1043930E+01  0.7957747E-01            NaN
         13   -1    0    0    0    0  0.00000000000E+00  0.00000000000E+00  0.74505805969E-08  0.10566000000E+00  0.10566000000E+00 0.  1.
     999900   -1    0    0    0    0 -0.00000000000E+00 -0.00000000000E+00 -0.74505805969E-08  0.93827000000E+00  0.93827000000E+00 0. -1.
     999902    2    1    2    0    0 -0.18018532305E-01  0.12828741840E-01  0.26176731411E-02  0.10216567798E+01  0.10214139609E+01 0.  0.
     999903    2    3    3    0    0 -0.37664267714E-01  0.73566803908E-01 -0.10222104901E+00  0.13313766087E+00  0.21114501704E-01 0.  0.
         14    1    1    2    0    0  0.18018532305E-01 -0.12828741840E-01 -0.26176731411E-02  0.22273220160E-01  0.00000000000E+00 0.  1.
     999901    1    3    3    0    0  0.19645735409E-01 -0.60738062068E-01  0.10483872215E+00  0.88851911897E+00  0.88000000000E+00 0.  1.
        -11    1    4    4    0    0 -0.30434569661E-02  0.26249778389E-01 -0.27255541602E-01  0.37966289848E-01  0.51100000000E-03 0. -1.
         11    1    4    4    0    0 -0.34620810748E-01  0.47317025519E-01 -0.74965507411E-01  0.95171371027E-01  0.51100000000E-03 0.  1.
</event>
<event>
 8    1  0.1117354E+005  0.1043930E+01  0.7957747E-01            NaN
         13   -1    0    0    0    0  0.00000000000E+00  0.00000000000E+00  0.74505805969E-08  0.10566000000E+00  0.10566000000E+00 0.  1.
     999900   -1    0    0    0    0 -0.00000000000E+00 -0.00000000000E+00 -0.74505805969E-08  0.93827000000E+00  0.93827000000E+00 0.  1.
     999902    2    1    2    0    0 -0.38499463376E-02  0.22783318915E-01  0.69333895709E-02  0.10198058710E+01  0.10195204956E+01 0.  0.
     999903    2    3    3    0    0  0.12442880508E+00  0.21337057450E-01  0.25800533844E-01  0.13030404480E+00  0.19382440286E-01 0.  0.
         14    1    1    2    0    0  0.38499463376E-02 -0.22783318915E-01 -0.69333895709E-02  0.24124128969E-01  0.00000000000E+00 0.  1.
     999901    1    3    3    0    0 -0.12827875141E+00  0.14462614648E-02 -0.18867144273E-01  0.88950182623E+00  0.88000000000E+00 0.  1.
        -11    1    4    4    0    0  0.41175017332E-01  0.16291646077E-01  0.75558884079E-02  0.44923850623E-01  0.51100000000E-03 0.  1.
         11    1    4    4    0    0  0.83253787743E-01  0.50454113732E-02  0.18244645436E-01  0.85380194176E-01  0.51100000000E-03 0. -1.
</event>
<event>
 8    1  0.1117354E+005  0.1043930E+01  0.7957747E-01            NaN
         13   -1    0    0    0    0  0.00000000000E+00  0.00000000000E+00  0.74505805969E-08  0.10566000000E+00  0.10566000000E+00 0. -1.
     999900   -1    0    0    0    0 -0.00000000000E+00 -0.00000000000E+00 -0.74505805969E-08  0.93827000000E+00  0.93827000000E+00 0. -1.
     999902    2    1    2    0    0 -0.11207546261E-01 -0.54812320523E-02  0.19354639344E-01  0.10209027322E+01  0.10206430001E+01 0.  0.
     999903    2    3    3    0    0  0.10235768783E+00 -0.61837464494E-01 -0.46139069723E-01  0.12940819310E+00  0.17796022414E-01 0.  0.
         14    1    1    2    0    0  0.11207546261E-01  0.54812320523E-02 -0.19354639344E-01  0.23027267796E-01  0.00000000000E+00 0. -1.
     999901    1    3    3    0    0 -0.11356523409E+00  0.56356232441E-01  0.65493709067E-01  0.89149453911E+00  0.88000000000E+00 0.  1.
        -11    1    4    4    0    0  0.87365964672E-01 -0.48755607902E-01 -0.32183955960E-01  0.10509990118E+00  0.51100000000E-03 0.  1.
         11    1    4    4    0    0  0.14991723154E-01 -0.13081856592E-01 -0.13955113763E-01  0.24308291921E-01  0.51100000000E-03 0. -1.
</event>
<event>
 8    1  0.1117354E+005  0.1043930E+01  0.7957747E-01            NaN
         13   -1    0    0    0    0  0.00000000000E+00  0.00000000000E+00  0.74505805969E-08  0.10566000000E+00  0.10566000000E+00 0.  1.
     999900   -1    0    0    0    0 -0.00000000000E+00 -0.00000000000E+00 -0.74505805969E-08  0.93827000000E+00  0.93827000000E+00 0. -1.
     999902    2    1    2    0    0  0.18818465069E-01  0.11071786933E-01  0.10708885499E-01  0.10196112969E+01  0.10193212435E+01 0.  0.
     999903    2    3    3    0    0  0.97517345118E-01  0.39890044959E-01 -0.75865133425E-01  0.13140013590E+00  0.20239292447E-01 0.  0.
         14    1    1    2    0    0 -0.18818465069E-01 -0.11071786933E-01 -0.10708885499E-01  0.24318703133E-01  0.00000000000E+00 0. -1.
     999901    1    3    3    0    0 -0.78698880049E-01 -0.28818258026E-01  0.86574018924E-01  0.88821116097E+00  0.88000000000E+00 0.  1.
        -11    1    4    4    0    0  0.30339820235E-01  0.18605887511E-01 -0.16390522313E-01  0.39186656973E-01  0.51100000000E-03 0.  1.
         11    1    4    4    0    0  0.67177524883E-01  0.21284157447E-01 -0.59474611112E-01  0.92213478926E-01  0.51100000000E-03 0. -1.
</event>
<event>
 8    1  0.1117354E+005  0.1043930E+01  0.7957747E-01            NaN
         13   -1    0    0    0    0  0.00000000000E+00  0.00000000000E+00  0.74505805969E-08  0.10566000000E+00  0.10566000000E+00 0. -1.
     999900   -1    0    0    0    0 -0.00000000000E+00 -0.00000000000E+00 -0.74505805969E-08  0.93827000000E+00  0.93827000000E+00 0.  1.
     999902    2    1    2    0    0  0.99734182840E-02 -0.15106270363E-01  0.15350611088E-01  0.10201958529E+01  0.10199197363E+01 0.  0.
     999903    2    3    3    0    0 -0.99166980611E-02 -0.12073618848E+00 -0.47446373816E-01  0.13143449146E+00  0.18662771682E-01 0.  0.
         14    1    1    2    0    0 -0.99734182840E-02  0.15106270363E-01 -0.15350611088E-01  0.23734147074E-01  0.00000000000E+00 0.  1.
     999901    1    3    3    0    0  0.19890116345E-01  0.10562991812E+00  0.62796984904E-01  0.88876136147E+00  0.88000000000E+00 0. -1.
        -11    1    4    4    0    0 -0.41059097468E-02 -0.52961794599E-01 -0.30785826299E-01  0.61399009796E-01  0.51100000000E-03 0. -1.
         11    1    4    4    0    0 -0.58107883144E-02 -0.67774393881E-01 -0.16660547517E-01  0.70035481660E-01  0.51100000000E-03 0.  1.
</event>
<event>
 8    1  0.1117354E+005  0.1043930E+01  0.7957747E-01            NaN
         13   -1    0    0    0    0  0.00000000000E+00  0.00000000000E+00  0.74505805969E-08  0.10566000000E+00  0.10566000000E+00 0.  1.
     999900   -1    0    0    0    0 -0.00000000000E+00 -0.00000000000E+00 -0.74505805969E-08  0.93827000000E+00  0.93827000000E+00 0. -1.
     999902    2    1    2    0    0  0.10524266128E-01  0.20736742978E-01  0.68646509771E-02  0.10196834308E+01  0.10193951162E+01 0.  0.
     999903    2    3    3    0    0  0.12789840669E+00 -0.46215921644E-02 -0.21140523096E-01  0.13108677096E+00  0.18906566473E-01 0.  0.
         14    1    1    2    0    0 -0.10524266128E-01 -0.20736742978E-01 -0.68646509771E-02  0.24246569240E-01  0.00000000000E+00 0. -1.
     999901    1    3    3    0    0 -0.11737414056E+00  0.25358335143E-01  0.28005174073E-01  0.88859665980E+00  0.88000000000E+00 0. -1.
        -11    1    4    4    0    0  0.40145060222E-01  0.13678716851E-02  0.17104210788E-02  0.40208004110E-01  0.51100000000E-03 0. -1.
         11    1    4    4    0    0  0.87753346467E-01 -0.59894638495E-02 -0.22850944175E-01  0.90878766850E-01  0.51100000000E-03 0.  1.
</event>
<event>
 8    1  0.1117354E+005  0.1043930E+01  0.7957747E-01            NaN
         13   -1    0    0    0    0  0.00000000000E+00  0.00000000000E+00  0.74505805969E-08  0.10566000000E+00  0.10566000000E+00 0. -1.
     999900   -1    0    0    0    0 -0.00000000000E+00 -0.00000000000E+00 -0.74505805969E-08  0.93827000000E+00  0.93827000000E+00 0.  1.
     999902    2    1    2    0    0  0.21027462784E-01 -0.84322866834E-02 -0.65912931186E-02  0.10203354499E+01  0.10200626096E+01 0.  0.
     999903    2    3    3    0    0 -0.20124856654E-02 -0.13002918996E+00  0.42276775279E-02  0.13160956626E+00  0.19787984557E-01 0.  0.
         14    1    1    2    0    0 -0.21027462784E-01  0.84322866834E-02  0.65912931186E-02  0.23594550108E-01  0.00000000000E+00 0. -1.
     999901    1    3    3    0    0  0.23039948449E-01  0.12159690328E+00 -0.10818970647E-01  0.88872588363E+00  0.88000000000E+00 0.  1.
        -11    1    4    4    0    0  0.18244485407E-02 -0.41743987667E-01 -0.75325936073E-02  0.42460454617E-01  0.51100000000E-03 0. -1.
         11    1    4    4    0    0 -0.38369342061E-02 -0.88285202296E-01  0.11760271135E-01  0.89149111643E-01  0.51100000000E-03 0.  1.
</event>
<event>
 8    1  0.1117354E+005  0.1043930E+01  0.7957747E-01            NaN
         13   -1    0    0    0    0  0.00000000000E+00  0.00000000000E+00  0.74505805969E-08  0.10566000000E+00  0.10566000000E+00 0. -1.
     999900   -1    0    0    0    0 -0.00000000000E+00 -0.00000000000E+00 -0.74505805969E-08  0.93827000000E+00  0.93827000000E+00 0. -1.
     999902    2    1    2    0    0  0.14451013714E-01  0.17874636120E-01 -0.75818218520E-02  0.10197263136E+01  0.10194390301E+01 0.  0.
     999903    2    3    3    0    0  0.80690541703E-01 -0.97206462343E-01 -0.22122461880E-01  0.12964611242E+00  0.18938091325E-01 0.  0.
         14    1    1    2    0    0 -0.14451013714E-01 -0.17874636120E-01  0.75818218520E-02  0.24203686421E-01  0.00000000000E+00 0. -1.
     999901    1    3    3    0    0 -0.66239527989E-01  0.11508109846E+00  0.14540640028E-01  0.89008020116E+00  0.88000000000E+00 0.  1.
        -11    1    4    4    0    0  0.48924306146E-01 -0.55949495657E-01 -0.37198188304E-02  0.74417954616E-01  0.51100000000E-03 0.  1.
         11    1    4    4    0    0  0.31766235557E-01 -0.41256966686E-01 -0.18402643050E-01  0.55228157799E-01  0.51100000000E-03 0. -1.
</event>
<event>
 8    1  0.1117354E+005  0.1043930E+01  0.7957747E-01            NaN
         13   -1    0    0    0    0  0.00000000000E+00  0.00000000000E+00  0.74505805969E-08  0.10566000000E+00  0.10566000000E+00 0. -1.
     999900   -1    0    0    0    0 -0.00000000000E+00 -0.00000000000E+00 -0.74505805969E-08  0.93827000000E+00  0.93827000000E+00 0.  1.
     999902    2    1    2    0    0  0.16575069903E-01 -0.32642274091E-02 -0.17750804190E-01  0.10194253235E+01  0.10191307624E+01 0.  0.
     999903    2    3    3    0    0 -0.10028734113E+00 -0.19455081977E-01  0.72896830564E-01  0.12693669016E+00  0.19050574737E-01 0.  0.
         14    1    1    2    0    0 -0.16575069903E-01  0.32642274091E-02  0.17750804190E-01  0.24504676539E-01  0.00000000000E+00 0.  1.
     999901    1    3    3    0    0  0.11686241103E+00  0.16190854567E-01 -0.90647634754E-01  0.89248863330E+00  0.88000000000E+00 0. -1.
        -11    1    4    4    0    0 -0.29481198422E-01 -0.13196289005E-01  0.16975864866E-01  0.36492796726E-01  0.51100000000E-03 0.  1.
         11    1    4    4    0    0 -0.70806142705E-01 -0.62587929713E-02  0.55920965698E-01  0.90443893436E-01  0.51100000000E-03 0. -1.
</event>
<event>
 8    1  0.1117354E+005  0.1043930E+01  0.7957747E-01            NaN
         13   -1    0    0    0    0  0.00000000000E+00  0.00000000000E+00  0.74505805969E-08  0.10566000000E+00  0.10566000000E+00 0. -1.
     999900   -1    0    0    0    0 -0.00000000000E+00 -0.00000000000E+00 -0.74505805969E-08  0.93827000000E+00  0.93827000000E+00 0.  1.
     999902    2    1    2    0    0  0.17112650309E-01  0.19754976503E-01  0.74805896216E-02  0.10167443214E+01  0.10163808115E+01 0.  0.
     999903    2    3    3    0    0 -0.64659123197E-01 -0.35992916494E-01  0.99895591328E-01  0.12638766086E+00  0.22768825181E-01 0.  0.
         14    1    1    2    0    0 -0.17112650309E-01 -0.19754976503E-01 -0.74805896216E-02  0.27185678552E-01  0.00000000000E+00 0. -1.
     999901    1    3    3    0    0  0.81771773506E-01  0.55747892997E-01 -0.92415001706E-01  0.89035666059E+00  0.88000000000E+00 0. -1.
        -11    1    4    4    0    0 -0.85703368899E-02 -0.27801515625E-02  0.27625147010E-01  0.29061826946E-01  0.51100000000E-03 0. -1.
         11    1    4    4    0    0 -0.56088786308E-01 -0.33212764931E-01  0.72270444318E-01  0.97325833912E-01  0.51100000000E-03 0.  1.
</event>
<event>
 8    1  0.1117354E+005  0.1043930E+01  0.7957747E-01            NaN
         13   -1    0    0    0    0  0.00000000000E+00  0.00000000000E+00  0.74505805969E-08  0.10566000000E+00  0.10566000000E+00 0.  1.
     999900   -1    0    0    0    0 -0.00000000000E+00 -0.00000000000E+00 -0.74505805969E-08  0.93827000000E+00  0.93827000000E+00 0. -1.
     999902    2    1    2    0    0  0.21874750981E-01 -0.31771831718E-02 -0.76015009010E-02  0.10205551837E+01  0.10202874599E+01 0.  0.
     999903    2    3    3    0    0  0.35376916646E-01 -0.12135429299E+00 -0.32849204849E-01  0.13219400467E+00  0.20440008617E-01 0.  0.
         14    1    1    2    0    0 -0.21874750981E-01  0.31771831718E-02  0.76015009010E-02  0.23374816348E-01  0.00000000000E+00 0.  1.
     999901    1    3    3    0    0 -0.13502165665E-01  0.11817710982E+00  0.25247703948E-01  0.88836117898E+00  0.88000000000E+00 0. -1.
        -11    1    4    4    0    0  0.32581970970E-01 -0.77702289604E-01 -0.23276714529E-01  0.87414513681E-01  0.51100000000E-03 0. -1.
         11    1    4    4    0    0  0.27949456760E-02 -0.43652003391E-01 -0.95724903200E-02  0.44779490990E-01  0.51100000000E-03 0.  1.
</event>
<event>
 8    1  0.1117354E+005  0.1043930E+01  0.7957747E-01            NaN
         13   -1    0    0    0    0  0.00000000000E+00  0.00000000000E+00  0.74505805969E-08  0.10566000000E+00  0.10566000000E+00 0. -1.
     999900   -1    0    0    0    0 -0.00000000000E+00 -0.00000000000E+00 -0.74505805969E-08  0.93827000000E+00  0.93827000000E+00 0. -1.
     999902    2    1    2    0    0  0.81813226553E-02  0.24831259188E-01  0.26099523565E-02  0.10176557288E+01  0.10173164921E+01 0.  0.
     999903    2    3    3    0    0  0.30929765537E-01  0.12061583302E+00  0.37122751155E-01  0.13149360513E+00  0.20190095723E-01 0.  0.
         14    1    1    2    0    0 -0.81813226553E-02 -0.24831259188E-01 -0.26099523565E-02  0.26274271152E-01  0.00000000000E+00 0.  1.
     999901    1    3    3    0    0 -0.22748442882E-01 -0.95784573829E-01 -0.34512798799E-01  0.88616212372E+00  0.88000000000E+00 0.  1.
        -11    1    4    4    0    0  0.16173808226E-01  0.77578941272E-01  0.14070919998E-01  0.80488111619E-01  0.51100000000E-03 0. -1.
         11    1    4    4    0    0  0.14755957311E-01  0.43036891745E-01  0.23051831158E-01  0.51005493508E-01  0.51100000000E-03 0.  1.
</event>
<event>
 8    1  0.1117354E+005  0.1043930E+01  0.7957747E-01            NaN
         13   -1    0    0    0    0  0.00000000000E+00  0.00000000000E+00  0.74505805969E-08  0.10566000000E+00  0.10566000000E+00 0.  1.
     999900   -1    0    0    0    0 -0.00000000000E+00 -0.00000000000E+00 -0.74505805969E-08  0.93827000000E+00  0.93827000000E+00 0. -1.
     999902    2    1    2    0    0  0.24069543884E-01  0.26796859532E-02 -0.25175446390E-02  0.10195812487E+01  0.10192904694E+01 0.  0.
     999903    2    3    3    0    0  0.40823262538E-01 -0.53998234274E-01  0.10976452463E+00  0.13048039006E+00  0.19862861140E-01 0.  0.
         14    1    1    2    0    0 -0.24069543884E-01 -0.26796859532E-02  0.25175446390E-02  0.24348751315E-01  0.00000000000E+00 0.  1.
     999901    1    3    3    0    0 -0.16753718654E-01  0.56677920227E-01 -0.11228206927E+00  0.88910085863E+00  0.88000000000E+00 0. -1.
        -11    1    4    4    0    0  0.35570069364E-01 -0.31781205470E-01  0.73245806416E-01  0.87409862911E-01  0.51100000000E-03 0.  1.
         11    1    4    4    0    0  0.52531931742E-02 -0.22217028804E-01  0.36518718218E-01  0.43070527147E-01  0.51100000000E-03 0. -1.
</event>
<event>
 7    1  0.1117354E+005  0.1043930E+01  0.7957747E-01            NaN
         13   -1    0    0    0    0  0.00000000000E+00  0.00000000000E+00  0.74505805969E-08  0.10566000000E+00  0.10566000000E+00 0.  1.
     999900   -1    0    0    0    0 -0.00000000000E+00 -0.00000000000E+00 -0.74505805969E-08  0.93827000000E+00  0.93827000000E+00 0.  1.
     999903    2    1    2    0    0  0.56408580521E-01  0.67224021437E-01 -0.10534506958E-01  0.90476552733E-01  0.19339951993E-01 0.  0.
         14    1    1    2    0    0 -0.38319016663E-01 -0.16668552868E-01  0.56902898970E-01  0.70598354117E-01  0.00000000000E+00 0.  1.
     999901    1    1    2    0    0 -0.18089563858E-01 -0.50555468569E-01 -0.46368392013E-01  0.88285509315E+00  0.88000000000E+00 0.  1.
        -11    1    3    3    0    0  0.29356517971E-01  0.40529328631E-01 -0.14899665821E-01  0.52217744007E-01  0.51100000000E-03 0.  1.
         11    1    3    3    0    0  0.27052062550E-01  0.26694692806E-01  0.43651588629E-02  0.38258808726E-01  0.51100000000E-03 0. -1.
</event>
<event>
 8    1  0.1117354E+005  0.1043930E+01  0.7957747E-01            NaN
         13   -1    0    0    0    0  0.00000000000E+00  0.00000000000E+00  0.74505805969E-08  0.10566000000E+00  0.10566000000E+00 0.  1.
     999900   -1    0    0    0    0 -0.00000000000E+00 -0.00000000000E+00 -0.74505805969E-08  0.93827000000E+00  0.93827000000E+00 0. -1.
     999902    2    1    2    0    0 -0.17102067516E-01  0.87671027496E-02  0.14721094004E-01  0.10197214599E+01  0.10194340599E+01 0.  0.
     999903    2    3    3    0    0 -0.42266398173E-01 -0.11962573584E+00  0.20084573920E-01  0.13003233924E+00  0.20205297551E-01 0.  0.
         14    1    1    2    0    0  0.17102067516E-01 -0.87671027496E-02 -0.14721094004E-01  0.24208540076E-01  0.00000000000E+00 0. -1.
     999901    1    3    3    0    0  0.25164330656E-01  0.12839283859E+00 -0.53634799159E-02  0.88968912068E+00  0.88000000000E+00 0.  1.
        -11    1    4    4    0    0 -0.16452171571E-01 -0.74356824262E-01  0.15486170638E-01  0.77715467352E-01  0.51100000000E-03 0.  1.
         11    1    4    4    0    0 -0.25814226601E-01 -0.45268911581E-01  0.45984032822E-02  0.52316871891E-01  0.51100000000E-03 0. -1.
</event>
<event>
 8    1  0.1117354E+005  0.1043930E+01  0.7957747E-01            NaN
         13   -1    0    0    0    0  0.00000000000E+00  0.00000000000E+00  0.74505805969E-08  0.10566000000E+00  0.10566000000E+00 0.  1.
     999900   -1    0    0    0    0 -0.00000000000E+00 -0.00000000000E+00 -0.74505805969E-08  0.93827000000E+00  0.93827000000E+00 0.  1.
     999902    2    1    2    0    0 -0.25989101442E-01 -0.51458920287E-02  0.11600793310E-02  0.10174109619E+01  0.10170652909E+01 0.  0.
     999903    2    3    3    0    0  0.10480961053E+00 -0.51214564130E-01 -0.41897638904E-01  0.12551153218E+00  0.19741999028E-01 0.  0.
         14    1    1    2    0    0  0.25989101442E-01  0.51458920287E-02 -0.11600793310E-02  0.26519038115E-01  0.00000000000E+00 0.  1.
     999901    1    3    3    0    0 -0.13079871198E+00  0.46068672102E-01  0.43057718235E-01  0.89189942970E+00  0.88000000000E+00 0. -1.
        -11    1    4    4    0    0  0.53141039048E-01 -0.36883632454E-01 -0.22578242295E-01  0.68515768406E-01  0.51100000000E-03 0.  1.
         11    1    4    4    0    0  0.51668571486E-01 -0.14330931676E-01 -0.19319396609E-01  0.56995763776E-01  0.51100000000E-03 0. -1.
</event>
<event>
 8    1  0.1117354E+005  0.1043930E+01  0.7957747E-01            NaN
         13   -1    0    0    0    0  0.00000000000E+00  0.00000000000E+00  0.74505805969E-08  0.10566000000E+00  0.10566000000E+00 0. -1.
     999900   -1    0    0    0    0 -0.00000000000E+00 -0.00000000000E+00 -0.74505805969E-08  0.93827000000E+00  0.93827000000E+00 0.  1.
     999902    2    1    2    0    0 -0.12045946704E-01 -0.20085560847E-01 -0.60924146230E-02  0.10197297499E+01  0.10194425491E+01 0.  0.
     999903    2    3    3    0    0  0.39404032705E-01  0.11381591711E+00 -0.36083135922E-01  0.12761083997E+00  0.21812679792E-01 0.  0.
         14    1    1    2    0    0  0.12045946704E-01  0.20085560847E-01  0.60924146230E-02  0.24200250050E-01  0.00000000000E+00 0. -1.
     999901    1    3    3    0    0 -0.51449979410E-01 -0.13390147795E+00  0.29990721299E-01  0.89211890998E+00  0.88000000000E+00 0.  1.
        -11    1    4    4    0    0 -0.54140488392E-03  0.98665459457E-02 -0.81004153083E-02  0.12787482055E-01  0.51100000000E-03 0.  1.
         11    1    4    4    0    0  0.39945437589E-01  0.10394937116E+00 -0.27982720614E-01  0.11482335791E+00  0.51100000000E-03 0. -1.
</event>
<event>
 8    1  0.1117354E+005  0.1043930E+01  0.7957747E-01            NaN
         13   -1    0    0    0    0  0.00000000000E+00  0.00000000000E+00  0.74505805969E-08  0.10566000000E+00  0.10566000000E+00 0. -1.
     999900   -1    0    0    0    0 -0.00000000000E+00 -0.00000000000E+00 -0.74505805969E-08  0.93827000000E+00  0.93827000000E+00 0.  1.
     999902    2    1    2    0    0 -0.19204293189E-02 -0.17861303602E-01 -0.13728153457E-01  0.10213207892E+01  0.10210705059E+01 0.  0.
     999903    2    3    3    0    0  0.12940252016E+00 -0.73931032998E-02  0.61689037420E-02  0.13129202947E+00  0.19996785441E-01 0.  0.
         14    1    1    2    0    0  0.19204293189E-02  0.17861303602E-01  0.13728153457E-01  0.22609210789E-01  0.00000000000E+00 0. -1.
     999901    1    3    3    0    0 -0.13132294948E+00 -0.10468200302E-01 -0.19897057199E-01  0.89002875974E+00  0.88000000000E+00 0. -1.
        -11    1    4    4    0    0  0.98138683705E-01 -0.46268406756E-02  0.13178071990E-01  0.99128863589E-01  0.51100000000E-03 0.  1.
         11    1    4    4    0    0  0.31263836460E-01 -0.27662626242E-02 -0.70091682480E-02  0.32163165883E-01  0.51100000000E-03 0. -1.
</event>
<event>
 8    1  0.1117354E+005  0.1043930E+01  0.7957747E-01            NaN
         13   -1    0    0    0    0  0.00000000000E+00  0.00000000000E+00  0.74505805969E-08  0.10566000000E+00  0.10566000000E+00 0. -1.
     999900   -1    0    0    0    0 -0.00000000000E+00 -0.00000000000E+00 -0.74505805969E-08  0.93827000000E+00  0.93827000000E+00 0.  1.
     999902    2    1    2    0    0 -0.98561576619E-02  0.73056257080E-02 -0.20183320811E-01  0.10203104647E+01  0.10200370394E+01 0.  0.
     999903    2    3    3    0    0  0.63513180507E-01  0.11102573101E+00  0.16423207214E-01  0.13043353051E+00  0.19558811367E-01 0.  0.
         14    1    1    2    0    0  0.98561576619E-02 -0.73056257080E-02  0.20183320811E-01  0.23619535343E-01  0.00000000000E+00 0. -1.
     999901    1    3    3    0    0 -0.73369338169E-01 -0.10372010530E+00 -0.36606528026E-01  0.88987693414E+00  0.88000000000E+00 0.  1.
        -11    1    4    4    0    0  0.38226599664E-01  0.53581700946E-01  0.15679743655E-01  0.67663779678E-01  0.51100000000E-03 0.  1.
         11    1    4    4    0    0  0.25286580843E-01  0.57444030065E-01  0.74346355939E-03  0.62769750835E-01  0.51100000000E-03 0. -1.
</event>
<event>
 8    1  0.1117354E+005  0.1043930E+01  0.7957747E-01            NaN
         13   -1    0    0    0    0  0.00000000000E+00  0.00000000000E+00  0.74505805969E-08  0.10566000000E+00  0.10566000000E+00 0.  1.
     999900   -1    0    0    0    0 -0.00000000000E+00 -0.00000000000E+00 -0.74505805969E-08  0.93827000000E+00  0.93827000000E+00 0.  1.
     999902    2    1    2    0    0  0.16554438541E-02  0.11658458503E-01  0.23945447586E-01  0.10172458360E+01  0.10168957893E+01 0.  0.
     999903    2    3    3    0    0  0.59308692572E-01 -0.85851911183E-02 -0.10814057895E+00  0.12529268652E+00  0.20313688928E-01 0.  0.
         14    1    1    2    0    0 -0.16554438541E-02 -0.11658458503E-01 -0.23945447586E-01  0.26684164014E-01  0.00000000000E+00 0. -1.
     999901    1    3    3    0    0 -0.57653248717E-01  0.20243649621E-01  0.13208602654E+00  0.89195314947E+00  0.88000000000E+00 0. -1.
        -11    1    4    4    0    0  0.80607788993E-02  0.59181098467E-02 -0.17153677109E-01  0.19862274290E-01  0.51100000000E-03 0. -1.
         11    1    4    4    0    0  0.51247913672E-01 -0.14503300965E-01 -0.90986901844E-01  0.10543041223E+00  0.51100000000E-03 0.  1.
</event>
<event>
 8    1  0.1117354E+005  0.1043930E+01  0.7957747E-01            NaN
         13   -1    0    0    0    0  0.00000000000E+00  0.00000000000E+00  0.74505805969E-08  0.10566000000E+00  0.10566000000E+00 0.  1.
     999900   -1    0    0    0    0 -0.00000000000E+00 -0.00000000000E+00 -0.74505805969E-08  0.93827000000E+00  0.93827000000E+00 0.  1.
     999902    2    1    2    0    0  0.13035754574E-01 -0.19909276089E-01  0.45742760803E-02  0.10196970849E+01  0.10194090988E+01 0.  0.
     999903    2    3    3    0    0 -0.10319080294E+00  0.37240274788E-01 -0.62436066416E-01  0.12769648523E+00  0.19311915355E-01 0.  0.
         14    1    1    2    0    0 -0.13035754574E-01  0.19909276089E-01 -0.45742760803E-02  0.24232915082E-01  0.00000000000E+00 0. -1.
     999901    1    3    3    0    0  0.11622655751E+00 -0.57149550877E-01  0.67010342496E-01  0.89200059968E+00  0.88000000000E+00 0. -1.
        -11    1    4    4    0    0 -0.75832727792E-01  0.34508803873E-01 -0.52391945805E-01  0.98420715580E-01  0.51100000000E-03 0. -1.
         11    1    4    4    0    0 -0.27358075145E-01  0.27314709150E-02 -0.10044120611E-01  0.29275769654E-01  0.51100000000E-03 0.  1.
</event>
<event>
 8    1  0.1117354E+005  0.1043930E+01  0.7957747E-01            NaN
         13   -1    0    0    0    0  0.00000000000E+00  0.00000000000E+00  0.74505805969E-08  0.10566000000E+00  0.10566000000E+00 0. -1.
     999900   -1    0    0    0    0 -0.00000000000E+00 -0.00000000000E+00 -0.74505805969E-08  0.93827000000E+00  0.93827000000E+00 0.  1.
     999902    2    1    2    0    0  0.31725854214E-01 -0.55079274218E-02 -0.81994184166E-03  0.10117191417E+01  0.10112062511E+01 0.  0.
     999903    2    3    3    0    0 -0.87748607822E-01  0.72494352686E-01 -0.31303339130E-01  0.11970583443E+00  0.19857955802E-01 0.  0.
         14    1    1    2    0    0 -0.31725854214E-01  0.55079274218E-02  0.81994184166E-03  0.32210858336E-01  0.00000000000E+00 0. -1.
     999901    1    3    3    0    0  0.11947446204E+00 -0.78002280108E-01  0.30483397288E-01  0.89201330724E+00  0.88000000000E+00 0.  1.
        -11    1    4    4    0    0 -0.32892647013E-01  0.36732658278E-01 -0.20193857541E-01  0.53284776578E-01  0.51100000000E-03 0.  1.
         11    1    4    4    0    0 -0.54855960810E-01  0.35761694408E-01 -0.11109481589E-01  0.66421057847E-01  0.51100000000E-03 0. -1.
</event>
<event>
 8    1  0.1117354E+005  0.1043930E+01  0.7957747E-01            NaN
         13   -1    0    0    0    0  0.00000000000E+00  0.00000000000E+00  0.74505805969E-08  0.10566000000E+00  0.10566000000E+00 0. -1.
     999900   -1    0    0    0    0 -0.00000000000E+00 -0.00000000000E+00 -0.74505805969E-08  0.93827000000E+00  0.93827000000E+00 0.  1.
     999902    2    1    2    0    0 -0.15183821707E-01 -0.18116081571E-01  0.34821510782E-02  0.10200371929E+01  0.10197573284E+01 0.  0.
     999903    2    3    3    0    0  0.62862413376E-01 -0.67425360329E-01 -0.89961441029E-01  0.13028760756E+00  0.19594325199E-01 0.  0.
         14    1    1    2    0    0  0.15183821707E-01  0.18116081571E-01 -0.34821510782E-02  0.23892807061E-01  0.00000000000E+00 0. -1.
     999901    1    3    3    0    0 -0.78046235083E-01  0.49309278758E-01  0.93443592107E-01  0.88974958538E+00  0.88000000000E+00 0. -1.
        -11    1    4    4    0    0  0.61445044574E-02 -0.17898381833E-01 -0.17226628721E-01  0.25595407115E-01  0.51100000000E-03 0.  1.
         11    1    4    4    0    0  0.56717908919E-01 -0.49526978496E-01 -0.72734812307E-01  0.10469220044E+00  0.51100000000E-03 0. -1.
</event>
<event>
 8    1  0.1117354E+005  0.1043930E+01  0.7957747E-01            NaN
         13   -1    0    0    0    0  0.00000000000E+00  0.00000000000E+00  0.74505805969E-08  0.10566000000E+00  0.10566000000E+00 0. -1.
     999900   -1    0    0    0    0 -0.00000000000E+00 -0.00000000000E+00 -0.74505805969E-08  0.93827000000E+00  0.93827000000E+00 0.  1.
     999902    2    1    2    0    0  0.18147339068E-01 -0.53117918788E-02 -0.14266684814E-01  0.10202428865E+01  0.10199678761E+01 0.  0.
     999903    2    3    3    0    0 -0.11713145654E-01  0.10412767439E+00 -0.75787204671E-01  0.13083104736E+00  0.19831596163E-01 0.  0.
         14    1    1    2    0    0 -0.18147339068E-01  0.53117918788E-02  0.14266684814E-01  0.23687113454E-01  0.00000000000E+00 0. -1.
     999901    1    3    3    0    0  0.29860484722E-01 -0.10943946627E+00  0.61520519857E-01  0.88941183919E+00  0.88000000000E+00 0. -1.
        -11    1    4    4    0    0 -0.14830088151E-01  0.65604971681E-01 -0.55352621988E-01  0.87109802581E-01  0.51100000000E-03 0.  1.
         11    1    4    4    0    0  0.31169424968E-02  0.38522702707E-01 -0.20434582683E-01  0.43721244776E-01  0.51100000000E-03 0. -1.
</event>
<event>
 7    1  0.1117354E+005  0.1043930E+01  0.7957747E-01            NaN
         13   -1    0    0    0    0  0.00000000000E+00  0.00000000000E+00  0.74505805969E-08  0.10566000000E+00  0.10566000000E+00 0. -1.
     999900   -1    0    0    0    0 -0.00000000000E+00 -0.00000000000E+00 -0.74505805969E-08  0.93827000000E+00  0.93827000000E+00 0. -1.
     999903    2    1    2    0    0  0.79728943657E-01  0.65794117561E-01  0.96468104697E-02  0.10545307326E+00  0.18485652424E-01 0.  0.
         14    1    1    2    0    0 -0.50672744809E-01 -0.24764252587E-01 -0.85265153835E-02  0.57041184571E-01  0.00000000000E+00 0. -1.
     999901    1    1    2    0    0 -0.29056198847E-01 -0.41029864975E-01 -0.11202950862E-02  0.88143574217E+00  0.88000000000E+00 0. -1.
        -11    1    3    3    0    0  0.11292659712E-01  0.18221788178E-01  0.47374586959E-02  0.21960472756E-01  0.51100000000E-03 0.  1.
         11    1    3    3    0    0  0.68436283945E-01  0.47572329383E-01  0.49093517738E-02  0.83492600504E-01  0.51100000000E-03 0. -1.
</event>
<event>
 8    1  0.1117354E+005  0.1043930E+01  0.7957747E-01            NaN
         13   -1    0    0    0    0  0.00000000000E+00  0.00000000000E+00  0.74505805969E-08  0.10566000000E+00  0.10566000000E+00 0. -1.
     999900   -1    0    0    0    0 -0.00000000000E+00 -0.00000000000E+00 -0.74505805969E-08  0.93827000000E+00  0.93827000000E+00 0.  1.
     999902    2    1    2    0    0 -0.18221952869E-01 -0.12148531259E-01 -0.92451659934E-02  0.10201581790E+01  0.10198811748E+01 0.  0.
     999903    2    3    3    0    0  0.66798774691E-01 -0.88729421277E-01  0.64005229060E-01  0.12973200174E+00  0.19968385690E-01 0.  0.
         14    1    1    2    0    0  0.18221952869E-01  0.12148531259E-01  0.92451659934E-02  0.23771820972E-01  0.00000000000E+00 0.  1.
     999901    1    3    3    0    0 -0.85020727560E-01  0.76580890018E-01 -0.73250395053E-01  0.89042617729E+00  0.88000000000E+00 0.  1.
        -11    1    4    4    0    0  0.28001246976E-01 -0.50076055334E-01  0.25526354824E-01  0.62797588024E-01  0.51100000000E-03 0.  1.
         11    1    4    4    0    0  0.38797527715E-01 -0.38653365943E-01  0.38478874236E-01  0.66934413712E-01  0.51100000000E-03 0. -1.
</event>
<event>
 8    1  0.1117354E+005  0.1043930E+01  0.7957747E-01            NaN
         13   -1    0    0    0    0  0.00000000000E+00  0.00000000000E+00  0.74505805969E-08  0.10566000000E+00  0.10566000000E+00 0.  1.
     999900   -1    0    0    0    0 -0.00000000000E+00 -0.00000000000E+00 -0.74505805969E-08  0.93827000000E+00  0.93827000000E+00 0. -1.
     999902    2    1    2    0    0  0.14019272238E-01  0.10895321031E-01  0.15511342792E-01  0.10203535336E+01  0.10200811162E+01 0.  0.
     999903    2    3    3    0    0 -0.75633740047E-01 -0.22764314399E-01 -0.98525243689E-01  0.12784304246E+00  0.19948514191E-01 0.  0.
         14    1    1    2    0    0 -0.14019272238E-01 -0.10895321031E-01 -0.15511342792E-01  0.23576466437E-01  0.00000000000E+00 0. -1.
     999901    1    3    3    0    0  0.89653012285E-01  0.33659635431E-01  0.11403658648E+00  0.89251049110E+00  0.88000000000E+00 0.  1.
        -11    1    4    4    0    0 -0.24737240619E-01 -0.36676724632E-02 -0.18552310881E-01  0.31142129901E-01  0.51100000000E-03 0. -1.
         11    1    4    4    0    0 -0.50896499428E-01 -0.19096641936E-01 -0.79972932808E-01  0.96700912561E-01  0.51100000000E-03 0.  1.
</event>
<event>
 8    1  0.1117354E+005  0.1043930E+01  0.7957747E-01            NaN
         13   -1    0    0    0    0  0.00000000000E+00  0.00000000000E+00  0.74505805969E-08  0.10566000000E+00  0.10566000000E+00 0.  1.
     999900   -1    0    0    0    0 -0.00000000000E+00 -0.00000000000E+00 -0.74505805969E-08  0.93827000000E+00  0.93827000000E+00 0. -1.
     999902    2    1    2    0    0 -0.21024503995E-01 -0.17506589889E-01 -0.21411215055E-01  0.10091888056E+01  0.10085906478E+01 0.  0.
     999903    2    3    3    0    0  0.11174353588E+00 -0.96963937021E-02  0.29809969953E-01  0.11772261928E+00  0.19731774355E-01 0.  0.
         14    1    1    2    0    0  0.21024503995E-01  0.17506589889E-01  0.21411215055E-01  0.34741194394E-01  0.00000000000E+00 0.  1.
     999901    1    3    3    0    0 -0.13276803987E+00 -0.78101961873E-02 -0.51221185008E-01  0.89146618633E+00  0.88000000000E+00 0. -1.
        -11    1    4    4    0    0  0.84456331480E-01  0.59334644479E-03  0.25590617066E-01  0.88251712674E-01  0.51100000000E-03 0. -1.
         11    1    4    4    0    0  0.27287204398E-01 -0.10289740147E-01  0.42193528869E-02  0.29470906601E-01  0.51100000000E-03 0.  1.
</event>
<event>
 8    1  0.1117354E+005  0.1043930E+01  0.7957747E-01            NaN
         13   -1    0    0    0    0  0.00000000000E+00  0.00000000000E+00  0.74505805969E-08  0.10566000000E+00  0.10566000000E+00 0.  1.
     999900   -1    0    0    0    0 -0.00000000000E+00 -0.00000000000E+00 -0.74505805969E-08  0.93827000000E+00  0.93827000000E+00 0.  1.
     999902    2    1    2    0    0  0.20635236346E-01  0.12026958680E-01  0.99341332175E-02  0.10180621103E+01  0.10177334193E+01 0.  0.
     999903    2    3    3    0    0 -0.11664598331E+00 -0.23300327115E-01  0.37151658696E-01  0.12630264494E+00  0.20565060371E-01 0.  0.
         14    1    1    2    0    0 -0.20635236346E-01 -0.12026958680E-01 -0.99341332175E-02  0.25867889688E-01  0.00000000000E+00 0. -1.
     999901    1    3    3    0    0  0.13728121966E+00  0.35327285795E-01 -0.27217525478E-01  0.89175946537E+00  0.88000000000E+00 0. -1.
        -11    1    4    4    0    0 -0.61840230905E-02  0.33038440449E-02  0.31430523585E-02  0.77004822047E-02  0.51100000000E-03 0. -1.
         11    1    4    4    0    0 -0.11046196022E+00 -0.26604171160E-01  0.34008606337E-01  0.11860216273E+00  0.51100000000E-03 0.  1.
</event>
<event>
 8    1  0.1117354E+005  0.1043930E+01  0.7957747E-01            NaN
         13   -1    0    0    0    0  0.00000000000E+00  0.00000000000E+00  0.74505805969E-08  0.10566000000E+00  0.10566000000E+00 0. -1.
     999900   -1    0    0    0    0 -0.00000000000E+00 -0.00000000000E+00 -0.74505805969E-08  0.93827000000E+00  0.93827000000E+00 0. -1.
     999902    2    1    2    0    0  0.17585339237E-01  0.12841546100E-01  0.99447920792E-02  0.10199915717E+01  0.10197106246E+01 0.  0.
     999903    2    3    3    0    0 -0.59186496283E-01  0.88541006834E-01 -0.71255354793E-01  0.12970072764E+00  0.20059958357E-01 0.  0.
         14    1    1    2    0    0 -0.17585339237E-01 -0.12841546100E-01 -0.99447920792E-02  0.23938428349E-01  0.00000000000E+00 0.  1.
     999901    1    3    3    0    0  0.76771835520E-01 -0.75699460734E-01  0.81200146872E-01  0.89029084401E+00  0.88000000000E+00 0.  1.
        -11    1    4    4    0    0 -0.31627638231E-01  0.56954189695E-01 -0.33377766941E-01  0.73201254572E-01  0.51100000000E-03 0.  1.
         11    1    4    4    0    0 -0.27558858052E-01  0.31586817139E-01 -0.37877587852E-01  0.56499473064E-01  0.51100000000E-03 0. -1.
</event>
<event>
 8    1  0.1117354E+005  0.1043930E+01  0.7957747E-01            NaN
         13   -1    0    0    0    0  0.00000000000E+00  0.00000000000E+00  0.74505805969E-08  0.10566000000E+00  0.10566000000E+00 0.  1.
     999900   -1    0    0    0    0 -0.00000000000E+00 -0.00000000000E+00 -0.74505805969E-08  0.93827000000E+00  0.93827000000E+00 0. -1.
     999902    2    1    2    0    0 -0.18521323570E-01 -0.21704068711E-02 -0.13847407587E-01  0.10207028437E+01  0.10204385304E+01 0.  0.
     999903    2    3    3    0    0 -0.86971166466E-01 -0.54274312911E-01 -0.83796228155E-01  0.13374566575E+00  0.18878835142E-01 0.  0.
         14    1    1    2    0    0  0.18521323570E-01  0.21704068711E-02  0.13847407587E-01  0.23227156297E-01  0.00000000000E+00 0.  1.
     999901    1    3    3    0    0  0.68449842896E-01  0.52103906040E-01  0.69948820568E-01  0.88695717795E+00  0.88000000000E+00 0.  1.
        -11    1    4    4    0    0 -0.58558890413E-01 -0.27057605668E-01 -0.46418736543E-01  0.79474636798E-01  0.51100000000E-03 0. -1.
         11    1    4    4    0    0 -0.28412276053E-01 -0.27216707243E-01 -0.37377491612E-01  0.54271028955E-01  0.51100000000E-03 0.  1.
</event>
<event>
 8    1  0.1117354E+005  0.1043930E+01  0.7957747E-01            NaN
         13   -1    0    0    0    0  0.00000000000E+00  0.00000000000E+00  0.74505805969E-08  0.10566000000E+00  0.10566000000E+00 0.  1.
     999900   -1    0    0    0    0 -0.00000000000E+00 -0.00000000000E+00 -0.74505805969E-08  0.93827000000E+00  0.93827000000E+00 0.  1.
     999902    2    1    2    0    0 -0.14945555143E-01  0.19297524416E-01 -0.31724385591E-02  0.10193164177E+01  0.10190192005E+01 0.  0.
     999903    2    3    3    0    0 -0.26262552890E-01  0.24405506716E-01  0.12352956126E+00  0.13015526095E+00  0.19886905398E-01 0.  0.
         14    1    1    2    0    0  0.14945555143E-01 -0.19297524416E-01  0.31724385591E-02  0.24613582298E-01  0.00000000000E+00 0.  1.
     999901    1    3    3    0    0  0.11316997747E-01 -0.51079822997E-02 -0.12670199982E+00  0.88916115675E+00  0.88000000000E+00 0.  1.
        -11    1    4    4    0    0 -0.18354601009E-01  0.16082807871E-01  0.48980711388E-01  0.54725855830E-01  0.51100000000E-03 0. -1.
         11    1    4    4    0    0 -0.79079518806E-02  0.83226988443E-02  0.74548849868E-01  0.75429405120E-01  0.51100000000E-03 0.  1.
</event>
<event>
 8    1  0.1117354E+005  0.1043930E+01  0.7957747E-01            NaN
         13   -1    0    0    0    0  0.00000000000E+00  0.00000000000E+00  0.74505805969E-08  0.10566000000E+00  0.10566000000E+00 0.  1.
     999900   -1    0    0    0    0 -0.00000000000E+00 -0.00000000000E+00 -0.74505805969E-08  0.93827000000E+00  0.93827000000E+00 0. -1.
     999902    2    1    2    0    0 -0.15322768555E-01  0.10256250932E-01  0.15602565137E-01  0.10197759536E+01  0.10194898614E+01 0.  0.
     999903    2    3    3    0    0 -0.56332155925E-01  0.11788756474E+00 -0.14738845101E-03  0.13213056797E+00  0.19689478310E-01 0.  0.
         14    1    1    2    0    0  0.15322768555E-01 -0.10256250932E-01 -0.15602565137E-01  0.24154046415E-01  0.00000000000E+00 0.  1.
     999901    1    3    3    0    0  0.41009387370E-01 -0.10763131381E+00  0.15749953588E-01  0.88764538561E+00  0.88000000000E+00 0. -1.
        -11    1    4    4    0    0 -0.17889479963E-01  0.60138390321E-01  0.71390279633E-03  0.62748946301E-01  0.51100000000E-03 0.  1.
         11    1    4    4    0    0 -0.38442675962E-01  0.57749174424E-01 -0.86129124734E-03  0.69381621669E-01  0.51100000000E-03 0. -1.
</event>
<event>
 8    1  0.1117354E+005  0.1043930E+01  0.7957747E-01            NaN
         13   -1    0    0    0    0  0.00000000000E+00  0.00000000000E+00  0.74505805969E-08  0.10566000000E+00  0.10566000000E+00 0.  1.
     999900   -1    0    0    0    0 -0.00000000000E+00 -0.00000000000E+00 -0.74505805969E-08  0.93827000000E+00  0.93827000000E+00 0. -1.
     999902    2    1    2    0    0 -0.55159720710E-02 -0.13439642928E-01 -0.18913092445E-01  0.10200814148E+01  0.10198025975E+01 0.  0.
     999903    2    3    3    0    0  0.38907677916E-01  0.63890465688E-01 -0.10600483577E+00  0.13129663876E+00  0.20149023185E-01 0.  0.
         14    1    1    2    0    0  0.55159720710E-02  0.13439642928E-01  0.18913092445E-01  0.23848585194E-01  0.00000000000E+00 0.  1.
     999901    1    3    3    0    0 -0.44423649987E-01 -0.77330108617E-01  0.87091743329E-01  0.88878477605E+00  0.88000000000E+00 0.  1.
        -11    1    4    4    0    0  0.26801311629E-01  0.27387682330E-01 -0.44187039290E-01  0.58490606174E-01  0.51100000000E-03 0.  1.
         11    1    4    4    0    0  0.12106366287E-01  0.36502783358E-01 -0.61817796484E-01  0.72806032585E-01  0.51100000000E-03 0. -1.
</event>
<event>
 8    1  0.1117354E+005  0.1043930E+01  0.7957747E-01            NaN
         13   -1    0    0    0    0  0.00000000000E+00  0.00000000000E+00  0.74505805969E-08  0.10566000000E+00  0.10566000000E+00 0. -1.
     999900   -1    0    0    0    0 -0.00000000000E+00 -0.00000000000E+00 -0.74505805969E-08  0.93827000000E+00  0.93827000000E+00 0.  1.
     999902    2    1    2    0    0 -0.67491529096E-02 -0.22464744251E-01  0.54949425441E-02  0.10198382962E+01  0.10195536966E+01 0.  0.
     999903    2    3    3    0    0 -0.95968255051E-01  0.67857214689E-01 -0.49318559553E-01  0.12903942749E+00  0.20108355666E-01 0.  0.
         14    1    1    2    0    0  0.67491529096E-02  0.22464744251E-01 -0.54949425441E-02  0.24091703817E-01  0.00000000000E+00 0.  1.
     999901    1    3    3    0    0  0.89219102141E-01 -0.90321958939E-01  0.54813502097E-01  0.89079886869E+00  0.88000000000E+00 0. -1.
        -11    1    4    4    0    0 -0.80356315222E-01  0.47271323021E-01 -0.35727745442E-01  0.99842116822E-01  0.51100000000E-03 0. -1.
         11    1    4    4    0    0 -0.15611939829E-01  0.20585891668E-01 -0.13590814111E-01  0.29197310667E-01  0.51100000000E-03 0.  1.
</event>
<event>
 8    1  0.1117354E+005  0.1043930E+01  0.7957747E-01            NaN
         13   -1    0    0    0    0  0.00000000000E+00  0.00000000000E+00  0.74505805969E-08  0.10566000000E+00  0.10566000000E+00 0.  1.
     999900   -1    0    0    0    0 -0.00000000000E+00 -0.00000000000E+00 -0.74505805969E-08  0.93827000000E+00  0.93827000000E+00 0.  1.
     999902    2    1    2    0    0  0.26312489906E-02  0.23038379286E-01 -0.12418440026E-01  0.10176258550E+01  0.10172858363E+01 0.  0.
     999903    2    3    3    0    0 -0.66588170110E-01 -0.32422764421E-01  0.10014481909E+00  0.12603303665E+00  0.19238541619E-01 0.  0.
         14    1    1    2    0    0 -0.26312489906E-02 -0.23038379286E-01  0.12418440026E-01  0.26304144998E-01  0.00000000000E+00 0. -1.
     999901    1    3    3    0    0  0.69219419101E-01  0.55461143707E-01 -0.11256325912E+00  0.89159281836E+00  0.88000000000E+00 0.  1.
        -11    1    4    4    0    0 -0.28747245465E-01 -0.24534805819E-01  0.46905044252E-01  0.60238734347E-01  0.51100000000E-03 0. -1.
         11    1    4    4    0    0 -0.37840924645E-01 -0.78879586022E-02  0.53239774840E-01  0.65794302299E-01  0.51100000000E-03 0.  1.
</event>
<event>
 8    1  0.1117354E+005  0.1043930E+01  0.7957747E-01            NaN
         13   -1    0    0    0    0  0.00000000000E+00  0.00000000000E+00  0.74505805969E-08  0.10566000000E+00  0.10566000000E+00 0. -1.
     999900   -1    0    0    0    0 -0.00000000000E+00 -0.00000000000E+00 -0.74505805969E-08  0.93827000000E+00  0.93827000000E+00 0.  1.
     999902    2    1    2    0    0 -0.13757105902E-01 -0.96585806809E-02  0.18468753691E-01  0.10189571947E+01  0.10186511295E+01 0.  0.
     999903    2    3    3    0    0 -0.97130194057E-02  0.12429716614E+00  0.22797136437E-01  0.12880033678E+00  0.22927910219E-01 0.  0.
         14    1    1    2    0    0  0.13757105902E-01  0.96585806809E-02 -0.18468753691E-01  0.24972805339E-01  0.00000000000E+00 0.  1.
     999901    1    3    3    0    0 -0.40440864967E-02 -0.13395574682E+00 -0.43283827456E-02  0.89015685788E+00  0.88000000000E+00 0.  1.
        -11    1    4    4    0    0 -0.60899640016E-02  0.11739526452E+00  0.25936275182E-01  0.12038142416E+00  0.51100000000E-03 0. -1.
         11    1    4    4    0    0 -0.36230554042E-02  0.69019016254E-02 -0.31391387450E-02  0.84189126120E-02  0.51100000000E-03 0.  1.
</event>
<event>
 8    1  0.1117354E+005  0.1043930E+01  0.7957747E-01            NaN
         13   -1    0    0    0    0  0.00000000000E+00  0.00000000000E+00  0.74505805969E-08  0.10566000000E+00  0.10566000000E+00 0.  1.
     999900   -1    0    0    0    0 -0.00000000000E+00 -0.00000000000E+00 -0.74505805969E-08  0.93827000000E+00  0.93827000000E+00 0.  1.
     999902    2    1    2    0    0  0.31157569107E-02  0.11905531286E-01  0.19062762961E-01  0.10212399461E+01  0.10209878495E+01 0.  0.
     999903    2    3    3    0    0  0.13473183036E-01  0.12826608284E+00 -0.22444101676E-01  0.13254996972E+00  0.20785622519E-01 0.  0.
         14    1    1    2    0    0 -0.31157569107E-02 -0.11905531286E-01 -0.19062762961E-01  0.22690053945E-01  0.00000000000E+00 0. -1.
     999901    1    3    3    0    0 -0.10357426126E-01 -0.11636055155E+00  0.41506864637E-01  0.88868997634E+00  0.88000000000E+00 0. -1.
        -11    1    4    4    0    0  0.10065538953E-01  0.47491185966E-01 -0.17296414787E-01  0.51537897748E-01  0.51100000000E-03 0.  1.
         11    1    4    4    0    0  0.34076440834E-02  0.80774896874E-01 -0.51476868898E-02  0.81012071967E-01  0.51100000000E-03 0. -1.
</event>
<event>
 8    1  0.1117354E+005  0.1043930E+01  0.7957747E-01            NaN
         13   -1    0    0    0    0  0.00000000000E+00  0.00000000000E+00  0.74505805969E-08  0.10566000000E+00  0.10566000000E+00 0.  1.
     999900   -1    0    0    0    0 -0.00000000000E+00 -0.00000000000E+00 -0.74505805969E-08  0.93827000000E+00  0.93827000000E+00 0.  1.
     999902    2    1    2    0    0 -0.14649204523E-01  0.62103783179E-02 -0.17299274554E-01  0.10204261090E+01  0.10201553857E+01 0.  0.
     999903    2    3    3    0    0  0.94890640260E-01  0.86478189358E-01 -0.57311545963E-02  0.12993426711E+00  0.19166553980E-01 0.  0.
         14    1    1    2    0    0  0.14649204523E-01 -0.62103783179E-02  0.17299274554E-01  0.23503890999E-01  0.00000000000E+00 0.  1.
     999901    1    3    3    0    0 -0.10953984478E+00 -0.80267811040E-01 -0.11568119957E-01  0.89049184190E+00  0.88000000000E+00 0.  1.
        -11    1    4    4    0    0  0.65090656215E-01  0.70384768903E-01 -0.60527159990E-02  0.96060947903E-01  0.51100000000E-03 0. -1.
         11    1    4    4    0    0  0.29799984045E-01  0.16093420455E-01  0.32156140267E-03  0.33873319202E-01  0.51100000000E-03 0.  1.
</event>
<event>
 8    1  0.1117354E+005  0.1043930E+01  0.7957747E-01            NaN
         13   -1    0    0    0    0  0.00000000000E+00  0.00000000000E+00  0.74505805969E-08  0.10566000000E+00  0.10566000000E+00 0.  1.
     999900   -1    0    0    0    0 -0.00000000000E+00 -0.00000000000E+00 -0.74505805969E-08  0.93827000000E+00  0.93827000000E+00 0.  1.
     999902    2    1    2    0    0 -0.19221110584E-01  0.56063324102E-02 -0.14004197741E-01  0.10194964245E+01  0.10192035911E+01 0.  0.
     999903    2    3    3    0    0  0.50942766572E-01 -0.11245844984E+00  0.27007944464E-01  0.12789995849E+00  0.19669822391E-01 0.  0.
         14    1    1    2    0    0  0.19221110584E-01 -0.56063324102E-02  0.14004197741E-01  0.24433575456E-01  0.00000000000E+00 0.  1.
     999901    1    3    3    0    0 -0.70163877156E-01  0.11806478225E+00 -0.41012142205E-01  0.89159646605E+00  0.88000000000E+00 0.  1.
        -11    1    4    4    0    0  0.12067254624E-01 -0.14171099815E-01  0.89942327165E-02  0.20678395666E-01  0.51100000000E-03 0. -1.
         11    1    4    4    0    0  0.38875511947E-01 -0.98287350022E-01  0.18013711748E-01  0.10722156283E+00  0.51100000000E-03 0.  1.
</event>
<event>
 8    1  0.1117354E+005  0.1043930E+01  0.7957747E-01            NaN
         13   -1    0    0    0    0  0.00000000000E+00  0.00000000000E+00  0.74505805969E-08  0.10566000000E+00  0.10566000000E+00 0. -1.
     999900   -1    0    0    0    0 -0.00000000000E+00 -0.00000000000E+00 -0.74505805969E-08  0.93827000000E+00  0.93827000000E+00 0.  1.
     999902    2    1    2    0    0 -0.19599266794E-01  0.86751389532E-02 -0.99670676528E-02  0.10202924931E+01  0.10200186468E+01 0.  0.
     999903    2    3    3    0    0  0.10614374906E+00  0.55426473495E-01  0.41487799197E-01  0.12863975989E+00  0.22098889435E-01 0.  0.
         14    1    1    2    0    0  0.19599266794E-01 -0.86751389532E-02  0.99670676528E-02  0.23637506897E-01  0.00000000000E+00 0. -1.
     999901    1    3    3    0    0 -0.12574301585E+00 -0.46751334542E-01 -0.51454866850E-01  0.89165273321E+00  0.88000000000E+00 0.  1.
        -11    1    4    4    0    0  0.47206572546E-01  0.13259302066E-01  0.20881115165E-01  0.53296826118E-01  0.51100000000E-03 0. -1.
         11    1    4    4    0    0  0.58937176515E-01  0.42167171429E-01  0.20606684033E-01  0.75342933774E-01  0.51100000000E-03 0.  1.
</event>
<event>
 8    1  0.1117354E+005  0.1043930E+01  0.7957747E-01            NaN
         13   -1    0    0    0    0  0.00000000000E+00  0.00000000000E+00  0.74505805969E-08  0.10566000000E+00  0.10566000000E+00 0.  1.
     999900   -1    0    0    0    0 -0.00000000000E+00 -0.00000000000E+00 -0.74505805969E-08  0.93827000000E+00  0.93827000000E+00 0. -1.
     999902    2    1    2    0    0  0.12397069970E-01 -0.78430370848E-02  0.18603943692E-01  0.10202380753E+01  0.10199629518E+01 0.  0.
     999903    2    3    3    0    0  0.57865951072E-01  0.59510423905E-01 -0.97216661309E-01  0.12893659972E+00  0.16840684767E-01 0.  0.
         14    1    1    2    0    0 -0.12397069970E-01  0.78430370848E-02 -0.18603943692E-01  0.23691924689E-01  0.00000000000E+00 0. -1.
     999901    1    3    3    0    0 -0.45468881102E-01 -0.67353460989E-01  0.11582060500E+00  0.89130147560E+00  0.88000000000E+00 0.  1.
        -11    1    4    4    0    0  0.35455949263E-01  0.27514505028E-01 -0.60444067631E-01  0.75285581341E-01  0.51100000000E-03 0. -1.
         11    1    4    4    0    0  0.22410001809E-01  0.31995918877E-01 -0.36772593678E-01  0.53651018375E-01  0.51100000000E-03 0.  1.
</event>
<event>
 7    1  0.1117354E+005  0.1043930E+01  0.7957747E-01            NaN
         13   -1    0    0    0    0  0.00000000000E+00  0.00000000000E+00  0.74505805969E-08  0.10566000000E+00  0.10566000000E+00 0. -1.
     999900   -1    0    0    0    0 -0.00000000000E+00 -0.00000000000E+00 -0.74505805969E-08  0.93827000000E+00  0.93827000000E+00 0. -1.
     999903    2    1    2    0    0 -0.78877752113E-03 -0.43034059940E-01 -0.77427672214E-01  0.90864394235E-01  0.20217349737E-01 0.  0.
         14    1    1    2    0    0 -0.24636091492E-01 -0.14305915376E-01 -0.54041880405E-01  0.61091088192E-01  0.00000000000E+00 0.  1.
     999901    1    1    2    0    0  0.25424869014E-01  0.57339975315E-01  0.13146955262E+00  0.89197451757E+00  0.88000000000E+00 0.  1.
        -11    1    3    3    0    0 -0.77062956337E-02 -0.35758553459E-01 -0.67268189319E-01  0.76572394197E-01  0.51100000000E-03 0. -1.
         11    1    3    3    0    0  0.69175181125E-02 -0.72755064812E-02 -0.10159482895E-01  0.14292000038E-01  0.51100000000E-03 0.  1.
</event>
<event>
 8    1  0.1117354E+005  0.1043930E+01  0.7957747E-01            NaN
         13   -1    0    0    0    0  0.00000000000E+00  0.00000000000E+00  0.74505805969E-08  0.10566000000E+00  0.10566000000E+00 0. -1.
     999900   -1    0    0    0    0 -0.00000000000E+00 -0.00000000000E+00 -0.74505805969E-08  0.93827000000E+00  0.93827000000E+00 0. -1.
     999902    2    1    2    0    0  0.20753571704E-02  0.20108116090E-01 -0.11924786056E-01  0.10204599348E+01  0.10201899992E+01 0.  0.
     999903    2    3    3    0    0  0.10645612297E+00  0.81843729139E-02  0.71922797550E-01  0.13025325246E+00  0.19827528619E-01 0.  0.
         14    1    1    2    0    0 -0.20753571704E-02 -0.20108116090E-01  0.11924786056E-01  0.23470065244E-01  0.00000000000E+00 0. -1.
     999901    1    3    3    0    0 -0.10438076580E+00  0.11923743176E-01 -0.83847583607E-01  0.89020668229E+00  0.88000000000E+00 0. -1.
        -11    1    4    4    0    0  0.70169479539E-01  0.16304877432E-02  0.36475606208E-01  0.79102119556E-01  0.51100000000E-03 0.  1.
         11    1    4    4    0    0  0.36286643436E-01  0.65538851707E-02  0.35447191342E-01  0.51151132907E-01  0.51100000000E-03 0. -1.
</event>
<event>
 8    1  0.1117354E+005  0.1043930E+01  0.7957747E-01            NaN
         13   -1    0    0    0    0  0.00000000000E+00  0.00000000000E+00  0.74505805969E-08  0.10566000000E+00  0.10566000000E+00 0.  1.
     999900   -1    0    0    0    0 -0.00000000000E+00 -0.00000000000E+00 -0.74505805969E-08  0.93827000000E+00  0.93827000000E+00 0. -1.
     999902    2    1    2    0    0  0.10467722320E-01 -0.17132746310E-01 -0.77955232633E-02  0.10223922566E+01  0.10221653741E+01 0.  0.
     999903    2    3    3    0    0  0.10991178526E+00  0.65054705160E-01  0.27699624394E-01  0.13227776717E+00  0.20430939611E-01 0.  0.
         14    1    1    2    0    0 -0.10467722320E-01  0.17132746310E-01  0.77955232633E-02  0.21537743374E-01  0.00000000000E+00 0.  1.
     999901    1    3    3    0    0 -0.99444062938E-01 -0.82187451471E-01 -0.35495147657E-01  0.89011448946E+00  0.88000000000E+00 0. -1.
        -11    1    4    4    0    0  0.35430231329E-01  0.11453771252E-01  0.12378133608E-01  0.39242444885E-01  0.51100000000E-03 0.  1.
         11    1    4    4    0    0  0.74481553930E-01  0.53600933908E-01  0.15321490786E-01  0.93035322284E-01  0.51100000000E-03 0. -1.
</event>
<event>
 8    1  0.1117354E+005  0.1043930E+01  0.7957747E-01            NaN
         13   -1    0    0    0    0  0.00000000000E+00  0.00000000000E+00  0.74505805969E-08  0.10566000000E+00  0.10566000000E+00 0.  1.
     999900   -1    0    0    0    0 -0.00000000000E+00 -0.00000000000E+00 -0.74505805969E-08  0.93827000000E+00  0.93827000000E+00 0.  1.
     999902    2    1    2    0    0  0.57118164930E-02  0.14297011605E-01  0.18731522960E-01  0.10196833643E+01  0.10193950481E+01 0.  0.
     999903    2    3    3    0    0  0.65434128193E-01 -0.33365533452E-01  0.10786483748E+00  0.13188652921E+00  0.19087940309E-01 0.  0.
         14    1    1    2    0    0 -0.57118164930E-02 -0.14297011605E-01 -0.18731522960E-01  0.24246635661E-01  0.00000000000E+00 0. -1.
     999901    1    3    3    0    0 -0.59722311700E-01  0.47662545056E-01 -0.89133314525E-01  0.88779683513E+00  0.88000000000E+00 0.  1.
        -11    1    4    4    0    0  0.19712600726E-01 -0.32911924622E-02  0.39879356299E-01  0.44609895259E-01  0.51100000000E-03 0. -1.
         11    1    4    4    0    0  0.45721527467E-01 -0.30074340989E-01  0.67985481186E-01  0.87276633946E-01  0.51100000000E-03 0.  1.
</event>
<event>
 8    1  0.1117354E+005  0.1043930E+01  0.7957747E-01            NaN
         13   -1    0    0    0    0  0.00000000000E+00  0.00000000000E+00  0.74505805969E-08  0.10566000000E+00  0.10566000000E+00 0. -1.
     999900   -1    0    0    0    0 -0.00000000000E+00 -0.00000000000E+00 -0.74505805969E-08  0.93827000000E+00  0.93827000000E+00 0.  1.
     999902    2    1    2    0    0 -0.19621315833E-01 -0.96369263139E-02  0.84221533044E-02  0.10205035395E+01  0.10202346177E+01 0.  0.
     999903    2    3    3    0    0 -0.58262620196E-01  0.87999223519E-02  0.11745371006E+00  0.13274177635E+00  0.18789189364E-01 0.  0.
         14    1    1    2    0    0  0.19621315833E-01  0.96369263139E-02 -0.84221533044E-02  0.23426460468E-01  0.00000000000E+00 0. -1.
     999901    1    3    3    0    0  0.38641304363E-01 -0.18436848666E-01 -0.10903155676E+00  0.88776176318E+00  0.88000000000E+00 0.  1.
        -11    1    4    4    0    0 -0.16054377386E-01 -0.55906703811E-02  0.27381465639E-01  0.32233591331E-01  0.51100000000E-03 0. -1.
         11    1    4    4    0    0 -0.42208242810E-01  0.14390592733E-01  0.90072244422E-01  0.10050818502E+00  0.51100000000E-03 0.  1.
</event>
<event>
 8    1  0.1117354E+005  0.1043930E+01  0.7957747E-01            NaN
         13   -1    0    0    0    0  0.00000000000E+00  0.00000000000E+00  0.74505805969E-08  0.10566000000E+00  0.10566000000E+00 0. -1.
     999900   -1    0    0    0    0 -0.00000000000E+00 -0.00000000000E+00 -0.74505805969E-08  0.93827000000E+00  0.93827000000E+00 0. -1.
     999902    2    1    2    0    0  0.22510475582E-01 -0.56640545153E-02  0.22481898590E-02  0.10206092500E+01  0.10203427776E+01 0.  0.
     999903    2    3    3    0    0  0.91259474122E-01  0.70925573053E-01  0.61856334435E-01  0.13260839031E+00  0.20001263481E-01 0.  0.
         14    1    1    2    0    0 -0.22510475582E-01  0.56640545153E-02 -0.22481898590E-02  0.23320750034E-01  0.00000000000E+00 0. -1.
     999901    1    3    3    0    0 -0.68748998540E-01 -0.76589627568E-01 -0.59608144576E-01  0.88800085966E+00  0.88000000000E+00 0. -1.
        -11    1    4    4    0    0  0.58216540168E-02  0.10852044729E-01  0.28598561671E-02  0.12653000774E-01  0.51100000000E-03 0.  1.
         11    1    4    4    0    0  0.85437820106E-01  0.60073528324E-01  0.58996478268E-01  0.11995538954E+00  0.51100000000E-03 0. -1.
</event>
<event>
 8    1  0.1117354E+005  0.1043930E+01  0.7957747E-01            NaN
         13   -1    0    0    0    0  0.00000000000E+00  0.00000000000E+00  0.74505805969E-08  0.10566000000E+00  0.10566000000E+00 0. -1.
     999900   -1    0    0    0    0 -0.00000000000E+00 -0.00000000000E+00 -0.74505805969E-08  0.93827000000E+00  0.93827000000E+00 0.  1.
     999902    2    1    2    0    0 -0.10425621134E-01 -0.13513380418E-01 -0.16658935986E-01  0.10200799439E+01  0.10198010918E+01 0.  0.
     999903    2    3    3    0    0  0.30996861522E-01 -0.11636572285E+00 -0.51452811735E-01  0.13243979150E+00  0.19776745401E-01 0.  0.
         14    1    1    2    0    0  0.10425621134E-01  0.13513380418E-01  0.16658935986E-01  0.23850056070E-01  0.00000000000E+00 0. -1.
     999901    1    3    3    0    0 -0.41422482656E-01  0.10285234243E+00  0.34793875749E-01  0.88764015243E+00  0.88000000000E+00 0. -1.
        -11    1    4    4    0    0  0.10014989658E-01 -0.31807115100E-01 -0.24014815693E-01  0.41097020362E-01  0.51100000000E-03 0.  1.
         11    1    4    4    0    0  0.20981871864E-01 -0.84558607750E-01 -0.27437996042E-01  0.91342771139E-01  0.51100000000E-03 0. -1.
</event>
<event>
 8    1  0.1117354E+005  0.1043930E+01  0.7957747E-01            NaN
         13   -1    0    0    0    0  0.00000000000E+00  0.00000000000E+00  0.74505805969E-08  0.10566000000E+00  0.10566000000E+00 0. -1.
     999900   -1    0    0    0    0 -0.00000000000E+00 -0.00000000000E+00 -0.74505805969E-08  0.93827000000E+00  0.93827000000E+00 0. -1.
     999902    2    1    2    0    0  0.74820118494E-02  0.21096803788E-01 -0.87351439980E-02  0.10199017172E+01  0.10196186319E+01 0.  0.
     999903    2    3    3    0    0 -0.23990598307E-01 -0.34316959775E-01  0.11963952624E+00  0.12830692905E+00  0.19895961117E-01 0.  0.
         14    1    1    2    0    0 -0.74820118494E-02 -0.21096803788E-01  0.87351439980E-02  0.24028282753E-01  0.00000000000E+00 0.  1.
     999901    1    3    3    0    0  0.31472610156E-01  0.55413763563E-01 -0.12837467023E+00  0.89159478820E+00  0.88000000000E+00 0. -1.
        -11    1    4    4    0    0 -0.25292000258E-01 -0.33469148009E-01  0.97960954634E-01  0.10656678141E+00  0.51100000000E-03 0. -1.
         11    1    4    4    0    0  0.13014019516E-02 -0.84781176604E-03  0.21678571603E-01  0.21740147644E-01  0.51100000000E-03 0.  1.
</event>
<event>
 8    1  0.1117354E+005  0.1043930E+01  0.7957747E-01            NaN
         13   -1    0    0    0    0  0.00000000000E+00  0.00000000000E+00  0.74505805969E-08  0.10566000000E+00  0.10566000000E+00 0.  1.
     999900   -1    0    0    0    0 -0.00000000000E+00 -0.00000000000E+00 -0.74505805969E-08  0.93827000000E+00  0.93827000000E+00 0. -1.
     999902    2    1    2    0    0 -0.89936503716E-02  0.83045781664E-02  0.19770703903E-01  0.10206763444E+01  0.10204114207E+01 0.  0.
     999903    2    3    3    0    0 -0.55572850540E-01  0.79431159033E-02 -0.11487327935E+00  0.12921756534E+00  0.18704921216E-01 0.  0.
         14    1    1    2    0    0  0.89936503716E-02 -0.83045781664E-02 -0.19770703903E-01  0.23253655591E-01  0.00000000000E+00 0. -1.
     999901    1    3    3    0    0  0.46579200169E-01  0.36146226315E-03  0.13464398325E+00  0.89145877906E+00  0.88000000000E+00 0.  1.
        -11    1    4    4    0    0 -0.42165627812E-01 -0.23746918521E-02 -0.83117916870E-01  0.93233194496E-01  0.51100000000E-03 0. -1.
         11    1    4    4    0    0 -0.13407222729E-01  0.10317807755E-01 -0.31755362480E-01  0.35984370849E-01  0.51100000000E-03 0.  1.
</event>
<event>
 8    1  0.1117354E+005  0.1043930E+01  0.7957747E-01            NaN
         13   -1    0    0    0    0  0.00000000000E+00  0.00000000000E+00  0.74505805969E-08  0.10566000000E+00  0.10566000000E+00 0. -1.
     999900   -1    0    0    0    0 -0.00000000000E+00 -0.00000000000E+00 -0.74505805969E-08  0.93827000000E+00  0.93827000000E+00 0.  1.
     999902    2    1    2    0    0  0.33178885996E-02 -0.20509859572E-01  0.11237431824E-01  0.10203091914E+01  0.10200357364E+01 0.  0.
     999903    2    3    3    0    0  0.51211350773E-01 -0.78476844040E-01  0.92730710673E-01  0.13335084430E+00  0.20056058331E-01 0.  0.
         14    1    1    2    0    0 -0.33178885996E-02  0.20509859572E-01 -0.11237431824E-01  0.23620808589E-01  0.00000000000E+00 0.  1.
     999901    1    3    3    0    0 -0.47893462173E-01  0.57966984468E-01 -0.81493278849E-01  0.88695834711E+00  0.88000000000E+00 0. -1.
        -11    1    4    4    0    0  0.33056643220E-01 -0.62842133744E-01  0.76677601244E-01  0.10450641649E+00  0.51100000000E-03 0. -1.
         11    1    4    4    0    0  0.18154707553E-01 -0.15634710296E-01  0.16053109429E-01  0.28844427810E-01  0.51100000000E-03 0.  1.
</event>
<event>
 8    1  0.1117354E+005  0.1043930E+01  0.7957747E-01            NaN
         13   -1    0    0    0    0  0.00000000000E+00  0.00000000000E+00  0.74505805969E-08  0.10566000000E+00  0.10566000000E+00 0.  1.
     999900   -1    0    0    0    0 -0.00000000000E+00 -0.00000000000E+00 -0.74505805969E-08  0.93827000000E+00  0.93827000000E+00 0.  1.
     999902    2    1    2    0    0 -0.44325308769E-02  0.23182427397E-01 -0.71163356860E-02  0.10192781339E+01  0.10189799800E+01 0.  0.
     999903    2    3    3    0    0 -0.10499881252E+00  0.70279719224E-01  0.30540316078E-01  0.13150014624E+00  0.19889393893E-01 0.  0.
         14    1    1    2    0    0  0.44325308769E-02 -0.23182427397E-01  0.71163356860E-02  0.24651866128E-01  0.00000000000E+00 0.  1.
     999901    1    3    3    0    0  0.10056628165E+00 -0.47097291827E-01 -0.37656651764E-01  0.88777798763E+00  0.88000000000E+00 0. -1.
        -11    1    4    4    0    0 -0.64268274268E-01  0.31151071946E-01  0.16936497808E-01  0.73402359906E-01  0.51100000000E-03 0. -1.
         11    1    4    4    0    0 -0.40730538256E-01  0.39128647277E-01  0.13603818269E-01  0.58097786334E-01  0.51100000000E-03 0.  1.
</event>
<event>
 8    1  0.1117354E+005  0.1043930E+01  0.7957747E-01            NaN
         13   -1    0    0    0    0  0.00000000000E+00  0.00000000000E+00  0.74505805969E-08  0.10566000000E+00  0.10566000000E+00 0. -1.
     999900   -1    0    0    0    0 -0.00000000000E+00 -0.00000000000E+00 -0.74505805969E-08  0.93827000000E+00  0.93827000000E+00 0.  1.
     999902    2    1    2    0    0  0.23680704063E-01  0.10218440275E-02  0.27306988413E-02  0.10200704814E+01  0.10197914054E+01 0.  0.
     999903    2    3    3    0    0  0.39114898774E-01  0.46773854061E-01  0.11485724039E+00  0.13164275668E+00  0.20490509697E-01 0.  0.
         14    1    1    2    0    0 -0.23680704063E-01 -0.10218440275E-02 -0.27306988413E-02  0.23859518568E-01  0.00000000000E+00 0.  1.
     999901    1    3    3    0    0 -0.15434194711E-01 -0.45752010033E-01 -0.11212654154E+00  0.88842772475E+00  0.88000000000E+00 0. -1.
        -11    1    4    4    0    0  0.30272870680E-01  0.32285728980E-01  0.62387262339E-01  0.76493441667E-01  0.51100000000E-03 0. -1.
         11    1    4    4    0    0  0.88420280934E-02  0.14488125081E-01  0.52469978047E-01  0.55149315014E-01  0.51100000000E-03 0.  1.
</event>
<event>
 8    1  0.1117354E+005  0.1043930E+01  0.7957747E-01            NaN
         13   -1    0    0    0    0  0.00000000000E+00  0.00000000000E+00  0.74505805969E-08  0.10566000000E+00  0.10566000000E+00 0.  1.
     999900   -1    0    0    0    0 -0.00000000000E+00 -0.00000000000E+00 -0.74505805969E-08  0.93827000000E+00  0.93827000000E+00 0.  1.
     999902    2    1    2    0    0  0.24357245994E-01  0.40992091196E-02 -0.27367365098E-02  0.10190790710E+01  0.10187760226E+01 0.  0.
     999903    2    3    3    0    0  0.27878801470E-01  0.12474573236E+00 -0.19276440695E-01  0.13068639497E+00  0.19199670613E-01 0.  0.
         14    1    1    2    0    0 -0.24357245994E-01 -0.40992091196E-02  0.27367365098E-02  0.24850929048E-01  0.00000000000E+00 0.  1.
     999901    1    3    3    0    0 -0.35215554761E-02 -0.12064652324E+00  0.16539704185E-01  0.88839267598E+00  0.88000000000E+00 0.  1.
        -11    1    4    4    0    0  0.16950130096E-01  0.39900587704E-01 -0.19284070502E-02  0.43397507811E-01  0.51100000000E-03 0. -1.
         11    1    4    4    0    0  0.10928671374E-01  0.84845144654E-01 -0.17348033645E-01  0.87288887160E-01  0.51100000000E-03 0.  1.
</event>
<event>
 8    1  0.1117354E+005  0.1043930E+01  0.7957747E-01            NaN
         13   -1    0    0    0    0  0.00000000000E+00  0.00000000000E+00  0.74505805969E-08  0.10566000000E+00  0.10566000000E+00 0.  1.
     999900   -1    0    0    0    0 -0.00000000000E+00 -0.00000000000E+00 -0.74505805969E-08  0.93827000000E+00  0.93827000000E+00 0. -1.
     999902    2    1    2    0    0  0.19231161908E-01 -0.59259311385E-03  0.14027419664E-01  0.10201191357E+01  0.10198412101E+01 0.  0.
     999903    2    3    3    0    0  0.92877400787E-01  0.28568629316E-01 -0.85452561890E-01  0.13097887001E+00  0.20271800543E-01 0.  0.
         14    1    1    2    0    0 -0.19231161908E-01  0.59259311385E-03 -0.14027419664E-01  0.23810864271E-01  0.00000000000E+00 0. -1.
     999901    1    3    3    0    0 -0.73646238880E-01 -0.29161222430E-01  0.99479981554E-01  0.88914026572E+00  0.88000000000E+00 0.  1.
        -11    1    4    4    0    0  0.17111696381E-01  0.90577658164E-02 -0.82155764065E-02  0.21038300580E-01  0.51100000000E-03 0.  1.
         11    1    4    4    0    0  0.75765704406E-01  0.19510863500E-01 -0.77236985484E-01  0.10994056943E+00  0.51100000000E-03 0. -1.
</event>
<event>
 8    1  0.1117354E+005  0.1043930E+01  0.7957747E-01            NaN
         13   -1    0    0    0    0  0.00000000000E+00  0.00000000000E+00  0.74505805969E-08  0.10566000000E+00  0.10566000000E+00 0. -1.
     999900   -1    0    0    0    0 -0.00000000000E+00 -0.00000000000E+00 -0.74505805969E-08  0.93827000000E+00  0.93827000000E+00 0.  1.
     999902    2    1    2    0    0 -0.80022414485E-02 -0.13969235308E-01  0.19261074640E-01  0.10188269245E+01  0.10185176178E+01 0.  0.
     999903    2    3    3    0    0  0.61163903896E-01 -0.63550038996E-01 -0.90405926228E-01  0.12794586463E+00  0.20427485959E-01 0.  0.
         14    1    1    2    0    0  0.80022414485E-02  0.13969235308E-01 -0.19261074640E-01  0.25103075500E-01  0.00000000000E+00 0.  1.
     999901    1    3    3    0    0 -0.69166145344E-01  0.49580803688E-01  0.10966700087E+00  0.89088105987E+00  0.88000000000E+00 0. -1.
        -11    1    4    4    0    0  0.50703675832E-02  0.29948137887E-03 -0.25449132712E-02  0.57040355086E-02  0.51100000000E-03 0. -1.
         11    1    4    4    0    0  0.56093536312E-01 -0.63849520375E-01 -0.87861012957E-01  0.12224182912E+00  0.51100000000E-03 0.  1.
</event>
<event>
 8    1  0.1117354E+005  0.1043930E+01  0.7957747E-01            NaN
         13   -1    0    0    0    0  0.00000000000E+00  0.00000000000E+00  0.74505805969E-08  0.10566000000E+00  0.10566000000E+00 0. -1.
     999900   -1    0    0    0    0 -0.00000000000E+00 -0.00000000000E+00 -0.74505805969E-08  0.93827000000E+00  0.93827000000E+00 0. -1.
     999902    2    1    2    0    0  0.21926775438E-01 -0.80081885294E-02  0.79334193405E-02  0.10192753106E+01  0.10189770877E+01 0.  0.
     999903    2    3    3    0    0  0.35737862884E-02 -0.11505644801E+00  0.59528902792E-01  0.13109838234E+00  0.19807508880E-01 0.  0.
         14    1    1    2    0    0 -0.21926775438E-01  0.80081885294E-02 -0.79334193405E-02  0.24654689352E-01  0.00000000000E+00 0.  1.
     999901    1    3    3    0    0  0.18352989149E-01  0.10704825948E+00 -0.51595483451E-01  0.88817692831E+00  0.88000000000E+00 0. -1.
        -11    1    4    4    0    0  0.89227339482E-02 -0.26973355309E-01  0.17305367612E-01  0.33270316304E-01  0.51100000000E-03 0.  1.
         11    1    4    4    0    0 -0.53489476598E-02 -0.88083092697E-01  0.42223535180E-01  0.97828066035E-01  0.51100000000E-03 0. -1.
</event>
<event>
 8    1  0.1117354E+005  0.1043930E+01  0.7957747E-01            NaN
         13   -1    0    0    0    0  0.00000000000E+00  0.00000000000E+00  0.74505805969E-08  0.10566000000E+00  0.10566000000E+00 0. -1.
     999900   -1    0    0    0    0 -0.00000000000E+00 -0.00000000000E+00 -0.74505805969E-08  0.93827000000E+00  0.93827000000E+00 0.  1.
     999902    2    1    2    0    0 -0.31282805350E-02 -0.11760608389E-01 -0.20642652968E-01  0.10199671711E+01  0.10196856442E+01 0.  0.
     999903    2    3    3    0    0 -0.12868286846E+00 -0.82537207333E-02  0.68668739614E-02  0.13062301559E+00  0.19692986175E-01 0.  0.
         14    1    1    2    0    0  0.31282805350E-02  0.11760608389E-01  0.20642652968E-01  0.23962828930E-01  0.00000000000E+00 0. -1.
     999901    1    3    3    0    0  0.12555458792E+00 -0.35068876557E-02 -0.27509526929E-01  0.88934415548E+00  0.88000000000E+00 0. -1.
        -11    1    4    4    0    0 -0.59833522619E-01 -0.95265784346E-02 -0.47980619834E-02  0.60779014845E-01  0.51100000000E-03 0.  1.
         11    1    4    4    0    0 -0.68849345837E-01  0.12728577013E-02  0.11664935945E-01  0.69844000748E-01  0.51100000000E-03 0. -1.
</event>
<event>
 8    1  0.1162857E+005  0.1043930E+01  0.7957747E-01            NaN
         13   -1    0    0    0    0  0.00000000000E+00  0.00000000000E+00  0.74505805969E-08  0.10566000000E+00  0.10566000000E+00 0. -1.
     999900   -1    0    0    0    0 -0.00000000000E+00 -0.00000000000E+00 -0.74505805969E-08  0.93827000000E+00  0.93827000000E+00 0. -1.
     999902    2    1    2    0    0 -0.24471437627E-01 -0.11674591016E-01  0.63866084092E-03  0.10168088787E+01  0.10164471164E+01 0.  0.
     999903    2    3    3    0    0 -0.11705264587E+00 -0.26767569248E-01  0.47152247332E-01  0.13060202254E+00  0.20389438332E-01 0.  0.
         14    1    1    2    0    0  0.24471437627E-01  0.11674591016E-01 -0.63866084092E-03  0.27121121337E-01  0.00000000000E+00 0. -1.
     999901    1    3    3    0    0  0.92581208239E-01  0.15092978232E-01 -0.46513586491E-01  0.88620685612E+00  0.88000000000E+00 0. -1.
        -11    1    4    4    0    0 -0.80029334726E-01 -0.85509600107E-02  0.29557638384E-01  0.85742220881E-01  0.51100000000E-03 0.  1.
         11    1    4    4    0    0 -0.37023311140E-01 -0.18216609237E-01  0.17594608948E-01  0.44859801659E-01  0.51100000000E-03 0. -1.
</event>
<event>
 8    1  0.1117354E+005  0.1043930E+01  0.7957747E-01            NaN
         13   -1    0    0    0    0  0.00000000000E+00  0.00000000000E+00  0.74505805969E-08  0.10566000000E+00  0.10566000000E+00 0. -1.
     999900   -1    0    0    0    0 -0.00000000000E+00 -0.00000000000E+00 -0.74505805969E-08  0.93827000000E+00  0.93827000000E+00 0. -1.
     999902    2    1    2    0    0  0.15977718581E-01  0.14159556626E-01  0.10802289946E-01  0.10200036546E+01  0.10197229945E+01 0.  0.
     999903    2    3    3    0    0  0.61952831271E-01  0.97709457809E-01 -0.60107888767E-01  0.13201573217E+00  0.20734121676E-01 0.  0.
         14    1    1    2    0    0 -0.15977718581E-01 -0.14159556626E-01 -0.10802289946E-01  0.23926345374E-01  0.00000000000E+00 0. -1.
     999901    1    3    3    0    0 -0.45975112690E-01 -0.83549901183E-01  0.70910178713E-01  0.88798792245E+00  0.88000000000E+00 0. -1.
        -11    1    4    4    0    0  0.23889927375E-02  0.15099020675E-01 -0.43317800000E-02  0.15896954130E-01  0.51100000000E-03 0. -1.
         11    1    4    4    0    0  0.59563838534E-01  0.82610437135E-01 -0.55776108767E-01  0.11611877804E+00  0.51100000000E-03 0.  1.
</event>
<event>
 8    1  0.1117354E+005  0.1043930E+01  0.7957747E-01            NaN
         13   -1    0    0    0    0  0.00000000000E+00  0.00000000000E+00  0.74505805969E-08  0.10566000000E+00  0.10566000000E+00 0.  1.
     999900   -1    0    0    0    0 -0.00000000000E+00 -0.00000000000E+00 -0.74505805969E-08  0.93827000000E+00  0.93827000000E+00 0. -1.
     999902    2    1    2    0    0  0.12726877971E-01  0.19467592713E-01  0.44941976406E-02  0.10202412178E+01  0.10199661681E+01 0.  0.
     999903    2    3    3    0    0  0.27090208198E-01 -0.12210256992E+00  0.21756399623E-01  0.12864355081E+00  0.20806375927E-01 0.  0.
         14    1    1    2    0    0 -0.12726877971E-01 -0.19467592713E-01 -0.44941976406E-02  0.23688782184E-01  0.00000000000E+00 0. -1.
     999901    1    3    3    0    0 -0.14363330227E-01  0.14157016263E+00 -0.17262201982E-01  0.89159766701E+00  0.88000000000E+00 0. -1.
        -11    1    4    4    0    0 -0.52025209897E-03 -0.18895835010E-01  0.93287460641E-02  0.21085774046E-01  0.51100000000E-03 0.  1.
         11    1    4    4    0    0  0.27610460297E-01 -0.10320673490E+00  0.12427653559E-01  0.10755777676E+00  0.51100000000E-03 0. -1.
</event>
<event>
 8    1  0.1117354E+005  0.1043930E+01  0.7957747E-01            NaN
         13   -1    0    0    0    0  0.00000000000E+00  0.00000000000E+00  0.74505805969E-08  0.10566000000E+00  0.10566000000E+00 0.  1.
     999900   -1    0    0    0    0 -0.00000000000E+00 -0.00000000000E+00 -0.74505805969E-08  0.93827000000E+00  0.93827000000E+00 0.  1.
     999902    2    1    2    0    0 -0.49493885588E-02  0.16114918068E-01  0.16063504632E-01  0.10206443131E+01  0.10203786507E+01 0.  0.
     999903    2    3    3    0    0  0.90317841645E-01  0.70289134399E-01  0.63696920581E-01  0.13256794639E+00  0.20471633655E-01 0.  0.
         14    1    1    2    0    0  0.49493885588E-02 -0.16114918068E-01 -0.16063504632E-01  0.23285686859E-01  0.00000000000E+00 0. -1.
     999901    1    3    3    0    0 -0.95267230204E-01 -0.54174216331E-01 -0.47633415949E-01  0.88807636675E+00  0.88000000000E+00 0.  1.
        -11    1    4    4    0    0  0.67793013653E-01  0.49910022494E-01  0.36368971699E-01  0.91705323013E-01  0.51100000000E-03 0. -1.
         11    1    4    4    0    0  0.22524827992E-01  0.20379111905E-01  0.27327948883E-01  0.40862623377E-01  0.51100000000E-03 0.  1.
</event>
<event>
 8    1  0.1117354E+005  0.1043930E+01  0.7957747E-01            NaN
         13   -1    0    0    0    0  0.00000000000E+00  0.00000000000E+00  0.74505805969E-08  0.10566000000E+00  0.10566000000E+00 0.  1.
     999900   -1    0    0    0    0 -0.00000000000E+00 -0.00000000000E+00 -0.74505805969E-08  0.93827000000E+00  0.93827000000E+00 0.  1.
     999902    2    1    2    0    0 -0.44542384116E-02 -0.20190540803E-01 -0.10589602172E-01  0.10206998934E+01  0.10204355122E+01 0.  0.
     999903    2    3    3    0    0 -0.31468434451E-01 -0.13153526805E-01 -0.12660063832E+00  0.13264705329E+00  0.20105757577E-01 0.  0.
         14    1    1    2    0    0  0.44542384116E-02  0.20190540803E-01  0.10589602172E-01  0.23230106584E-01  0.00000000000E+00 0. -1.
     999901    1    3    3    0    0  0.27014196039E-01 -0.70370139975E-02  0.11601103615E+00  0.88805284013E+00  0.88000000000E+00 0. -1.
        -11    1    4    4    0    0 -0.33113841091E-01 -0.80822318232E-02 -0.11298823272E+00  0.11801885781E+00  0.51100000000E-03 0.  1.
         11    1    4    4    0    0  0.16454066400E-02 -0.50712949818E-02 -0.13612405598E-01  0.14628195479E-01  0.51100000000E-03 0. -1.
</event>
<event>
 8    1  0.1117354E+005  0.1043930E+01  0.7957747E-01            NaN
         13   -1    0    0    0    0  0.00000000000E+00  0.00000000000E+00  0.74505805969E-08  0.10566000000E+00  0.10566000000E+00 0.  1.
     999900   -1    0    0    0    0 -0.00000000000E+00 -0.00000000000E+00 -0.74505805969E-08  0.93827000000E+00  0.93827000000E+00 0. -1.
     999902    2    1    2    0    0  0.16207820162E-02 -0.61629291501E-02 -0.23788603653E-01  0.10193026515E+01  0.10190050977E+01 0.  0.
     999903    2    3    3    0    0  0.83711946223E-01  0.55119551221E-01  0.76455671651E-01  0.12770665759E+00  0.20436873476E-01 0.  0.
         14    1    1    2    0    0 -0.16207820162E-02  0.61629291501E-02  0.23788603653E-01  0.24627348493E-01  0.00000000000E+00 0.  1.
     999901    1    3    3    0    0 -0.82091164206E-01 -0.61282480371E-01 -0.10024427530E+00  0.89159599392E+00  0.88000000000E+00 0. -1.
        -11    1    4    4    0    0  0.19742754973E-01  0.42202041051E-02  0.11109982218E-01  0.23049497229E-01  0.51100000000E-03 0. -1.
         11    1    4    4    0    0  0.63969191249E-01  0.50899347116E-01  0.65345689433E-01  0.10465716036E+00  0.51100000000E-03 0.  1.
</event>
<event>
 7    1  0.1117354E+005  0.1043930E+01  0.7957747E-01            NaN
         13   -1    0    0    0    0  0.00000000000E+00  0.00000000000E+00  0.74505805969E-08  0.10566000000E+00  0.10566000000E+00 0. -1.
     999900   -1    0    0    0    0 -0.00000000000E+00 -0.00000000000E+00 -0.74505805969E-08  0.93827000000E+00  0.93827000000E+00 0.  1.
     999903    2    1    2    0    0  0.61402516647E-01  0.91969501007E-02  0.90200378642E-01  0.11126180745E+00  0.19703516153E-01 0.  0.
         14    1    1    2    0    0  0.24976383345E-01 -0.16351744048E-01  0.27527544324E-01  0.40607449500E-01  0.00000000000E+00 0. -1.
     999901    1    1    2    0    0 -0.86378899992E-01  0.71547939473E-02 -0.11772792297E+00  0.89206074305E+00  0.88000000000E+00 0.  1.
        -11    1    3    3    0    0  0.16391248374E-01 -0.61122457879E-02  0.21712805665E-01  0.27887983482E-01  0.51100000000E-03 0.  1.
         11    1    3    3    0    0  0.45011268272E-01  0.15309195889E-01  0.68487572976E-01  0.83373823970E-01  0.51100000000E-03 0. -1.
</event>
<event>
 8    1  0.1117354E+005  0.1043930E+01  0.7957747E-01            NaN
         13   -1    0    0    0    0  0.00000000000E+00  0.00000000000E+00  0.74505805969E-08  0.10566000000E+00  0.10566000000E+00 0.  1.
     999900   -1    0    0    0    0 -0.00000000000E+00 -0.00000000000E+00 -0.74505805969E-08  0.93827000000E+00  0.93827000000E+00 0. -1.
     999902    2    1    2    0    0 -0.13500304998E-01  0.12324318597E-01 -0.16353325941E-01  0.10194029061E+01  0.10191077994E+01 0.  0.
     999903    2    3    3    0    0  0.40428985105E-01  0.40223655572E-01 -0.11699629588E+00  0.13158775154E+00  0.19358662221E-01 0.  0.
         14    1    1    2    0    0  0.13500304998E-01 -0.12324318597E-01  0.16353325941E-01  0.24527093861E-01  0.00000000000E+00 0.  1.
     999901    1    3    3    0    0 -0.53929290103E-01 -0.27899336975E-01  0.10064296993E+00  0.88781515460E+00  0.88000000000E+00 0.  1.
        -11    1    4    4    0    0  0.26347125418E-01  0.26667572408E-01 -0.54856184873E-01  0.66443905483E-01  0.51100000000E-03 0. -1.
         11    1    4    4    0    0  0.14081859687E-01  0.13556083165E-01 -0.62140111002E-01  0.65143846059E-01  0.51100000000E-03 0.  1.
</event>
<event>
 8    1  0.1117354E+005  0.1043930E+01  0.7957747E-01            NaN
         13   -1    0    0    0    0  0.00000000000E+00  0.00000000000E+00  0.74505805969E-08  0.10566000000E+00  0.10566000000E+00 0. -1.
     999900   -1    0    0    0    0 -0.00000000000E+00 -0.00000000000E+00 -0.74505805969E-08  0.93827000000E+00  0.93827000000E+00 0. -1.
     999902    2    1    2    0    0 -0.11793212554E-01 -0.13961806330E-01  0.14962777615E-01  0.10203101649E+01  0.10200367326E+01 0.  0.
     999903    2    3    3    0    0  0.10920849436E+00  0.57484816344E-01 -0.27977955652E-01  0.12812748202E+00  0.20072027711E-01 0.  0.
         14    1    1    2    0    0  0.11793212554E-01  0.13961806330E-01 -0.14962777615E-01  0.23619835146E-01  0.00000000000E+00 0.  1.
     999901    1    3    3    0    0 -0.12100170692E+00 -0.71446622674E-01  0.42940733268E-01  0.89218268283E+00  0.88000000000E+00 0. -1.
        -11    1    4    4    0    0  0.43787655185E-01  0.34022482554E-01 -0.10158702978E-01  0.56376843056E-01  0.51100000000E-03 0. -1.
         11    1    4    4    0    0  0.65420839177E-01  0.23462333790E-01 -0.17819252675E-01  0.71750638969E-01  0.51100000000E-03 0.  1.
</event>
<event>
 8    1  0.1117354E+005  0.1043930E+01  0.7957747E-01            NaN
         13   -1    0    0    0    0  0.00000000000E+00  0.00000000000E+00  0.74505805969E-08  0.10566000000E+00  0.10566000000E+00 0. -1.
     999900   -1    0    0    0    0 -0.00000000000E+00 -0.00000000000E+00 -0.74505805969E-08  0.93827000000E+00  0.93827000000E+00 0. -1.
     999902    2    1    2    0    0 -0.65949337911E-02  0.10240438005E-01 -0.20819102484E-01  0.10198095781E+01  0.10195242915E+01 0.  0.
     999903    2    3    3    0    0 -0.63802405466E-01 -0.75492946067E-01 -0.84310606217E-01  0.13152241793E+00  0.20492346078E-01 0.  0.
         14    1    1    2    0    0  0.65949337911E-02 -0.10240438005E-01  0.20819102484E-01  0.24120421855E-01  0.00000000000E+00 0. -1.
     999901    1    3    3    0    0  0.57207471675E-01  0.85733384073E-01  0.63491503733E-01  0.88828716022E+00  0.88000000000E+00 0. -1.
        -11    1    4    4    0    0 -0.12082246428E-01 -0.26124592811E-01 -0.31213126803E-01  0.42461693727E-01  0.51100000000E-03 0. -1.
         11    1    4    4    0    0 -0.51720159038E-01 -0.49368353256E-01 -0.53097479413E-01  0.89060724201E-01  0.51100000000E-03 0.  1.
</event>
<event>
 8    1  0.1117354E+005  0.1043930E+01  0.7957747E-01            NaN
         13   -1    0    0    0    0  0.00000000000E+00  0.00000000000E+00  0.74505805969E-08  0.10566000000E+00  0.10566000000E+00 0. -1.
     999900   -1    0    0    0    0 -0.00000000000E+00 -0.00000000000E+00 -0.74505805969E-08  0.93827000000E+00  0.93827000000E+00 0. -1.
     999902    2    1    2    0    0  0.17179008308E-01  0.76765260336E-02 -0.13616837995E-01  0.10207036000E+01  0.10204393042E+01 0.  0.
     999903    2    3    3    0    0  0.44182907659E-01 -0.64721951169E-01 -0.10497729352E+00  0.13260592358E+00  0.20567900279E-01 0.  0.
         14    1    1    2    0    0 -0.17179008308E-01 -0.76765260336E-02  0.13616837995E-01  0.23226399966E-01  0.00000000000E+00 0. -1.
     999901    1    3    3    0    0 -0.27003899351E-01  0.72398477203E-01  0.91360455528E-01  0.88809767645E+00  0.88000000000E+00 0.  1.
        -11    1    4    4    0    0  0.83026368045E-02 -0.28590719105E-01 -0.33158187877E-01  0.44565564522E-01  0.51100000000E-03 0. -1.
         11    1    4    4    0    0  0.35880270854E-01 -0.36131232064E-01 -0.71819105646E-01  0.88040359062E-01  0.51100000000E-03 0.  1.
</event>
<event>
 8    1  0.1117354E+005  0.1043930E+01  0.7957747E-01            NaN
         13   -1    0    0    0    0  0.00000000000E+00  0.00000000000E+00  0.74505805969E-08  0.10566000000E+00  0.10566000000E+00 0.  1.
     999900   -1    0    0    0    0 -0.00000000000E+00 -0.00000000000E+00 -0.74505805969E-08  0.93827000000E+00  0.93827000000E+00 0.  1.
     999902    2    1    2    0    0 -0.19559650304E-01  0.73108930340E-02 -0.77466202004E-02  0.10216580625E+01  0.10214152718E+01 0.  0.
     999903    2    3    3    0    0  0.71588593871E-01  0.82457289351E-01  0.68513756836E-01  0.13049554732E+00  0.20268735903E-01 0.  0.
         14    1    1    2    0    0  0.19559650304E-01 -0.73108930340E-02  0.77466202004E-02  0.22271937533E-01  0.00000000000E+00 0.  1.
     999901    1    3    3    0    0 -0.91148244175E-01 -0.75146396317E-01 -0.76260377036E-01  0.89116251515E+00  0.88000000000E+00 0.  1.
        -11    1    4    4    0    0  0.37619670824E-01  0.32066343415E-01  0.38825635734E-01  0.62858421266E-01  0.51100000000E-03 0.  1.
         11    1    4    4    0    0  0.33968923047E-01  0.50390945936E-01  0.29688121102E-01  0.67637126054E-01  0.51100000000E-03 0. -1.
</event>
<event>
 8    1  0.1117354E+005  0.1043930E+01  0.7957747E-01            NaN
         13   -1    0    0    0    0  0.00000000000E+00  0.00000000000E+00  0.74505805969E-08  0.10566000000E+00  0.10566000000E+00 0.  1.
     999900   -1    0    0    0    0 -0.00000000000E+00 -0.00000000000E+00 -0.74505805969E-08  0.93827000000E+00  0.93827000000E+00 0.  1.
     999902    2    1    2    0    0  0.17111761921E-01  0.24105682353E-02 -0.15872095791E-01  0.10204662693E+01  0.10201964811E+01 0.  0.
     999903    2    3    3    0    0  0.11702103713E+00 -0.17081162402E-01 -0.58677481896E-01  0.13356487006E+00  0.20269148742E-01 0.  0.
         14    1    1    2    0    0 -0.17111761921E-01 -0.24105682353E-02  0.15872095791E-01  0.23463730736E-01  0.00000000000E+00 0.  1.
     999901    1    3    3    0    0 -0.99909275213E-01  0.19491730637E-01  0.42805386105E-01  0.88690139921E+00  0.88000000000E+00 0. -1.
        -11    1    4    4    0    0  0.46535426685E-01 -0.32591272830E-03 -0.31433923963E-01  0.56160527531E-01  0.51100000000E-03 0.  1.
         11    1    4    4    0    0  0.70485610449E-01 -0.16755249673E-01 -0.27243557933E-01  0.77404342525E-01  0.51100000000E-03 0. -1.
</event>
<event>
 8    1  0.1117354E+005  0.1043930E+01  0.7957747E-01            NaN
         13   -1    0    0    0    0  0.00000000000E+00  0.00000000000E+00  0.74505805969E-08  0.10566000000E+00  0.10566000000E+00 0. -1.
     999900   -1    0    0    0    0 -0.00000000000E+00 -0.00000000000E+00 -0.74505805969E-08  0.93827000000E+00  0.93827000000E+00 0. -1.
     999902    2    1    2    0    0  0.75911002686E-02 -0.13702139320E-01  0.17455447433E-01  0.10204765126E+01  0.10202069627E+01 0.  0.
     999903    2    3    3    0    0  0.61796698231E-01 -0.11487270230E+00 -0.11832760463E-01  0.13253984326E+00  0.20303354077E-01 0.  0.
         14    1    1    2    0    0 -0.75911002686E-02  0.13702139320E-01 -0.17455447433E-01  0.23453487381E-01  0.00000000000E+00 0.  1.
     999901    1    3    3    0    0 -0.54205597963E-01  0.10117056298E+00  0.29288207896E-01  0.88793666936E+00  0.88000000000E+00 0. -1.
        -11    1    4    4    0    0  0.29164861956E-01 -0.67222854644E-01  0.13857480802E-02  0.73291764736E-01  0.51100000000E-03 0. -1.
         11    1    4    4    0    0  0.32631836275E-01 -0.47649847654E-01 -0.13218508543E-01  0.59248078528E-01  0.51100000000E-03 0.  1.
</event>
<event>
 8    1  0.1117354E+005  0.1043930E+01  0.7957747E-01            NaN
         13   -1    0    0    0    0  0.00000000000E+00  0.00000000000E+00  0.74505805969E-08  0.10566000000E+00  0.10566000000E+00 0.  1.
     999900   -1    0    0    0    0 -0.00000000000E+00 -0.00000000000E+00 -0.74505805969E-08  0.93827000000E+00  0.93827000000E+00 0. -1.
     999902    2    1    2    0    0  0.18584087808E-01 -0.87587447380E-02  0.11746293086E-01  0.10202644273E+01  0.10199899227E+01 0.  0.
     999903    2    3    3    0    0 -0.61114616500E-01 -0.13337528076E-01  0.11318402717E+00  0.13084750449E+00  0.19938892123E-01 0.  0.
         14    1    1    2    0    0 -0.18584087808E-01  0.87587447380E-02 -0.11746293086E-01  0.23665572681E-01  0.00000000000E+00 0. -1.
     999901    1    3    3    0    0  0.79698704307E-01  0.45787833381E-02 -0.10143773408E+00  0.88941692283E+00  0.88000000000E+00 0. -1.
        -11    1    4    4    0    0 -0.40325796987E-01 -0.86856259018E-02  0.91875299558E-01  0.10071217300E+00  0.51100000000E-03 0. -1.
         11    1    4    4    0    0 -0.20788819513E-01 -0.46519021744E-02  0.21308727611E-01  0.30135331489E-01  0.51100000000E-03 0.  1.
</event>
<event>
 8    1  0.1117354E+005  0.1043930E+01  0.7957747E-01            NaN
         13   -1    0    0    0    0  0.00000000000E+00  0.00000000000E+00  0.74505805969E-08  0.10566000000E+00  0.10566000000E+00 0.  1.
     999900   -1    0    0    0    0 -0.00000000000E+00 -0.00000000000E+00 -0.74505805969E-08  0.93827000000E+00  0.93827000000E+00 0.  1.
     999902    2    1    2    0    0  0.21532479043E-01  0.94919897345E-02  0.15341018447E-02  0.10203482488E+01  0.10200757079E+01 0.  0.
     999903    2    3    3    0    0 -0.10305822427E+00  0.49672455880E-01  0.56067253425E-01  0.12899468377E+00  0.20192599435E-01 0.  0.
         14    1    1    2    0    0 -0.21532479043E-01 -0.94919897345E-02 -0.15341018447E-02  0.23581751235E-01  0.00000000000E+00 0.  1.
     999901    1    3    3    0    0  0.12459070331E+00 -0.40180466145E-01 -0.54533151580E-01  0.89135356500E+00  0.88000000000E+00 0. -1.
        -11    1    4    4    0    0 -0.34965385617E-01  0.14757643598E-01  0.29210917158E-01  0.47894728709E-01  0.51100000000E-03 0.  1.
         11    1    4    4    0    0 -0.68092838649E-01  0.34914812282E-01  0.26856336267E-01  0.81099955059E-01  0.51100000000E-03 0. -1.
</event>
<event>
 8    1  0.1117354E+005  0.1043930E+01  0.7957747E-01            NaN
         13   -1    0    0    0    0  0.00000000000E+00  0.00000000000E+00  0.74505805969E-08  0.10566000000E+00  0.10566000000E+00 0. -1.
     999900   -1    0    0    0    0 -0.00000000000E+00 -0.00000000000E+00 -0.74505805969E-08  0.93827000000E+00  0.93827000000E+00 0. -1.
     999902    2    1    2    0    0 -0.82051246399E-03  0.86005426462E-02 -0.21936885662E-01  0.10203531146E+01  0.10200806874E+01 0.  0.
     999903    2    3    3    0    0  0.36252202343E-01 -0.11287275046E+00  0.46701090721E-01  0.12859007489E+00  0.17318646419E-01 0.  0.
         14    1    1    2    0    0  0.82051246399E-03 -0.86005426462E-02  0.21936885662E-01  0.23576885441E-01  0.00000000000E+00 0. -1.
     999901    1    3    3    0    0 -0.37072714807E-01  0.12147329311E+00 -0.68637976384E-01  0.89176303967E+00  0.88000000000E+00 0.  1.
        -11    1    4    4    0    0  0.54142491084E-02 -0.20236287597E-01  0.15589119171E-01  0.26117105250E-01  0.51100000000E-03 0.  1.
         11    1    4    4    0    0  0.30837953235E-01 -0.92636462865E-01  0.31111971551E-01  0.10247296964E+00  0.51100000000E-03 0. -1.
</event>
<event>
 8    1  0.1117354E+005  0.1043930E+01  0.7957747E-01            NaN
         13   -1    0    0    0    0  0.00000000000E+00  0.00000000000E+00  0.74505805969E-08  0.10566000000E+00  0.10566000000E+00 0. -1.
     999900   -1    0    0    0    0 -0.00000000000E+00 -0.00000000000E+00 -0.74505805969E-08  0.93827000000E+00  0.93827000000E+00 0.  1.
     999902    2    1    2    0    0 -0.12615030495E-01 -0.20368292418E-01  0.21182295803E-02  0.10198781139E+01  0.10195944654E+01 0.  0.
     999903    2    3    3    0    0  0.40400019890E-01  0.78362851662E-01  0.91000576112E-01  0.12832973833E+00  0.20359733789E-01 0.  0.
         14    1    1    2    0    0  0.12615030495E-01  0.20368292418E-01 -0.21182295803E-02  0.24051886142E-01  0.00000000000E+00 0.  1.
     999901    1    3    3    0    0 -0.53015050385E-01 -0.98731144080E-01 -0.88882346531E-01  0.89154837553E+00  0.88000000000E+00 0.  1.
        -11    1    4    4    0    0 -0.12558949087E-02  0.12051542471E-01  0.13622662241E-01  0.18238832076E-01  0.51100000000E-03 0. -1.
         11    1    4    4    0    0  0.41655914799E-01  0.66311309191E-01  0.77377913871E-01  0.11009090626E+00  0.51100000000E-03 0.  1.
</event>
<event>
 8    1  0.1117354E+005  0.1043930E+01  0.7957747E-01            NaN
         13   -1    0    0    0    0  0.00000000000E+00  0.00000000000E+00  0.74505805969E-08  0.10566000000E+00  0.10566000000E+00 0. -1.
     999900   -1    0    0    0    0 -0.00000000000E+00 -0.00000000000E+00 -0.74505805969E-08  0.93827000000E+00  0.93827000000E+00 0.  1.
     999902    2    1    2    0    0  0.11568587412E-01  0.24557361637E-01 -0.24099207669E-01  0.10076303025E+01  0.10069762453E+01 0.  0.
     999903    2    3    3    0    0  0.24432055486E-01 -0.35937024371E-01  0.10586507382E+00  0.11593766827E+00  0.18593924117E-01 0.  0.
         14    1    1    2    0    0 -0.11568587412E-01 -0.24557361637E-01  0.24099207669E-01  0.36299697458E-01  0.00000000000E+00 0. -1.
     999901    1    3    3    0    0 -0.12863468074E-01  0.60494386008E-01 -0.12996428149E+00  0.89169263427E+00  0.88000000000E+00 0.  1.
        -11    1    4    4    0    0  0.13193595952E-01 -0.88955353322E-02  0.54841284221E-01  0.57105420925E-01  0.51100000000E-03 0.  1.
         11    1    4    4    0    0  0.11238459534E-01 -0.27041489039E-01  0.51023789596E-01  0.58832247346E-01  0.51100000000E-03 0. -1.
</event>
<event>
 8    1  0.1117354E+005  0.1043930E+01  0.7957747E-01            NaN
         13   -1    0    0    0    0  0.00000000000E+00  0.00000000000E+00  0.74505805969E-08  0.10566000000E+00  0.10566000000E+00 0. -1.
     999900   -1    0    0    0    0 -0.00000000000E+00 -0.00000000000E+00 -0.74505805969E-08  0.93827000000E+00  0.93827000000E+00 0. -1.
     999902    2    1    2    0    0  0.12957945011E-01 -0.18089241921E-01 -0.83531456011E-02  0.10201622897E+01  0.10198853824E+01 0.  0.
     999903    2    3    3    0    0  0.88669488768E-01 -0.63798209681E-01 -0.73829953531E-01  0.13330899857E+00  0.19696123058E-01 0.  0.
         14    1    1    2    0    0 -0.12957945011E-01  0.18089241921E-01  0.83531456011E-02  0.23767710315E-01  0.00000000000E+00 0. -1.
     999901    1    3    3    0    0 -0.75711543757E-01  0.45708967760E-01  0.65476807930E-01  0.88685329112E+00  0.88000000000E+00 0.  1.
        -11    1    4    4    0    0  0.15459259707E-01 -0.90067848435E-02 -0.42338374558E-02  0.18392862325E-01  0.51100000000E-03 0. -1.
         11    1    4    4    0    0  0.73210229061E-01 -0.54791424837E-01 -0.69596116075E-01  0.11491613624E+00  0.51100000000E-03 0.  1.
</event>
<event>
 8    1  0.1117354E+005  0.1043930E+01  0.7957747E-01            NaN
         13   -1    0    0    0    0  0.00000000000E+00  0.00000000000E+00  0.74505805969E-08  0.10566000000E+00  0.10566000000E+00 0.  1.
     999900   -1    0    0    0    0 -0.00000000000E+00 -0.00000000000E+00 -0.74505805969E-08  0.93827000000E+00  0.93827000000E+00 0.  1.
     999902    2    1    2    0    0  0.15158633700E-01  0.20521709222E-02  0.15776140725E-01  0.10219554193E+01  0.10217191379E+01 0.  0.
     999903    2    3    3    0    0 -0.71251932246E-01  0.64916920441E-01  0.88702861273E-01  0.13249655616E+00  0.19902145285E-01 0.  0.
         14    1    1    2    0    0 -0.15158633700E-01 -0.20521709222E-02 -0.15776140725E-01  0.21974580709E-01  0.00000000000E+00 0. -1.
     999901    1    3    3    0    0  0.86410565946E-01 -0.62864749519E-01 -0.72926720547E-01  0.88945886313E+00  0.88000000000E+00 0.  1.
        -11    1    4    4    0    0 -0.19096098620E-01  0.21973965648E-01  0.15901874268E-01  0.33175998479E-01  0.51100000000E-03 0. -1.
         11    1    4    4    0    0 -0.52155833626E-01  0.42942954793E-01  0.72800987004E-01  0.99320557678E-01  0.51100000000E-03 0.  1.
</event>
<event>
 8    1  0.1117354E+005  0.1043930E+01  0.7957747E-01            NaN
         13   -1    0    0    0    0  0.00000000000E+00  0.00000000000E+00  0.74505805969E-08  0.10566000000E+00  0.10566000000E+00 0. -1.
     999900   -1    0    0    0    0 -0.00000000000E+00 -0.00000000000E+00 -0.74505805969E-08  0.93827000000E+00  0.93827000000E+00 0.  1.
     999902    2    1    2    0    0 -0.86067819597E-02 -0.20154259589E-01 -0.80777460511E-02  0.10205736121E+01  0.10203063152E+01 0.  0.
     999903    2    3    3    0    0 -0.93811503768E-01 -0.15537799192E-01 -0.90872265106E-01  0.13257806665E+00  0.16647935245E-01 0.  0.
         14    1    1    2    0    0  0.86067819597E-02  0.20154259589E-01  0.80777460511E-02  0.23356387917E-01  0.00000000000E+00 0. -1.
     999901    1    3    3    0    0  0.85204721808E-01 -0.46164603973E-02  0.82794519055E-01  0.88799554543E+00  0.88000000000E+00 0.  1.
        -11    1    4    4    0    0 -0.67514232124E-01 -0.18149251906E-01 -0.62136607037E-01  0.93534945015E-01  0.51100000000E-03 0. -1.
         11    1    4    4    0    0 -0.26297271644E-01  0.26114527141E-02 -0.28735658069E-01  0.39043121633E-01  0.51100000000E-03 0.  1.
</event>
<event>
 8    1  0.1117354E+005  0.1043930E+01  0.7957747E-01            NaN
         13   -1    0    0    0    0  0.00000000000E+00  0.00000000000E+00  0.74505805969E-08  0.10566000000E+00  0.10566000000E+00 0. -1.
     999900   -1    0    0    0    0 -0.00000000000E+00 -0.00000000000E+00 -0.74505805969E-08  0.93827000000E+00  0.93827000000E+00 0. -1.
     999902    2    1    2    0    0  0.15176353315E-01  0.54857518485E-02  0.17256096412E-01  0.10203039966E+01  0.10200304199E+01 0.  0.
     999903    2    3    3    0    0 -0.91980827851E-01  0.68198924229E-01  0.59518078748E-01  0.13058399648E+00  0.19955261962E-01 0.  0.
         14    1    1    2    0    0 -0.15176353315E-01 -0.54857518485E-02 -0.17256096412E-01  0.23626003401E-01  0.00000000000E+00 0.  1.
     999901    1    3    3    0    0  0.10715718117E+00 -0.62713172381E-01 -0.42261982336E-01  0.88972000012E+00  0.88000000000E+00 0. -1.
        -11    1    4    4    0    0 -0.27821801127E-01  0.23116999039E-01  0.29278424314E-01  0.46539612308E-01  0.51100000000E-03 0. -1.
         11    1    4    4    0    0 -0.64159026724E-01  0.45081925191E-01  0.30239654434E-01  0.84044384169E-01  0.51100000000E-03 0.  1.
</event>
<event>
 8    1  0.1117354E+005  0.1043930E+01  0.7957747E-01            NaN
         13   -1    0    0    0    0  0.00000000000E+00  0.00000000000E+00  0.74505805969E-08  0.10566000000E+00  0.10566000000E+00 0.  1.
     999900   -1    0    0    0    0 -0.00000000000E+00 -0.00000000000E+00 -0.74505805969E-08  0.93827000000E+00  0.93827000000E+00 0. -1.
     999902    2    1    2    0    0  0.11379688025E-01 -0.96875531150E-02  0.18413601976E-01  0.10202148841E+01  0.10199392153E+01 0.  0.
     999903    2    3    3    0    0  0.74826343662E-01  0.12262083625E-01 -0.10278512647E+00  0.12937460860E+00  0.20583166055E-01 0.  0.
         14    1    1    2    0    0 -0.11379688025E-01  0.96875531150E-02 -0.18413601976E-01  0.23715115910E-01  0.00000000000E+00 0. -1.
     999901    1    3    3    0    0 -0.63446655638E-01 -0.21949636740E-01  0.12119872845E+00  0.89084027549E+00  0.88000000000E+00 0.  1.
        -11    1    4    4    0    0  0.34441431489E-01  0.15497194523E-01 -0.44147957275E-01  0.58100589443E-01  0.51100000000E-03 0.  1.
         11    1    4    4    0    0  0.40384912173E-01 -0.32351108980E-02 -0.58637169197E-01  0.71274019153E-01  0.51100000000E-03 0. -1.
</event>
<event>
 8    1  0.1117354E+005  0.1043930E+01  0.7957747E-01            NaN
         13   -1    0    0    0    0  0.00000000000E+00  0.00000000000E+00  0.74505805969E-08  0.10566000000E+00  0.10566000000E+00 0. -1.
     999900   -1    0    0    0    0 -0.00000000000E+00 -0.00000000000E+00 -0.74505805969E-08  0.93827000000E+00  0.93827000000E+00 0. -1.
     999902    2    1    2    0    0 -0.86802414647E-02  0.22605969273E-01  0.19286742637E-03  0.10197140210E+01  0.10194264422E+01 0.  0.
     999903    2    3    3    0    0  0.99055091437E-01  0.49966408906E-01 -0.65483237081E-01  0.13029350953E+00  0.19488230497E-01 0.  0.
         14    1    1    2    0    0  0.86802414647E-02 -0.22605969273E-01 -0.19286742637E-03  0.24215978950E-01  0.00000000000E+00 0.  1.
     999901    1    3    3    0    0 -0.10773533290E+00 -0.27360439633E-01  0.65676104507E-01  0.88942051152E+00  0.88000000000E+00 0.  1.
        -11    1    4    4    0    0  0.39448193233E-01  0.16533490952E-01 -0.35804218946E-01  0.55782788454E-01  0.51100000000E-03 0. -1.
         11    1    4    4    0    0  0.59606898205E-01  0.33432917955E-01 -0.29679018135E-01  0.74510721074E-01  0.51100000000E-03 0.  1.
</event>
<event>
 8    1  0.1117354E+005  0.1043930E+01  0.7957747E-01            NaN
         13   -1    0    0    0    0  0.00000000000E+00  0.00000000000E+00  0.74505805969E-08  0.10566000000E+00  0.10566000000E+00 0. -1.
     999900   -1    0    0    0    0 -0.00000000000E+00 -0.00000000000E+00 -0.74505805969E-08  0.93827000000E+00  0.93827000000E+00 0. -1.
     999902    2    1    2    0    0 -0.47962357134E-02  0.21443287796E-02  0.22774241756E-01  0.10205576208E+01  0.10202899535E+01 0.  0.
     999903    2    3    3    0    0 -0.76368442294E-01 -0.87169653601E-01 -0.55352526843E-01  0.12971343677E+00  0.18193019657E-01 0.  0.
         14    1    1    2    0    0  0.47962357134E-02 -0.21443287796E-02 -0.22774241756E-01  0.23372379222E-01  0.00000000000E+00 0.  1.
     999901    1    3    3    0    0  0.71572206581E-01  0.89313982380E-01  0.78126768599E-01  0.89084418400E+00  0.88000000000E+00 0.  1.
        -11    1    4    4    0    0 -0.65690976991E-01 -0.82265232097E-01 -0.52355589101E-01  0.11757653550E+00  0.51100000000E-03 0. -1.
         11    1    4    4    0    0 -0.10677465303E-01 -0.49044215040E-02 -0.29969377418E-02  0.12136901269E-01  0.51100000000E-03 0.  1.
</event>
<event>
 8    1  0.1117354E+005  0.1043930E+01  0.7957747E-01            NaN
         13   -1    0    0    0    0  0.00000000000E+00  0.00000000000E+00  0.74505805969E-08  0.10566000000E+00  0.10566000000E+00 0. -1.
     999900   -1    0    0    0    0 -0.00000000000E+00 -0.00000000000E+00 -0.74505805969E-08  0.93827000000E+00  0.93827000000E+00 0.  1.
     999902    2    1    2    0    0  0.48712562075E-03 -0.93154655429E-03  0.22789456376E-01  0.10211163113E+01  0.10208614288E+01 0.  0.
     999903    2    3    3    0    0 -0.69436974479E-01 -0.91412519539E-01 -0.57668260495E-01  0.13007779897E+00  0.20417232008E-01 0.  0.
         14    1    1    2    0    0 -0.48712562075E-03  0.93154655429E-03 -0.22789456376E-01  0.22813688703E-01  0.00000000000E+00 0.  1.
     999901    1    3    3    0    0  0.69924100100E-01  0.90480972984E-01  0.80457716871E-01  0.89103851233E+00  0.88000000000E+00 0. -1.
        -11    1    4    4    0    0 -0.40662190907E-01 -0.61577774407E-01 -0.46217807401E-01  0.87072285558E-01  0.51100000000E-03 0.  1.
         11    1    4    4    0    0 -0.28774783573E-01 -0.29834745132E-01 -0.11450453094E-01  0.43005513411E-01  0.51100000000E-03 0. -1.
</event>
<event>
 8    1  0.1117354E+005  0.1043930E+01  0.7957747E-01            NaN
         13   -1    0    0    0    0  0.00000000000E+00  0.00000000000E+00  0.74505805969E-08  0.10566000000E+00  0.10566000000E+00 0. -1.
     999900   -1    0    0    0    0 -0.00000000000E+00 -0.00000000000E+00 -0.74505805969E-08  0.93827000000E+00  0.93827000000E+00 0.  1.
     999902    2    1    2    0    0  0.12914201208E-01  0.17682396221E-01  0.75207599748E-02  0.10207782061E+01  0.10205156248E+01 0.  0.
     999903    2    3    3    0    0  0.21724053048E-01 -0.11684286884E+00  0.47795838023E-01  0.12960103949E+00  0.19692557579E-01 0.  0.
         14    1    1    2    0    0 -0.12914201208E-01 -0.17682396221E-01 -0.75207599748E-02  0.23151793873E-01  0.00000000000E+00 0.  1.
     999901    1    3    3    0    0 -0.88098518398E-02  0.13452526506E+00 -0.40275078048E-01  0.89117716664E+00  0.88000000000E+00 0.  1.
        -11    1    4    4    0    0  0.70939067887E-02 -0.21116913309E-01  0.16895615651E-02  0.22346437759E-01  0.51100000000E-03 0.  1.
         11    1    4    4    0    0  0.14630146259E-01 -0.95725955531E-01  0.46106276458E-01  0.10725460173E+00  0.51100000000E-03 0. -1.
</event>
<event>
 8    1  0.1117354E+005  0.1043930E+01  0.7957747E-01            NaN
         13   -1    0    0    0    0  0.00000000000E+00  0.00000000000E+00  0.74505805969E-08  0.10566000000E+00  0.10566000000E+00 0. -1.
     999900   -1    0    0    0    0 -0.00000000000E+00 -0.00000000000E+00 -0.74505805969E-08  0.93827000000E+00  0.93827000000E+00 0.  1.
     999902    2    1    2    0    0 -0.13087462781E-01  0.13220961235E-02  0.19440489395E-01  0.10204574150E+01  0.10201874208E+01 0.  0.
     999903    2    3    3    0    0 -0.38397999585E-01 -0.94023433092E-01 -0.78028743674E-01  0.12959735603E+00  0.19803472129E-01 0.  0.
         14    1    1    2    0    0  0.13087462781E-01 -0.13220961235E-02 -0.19440489395E-01  0.23472585032E-01  0.00000000000E+00 0.  1.
     999901    1    3    3    0    0  0.25310536804E-01  0.95345529215E-01  0.97469233068E-01  0.89086005894E+00  0.88000000000E+00 0. -1.
        -11    1    4    4    0    0 -0.64820215345E-02 -0.18652451401E-01 -0.25832720106E-01  0.32519549436E-01  0.51100000000E-03 0.  1.
         11    1    4    4    0    0 -0.31915978051E-01 -0.75370981691E-01 -0.52196023567E-01  0.97077806594E-01  0.51100000000E-03 0. -1.
</event>
<event>
 8    1  0.1117354E+005  0.1043930E+01  0.7957747E-01            NaN
         13   -1    0    0    0    0  0.00000000000E+00  0.00000000000E+00  0.74505805969E-08  0.10566000000E+00  0.10566000000E+00 0.  1.
     999900   -1    0    0    0    0 -0.00000000000E+00 -0.00000000000E+00 -0.74505805969E-08  0.93827000000E+00  0.93827000000E+00 0.  1.
     999902    2    1    2    0    0  0.18541111600E-01  0.11375233281E-01  0.10754954013E-01  0.10196640200E+01  0.10193752380E+01 0.  0.
     999903    2    3    3    0    0  0.12559482496E+00  0.27620209786E-01 -0.23614936328E-01  0.13236154269E+00  0.20614963498E-01 0.  0.
         14    1    1    2    0    0 -0.18541111600E-01 -0.11375233281E-01 -0.10754954013E-01  0.24265980042E-01  0.00000000000E+00 0. -1.
     999901    1    3    3    0    0 -0.10705371336E+00 -0.16244976506E-01  0.34369890341E-01  0.88730247727E+00  0.88000000000E+00 0.  1.
        -11    1    4    4    0    0  0.71035555732E-01  0.12311504569E-01 -0.23045664863E-01  0.75690072750E-01  0.51100000000E-03 0.  1.
         11    1    4    4    0    0  0.54559269227E-01  0.15308705218E-01 -0.56927146528E-03  0.56671469939E-01  0.51100000000E-03 0. -1.
</event>
<event>
 8    1  0.1117354E+005  0.1043930E+01  0.7957747E-01            NaN
         13   -1    0    0    0    0  0.00000000000E+00  0.00000000000E+00  0.74505805969E-08  0.10566000000E+00  0.10566000000E+00 0. -1.
     999900   -1    0    0    0    0 -0.00000000000E+00 -0.00000000000E+00 -0.74505805969E-08  0.93827000000E+00  0.93827000000E+00 0.  1.
     999902    2    1    2    0    0  0.10425335858E-01  0.19317571205E-01  0.10380067259E-01  0.10196482789E+01  0.10193591176E+01 0.  0.
     999903    2    3    3    0    0 -0.10741852526E+00  0.47990003160E-01  0.52308672799E-01  0.13034108114E+00  0.20268700272E-01 0.  0.
         14    1    1    2    0    0 -0.10425335858E-01 -0.19317571205E-01 -0.10380067259E-01  0.24281721136E-01  0.00000000000E+00 0.  1.
     999901    1    3    3    0    0  0.11784386112E+00 -0.28672431955E-01 -0.41928605540E-01  0.88930719772E+00  0.88000000000E+00 0. -1.
        -11    1    4    4    0    0 -0.13283081181E-01  0.13781117767E-03  0.22756557795E-02  0.13486992541E-01  0.51100000000E-03 0. -1.
         11    1    4    4    0    0 -0.94135444081E-01  0.47852191982E-01  0.50033017020E-01  0.11685408860E+00  0.51100000000E-03 0.  1.
</event>
<event>
 8    1  0.1117354E+005  0.1043930E+01  0.7957747E-01            NaN
         13   -1    0    0    0    0  0.00000000000E+00  0.00000000000E+00  0.74505805969E-08  0.10566000000E+00  0.10566000000E+00 0.  1.
     999900   -1    0    0    0    0 -0.00000000000E+00 -0.00000000000E+00 -0.74505805969E-08  0.93827000000E+00  0.93827000000E+00 0. -1.
     999902    2    1    2    0    0 -0.19906318975E-01 -0.87548708436E-02  0.90210722063E-02  0.10203866561E+01  0.10201150126E+01 0.  0.
     999903    2    3    3    0    0  0.69321104589E-01  0.52054384236E-01  0.94468911845E-01  0.12967871747E+00  0.19419577768E-01 0.  0.
         14    1    1    2    0    0  0.19906318975E-01  0.87548708436E-02 -0.90210722063E-02  0.23543343908E-01  0.00000000000E+00 0. -1.
     999901    1    3    3    0    0 -0.89227423564E-01 -0.60809255079E-01 -0.85447839639E-01  0.89070793862E+00  0.88000000000E+00 0. -1.
        -11    1    4    4    0    0  0.22080079894E-01  0.26753446176E-01  0.44311715310E-01  0.56276691846E-01  0.51100000000E-03 0.  1.
         11    1    4    4    0    0  0.47241024695E-01  0.25300938060E-01  0.50157196535E-01  0.73402025628E-01  0.51100000000E-03 0. -1.
</event>
<event>
 8    1  0.1117354E+005  0.1043930E+01  0.7957747E-01            NaN
         13   -1    0    0    0    0  0.00000000000E+00  0.00000000000E+00  0.74505805969E-08  0.10566000000E+00  0.10566000000E+00 0.  1.
     999900   -1    0    0    0    0 -0.00000000000E+00 -0.00000000000E+00 -0.74505805969E-08  0.93827000000E+00  0.93827000000E+00 0.  1.
     999902    2    1    2    0    0 -0.18793529288E-01  0.13530619478E-01  0.26402774829E-03  0.10207708956E+01  0.10205081465E+01 0.  0.
     999903    2    3    3    0    0  0.12233961882E+00 -0.20166168422E-01 -0.25112005197E-01  0.12852766526E+00  0.22695621825E-01 0.  0.
         14    1    1    2    0    0  0.18793529288E-01 -0.13530619478E-01 -0.26402774829E-03  0.23159104413E-01  0.00000000000E+00 0. -1.
     999901    1    3    3    0    0 -0.14113314811E+00  0.33696787900E-01  0.25376032945E-01  0.89224323032E+00  0.88000000000E+00 0. -1.
        -11    1    4    4    0    0  0.46336430824E-01 -0.20987127328E-02 -0.19128581613E-01  0.50176021885E-01  0.51100000000E-03 0.  1.
         11    1    4    4    0    0  0.76003188000E-01 -0.18067455689E-01 -0.59834235841E-02  0.78351643378E-01  0.51100000000E-03 0. -1.
</event>
<event>
 8    1  0.1117354E+005  0.1043930E+01  0.7957747E-01            NaN
         13   -1    0    0    0    0  0.00000000000E+00  0.00000000000E+00  0.74505805969E-08  0.10566000000E+00  0.10566000000E+00 0.  1.
     999900   -1    0    0    0    0 -0.00000000000E+00 -0.00000000000E+00 -0.74505805969E-08  0.93827000000E+00  0.93827000000E+00 0. -1.
     999902    2    1    2    0    0  0.19478222327E-01  0.17799984423E-02 -0.13054929497E-01  0.10204140326E+01  0.10201430278E+01 0.  0.
     999903    2    3    3    0    0 -0.10821457236E+00 -0.64659975401E-01  0.14193109167E-01  0.12830295455E+00  0.19206709988E-01 0.  0.
         14    1    1    2    0    0 -0.19478222327E-01 -0.17799984423E-02  0.13054929497E-01  0.23515967419E-01  0.00000000000E+00 0.  1.
     999901    1    3    3    0    0  0.12769279468E+00  0.66439973843E-01 -0.27248038664E-01  0.89211107803E+00  0.88000000000E+00 0. -1.
        -11    1    4    4    0    0 -0.34760289514E-01 -0.27295571726E-01 -0.22865172372E-02  0.44258504776E-01  0.51100000000E-03 0. -1.
         11    1    4    4    0    0 -0.73454282844E-01 -0.37364403675E-01  0.16479626404E-01  0.84044449772E-01  0.51100000000E-03 0.  1.
</event>
<event>
 8    1  0.1117354E+005  0.1043930E+01  0.7957747E-01            NaN
         13   -1    0    0    0    0  0.00000000000E+00  0.00000000000E+00  0.74505805969E-08  0.10566000000E+00  0.10566000000E+00 0.  1.
     999900   -1    0    0    0    0 -0.00000000000E+00 -0.00000000000E+00 -0.74505805969E-08  0.93827000000E+00  0.93827000000E+00 0. -1.
     999902    2    1    2    0    0  0.11897234150E-01 -0.19590977389E-01 -0.74734101893E-02  0.10198218596E+01  0.10195368668E+01 0.  0.
     999903    2    3    3    0    0 -0.54461008892E-02  0.12546797780E+00 -0.11459467364E-01  0.12776873312E+00  0.20534271388E-01 0.  0.
         14    1    1    2    0    0 -0.11897234150E-01  0.19590977389E-01  0.74734101893E-02  0.24108140437E-01  0.00000000000E+00 0. -1.
     999901    1    3    3    0    0  0.17343335039E-01 -0.14505895519E+00  0.39860571752E-02  0.89205312645E+00  0.88000000000E+00 0.  1.
        -11    1    4    4    0    0  0.49803950984E-02  0.67192645653E-01  0.44703240644E-03  0.67380389759E-01  0.51100000000E-03 0.  1.
         11    1    4    4    0    0 -0.10426495988E-01  0.58275332149E-01 -0.11906499771E-01  0.60388343357E-01  0.51100000000E-03 0. -1.
</event>
<event>
 8    1  0.1117354E+005  0.1043930E+01  0.7957747E-01            NaN
         13   -1    0    0    0    0  0.00000000000E+00  0.00000000000E+00  0.74505805969E-08  0.10566000000E+00  0.10566000000E+00 0. -1.
     999900   -1    0    0    0    0 -0.00000000000E+00 -0.00000000000E+00 -0.74505805969E-08  0.93827000000E+00  0.93827000000E+00 0.  1.
     999902    2    1    2    0    0  0.18139045355E-01 -0.12895890515E-01 -0.12739463164E-01  0.10182858412E+01  0.10179628832E+01 0.  0.
     999903    2    3    3    0    0 -0.12302379554E+00 -0.95000643692E-02 -0.22790510685E-01  0.12697248282E+00  0.19429321252E-01 0.  0.
         14    1    1    2    0    0 -0.18139045355E-01  0.12895890515E-01  0.12739463164E-01  0.25644158795E-01  0.00000000000E+00 0. -1.
     999901    1    3    3    0    0  0.14116284089E+00 -0.33958261462E-02  0.10051047520E-01  0.89131335839E+00  0.88000000000E+00 0.  1.
        -11    1    4    4    0    0 -0.10756595221E+00 -0.17956784569E-02 -0.18398671944E-01  0.10914408269E+00  0.51100000000E-03 0. -1.
         11    1    4    4    0    0 -0.15457843331E-01 -0.77043859124E-02 -0.43918387404E-02  0.17828400131E-01  0.51100000000E-03 0.  1.
</event>
<event>
 8    1  0.1117354E+005  0.1043930E+01  0.7957747E-01            NaN
         13   -1    0    0    0    0  0.00000000000E+00  0.00000000000E+00  0.74505805969E-08  0.10566000000E+00  0.10566000000E+00 0. -1.
     999900   -1    0    0    0    0 -0.00000000000E+00 -0.00000000000E+00 -0.74505805969E-08  0.93827000000E+00  0.93827000000E+00 0.  1.
     999902    2    1    2    0    0 -0.16015861778E-01  0.18370425465E-01  0.29509511290E-02  0.10193802857E+01  0.10190846277E+01 0.  0.
     999903    2    3    3    0    0 -0.49147273337E-01 -0.34812700116E-02  0.11958230353E+00  0.13079823579E+00  0.19510957205E-01 0.  0.
         14    1    1    2    0    0  0.16015861778E-01 -0.18370425465E-01 -0.29509511290E-02  0.24549714313E-01  0.00000000000E+00 0. -1.
     999901    1    3    3    0    0  0.33131411559E-01  0.21851695477E-01 -0.11663135241E+00  0.88858204989E+00  0.88000000000E+00 0.  1.
        -11    1    4    4    0    0 -0.12056616862E-01 -0.95684860923E-02  0.34240210636E-01  0.37544254975E-01  0.51100000000E-03 0.  1.
         11    1    4    4    0    0 -0.37090656476E-01  0.60872160807E-02  0.85342092899E-01  0.93253980820E-01  0.51100000000E-03 0. -1.
</event>
<event>
 8    1  0.1117354E+005  0.1043930E+01  0.7957747E-01            NaN
         13   -1    0    0    0    0  0.00000000000E+00  0.00000000000E+00  0.74505805969E-08  0.10566000000E+00  0.10566000000E+00 0. -1.
     999900   -1    0    0    0    0 -0.00000000000E+00 -0.00000000000E+00 -0.74505805969E-08  0.93827000000E+00  0.93827000000E+00 0. -1.
     999902    2    1    2    0    0 -0.27125228693E-02  0.23000372815E-01  0.35483537403E-02  0.10204999820E+01  0.10202309775E+01 0.  0.
     999903    2    3    3    0    0 -0.79906110221E-01  0.10472362226E+00 -0.34029667646E-02  0.13332138650E+00  0.20272848979E-01 0.  0.
         14    1    1    2    0    0  0.27125228693E-02 -0.23000372815E-01 -0.35483537403E-02  0.23430018015E-01  0.00000000000E+00 0.  1.
     999901    1    3    3    0    0  0.77193587352E-01 -0.81723249445E-01  0.69513205049E-02  0.88717859548E+00  0.88000000000E+00 0. -1.
        -11    1    4    4    0    0 -0.54404666365E-01  0.79739152055E-01 -0.98718861479E-02  0.97035639586E-01  0.51100000000E-03 0. -1.
         11    1    4    4    0    0 -0.25501443856E-01  0.24984470205E-01  0.64689193833E-02  0.36285746915E-01  0.51100000000E-03 0.  1.
</event>
<event>
 8    1  0.1117354E+005  0.1043930E+01  0.7957747E-01            NaN
         13   -1    0    0    0    0  0.00000000000E+00  0.00000000000E+00  0.74505805969E-08  0.10566000000E+00  0.10566000000E+00 0.  1.
     999900   -1    0    0    0    0 -0.00000000000E+00 -0.00000000000E+00 -0.74505805969E-08  0.93827000000E+00  0.93827000000E+00 0.  1.
     999902    2    1    2    0    0 -0.28970768450E-02  0.21138664079E-01  0.12685178886E-01  0.10191076323E+01  0.10188052887E+01 0.  0.
     999903    2    3    3    0    0  0.57915271518E-01 -0.35307381133E-01  0.10909726353E+00  0.12996220677E+00  0.19676697941E-01 0.  0.
         14    1    1    2    0    0  0.28970768450E-02 -0.21138664079E-01 -0.12685178886E-01  0.24822367669E-01  0.00000000000E+00 0. -1.
     999901    1    3    3    0    0 -0.60812348363E-01  0.56446045213E-01 -0.96412084640E-01  0.88914542556E+00  0.88000000000E+00 0.  1.
        -11    1    4    4    0    0  0.29721950259E-01 -0.81703550624E-02  0.39379630167E-01  0.50011652864E-01  0.51100000000E-03 0.  1.
         11    1    4    4    0    0  0.28193321259E-01 -0.27137026071E-01  0.69717633359E-01  0.79950553905E-01  0.51100000000E-03 0. -1.
</event>
<event>
 8    1  0.1117354E+005  0.1043930E+01  0.7957747E-01            NaN
         13   -1    0    0    0    0  0.00000000000E+00  0.00000000000E+00  0.74505805969E-08  0.10566000000E+00  0.10566000000E+00 0. -1.
     999900   -1    0    0    0    0 -0.00000000000E+00 -0.00000000000E+00 -0.74505805969E-08  0.93827000000E+00  0.93827000000E+00 0.  1.
     999902    2    1    2    0    0  0.10402116366E-01 -0.77721007160E-02  0.18654452527E-01  0.10212012039E+01  0.10209482360E+01 0.  0.
     999903    2    3    3    0    0  0.27079736799E-01  0.24494545980E-01  0.12717834215E+00  0.13379108779E+00  0.19809834217E-01 0.  0.
         14    1    1    2    0    0 -0.10402116366E-01  0.77721007160E-02 -0.18654452527E-01  0.22728796129E-01  0.00000000000E+00 0.  1.
     999901    1    3    3    0    0 -0.16677620433E-01 -0.32266646696E-01 -0.10852388962E+00  0.88741011609E+00  0.88000000000E+00 0.  1.
        -11    1    4    4    0    0  0.55670069309E-02 -0.32030478507E-02  0.18126467930E-01  0.19237490541E-01  0.51100000000E-03 0. -1.
         11    1    4    4    0    0  0.21512729868E-01  0.27697593831E-01  0.10905187422E+00  0.11455359724E+00  0.51100000000E-03 0.  1.
</event>
<event>
 8    1  0.1117354E+005  0.1043930E+01  0.7957747E-01            NaN
         13   -1    0    0    0    0  0.00000000000E+00  0.00000000000E+00  0.74505805969E-08  0.10566000000E+00  0.10566000000E+00 0.  1.
     999900   -1    0    0    0    0 -0.00000000000E+00 -0.00000000000E+00 -0.74505805969E-08  0.93827000000E+00  0.93827000000E+00 0.  1.
     999902    2    1    2    0    0 -0.13692805464E-01 -0.12373742974E-01  0.76107664269E-02  0.10239668789E+01  0.10237722613E+01 0.  0.
     999903    2    3    3    0    0  0.11780657038E-01 -0.13068065698E+00 -0.26995289216E-01  0.13501074826E+00  0.16820776369E-01 0.  0.
         14    1    1    2    0    0  0.13692805464E-01  0.12373742974E-01 -0.76107664269E-02  0.19963121055E-01  0.00000000000E+00 0. -1.
     999901    1    3    3    0    0 -0.25473462502E-01  0.11830691400E+00  0.34606055643E-01  0.88895613068E+00  0.88000000000E+00 0.  1.
        -11    1    4    4    0    0  0.97971709375E-02 -0.51751240301E-01 -0.42511923754E-02  0.52844197303E-01  0.51100000000E-03 0. -1.
         11    1    4    4    0    0  0.19834861006E-02 -0.78929416678E-01 -0.22744096841E-01  0.82166550958E-01  0.51100000000E-03 0.  1.
</event>
<event>
 8    1  0.1117354E+005  0.1043930E+01  0.7957747E-01            NaN
         13   -1    0    0    0    0  0.00000000000E+00  0.00000000000E+00  0.74505805969E-08  0.10566000000E+00  0.10566000000E+00 0.  1.
     999900   -1    0    0    0    0 -0.00000000000E+00 -0.00000000000E+00 -0.74505805969E-08  0.93827000000E+00  0.93827000000E+00 0. -1.
     999902    2    1    2    0    0  0.12980698623E-01  0.36202965272E-02  0.19325756260E-01  0.10203696533E+01  0.10200976127E+01 0.  0.
     999903    2    3    3    0    0  0.53696264222E-02  0.12783488491E+00 -0.18266477729E-01  0.13081899790E+00  0.20232531130E-01 0.  0.
         14    1    1    2    0    0 -0.12980698623E-01 -0.36202965272E-02 -0.19325756260E-01  0.23560346744E-01  0.00000000000E+00 0. -1.
     999901    1    3    3    0    0  0.76110722007E-02 -0.12421458838E+00  0.37592233989E-01  0.88955065536E+00  0.88000000000E+00 0. -1.
        -11    1    4    4    0    0 -0.72823763150E-02  0.49034063202E-01 -0.10076248628E-01  0.50588183069E-01  0.51100000000E-03 0. -1.
         11    1    4    4    0    0  0.12652002737E-01  0.78800821706E-01 -0.81902291006E-02  0.80230814831E-01  0.51100000000E-03 0.  1.
</event>
<event>
 8    1  0.1117354E+005  0.1043930E+01  0.7957747E-01            NaN
         13   -1    0    0    0    0  0.00000000000E+00  0.00000000000E+00  0.74505805969E-08  0.10566000000E+00  0.10566000000E+00 0.  1.
     999900   -1    0    0    0    0 -0.00000000000E+00 -0.00000000000E+00 -0.74505805969E-08  0.93827000000E+00  0.93827000000E+00 0.  1.
     999902    2    1    2    0    0  0.11887360544E-01  0.10904998072E-01 -0.16907232474E-01  0.10205615847E+01  0.10202940093E+01 0.  0.
     999903    2    3    3    0    0 -0.54512023415E-01 -0.10231748912E+00 -0.55364364115E-01  0.12999594379E+00  0.19831876120E-01 0.  0.
         14    1    1    2    0    0 -0.11887360544E-01 -0.10904998072E-01  0.16907232474E-01  0.23368415299E-01  0.00000000000E+00 0.  1.
     999901    1    3    3    0    0  0.66399383959E-01  0.11322248720E+00  0.38457131641E-01  0.89056564091E+00  0.88000000000E+00 0. -1.
        -11    1    4    4    0    0 -0.26721045047E-01 -0.30557638970E-01 -0.21196155208E-01  0.45796524589E-01  0.51100000000E-03 0.  1.
         11    1    4    4    0    0 -0.27790978368E-01 -0.71759850154E-01 -0.34168208907E-01  0.84199419201E-01  0.51100000000E-03 0. -1.
</event>
<event>
 8    1  0.1117354E+005  0.1043930E+01  0.7957747E-01            NaN
         13   -1    0    0    0    0  0.00000000000E+00  0.00000000000E+00  0.74505805969E-08  0.10566000000E+00  0.10566000000E+00 0.  1.
     999900   -1    0    0    0    0 -0.00000000000E+00 -0.00000000000E+00 -0.74505805969E-08  0.93827000000E+00  0.93827000000E+00 0. -1.
     999902    2    1    2    0    0  0.21486996711E-01 -0.70914221711E-02 -0.18630063554E-02  0.10212264741E+01  0.10209740747E+01 0.  0.
     999903    2    3    3    0    0 -0.66056624740E-01  0.78061234310E-01 -0.76958230478E-01  0.12962445904E+00  0.20564463718E-01 0.  0.
         14    1    1    2    0    0 -0.21486996711E-01  0.70914221711E-02  0.18630063554E-02  0.22703525910E-01  0.00000000000E+00 0.  1.
     999901    1    3    3    0    0  0.87543621451E-01 -0.85152656481E-01  0.75095224123E-01  0.89160201505E+00  0.88000000000E+00 0.  1.
        -11    1    4    4    0    0 -0.45258891131E-01  0.41287172691E-01 -0.53278747667E-01  0.81190417718E-01  0.51100000000E-03 0. -1.
         11    1    4    4    0    0 -0.20797733609E-01  0.36774061619E-01 -0.23679482812E-01  0.48434041319E-01  0.51100000000E-03 0.  1.
</event>
<event>
 8    1  0.1117354E+005  0.1043930E+01  0.7957747E-01            NaN
         13   -1    0    0    0    0  0.00000000000E+00  0.00000000000E+00  0.74505805969E-08  0.10566000000E+00  0.10566000000E+00 0.  1.
     999900   -1    0    0    0    0 -0.00000000000E+00 -0.00000000000E+00 -0.74505805969E-08  0.93827000000E+00  0.93827000000E+00 0. -1.
     999902    2    1    2    0    0 -0.41866668197E-02 -0.13945417587E-01 -0.19785811962E-01  0.10193641455E+01  0.10190680939E+01 0.  0.
     999903    2    3    3    0    0 -0.45417142723E-01  0.11447713354E+00 -0.32230442598E-01  0.12900063965E+00  0.20847845031E-01 0.  0.
         14    1    1    2    0    0  0.41866668197E-02  0.13945417587E-01  0.19785811962E-01  0.24565854468E-01  0.00000000000E+00 0.  1.
     999901    1    3    3    0    0  0.41230475903E-01 -0.12842255113E+00  0.12444630636E-01  0.89036350589E+00  0.88000000000E+00 0. -1.
        -11    1    4    4    0    0 -0.26708445651E-01  0.63702552844E-01 -0.74336542703E-02  0.69475727019E-01  0.51100000000E-03 0. -1.
         11    1    4    4    0    0 -0.18708697071E-01  0.50774580696E-01 -0.24796788328E-01  0.59524912628E-01  0.51100000000E-03 0.  1.
</event>
<event>
 8    1  0.1117354E+005  0.1043930E+01  0.7957747E-01            NaN
         13   -1    0    0    0    0  0.00000000000E+00  0.00000000000E+00  0.74505805969E-08  0.10566000000E+00  0.10566000000E+00 0. -1.
     999900   -1    0    0    0    0 -0.00000000000E+00 -0.00000000000E+00 -0.74505805969E-08  0.93827000000E+00  0.93827000000E+00 0. -1.
     999902    2    1    2    0    0 -0.21096384264E-01  0.62508767246E-02  0.10656636892E-01  0.10194822026E+01  0.10191890240E+01 0.  0.
     999903    2    3    3    0    0  0.96602597706E-01 -0.53987857878E-01  0.61271077380E-01  0.12816655866E+00  0.20634222899E-01 0.  0.
         14    1    1    2    0    0  0.21096384264E-01 -0.62508767246E-02 -0.10656636892E-01  0.24447797420E-01  0.00000000000E+00 0.  1.
     999901    1    3    3    0    0 -0.11769898197E+00  0.60238734603E-01 -0.50614440488E-01  0.89131564392E+00  0.88000000000E+00 0. -1.
        -11    1    4    4    0    0  0.77937893476E-01 -0.33927891810E-01  0.49252426822E-01  0.98241944967E-01  0.51100000000E-03 0.  1.
         11    1    4    4    0    0  0.18664704230E-01 -0.20059966068E-01  0.12018650558E-01  0.29924613697E-01  0.51100000000E-03 0. -1.
</event>
<event>
 7    1  0.1117354E+005  0.1043930E+01  0.7957747E-01            NaN
         13   -1    0    0    0    0  0.00000000000E+00  0.00000000000E+00  0.74505805969E-08  0.10566000000E+00  0.10566000000E+00 0.  1.
     999900   -1    0    0    0    0 -0.00000000000E+00 -0.00000000000E+00 -0.74505805969E-08  0.93827000000E+00  0.93827000000E+00 0. -1.
     999903    2    1    2    0    0 -0.24708421997E-01 -0.71218443257E-02  0.81719520149E-01  0.87729893200E-01  0.18900460398E-01 0.  0.
         14    1    1    2    0    0 -0.45355314276E-01  0.41885102032E-01 -0.36181859426E-01  0.71558320668E-01  0.00000000000E+00 0. -1.
     999901    1    1    2    0    0  0.70063736273E-01 -0.34763257706E-01 -0.45537660723E-01  0.88464178613E+00  0.88000000000E+00 0. -1.
        -11    1    3    3    0    0 -0.82496179143E-02 -0.41331482360E-02  0.82813419461E-02  0.12408902268E-01  0.51100000000E-03 0.  1.
         11    1    3    3    0    0 -0.16458804082E-01 -0.29886960897E-02  0.73438178203E-01  0.75320990932E-01  0.51100000000E-03 0. -1.
</event>
<event>
 8    1  0.1117354E+005  0.1043930E+01  0.7957747E-01            NaN
         13   -1    0    0    0    0  0.00000000000E+00  0.00000000000E+00  0.74505805969E-08  0.10566000000E+00  0.10566000000E+00 0. -1.
     999900   -1    0    0    0    0 -0.00000000000E+00 -0.00000000000E+00 -0.74505805969E-08  0.93827000000E+00  0.93827000000E+00 0.  1.
     999902    2    1    2    0    0  0.24908714858E-02  0.23409697688E-01  0.27402106467E-02  0.10202292164E+01  0.10199538847E+01 0.  0.
     999903    2    3    3    0    0  0.87874448814E-01 -0.78887553437E-01 -0.47499604987E-01  0.12878144908E+00  0.19577648283E-01 0.  0.
         14    1    1    2    0    0 -0.24908714858E-02 -0.23409697688E-01 -0.27402106467E-02  0.23700783552E-01  0.00000000000E+00 0.  1.
     999901    1    3    3    0    0 -0.85383577328E-01  0.10229725112E+00  0.50239815634E-01  0.89144776736E+00  0.88000000000E+00 0.  1.
        -11    1    4    4    0    0  0.79217623625E-01 -0.64321856642E-01 -0.45443618272E-01  0.11170549090E+00  0.51100000000E-03 0.  1.
         11    1    4    4    0    0  0.86568251891E-02 -0.14565696794E-01 -0.20559867153E-02  0.17075958182E-01  0.51100000000E-03 0. -1.
</event>
<event>
 8    1  0.1117354E+005  0.1043930E+01  0.7957747E-01            NaN
         13   -1    0    0    0    0  0.00000000000E+00  0.00000000000E+00  0.74505805969E-08  0.10566000000E+00  0.10566000000E+00 0.  1.
     999900   -1    0    0    0    0 -0.00000000000E+00 -0.00000000000E+00 -0.74505805969E-08  0.93827000000E+00  0.93827000000E+00 0. -1.
     999902    2    1    2    0    0  0.21675049485E-01 -0.43116755838E-02 -0.75151806937E-02  0.10205874154E+01  0.10203204380E+01 0.  0.
     999903    2    3    3    0    0 -0.33248167270E-01 -0.32618022455E-01 -0.12106839498E+00  0.13114256520E+00  0.19272782082E-01 0.  0.
         14    1    1    2    0    0 -0.21675049485E-01  0.43116755838E-02  0.75151806937E-02  0.23342584633E-01  0.00000000000E+00 0. -1.
     999901    1    3    3    0    0  0.54923216755E-01  0.28306346871E-01  0.11355321428E+00  0.88944485017E+00  0.88000000000E+00 0.  1.
        -11    1    4    4    0    0 -0.24164805833E-01 -0.10760266642E-01 -0.70671521173E-01  0.75461554483E-01  0.51100000000E-03 0.  1.
         11    1    4    4    0    0 -0.90833614371E-02 -0.21857755813E-01 -0.50396873806E-01  0.55681010718E-01  0.51100000000E-03 0. -1.
</event>
<event>
 8    1  0.1117354E+005  0.1043930E+01  0.7957747E-01            NaN
         13   -1    0    0    0    0  0.00000000000E+00  0.00000000000E+00  0.74505805969E-08  0.10566000000E+00  0.10566000000E+00 0.  1.
     999900   -1    0    0    0    0 -0.00000000000E+00 -0.00000000000E+00 -0.74505805969E-08  0.93827000000E+00  0.93827000000E+00 0.  1.
     999902    2    1    2    0    0  0.67343379195E-02 -0.11599724918E-01 -0.18953443462E-01  0.10207106558E+01  0.10204465223E+01 0.  0.
     999903    2    3    3    0    0 -0.87198962456E-01  0.48461217435E-01 -0.83700239385E-01  0.13131595755E+00  0.16911593229E-01 0.  0.
         14    1    1    2    0    0 -0.67343379195E-02  0.11599724918E-01  0.18953443462E-01  0.23219344187E-01  0.00000000000E+00 0.  1.
     999901    1    3    3    0    0  0.93933300376E-01 -0.60060942354E-01  0.64746795923E-01  0.88939469826E+00  0.88000000000E+00 0. -1.
        -11    1    4    4    0    0 -0.30281764109E-01  0.13193361239E-01 -0.37437173290E-01  0.49928479681E-01  0.51100000000E-03 0.  1.
         11    1    4    4    0    0 -0.56917198347E-01  0.35267856197E-01 -0.46263066095E-01  0.81387477869E-01  0.51100000000E-03 0. -1.
</event>
<event>
 8    1  0.1117354E+005  0.1043930E+01  0.7957747E-01            NaN
         13   -1    0    0    0    0  0.00000000000E+00  0.00000000000E+00  0.74505805969E-08  0.10566000000E+00  0.10566000000E+00 0.  1.
     999900   -1    0    0    0    0 -0.00000000000E+00 -0.00000000000E+00 -0.74505805969E-08  0.93827000000E+00  0.93827000000E+00 0.  1.
     999902    2    1    2    0    0  0.22793798859E-02 -0.20057884398E-01  0.10049910630E-01  0.10213797228E+01  0.10211307571E+01 0.  0.
     999903    2    3    3    0    0  0.15063896689E-01 -0.53395272742E-01 -0.11761225379E+00  0.13145138097E+00  0.19205394617E-01 0.  0.
         14    1    1    2    0    0 -0.22793798859E-02  0.20057884398E-01 -0.10049910630E-01  0.22550277224E-01  0.00000000000E+00 0. -1.
     999901    1    3    3    0    0 -0.12784516804E-01  0.33337388343E-01  0.12766216442E+00  0.88992834181E+00  0.88000000000E+00 0. -1.
        -11    1    4    4    0    0  0.18394871062E-02 -0.26605066266E-01 -0.38092286336E-01  0.46502652216E-01  0.51100000000E-03 0. -1.
         11    1    4    4    0    0  0.13224409583E-01 -0.26790206476E-01 -0.79519967452E-01  0.84948728751E-01  0.51100000000E-03 0.  1.
</event>
<event>
 8    1  0.1117354E+005  0.1043930E+01  0.7957747E-01            NaN
         13   -1    0    0    0    0  0.00000000000E+00  0.00000000000E+00  0.74505805969E-08  0.10566000000E+00  0.10566000000E+00 0. -1.
     999900   -1    0    0    0    0 -0.00000000000E+00 -0.00000000000E+00 -0.74505805969E-08  0.93827000000E+00  0.93827000000E+00 0. -1.
     999902    2    1    2    0    0 -0.18006558578E-02  0.32479849460E-02 -0.22927512606E-01  0.10207036658E+01  0.10204393714E+01 0.  0.
     999903    2    3    3    0    0 -0.95596038490E-02 -0.10030954007E+00 -0.83769086583E-01  0.13251108564E+00  0.19711369690E-01 0.  0.
         14    1    1    2    0    0  0.18006558578E-02 -0.32479849460E-02  0.22927512606E-01  0.23226334236E-01  0.00000000000E+00 0. -1.
     999901    1    3    3    0    0  0.77589479912E-02  0.10355752502E+00  0.60841573977E-01  0.88819258012E+00  0.88000000000E+00 0.  1.
        -11    1    4    4    0    0  0.65995683847E-03 -0.51844149451E-01 -0.32353906274E-01  0.61117000478E-01  0.51100000000E-03 0. -1.
         11    1    4    4    0    0 -0.10219560687E-01 -0.48465390623E-01 -0.51415180310E-01  0.71394085163E-01  0.51100000000E-03 0.  1.
</event>
<event>
 8    1  0.1117354E+005  0.1043930E+01  0.7957747E-01            NaN
         13   -1    0    0    0    0  0.00000000000E+00  0.00000000000E+00  0.74505805969E-08  0.10566000000E+00  0.10566000000E+00 0.  1.
     999900   -1    0    0    0    0 -0.00000000000E+00 -0.00000000000E+00 -0.74505805969E-08  0.93827000000E+00  0.93827000000E+00 0. -1.
     999902    2    1    2    0    0 -0.21116066883E-01 -0.10952946242E-01 -0.68203995111E-02  0.10191838253E+01  0.10188833577E+01 0.  0.
     999903    2    3    3    0    0  0.11212342953E+00  0.23975525494E-01 -0.51618809318E-01  0.12734322349E+00  0.20132208553E-01 0.  0.
         14    1    1    2    0    0  0.21116066883E-01  0.10952946242E-01  0.68203995111E-02  0.24746174684E-01  0.00000000000E+00 0.  1.
     999901    1    3    3    0    0 -0.13323949641E+00 -0.34928471736E-01  0.44798409807E-01  0.89184060183E+00  0.88000000000E+00 0. -1.
        -11    1    4    4    0    0  0.64225743106E-01  0.23604451746E-01 -0.32715080851E-01  0.75846251430E-01  0.51100000000E-03 0.  1.
         11    1    4    4    0    0  0.47897686425E-01  0.37107374711E-03 -0.18903728467E-01  0.51496972062E-01  0.51100000000E-03 0. -1.
</event>
<event>
 8    1  0.1117354E+005  0.1043930E+01  0.7957747E-01            NaN
         13   -1    0    0    0    0  0.00000000000E+00  0.00000000000E+00  0.74505805969E-08  0.10566000000E+00  0.10566000000E+00 0. -1.
     999900   -1    0    0    0    0 -0.00000000000E+00 -0.00000000000E+00 -0.74505805969E-08  0.93827000000E+00  0.93827000000E+00 0. -1.
     999902    2    1    2    0    0  0.37839053194E-02 -0.64023926594E-02  0.19347480108E-01  0.10232023962E+01  0.10229924292E+01 0.  0.
     999903    2    3    3    0    0  0.10583987023E+00  0.55630502662E-01 -0.53047352169E-01  0.13218920227E+00  0.19056040225E-01 0.  0.
         14    1    1    2    0    0 -0.37839053194E-02  0.64023926594E-02 -0.19347480108E-01  0.20727603764E-01  0.00000000000E+00 0.  1.
     999901    1    3    3    0    0 -0.10205596491E+00 -0.62032895321E-01  0.72394832277E-01  0.89101319396E+00  0.88000000000E+00 0.  1.
        -11    1    4    4    0    0  0.66087498600E-01  0.24194527264E-01 -0.31922183961E-01  0.77280136973E-01  0.51100000000E-03 0.  1.
         11    1    4    4    0    0  0.39752371629E-01  0.31435975398E-01 -0.21125168208E-01  0.54909065300E-01  0.51100000000E-03 0. -1.
</event>
<event>
 8    1  0.1117354E+005  0.1043930E+01  0.7957747E-01            NaN
         13   -1    0    0    0    0  0.00000000000E+00  0.00000000000E+00  0.74505805969E-08  0.10566000000E+00  0.10566000000E+00 0. -1.
     999900   -1    0    0    0    0 -0.00000000000E+00 -0.00000000000E+00 -0.74505805969E-08  0.93827000000E+00  0.93827000000E+00 0.  1.
     999902    2    1    2    0    0 -0.52507993809E-02 -0.19967394043E-01  0.13258902847E-01  0.10193929622E+01  0.10190976132E+01 0.  0.
     999903    2    3    3    0    0 -0.69920840043E-01 -0.88167478436E-01  0.67783934314E-01  0.13271013011E+00  0.18838491383E-01 0.  0.
         14    1    1    2    0    0  0.52507993809E-02  0.19967394043E-01 -0.13258902847E-01  0.24537037794E-01  0.00000000000E+00 0.  1.
     999901    1    3    3    0    0  0.64670040663E-01  0.68200084392E-01 -0.54525031467E-01  0.88668283209E+00  0.88000000000E+00 0.  1.
        -11    1    4    4    0    0 -0.56135424792E-01 -0.58208468925E-01  0.44159446525E-01  0.92139728725E-01  0.51100000000E-03 0. -1.
         11    1    4    4    0    0 -0.13785415252E-01 -0.29959009511E-01  0.23624487789E-01  0.40570401388E-01  0.51100000000E-03 0.  1.
</event>
<event>
 8    1  0.1117354E+005  0.1043930E+01  0.7957747E-01            NaN
         13   -1    0    0    0    0  0.00000000000E+00  0.00000000000E+00  0.74505805969E-08  0.10566000000E+00  0.10566000000E+00 0.  1.
     999900   -1    0    0    0    0 -0.00000000000E+00 -0.00000000000E+00 -0.74505805969E-08  0.93827000000E+00  0.93827000000E+00 0.  1.
     999902    2    1    2    0    0 -0.21654265101E-01  0.82747221492E-02 -0.16888348776E-02  0.10206871433E+01  0.10204224685E+01 0.  0.
     999903    2    3    3    0    0  0.39392816386E-01  0.88455677292E-01 -0.85912336409E-01  0.13094036477E+00  0.19704028768E-01 0.  0.
         14    1    1    2    0    0  0.21654265101E-01 -0.82747221492E-02  0.16888348776E-02  0.23242856686E-01  0.00000000000E+00 0. -1.
     999901    1    3    3    0    0 -0.61047081486E-01 -0.80180955143E-01  0.84223501532E-01  0.88974677855E+00  0.88000000000E+00 0. -1.
        -11    1    4    4    0    0  0.24370044909E-01  0.54490865248E-01 -0.39871809188E-01  0.71785623723E-01  0.51100000000E-03 0. -1.
         11    1    4    4    0    0  0.15022771477E-01  0.33964812044E-01 -0.46040527222E-01  0.59154741043E-01  0.51100000000E-03 0.  1.
</event>
<event>
 8    1  0.1181400E+005  0.1043930E+01  0.7957747E-01            NaN
         13   -1    0    0    0    0  0.00000000000E+00  0.00000000000E+00  0.74505805969E-08  0.10566000000E+00  0.10566000000E+00 0. -1.
     999900   -1    0    0    0    0 -0.00000000000E+00 -0.00000000000E+00 -0.74505805969E-08  0.93827000000E+00  0.93827000000E+00 0.  1.
     999902    2    1    2    0    0 -0.73740644439E-02  0.92977809905E-02  0.20063144334E-01  0.10206200168E+01  0.10203537932E+01 0.  0.
     999903    2    3    3    0    0 -0.20271106571E-01 -0.72886065395E-01 -0.10154529780E+00  0.12837053848E+00  0.21077271017E-01 0.  0.
         14    1    1    2    0    0  0.73740644439E-02 -0.92977809905E-02 -0.20063144334E-01  0.23309983233E-01  0.00000000000E+00 0.  1.
     999901    1    3    3    0    0  0.12897042127E-01  0.82183846385E-01  0.12160844214E+00  0.89224947829E+00  0.88000000000E+00 0. -1.
        -11    1    4    4    0    0 -0.16419828923E-01 -0.55232758173E-01 -0.60656046004E-01  0.83664122508E-01  0.51100000000E-03 0.  1.
         11    1    4    4    0    0 -0.38512776475E-02 -0.17653307222E-01 -0.40889251799E-01  0.44706415972E-01  0.51100000000E-03 0. -1.
</event>
<event>
 8    1  0.1117354E+005  0.1043930E+01  0.7957747E-01            NaN
         13   -1    0    0    0    0  0.00000000000E+00  0.00000000000E+00  0.74505805969E-08  0.10566000000E+00  0.10566000000E+00 0.  1.
     999900   -1    0    0    0    0 -0.00000000000E+00 -0.00000000000E+00 -0.74505805969E-08  0.93827000000E+00  0.93827000000E+00 0.  1.
     999902    2    1    2    0    0  0.20550818269E-01 -0.54166756952E-02 -0.77158980156E-02  0.10213200113E+01  0.10210697106E+01 0.  0.
     999903    2    3    3    0    0 -0.90395028664E-01  0.89798880583E-01 -0.16877392645E-02  0.12923743563E+00  0.21549156426E-01 0.  0.
         14    1    1    2    0    0 -0.20550818269E-01  0.54166756952E-02  0.77158980156E-02  0.22609988707E-01  0.00000000000E+00 0. -1.
     999901    1    3    3    0    0  0.11094584693E+00 -0.95215556278E-01 -0.60281587511E-02  0.89208257567E+00  0.88000000000E+00 0. -1.
        -11    1    4    4    0    0 -0.58811520781E-01  0.44128028362E-01  0.23042388512E-02  0.73563907600E-01  0.51100000000E-03 0.  1.
         11    1    4    4    0    0 -0.31583507883E-01  0.45670852220E-01 -0.39919781157E-02  0.55673528027E-01  0.51100000000E-03 0. -1.
</event>
<event>
 8    1  0.1117354E+005  0.1043930E+01  0.7957747E-01            NaN
         13   -1    0    0    0    0  0.00000000000E+00  0.00000000000E+00  0.74505805969E-08  0.10566000000E+00  0.10566000000E+00 0. -1.
     999900   -1    0    0    0    0 -0.00000000000E+00 -0.00000000000E+00 -0.74505805969E-08  0.93827000000E+00  0.93827000000E+00 0.  1.
     999902    2    1    2    0    0  0.15235817754E-01  0.17152661052E-01 -0.48518945092E-02  0.10204803773E+01  0.10202109173E+01 0.  0.
     999903    2    3    3    0    0  0.10361991603E+00 -0.70329310866E-01 -0.37746270580E-01  0.13112843111E+00  0.93051350089E-02 0.  0.
         14    1    1    2    0    0 -0.15235817754E-01 -0.17152661052E-01  0.48518945092E-02  0.23449622687E-01  0.00000000000E+00 0.  1.
     999901    1    3    3    0    0 -0.88384098276E-01  0.87481971918E-01  0.32894376071E-01  0.88935194620E+00  0.88000000000E+00 0.  1.
        -11    1    4    4    0    0  0.28810335702E-01 -0.18754691442E-01 -0.61561661770E-02  0.34927544966E-01  0.51100000000E-03 0.  1.
         11    1    4    4    0    0  0.74809580329E-01 -0.51574619424E-01 -0.31590104403E-01  0.96200886144E-01  0.51100000000E-03 0. -1.
</event>
<event>
 8    1  0.1117354E+005  0.1043930E+01  0.7957747E-01            NaN
         13   -1    0    0    0    0  0.00000000000E+00  0.00000000000E+00  0.74505805969E-08  0.10566000000E+00  0.10566000000E+00 0. -1.
     999900   -1    0    0    0    0 -0.00000000000E+00 -0.00000000000E+00 -0.74505805969E-08  0.93827000000E+00  0.93827000000E+00 0. -1.
     999902    2    1    2    0    0 -0.23193108798E-01  0.63313897473E-02  0.31193892112E-03  0.10198862046E+01  0.10196027492E+01 0.  0.
     999903    2    3    3    0    0  0.45096824783E-01 -0.10328109681E+00 -0.58453826331E-01  0.12852105640E+00  0.20002588867E-01 0.  0.
         14    1    1    2    0    0  0.23193108798E-01 -0.63313897473E-02 -0.31193892112E-03  0.24043795411E-01  0.00000000000E+00 0.  1.
     999901    1    3    3    0    0 -0.68289933581E-01  0.10961248656E+00  0.58765765253E-01  0.89136514819E+00  0.88000000000E+00 0.  1.
        -11    1    4    4    0    0  0.22107356699E-01 -0.56312920812E-01 -0.42182428646E-01  0.73752957080E-01  0.51100000000E-03 0. -1.
         11    1    4    4    0    0  0.22989468084E-01 -0.46968176001E-01 -0.16271397686E-01  0.54768099322E-01  0.51100000000E-03 0.  1.
</event>
<event>
 8    1  0.1117354E+005  0.1043930E+01  0.7957747E-01            NaN
         13   -1    0    0    0    0  0.00000000000E+00  0.00000000000E+00  0.74505805969E-08  0.10566000000E+00  0.10566000000E+00 0. -1.
     999900   -1    0    0    0    0 -0.00000000000E+00 -0.00000000000E+00 -0.74505805969E-08  0.93827000000E+00  0.93827000000E+00 0.  1.
     999902    2    1    2    0    0  0.20365572058E-01 -0.26582560056E-02  0.11446947247E-01  0.10204171216E+01  0.10201461888E+01 0.  0.
     999903    2    3    3    0    0 -0.50867086528E-01  0.11559678442E+00  0.21145277846E-01  0.12960153806E+00  0.19983964383E-01 0.  0.
         14    1    1    2    0    0 -0.20365572058E-01  0.26582560056E-02 -0.11446947247E-01  0.23512878418E-01  0.00000000000E+00 0. -1.
     999901    1    3    3    0    0  0.71232658586E-01 -0.11825504042E+00 -0.96983305998E-02  0.89081558352E+00  0.88000000000E+00 0.  1.
        -11    1    4    4    0    0 -0.23880324437E-01  0.75398142125E-01  0.17779322124E-01  0.81064882331E-01  0.51100000000E-03 0. -1.
         11    1    4    4    0    0 -0.26986762091E-01  0.40198642290E-01  0.33659557226E-02  0.48536655726E-01  0.51100000000E-03 0.  1.
</event>
<event>
 8    1  0.1117354E+005  0.1043930E+01  0.7957747E-01            NaN
         13   -1    0    0    0    0  0.00000000000E+00  0.00000000000E+00  0.74505805969E-08  0.10566000000E+00  0.10566000000E+00 0. -1.
     999900   -1    0    0    0    0 -0.00000000000E+00 -0.00000000000E+00 -0.74505805969E-08  0.93827000000E+00  0.93827000000E+00 0.  1.
     999902    2    1    2    0    0 -0.17804162780E-01  0.19057031496E-01  0.26101635485E-02  0.10177198566E+01  0.10173822954E+01 0.  0.
     999903    2    3    3    0    0  0.93727334959E-01  0.64833264356E-01 -0.55184630346E-01  0.12762156055E+00  0.15929651763E-01 0.  0.
         14    1    1    2    0    0  0.17804162780E-01 -0.19057031496E-01 -0.26101635485E-02  0.26210143370E-01  0.00000000000E+00 0. -1.
     999901    1    3    3    0    0 -0.11153149774E+00 -0.45776232860E-01  0.57794793894E-01  0.89009829608E+00  0.88000000000E+00 0. -1.
        -11    1    4    4    0    0  0.65747960026E-01  0.36405299364E-01 -0.34726970049E-01  0.82791084298E-01  0.51100000000E-03 0. -1.
         11    1    4    4    0    0  0.27979374932E-01  0.28427964991E-01 -0.20457660296E-01  0.44830476252E-01  0.51100000000E-03 0.  1.
</event>
<event>
 8    1  0.1117354E+005  0.1043930E+01  0.7957747E-01            NaN
         13   -1    0    0    0    0  0.00000000000E+00  0.00000000000E+00  0.74505805969E-08  0.10566000000E+00  0.10566000000E+00 0. -1.
     999900   -1    0    0    0    0 -0.00000000000E+00 -0.00000000000E+00 -0.74505805969E-08  0.93827000000E+00  0.93827000000E+00 0. -1.
     999902    2    1    2    0    0 -0.10524475205E-01 -0.20479362106E-01  0.44511554289E-03  0.10209003023E+01  0.10206405147E+01 0.  0.
     999903    2    3    3    0    0 -0.82308090010E-01  0.96503721691E-01  0.19385750961E-01  0.13005986933E+00  0.21264343150E-01 0.  0.
         14    1    1    2    0    0  0.10524475205E-01  0.20479362106E-01 -0.44511554289E-03  0.23029697750E-01  0.00000000000E+00 0. -1.
     999901    1    3    3    0    0  0.71783614805E-01 -0.11698308380E+00 -0.18940635418E-01  0.89084043292E+00  0.88000000000E+00 0.  1.
        -11    1    4    4    0    0 -0.60451992840E-01  0.75488785176E-01  0.23312000396E-01  0.99482212526E-01  0.51100000000E-03 0.  1.
         11    1    4    4    0    0 -0.21856097170E-01  0.21014936515E-01 -0.39262494349E-02  0.30577656808E-01  0.51100000000E-03 0. -1.
</event>
<event>
 8    1  0.1117354E+005  0.1043930E+01  0.7957747E-01            NaN
         13   -1    0    0    0    0  0.00000000000E+00  0.00000000000E+00  0.74505805969E-08  0.10566000000E+00  0.10566000000E+00 0. -1.
     999900   -1    0    0    0    0 -0.00000000000E+00 -0.00000000000E+00 -0.74505805969E-08  0.93827000000E+00  0.93827000000E+00 0.  1.
     999902    2    1    2    0    0 -0.46521390473E-02  0.22549007225E-01  0.53295597941E-02  0.10202973037E+01  0.10200235702E+01 0.  0.
     999903    2    3    3    0    0  0.48788064643E-01  0.76384077072E-01 -0.94560617894E-01  0.13140354310E+00  0.10506103075E-01 0.  0.
         14    1    1    2    0    0  0.46521390473E-02 -0.22549007225E-01 -0.53295597941E-02  0.23632696252E-01  0.00000000000E+00 0.  1.
     999901    1    3    3    0    0 -0.53440203690E-01 -0.53835069847E-01  0.99890177688E-01  0.88889376065E+00  0.88000000000E+00 0. -1.
        -11    1    4    4    0    0  0.41249062813E-01  0.60145416808E-01 -0.80562249887E-01  0.10867149384E+00  0.51100000000E-03 0. -1.
         11    1    4    4    0    0  0.75390018298E-02  0.16238660264E-01 -0.13998368007E-01  0.22732049261E-01  0.51100000000E-03 0.  1.
</event>
<event>
 8    1  0.1117354E+005  0.1043930E+01  0.7957747E-01            NaN
         13   -1    0    0    0    0  0.00000000000E+00  0.00000000000E+00  0.74505805969E-08  0.10566000000E+00  0.10566000000E+00 0.  1.
     999900   -1    0    0    0    0 -0.00000000000E+00 -0.00000000000E+00 -0.74505805969E-08  0.93827000000E+00  0.93827000000E+00 0. -1.
     999902    2    1    2    0    0 -0.11889794930E-03  0.20406949361E-01 -0.12491278472E-01  0.10200032418E+01  0.10197225719E+01 0.  0.
     999903    2    3    3    0    0  0.12238962995E-01  0.12763047226E+00 -0.29837134070E-01  0.13323919243E+00  0.20569350174E-01 0.  0.
         14    1    1    2    0    0  0.11889794930E-03 -0.20406949361E-01  0.12491278472E-01  0.23926758176E-01  0.00000000000E+00 0.  1.
     999901    1    3    3    0    0 -0.12357860944E-01 -0.10722352290E+00  0.17345855598E-01  0.88676404939E+00  0.88000000000E+00 0.  1.
        -11    1    4    4    0    0  0.11950488412E-02  0.66942556313E-01 -0.24597101906E-01  0.71330305836E-01  0.51100000000E-03 0.  1.
         11    1    4    4    0    0  0.11043914154E-01  0.60687915943E-01 -0.52400321641E-02  0.61908886595E-01  0.51100000000E-03 0. -1.
</event>
<event>
 8    1  0.1117354E+005  0.1043930E+01  0.7957747E-01            NaN
         13   -1    0    0    0    0  0.00000000000E+00  0.00000000000E+00  0.74505805969E-08  0.10566000000E+00  0.10566000000E+00 0. -1.
     999900   -1    0    0    0    0 -0.00000000000E+00 -0.00000000000E+00 -0.74505805969E-08  0.93827000000E+00  0.93827000000E+00 0. -1.
     999902    2    1    2    0    0 -0.10609188770E-01 -0.19257895274E-01 -0.95640320177E-02  0.10199530918E+01  0.10196712301E+01 0.  0.
     999903    2    3    3    0    0 -0.99000802893E-02 -0.11846755997E+00 -0.56212497537E-01  0.13315032924E+00  0.20894758751E-01 0.  0.
         14    1    1    2    0    0  0.10609188770E-01  0.19257895274E-01  0.95640320177E-02  0.23976908165E-01  0.00000000000E+00 0.  1.
     999901    1    3    3    0    0 -0.70910848033E-03  0.99209664696E-01  0.46648465520E-01  0.88680276259E+00  0.88000000000E+00 0.  1.
        -11    1    4    4    0    0 -0.89548992357E-02 -0.10782251822E+00 -0.57237668552E-01  0.12240219556E+00  0.51100000000E-03 0. -1.
         11    1    4    4    0    0 -0.94518105365E-03 -0.10645041746E-01  0.10251710142E-02  0.10748133680E-01  0.51100000000E-03 0.  1.
</event>
<event>
 8    1  0.1117354E+005  0.1043930E+01  0.7957747E-01            NaN
         13   -1    0    0    0    0  0.00000000000E+00  0.00000000000E+00  0.74505805969E-08  0.10566000000E+00  0.10566000000E+00 0. -1.
     999900   -1    0    0    0    0 -0.00000000000E+00 -0.00000000000E+00 -0.74505805969E-08  0.93827000000E+00  0.93827000000E+00 0. -1.
     999902    2    1    2    0    0  0.37749267704E-02  0.21766157628E-01 -0.74693864739E-02  0.10206103211E+01  0.10203438735E+01 0.  0.
     999903    2    3    3    0    0 -0.89267024268E-01 -0.15515859503E-01  0.90577097945E-01  0.12950995269E+00  0.18954515475E-01 0.  0.
         14    1    1    2    0    0 -0.37749267704E-02 -0.21766157628E-01  0.74693864739E-02  0.23319678906E-01  0.00000000000E+00 0. -1.
     999901    1    3    3    0    0  0.93041951039E-01  0.37282017131E-01 -0.98046484419E-01  0.89110036840E+00  0.88000000000E+00 0.  1.
        -11    1    4    4    0    0 -0.25123334275E-01 -0.41140596095E-02  0.14328304467E-01  0.29217611837E-01  0.51100000000E-03 0.  1.
         11    1    4    4    0    0 -0.64143689993E-01 -0.11401799893E-01  0.76248793478E-01  0.10029234086E+00  0.51100000000E-03 0. -1.
</event>
<event>
 8    1  0.1117354E+005  0.1043930E+01  0.7957747E-01            NaN
         13   -1    0    0    0    0  0.00000000000E+00  0.00000000000E+00  0.74505805969E-08  0.10566000000E+00  0.10566000000E+00 0. -1.
     999900   -1    0    0    0    0 -0.00000000000E+00 -0.00000000000E+00 -0.74505805969E-08  0.93827000000E+00  0.93827000000E+00 0. -1.
     999902    2    1    2    0    0  0.31066288260E-02  0.19478005767E-01  0.12951348425E-01  0.10203337868E+01  0.10200609076E+01 0.  0.
     999903    2    3    3    0    0 -0.10268060327E+00 -0.45242957861E-01  0.63038838989E-01  0.13022789517E+00  0.19879082852E-01 0.  0.
         14    1    1    2    0    0 -0.31066288260E-02 -0.19478005767E-01 -0.12951348425E-01  0.23596213199E-01  0.00000000000E+00 0. -1.
     999901    1    3    3    0    0  0.10578723210E+00  0.64720963628E-01 -0.50087490564E-01  0.89010589163E+00  0.88000000000E+00 0. -1.
        -11    1    4    4    0    0 -0.29494237538E-01 -0.89054572894E-02  0.84248099782E-02  0.31944573274E-01  0.51100000000E-03 0. -1.
         11    1    4    4    0    0 -0.73186365732E-01 -0.36337500572E-01  0.54614029011E-01  0.98283321895E-01  0.51100000000E-03 0.  1.
</event>
<event>
 8    1  0.1117354E+005  0.1043930E+01  0.7957747E-01            NaN
         13   -1    0    0    0    0  0.00000000000E+00  0.00000000000E+00  0.74505805969E-08  0.10566000000E+00  0.10566000000E+00 0.  1.
     999900   -1    0    0    0    0 -0.00000000000E+00 -0.00000000000E+00 -0.74505805969E-08  0.93827000000E+00  0.93827000000E+00 0.  1.
     999902    2    1    2    0    0 -0.13421280450E-01 -0.18916150064E-01  0.33836508418E-03  0.10207337505E+01  0.10204701482E+01 0.  0.
     999903    2    3    3    0    0  0.12100628903E+00  0.15000943227E-01  0.36997350750E-01  0.12912564042E+00  0.20906381035E-01 0.  0.
         14    1    1    2    0    0  0.13421280450E-01  0.18916150064E-01 -0.33836508418E-03  0.23196249548E-01  0.00000000000E+00 0. -1.
     999901    1    3    3    0    0 -0.13442756948E+00 -0.33917093291E-01 -0.36658985666E-01  0.89160811004E+00  0.88000000000E+00 0. -1.
        -11    1    4    4    0    0  0.10837718690E+00  0.16177853792E-01  0.38922162727E-01  0.11628642856E+00  0.51100000000E-03 0. -1.
         11    1    4    4    0    0  0.12629102128E-01 -0.11769105644E-02 -0.19248119775E-02  0.12839211860E-01  0.51100000000E-03 0.  1.
</event>
<event>
 8    1  0.1117354E+005  0.1043930E+01  0.7957747E-01            NaN
         13   -1    0    0    0    0  0.00000000000E+00  0.00000000000E+00  0.74505805969E-08  0.10566000000E+00  0.10566000000E+00 0. -1.
     999900   -1    0    0    0    0 -0.00000000000E+00 -0.00000000000E+00 -0.74505805969E-08  0.93827000000E+00  0.93827000000E+00 0.  1.
     999902    2    1    2    0    0 -0.14188434954E-01 -0.19895785890E-01  0.66248310966E-02  0.10186111855E+01  0.10182964719E+01 0.  0.
     999903    2    3    3    0    0 -0.10772015473E+00 -0.65154975843E-01  0.34709914880E-01  0.13205303801E+00  0.19606734683E-01 0.  0.
         14    1    1    2    0    0  0.14188434954E-01  0.19895785890E-01 -0.66248310966E-02  0.25318814539E-01  0.00000000000E+00 0. -1.
     999901    1    3    3    0    0  0.93531719775E-01  0.45259189952E-01 -0.28085083784E-01  0.88655814745E+00  0.88000000000E+00 0.  1.
        -11    1    4    4    0    0 -0.41515621347E-01 -0.33519660519E-01  0.21333678485E-01  0.57467394371E-01  0.51100000000E-03 0.  1.
         11    1    4    4    0    0 -0.66204533382E-01 -0.31635315324E-01  0.13376236395E-01  0.74585643639E-01  0.51100000000E-03 0. -1.
</event>
<event>
 8    1  0.1117354E+005  0.1043930E+01  0.7957747E-01            NaN
         13   -1    0    0    0    0  0.00000000000E+00  0.00000000000E+00  0.74505805969E-08  0.10566000000E+00  0.10566000000E+00 0.  1.
     999900   -1    0    0    0    0 -0.00000000000E+00 -0.00000000000E+00 -0.74505805969E-08  0.93827000000E+00  0.93827000000E+00 0. -1.
     999902    2    1    2    0    0 -0.16657636524E-01 -0.16475276751E-01  0.12726237677E-02  0.10204665994E+01  0.10201968189E+01 0.  0.
     999903    2    3    3    0    0 -0.69115485953E-01  0.43183186238E-01 -0.10040198596E+00  0.13105742218E+00  0.21301435432E-01 0.  0.
         14    1    1    2    0    0  0.16657636524E-01  0.16475276751E-01 -0.12726237677E-02  0.23463400646E-01  0.00000000000E+00 0. -1.
     999901    1    3    3    0    0  0.52457849429E-01 -0.59658462989E-01  0.10167460973E+00  0.88940917717E+00  0.88000000000E+00 0.  1.
        -11    1    4    4    0    0 -0.21362230721E-01  0.13784523158E-01 -0.47928817166E-01  0.54256710332E-01  0.51100000000E-03 0.  1.
         11    1    4    4    0    0 -0.47753255231E-01  0.29398663080E-01 -0.52473168798E-01  0.76800711851E-01  0.51100000000E-03 0. -1.
</event>
<event>
 8    1  0.1117354E+005  0.1043930E+01  0.7957747E-01            NaN
         13   -1    0    0    0    0  0.00000000000E+00  0.00000000000E+00  0.74505805969E-08  0.10566000000E+00  0.10566000000E+00 0.  1.
     999900   -1    0    0    0    0 -0.00000000000E+00 -0.00000000000E+00 -0.74505805969E-08  0.93827000000E+00  0.93827000000E+00 0. -1.
     999902    2    1    2    0    0 -0.19266334293E-01 -0.28731318066E-02 -0.13758140529E-01  0.10200818773E+01  0.10198030710E+01 0.  0.
     999903    2    3    3    0    0 -0.87905722290E-01 -0.79041301180E-01 -0.57665378967E-01  0.13304140408E+00  0.19994398355E-01 0.  0.
         14    1    1    2    0    0  0.19266334293E-01  0.28731318066E-02  0.13758140529E-01  0.23848122658E-01  0.00000000000E+00 0.  1.
     999901    1    3    3    0    0  0.68639387997E-01  0.76168169374E-01  0.43907238438E-01  0.88704047326E+00  0.88000000000E+00 0.  1.
        -11    1    4    4    0    0 -0.42192494852E-01 -0.47073887986E-01 -0.22517834107E-01  0.67107909563E-01  0.51100000000E-03 0.  1.
         11    1    4    4    0    0 -0.45713227438E-01 -0.31967413194E-01 -0.35147544860E-01  0.65933494521E-01  0.51100000000E-03 0. -1.
</event>
<event>
 8    1  0.1117354E+005  0.1043930E+01  0.7957747E-01            NaN
         13   -1    0    0    0    0  0.00000000000E+00  0.00000000000E+00  0.74505805969E-08  0.10566000000E+00  0.10566000000E+00 0. -1.
     999900   -1    0    0    0    0 -0.00000000000E+00 -0.00000000000E+00 -0.74505805969E-08  0.93827000000E+00  0.93827000000E+00 0.  1.
     999902    2    1    2    0    0  0.20143277516E-01  0.57449141659E-02 -0.12954125358E-01  0.10193014590E+01  0.10190038760E+01 0.  0.
     999903    2    3    3    0    0 -0.12557335988E+00 -0.24411507078E-02 -0.24906719596E-02  0.12721971727E+00  0.20100375347E-01 0.  0.
         14    1    1    2    0    0 -0.20143277516E-01 -0.57449141659E-02  0.12954125358E-01  0.24628540997E-01  0.00000000000E+00 0.  1.
     999901    1    3    3    0    0  0.14571663739E+00  0.81860648738E-02 -0.10463453398E-01  0.89208174173E+00  0.88000000000E+00 0.  1.
        -11    1    4    4    0    0 -0.96745466038E-01  0.37390818822E-02  0.44691786615E-02  0.96922136848E-01  0.51100000000E-03 0. -1.
         11    1    4    4    0    0 -0.28827893837E-01 -0.61802325900E-02 -0.69598506211E-02  0.30297580425E-01  0.51100000000E-03 0.  1.
</event>
<event>
 8    1  0.1117354E+005  0.1043930E+01  0.7957747E-01            NaN
         13   -1    0    0    0    0  0.00000000000E+00  0.00000000000E+00  0.74505805969E-08  0.10566000000E+00  0.10566000000E+00 0. -1.
     999900   -1    0    0    0    0 -0.00000000000E+00 -0.00000000000E+00 -0.74505805969E-08  0.93827000000E+00  0.93827000000E+00 0. -1.
     999902    2    1    2    0    0 -0.16357745321E-01  0.17120701855E-01 -0.10766196289E-02  0.10202265535E+01  0.10199511592E+01 0.  0.
     999903    2    3    3    0    0  0.67797396112E-01 -0.91865284047E-01  0.53818089999E-01  0.12782896161E+00  0.20202457317E-01 0.  0.
         14    1    1    2    0    0  0.16357745321E-01 -0.17120701855E-01  0.10766196289E-02  0.23703446454E-01  0.00000000000E+00 0. -1.
     999901    1    3    3    0    0 -0.84155141433E-01  0.10898598590E+00 -0.54894709628E-01  0.89239759194E+00  0.88000000000E+00 0. -1.
        -11    1    4    4    0    0  0.49583934084E-01 -0.51302090905E-01  0.36092144994E-01  0.79958583665E-01  0.51100000000E-03 0.  1.
         11    1    4    4    0    0  0.18213462028E-01 -0.40563193142E-01  0.17725945005E-01  0.47870377942E-01  0.51100000000E-03 0. -1.
</event>
<event>
 8    1  0.1117354E+005  0.1043930E+01  0.7957747E-01            NaN
         13   -1    0    0    0    0  0.00000000000E+00  0.00000000000E+00  0.74505805969E-08  0.10566000000E+00  0.10566000000E+00 0. -1.
     999900   -1    0    0    0    0 -0.00000000000E+00 -0.00000000000E+00 -0.74505805969E-08  0.93827000000E+00  0.93827000000E+00 0.  1.
     999902    2    1    2    0    0  0.10700727673E-01 -0.20612923532E-01  0.30562113277E-02  0.10205048294E+01  0.10202359375E+01 0.  0.
     999903    2    3    3    0    0 -0.29979038082E-01 -0.39121542108E-01  0.12054827740E+00  0.13157187475E+00  0.18709175802E-01 0.  0.
         14    1    1    2    0    0 -0.10700727673E-01  0.20612923532E-01 -0.30562113277E-02  0.23425170585E-01  0.00000000000E+00 0.  1.
     999901    1    3    3    0    0  0.40679765755E-01  0.18508618576E-01 -0.11749206607E+00  0.88893295467E+00  0.88000000000E+00 0.  1.
        -11    1    4    4    0    0 -0.22378927382E-01 -0.13933640138E-01  0.57863671592E-01  0.63587957424E-01  0.51100000000E-03 0.  1.
         11    1    4    4    0    0 -0.76001107002E-02 -0.25187901970E-01  0.62684605809E-01  0.67983917324E-01  0.51100000000E-03 0. -1.
</event>
<event>
 8    1  0.1117354E+005  0.1043930E+01  0.7957747E-01            NaN
         13   -1    0    0    0    0  0.00000000000E+00  0.00000000000E+00  0.74505805969E-08  0.10566000000E+00  0.10566000000E+00 0. -1.
     999900   -1    0    0    0    0 -0.00000000000E+00 -0.00000000000E+00 -0.74505805969E-08  0.93827000000E+00  0.93827000000E+00 0. -1.
     999902    2    1    2    0    0  0.10519098083E-01 -0.15763077007E-02  0.20947361879E-01  0.10204368491E+01  0.10201663760E+01 0.  0.
     999903    2    3    3    0    0  0.12931617110E-01  0.86172914974E-01 -0.92538653150E-01  0.12881763555E+00  0.20918482398E-01 0.  0.
         14    1    1    2    0    0 -0.10519098083E-01  0.15763077007E-02 -0.20947361879E-01  0.23493150919E-01  0.00000000000E+00 0.  1.
     999901    1    3    3    0    0 -0.24125190266E-02 -0.87749222675E-01  0.11348601503E+00  0.89161921353E+00  0.88000000000E+00 0. -1.
        -11    1    4    4    0    0 -0.43759058509E-02  0.40254152671E-01 -0.43852432480E-01  0.59689549460E-01  0.51100000000E-03 0.  1.
         11    1    4    4    0    0  0.17307522960E-01  0.45918762304E-01 -0.48686220670E-01  0.69128086092E-01  0.51100000000E-03 0. -1.
</event>
<event>
 8    1  0.1117354E+005  0.1043930E+01  0.7957747E-01            NaN
         13   -1    0    0    0    0  0.00000000000E+00  0.00000000000E+00  0.74505805969E-08  0.10566000000E+00  0.10566000000E+00 0.  1.
     999900   -1    0    0    0    0 -0.00000000000E+00 -0.00000000000E+00 -0.74505805969E-08  0.93827000000E+00  0.93827000000E+00 0.  1.
     999902    2    1    2    0    0 -0.23566098479E-01 -0.43879677252E-03  0.44103558651E-03  0.10203556908E+01  0.10200833239E+01 0.  0.
     999903    2    3    3    0    0  0.18491721819E-01 -0.46533045517E-01 -0.11846293223E+00  0.13016936563E+00  0.20083060948E-01 0.  0.
         14    1    1    2    0    0  0.23566098479E-01  0.43879677252E-03 -0.44103558651E-03  0.23574309163E-01  0.00000000000E+00 0. -1.
     999901    1    3    3    0    0 -0.42057820298E-01  0.46094248745E-01  0.11890396781E+00  0.89018632520E+00  0.88000000000E+00 0. -1.
        -11    1    4    4    0    0 -0.24040527500E-02 -0.76313074191E-02 -0.33130662744E-01  0.34086922088E-01  0.51100000000E-03 0.  1.
         11    1    4    4    0    0  0.20895774569E-01 -0.38901738098E-01 -0.85332269482E-01  0.96082443547E-01  0.51100000000E-03 0. -1.
</event>
<event>
 8    1  0.1117354E+005  0.1043930E+01  0.7957747E-01            NaN
         13   -1    0    0    0    0  0.00000000000E+00  0.00000000000E+00  0.74505805969E-08  0.10566000000E+00  0.10566000000E+00 0.  1.
     999900   -1    0    0    0    0 -0.00000000000E+00 -0.00000000000E+00 -0.74505805969E-08  0.93827000000E+00  0.93827000000E+00 0. -1.
     999902    2    1    2    0    0 -0.19081888170E-01  0.12141339825E-01  0.64240893350E-02  0.10204183111E+01  0.10201474061E+01 0.  0.
     999903    2    3    3    0    0  0.75350253587E-01  0.66878540318E-01 -0.79151701225E-01  0.12955535511E+00  0.19214535111E-01 0.  0.
         14    1    1    2    0    0  0.19081888170E-01 -0.12141339825E-01 -0.64240893350E-02  0.23511688852E-01  0.00000000000E+00 0. -1.
     999901    1    3    3    0    0 -0.94432141757E-01 -0.54737200493E-01  0.85575790560E-01  0.89086295604E+00  0.88000000000E+00 0.  1.
        -11    1    4    4    0    0  0.46072562970E-02  0.12048873046E-01 -0.12396255584E-01  0.17897777119E-01  0.51100000000E-03 0.  1.
         11    1    4    4    0    0  0.70742997290E-01  0.54829667272E-01 -0.66755445641E-01  0.11165757799E+00  0.51100000000E-03 0. -1.
</event>
<event>
 8    1  0.1117354E+005  0.1043930E+01  0.7957747E-01            NaN
         13   -1    0    0    0    0  0.00000000000E+00  0.00000000000E+00  0.74505805969E-08  0.10566000000E+00  0.10566000000E+00 0.  1.
     999900   -1    0    0    0    0 -0.00000000000E+00 -0.00000000000E+00 -0.74505805969E-08  0.93827000000E+00  0.93827000000E+00 0.  1.
     999902    2    1    2    0    0  0.15082560109E-01 -0.14760966488E-01  0.10859942579E-01  0.10201958873E+01  0.10199197716E+01 0.  0.
     999903    2    3    3    0    0 -0.56075499515E-01 -0.49960913132E-01 -0.10178128154E+00  0.12947115373E+00  0.27618759712E-01 0.  0.
         14    1    1    2    0    0 -0.15082560109E-01  0.14760966488E-01 -0.10859942579E-01  0.23734112663E-01  0.00000000000E+00 0. -1.
     999901    1    3    3    0    0  0.71158059624E-01  0.35199946644E-01  0.11264122412E+00  0.89072473361E+00  0.88000000000E+00 0. -1.
        -11    1    4    4    0    0 -0.31509281688E-01 -0.30541353171E-01 -0.80248146774E-01  0.91463846779E-01  0.51100000000E-03 0. -1.
         11    1    4    4    0    0 -0.24566217827E-01 -0.19419559962E-01 -0.21533134768E-01  0.38007306947E-01  0.51100000000E-03 0.  1.
</event>
<event>
 8    1  0.1117354E+005  0.1043930E+01  0.7957747E-01            NaN
         13   -1    0    0    0    0  0.00000000000E+00  0.00000000000E+00  0.74505805969E-08  0.10566000000E+00  0.10566000000E+00 0. -1.
     999900   -1    0    0    0    0 -0.00000000000E+00 -0.00000000000E+00 -0.74505805969E-08  0.93827000000E+00  0.93827000000E+00 0.  1.
     999902    2    1    2    0    0 -0.96233927451E-02 -0.19661111851E-01  0.11162423334E-01  0.10193582947E+01  0.10190621003E+01 0.  0.
     999903    2    3    3    0    0  0.28945010993E-01  0.12167902927E+00 -0.97778189405E-02  0.12700015414E+00  0.19744203759E-01 0.  0.
         14    1    1    2    0    0  0.96233927451E-02  0.19661111851E-01 -0.11162423334E-01  0.24571705310E-01  0.00000000000E+00 0.  1.
     999901    1    3    3    0    0 -0.38568403738E-01 -0.14134014112E+00  0.20940242274E-01  0.89235814055E+00  0.88000000000E+00 0. -1.
        -11    1    4    4    0    0  0.22531806025E-01  0.87299326769E-01 -0.15722160375E-01  0.91522140408E-01  0.51100000000E-03 0.  1.
         11    1    4    4    0    0  0.64132049681E-02  0.34379702504E-01  0.59443414347E-02  0.35478013731E-01  0.51100000000E-03 0. -1.
</event>
<event>
 8    1  0.1117354E+005  0.1043930E+01  0.7957747E-01            NaN
         13   -1    0    0    0    0  0.00000000000E+00  0.00000000000E+00  0.74505805969E-08  0.10566000000E+00  0.10566000000E+00 0. -1.
     999900   -1    0    0    0    0 -0.00000000000E+00 -0.00000000000E+00 -0.74505805969E-08  0.93827000000E+00  0.93827000000E+00 0. -1.
     999902    2    1    2    0    0 -0.11323866656E-01  0.17098308239E-02 -0.20571697360E-01  0.10203853996E+01  0.10201137267E+01 0.  0.
     999903    2    3    3    0    0  0.78409538426E-01 -0.78735091548E-01 -0.66556556737E-01  0.13098218571E+00  0.19475301562E-01 0.  0.
         14    1    1    2    0    0  0.11323866656E-01 -0.17098308239E-02  0.20571697360E-01  0.23544600437E-01  0.00000000000E+00 0. -1.
     999901    1    3    3    0    0 -0.89733405082E-01  0.80444922372E-01  0.45984859377E-01  0.88940321385E+00  0.88000000000E+00 0.  1.
        -11    1    4    4    0    0  0.32470216505E-01 -0.26808171385E-01 -0.35215932557E-01  0.54894590259E-01  0.51100000000E-03 0.  1.
         11    1    4    4    0    0  0.45939321921E-01 -0.51926920163E-01 -0.31340624180E-01  0.76087595449E-01  0.51100000000E-03 0. -1.
</event>
<event>
 8    1  0.1117354E+005  0.1043930E+01  0.7957747E-01            NaN
         13   -1    0    0    0    0  0.00000000000E+00  0.00000000000E+00  0.74505805969E-08  0.10566000000E+00  0.10566000000E+00 0. -1.
     999900   -1    0    0    0    0 -0.00000000000E+00 -0.00000000000E+00 -0.74505805969E-08  0.93827000000E+00  0.93827000000E+00 0.  1.
     999902    2    1    2    0    0  0.20709029068E-01  0.11313446700E-01  0.82352112874E-02  0.10189364675E+01  0.10186298877E+01 0.  0.
     999903    2    3    3    0    0 -0.75990136393E-01  0.98691947718E-01  0.27825021381E-01  0.12912216571E+00  0.19588274264E-01 0.  0.
         14    1    1    2    0    0 -0.20709029068E-01 -0.11313446700E-01 -0.82352112874E-02  0.24993532486E-01  0.00000000000E+00 0.  1.
     999901    1    3    3    0    0  0.96699165461E-01 -0.87378501018E-01 -0.19589810094E-01  0.88981430181E+00  0.88000000000E+00 0.  1.
        -11    1    4    4    0    0 -0.17006990219E-01  0.23214717962E-01  0.15057797403E-01  0.32483214589E-01  0.51100000000E-03 0.  1.
         11    1    4    4    0    0 -0.58983146174E-01  0.75477229756E-01  0.12767223978E-01  0.96638951119E-01  0.51100000000E-03 0. -1.
</event>
<event>
 8    1  0.1117354E+005  0.1043930E+01  0.7957747E-01            NaN
         13   -1    0    0    0    0  0.00000000000E+00  0.00000000000E+00  0.74505805969E-08  0.10566000000E+00  0.10566000000E+00 0. -1.
     999900   -1    0    0    0    0 -0.00000000000E+00 -0.00000000000E+00 -0.74505805969E-08  0.93827000000E+00  0.93827000000E+00 0.  1.
     999902    2    1    2    0    0  0.12437039985E-01 -0.37654819570E-02  0.19580225202E-01  0.10204301269E+01  0.10201594972E+01 0.  0.
     999903    2    3    3    0    0 -0.11978023526E+00 -0.11169659795E-02  0.46168450974E-01  0.13015188034E+00  0.21434405019E-01 0.  0.
         14    1    1    2    0    0 -0.12437039985E-01  0.37654819570E-02 -0.19580225202E-01  0.23499873126E-01  0.00000000000E+00 0.  1.
     999901    1    3    3    0    0  0.13221727524E+00 -0.26485159775E-02 -0.26588225771E-01  0.89027824654E+00  0.88000000000E+00 0.  1.
        -11    1    4    4    0    0 -0.14058337644E-01 -0.69215402064E-02  0.39913108964E-02  0.16178265044E-01  0.51100000000E-03 0.  1.
         11    1    4    4    0    0 -0.10572189761E+00  0.58045742268E-02  0.42177140077E-01  0.11397361529E+00  0.51100000000E-03 0. -1.
</event>
<event>
 8    1  0.1117354E+005  0.1043930E+01  0.7957747E-01            NaN
         13   -1    0    0    0    0  0.00000000000E+00  0.00000000000E+00  0.74505805969E-08  0.10566000000E+00  0.10566000000E+00 0. -1.
     999900   -1    0    0    0    0 -0.00000000000E+00 -0.00000000000E+00 -0.74505805969E-08  0.93827000000E+00  0.93827000000E+00 0.  1.
     999902    2    1    2    0    0  0.77830024309E-02  0.18613078126E-01 -0.12081321280E-01  0.10204144705E+01  0.10201434759E+01 0.  0.
     999903    2    3    3    0    0 -0.84772959454E-01 -0.53623463962E-01 -0.79584450949E-01  0.13005420823E+00  0.22770193336E-01 0.  0.
         14    1    1    2    0    0 -0.77830024309E-02 -0.18613078126E-01  0.12081321280E-01  0.23515529508E-01  0.00000000000E+00 0. -1.
     999901    1    3    3    0    0  0.92555961885E-01  0.72236542088E-01  0.67503129668E-01  0.89036026226E+00  0.88000000000E+00 0. -1.
        -11    1    4    4    0    0 -0.24068068160E-01 -0.27069430003E-01 -0.33521712193E-01  0.49355772257E-01  0.51100000000E-03 0. -1.
         11    1    4    4    0    0 -0.60704891294E-01 -0.26554033958E-01 -0.46062738755E-01  0.80698435977E-01  0.51100000000E-03 0.  1.
</event>
<event>
 8    1  0.1117354E+005  0.1043930E+01  0.7957747E-01            NaN
         13   -1    0    0    0    0  0.00000000000E+00  0.00000000000E+00  0.74505805969E-08  0.10566000000E+00  0.10566000000E+00 0.  1.
     999900   -1    0    0    0    0 -0.00000000000E+00 -0.00000000000E+00 -0.74505805969E-08  0.93827000000E+00  0.93827000000E+00 0. -1.
     999902    2    1    2    0    0 -0.22524413243E-02 -0.24059459647E-01 -0.28374922494E-02  0.10195993105E+01  0.10193089676E+01 0.  0.
     999903    2    3    3    0    0 -0.20122288572E-01  0.80229727548E-01 -0.96070182038E-01  0.12837100053E+00  0.20196985427E-01 0.  0.
         14    1    1    2    0    0  0.22524413243E-02  0.24059459647E-01  0.28374922494E-02  0.24330689523E-01  0.00000000000E+00 0.  1.
     999901    1    3    3    0    0  0.17869847248E-01 -0.10428918719E+00  0.93232689788E-01  0.89122830995E+00  0.88000000000E+00 0.  1.
        -11    1    4    4    0    0 -0.21605841274E-01  0.61782031386E-01 -0.65274502615E-01  0.92438377268E-01  0.51100000000E-03 0. -1.
         11    1    4    4    0    0  0.14835527025E-02  0.18447696162E-01 -0.30795679423E-01  0.35932623261E-01  0.51100000000E-03 0.  1.
</event>
<event>
 8    1  0.1117354E+005  0.1043930E+01  0.7957747E-01            NaN
         13   -1    0    0    0    0  0.00000000000E+00  0.00000000000E+00  0.74505805969E-08  0.10566000000E+00  0.10566000000E+00 0.  1.
     999900   -1    0    0    0    0 -0.00000000000E+00 -0.00000000000E+00 -0.74505805969E-08  0.93827000000E+00  0.93827000000E+00 0. -1.
     999902    2    1    2    0    0 -0.22016028213E-01  0.30496882669E-02 -0.28500149865E-02  0.10215217720E+01  0.10212759676E+01 0.  0.
     999903    2    3    3    0    0 -0.20547218411E-01 -0.12741241500E+00 -0.18330885247E-01  0.13176777502E+00  0.19251324628E-01 0.  0.
         14    1    1    2    0    0  0.22016028213E-01 -0.30496882669E-02  0.28500149865E-02  0.22408228003E-01  0.00000000000E+00 0. -1.
     999901    1    3    3    0    0 -0.14688098022E-02  0.13046210327E+00  0.15480870261E-01  0.88975399698E+00  0.88000000000E+00 0. -1.
        -11    1    4    4    0    0 -0.87572049538E-02 -0.35532002403E-01 -0.13491332601E-01  0.39006268851E-01  0.51100000000E-03 0. -1.
         11    1    4    4    0    0 -0.11790013457E-01 -0.91880412596E-01 -0.48395526460E-02  0.92761506170E-01  0.51100000000E-03 0.  1.
</event>
<event>
 8    1  0.1117354E+005  0.1043930E+01  0.7957747E-01            NaN
         13   -1    0    0    0    0  0.00000000000E+00  0.00000000000E+00  0.74505805969E-08  0.10566000000E+00  0.10566000000E+00 0. -1.
     999900   -1    0    0    0    0 -0.00000000000E+00 -0.00000000000E+00 -0.74505805969E-08  0.93827000000E+00  0.93827000000E+00 0.  1.
     999902    2    1    2    0    0  0.44797398852E-02 -0.23539040392E-01  0.89744400102E-02  0.10183429903E+01  0.10180214884E+01 0.  0.
     999903    2    3    3    0    0 -0.37986906457E-03  0.10371750619E+00  0.70268077819E-01  0.12706595453E+00  0.21229428847E-01 0.  0.
         14    1    1    2    0    0 -0.44797398852E-02  0.23539040392E-01 -0.89744400102E-02  0.25587009703E-01  0.00000000000E+00 0. -1.
     999901    1    3    3    0    0  0.48596089498E-02 -0.12725654659E+00 -0.61293637809E-01  0.89127703577E+00  0.88000000000E+00 0.  1.
        -11    1    4    4    0    0  0.66276514729E-02  0.42422568406E-01  0.19470421504E-01  0.47148260930E-01  0.51100000000E-03 0.  1.
         11    1    4    4    0    0 -0.70075205374E-02  0.61294937787E-01  0.50797656315E-01  0.79917693601E-01  0.51100000000E-03 0. -1.
</event>
<event>
 8    1  0.1117354E+005  0.1043930E+01  0.7957747E-01            NaN
         13   -1    0    0    0    0  0.00000000000E+00  0.00000000000E+00  0.74505805969E-08  0.10566000000E+00  0.10566000000E+00 0. -1.
     999900   -1    0    0    0    0 -0.00000000000E+00 -0.00000000000E+00 -0.74505805969E-08  0.93827000000E+00  0.93827000000E+00 0. -1.
     999902    2    1    2    0    0 -0.17756457051E-01 -0.10920527574E-01  0.11459385598E-01  0.10201420365E+01  0.10198646515E+01 0.  0.
     999903    2    3    3    0    0  0.56104270422E-01  0.63073183704E-01  0.96505487252E-01  0.12988178478E+00  0.20737726158E-01 0.  0.
         14    1    1    2    0    0  0.17756457051E-01  0.10920527574E-01 -0.11459385598E-01  0.23787963507E-01  0.00000000000E+00 0. -1.
     999901    1    3    3    0    0 -0.73860727473E-01 -0.73993711278E-01 -0.85046101654E-01  0.89026025171E+00  0.88000000000E+00 0. -1.
        -11    1    4    4    0    0  0.86980285063E-02  0.42551183793E-02  0.20707703194E-01  0.22865516064E-01  0.51100000000E-03 0. -1.
         11    1    4    4    0    0  0.47406241915E-01  0.58818065324E-01  0.75797784058E-01  0.10701626872E+00  0.51100000000E-03 0.  1.
</event>
<event>
 8    1  0.1117354E+005  0.1043930E+01  0.7957747E-01            NaN
         13   -1    0    0    0    0  0.00000000000E+00  0.00000000000E+00  0.74505805969E-08  0.10566000000E+00  0.10566000000E+00 0. -1.
     999900   -1    0    0    0    0 -0.00000000000E+00 -0.00000000000E+00 -0.74505805969E-08  0.93827000000E+00  0.93827000000E+00 0. -1.
     999902    2    1    2    0    0  0.95505888539E-02 -0.21055190369E-01 -0.41671654002E-02  0.10204374468E+01  0.10201669877E+01 0.  0.
     999903    2    3    3    0    0  0.93110032351E-01  0.54426915419E-01  0.69286975806E-01  0.13022666290E+00  0.22946273495E-01 0.  0.
         14    1    1    2    0    0 -0.95505888539E-02  0.21055190369E-01  0.41671654002E-02  0.23492553211E-01  0.00000000000E+00 0.  1.
     999901    1    3    3    0    0 -0.83559443497E-01 -0.75482105787E-01 -0.73454141207E-01  0.89021078389E+00  0.88000000000E+00 0.  1.
        -11    1    4    4    0    0  0.54542475914E-01  0.24751761627E-01  0.26784543342E-01  0.65614055396E-01  0.51100000000E-03 0. -1.
         11    1    4    4    0    0  0.38567556437E-01  0.29675153792E-01  0.42502432464E-01  0.64612607504E-01  0.51100000000E-03 0.  1.
</event>
<event>
 8    1  0.1117354E+005  0.1043930E+01  0.7957747E-01            NaN
         13   -1    0    0    0    0  0.00000000000E+00  0.00000000000E+00  0.74505805969E-08  0.10566000000E+00  0.10566000000E+00 0.  1.
     999900   -1    0    0    0    0 -0.00000000000E+00 -0.00000000000E+00 -0.74505805969E-08  0.93827000000E+00  0.93827000000E+00 0.  1.
     999902    2    1    2    0    0  0.18293557511E-01  0.12212723499E-01 -0.68088300139E-03  0.10219238994E+01  0.10216869323E+01 0.  0.
     999903    2    3    3    0    0  0.98571492030E-01  0.57914278213E-01  0.67724956941E-01  0.13444852633E+00  0.20477640941E-01 0.  0.
         14    1    1    2    0    0 -0.18293557511E-01 -0.12212723499E-01  0.68088300139E-03  0.22006100594E-01  0.00000000000E+00 0.  1.
     999901    1    3    3    0    0 -0.80277934519E-01 -0.45701554714E-01 -0.68405839942E-01  0.88747537307E+00  0.88000000000E+00 0.  1.
        -11    1    4    4    0    0  0.40959256225E-01  0.26534071868E-01  0.40487774964E-01  0.63413237443E-01  0.51100000000E-03 0. -1.
         11    1    4    4    0    0  0.57612235804E-01  0.31380206345E-01  0.27237181977E-01  0.71035288890E-01  0.51100000000E-03 0.  1.
</event>
<event>
 8    1  0.1117354E+005  0.1043930E+01  0.7957747E-01            NaN
         13   -1    0    0    0    0  0.00000000000E+00  0.00000000000E+00  0.74505805969E-08  0.10566000000E+00  0.10566000000E+00 0.  1.
     999900   -1    0    0    0    0 -0.00000000000E+00 -0.00000000000E+00 -0.74505805969E-08  0.93827000000E+00  0.93827000000E+00 0.  1.
     999902    2    1    2    0    0  0.23270106246E-01 -0.60192514823E-02  0.48150082537E-02  0.10194164622E+01  0.10191216855E+01 0.  0.
     999903    2    3    3    0    0  0.40495551063E-01  0.33518464562E-01  0.11845057564E+00  0.13106237222E+00  0.19581353855E-01 0.  0.
         14    1    1    2    0    0 -0.23270106246E-01  0.60192514823E-02 -0.48150082537E-02  0.24513537843E-01  0.00000000000E+00 0.  1.
     999901    1    3    3    0    0 -0.17225444817E-01 -0.39537716044E-01 -0.11363556739E+00  0.88835408994E+00  0.88000000000E+00 0.  1.
        -11    1    4    4    0    0  0.16007858706E-01  0.25854754138E-01  0.65933246624E-01  0.72609737524E-01  0.51100000000E-03 0. -1.
         11    1    4    4    0    0  0.24487692356E-01  0.76637104234E-02  0.52517329017E-01  0.58452634692E-01  0.51100000000E-03 0.  1.
</event>
<event>
 8    1  0.1117354E+005  0.1043930E+01  0.7957747E-01            NaN
         13   -1    0    0    0    0  0.00000000000E+00  0.00000000000E+00  0.74505805969E-08  0.10566000000E+00  0.10566000000E+00 0.  1.
     999900   -1    0    0    0    0 -0.00000000000E+00 -0.00000000000E+00 -0.74505805969E-08  0.93827000000E+00  0.93827000000E+00 0. -1.
     999902    2    1    2    0    0 -0.19085253353E-01  0.13578921409E-01 -0.57225569755E-03  0.10205000730E+01  0.10202310707E+01 0.  0.
     999903    2    3    3    0    0  0.87541565469E-01  0.80696701008E-01  0.48612018763E-01  0.13016689510E+00  0.20119865151E-01 0.  0.
         14    1    1    2    0    0  0.19085253353E-01 -0.13578921409E-01  0.57225569755E-03  0.23429926991E-01  0.00000000000E+00 0.  1.
     999901    1    3    3    0    0 -0.10662681882E+00 -0.67117779598E-01 -0.49184274460E-01  0.89033317791E+00  0.88000000000E+00 0.  1.
        -11    1    4    4    0    0  0.40133373276E-01  0.49883329063E-01  0.22275948765E-01  0.67790214510E-01  0.51100000000E-03 0.  1.
         11    1    4    4    0    0  0.47408192193E-01  0.30813371945E-01  0.26336069998E-01  0.62376680591E-01  0.51100000000E-03 0. -1.
</event>
<event>
 8    1  0.1117354E+005  0.1043930E+01  0.7957747E-01            NaN
         13   -1    0    0    0    0  0.00000000000E+00  0.00000000000E+00  0.74505805969E-08  0.10566000000E+00  0.10566000000E+00 0. -1.
     999900   -1    0    0    0    0 -0.00000000000E+00 -0.00000000000E+00 -0.74505805969E-08  0.93827000000E+00  0.93827000000E+00 0.  1.
     999902    2    1    2    0    0  0.21068312641E-01 -0.10359309554E-01 -0.67518151156E-02  0.10195009988E+01  0.10192082763E+01 0.  0.
     999903    2    3    3    0    0 -0.73471355920E-01 -0.42517547991E-02  0.10234082873E+00  0.12771837053E+00  0.20547977644E-01 0.  0.
         14    1    1    2    0    0 -0.21068312641E-01  0.10359309554E-01  0.67518151156E-02  0.24429001194E-01  0.00000000000E+00 0. -1.
     999901    1    3    3    0    0  0.94539668561E-01 -0.61075547551E-02 -0.10909264385E+00  0.89178262828E+00  0.88000000000E+00 0.  1.
        -11    1    4    4    0    0 -0.69701035897E-01 -0.22769889099E-02  0.10180034565E+00  0.12339769276E+00  0.51100000000E-03 0.  1.
         11    1    4    4    0    0 -0.37703200228E-02 -0.19747658892E-02  0.54048308165E-03  0.43206777655E-02  0.51100000000E-03 0. -1.
</event>
<event>
 8    1  0.1117354E+005  0.1043930E+01  0.7957747E-01            NaN
         13   -1    0    0    0    0  0.00000000000E+00  0.00000000000E+00  0.74505805969E-08  0.10566000000E+00  0.10566000000E+00 0. -1.
     999900   -1    0    0    0    0 -0.00000000000E+00 -0.00000000000E+00 -0.74505805969E-08  0.93827000000E+00  0.93827000000E+00 0.  1.
     999902    2    1    2    0    0 -0.85359876706E-02 -0.22280640361E-01  0.54116429751E-02  0.10194641892E+01  0.10191705731E+01 0.  0.
     999903    2    3    3    0    0  0.14377917864E-01 -0.81842618190E-01  0.10061334347E+00  0.13203191566E+00  0.20110773090E-01 0.  0.
         14    1    1    2    0    0  0.85359876706E-02  0.22280640361E-01 -0.54116429751E-02  0.24465810841E-01  0.00000000000E+00 0. -1.
     999901    1    3    3    0    0 -0.22913905535E-01  0.59561977828E-01 -0.95201700495E-01  0.88743227350E+00  0.88000000000E+00 0.  1.
        -11    1    4    4    0    0  0.70105950258E-02 -0.33723847461E-01  0.26960957836E-01  0.43744721952E-01  0.51100000000E-03 0. -1.
         11    1    4    4    0    0  0.73673228386E-02 -0.48118770728E-01  0.73652385634E-01  0.88287193708E-01  0.51100000000E-03 0.  1.
</event>
<event>
 8    1  0.1117354E+005  0.1043930E+01  0.7957747E-01            NaN
         13   -1    0    0    0    0  0.00000000000E+00  0.00000000000E+00  0.74505805969E-08  0.10566000000E+00  0.10566000000E+00 0.  1.
     999900   -1    0    0    0    0 -0.00000000000E+00 -0.00000000000E+00 -0.74505805969E-08  0.93827000000E+00  0.93827000000E+00 0. -1.
     999902    2    1    2    0    0 -0.11455578928E-01  0.19268799134E-01  0.79848681946E-02  0.10201334660E+01  0.10198558788E+01 0.  0.
     999903    2    3    3    0    0  0.10817890933E+00 -0.18429763160E-01  0.65533190624E-01  0.12937794301E+00  0.20042965656E-01 0.  0.
         14    1    1    2    0    0  0.11455578928E-01 -0.19268799134E-01 -0.79848681946E-02  0.23796533965E-01  0.00000000000E+00 0. -1.
     999901    1    3    3    0    0 -0.11963448825E+00  0.37698562294E-01 -0.57548322430E-01  0.89075552302E+00  0.88000000000E+00 0. -1.
        -11    1    4    4    0    0  0.89614644493E-01 -0.19703760276E-01  0.61112518070E-01  0.11024528862E+00  0.51100000000E-03 0. -1.
         11    1    4    4    0    0  0.18564264832E-01  0.12739971164E-02  0.44206725546E-02  0.19132654396E-01  0.51100000000E-03 0.  1.
</event>
<event>
 8    1  0.1117354E+005  0.1043930E+01  0.7957747E-01            NaN
         13   -1    0    0    0    0  0.00000000000E+00  0.00000000000E+00  0.74505805969E-08  0.10566000000E+00  0.10566000000E+00 0.  1.
     999900   -1    0    0    0    0 -0.00000000000E+00 -0.00000000000E+00 -0.74505805969E-08  0.93827000000E+00  0.93827000000E+00 0. -1.
     999902    2    1    2    0    0 -0.22386646921E-01  0.12442894719E-02 -0.60568673206E-02  0.10207051026E+01  0.10204408413E+01 0.  0.
     999903    2    3    3    0    0 -0.36178440696E-01  0.12083528742E+00 -0.35366822408E-01  0.13202558005E+00  0.16428493623E-01 0.  0.
         14    1    1    2    0    0  0.22386646921E-01 -0.12442894719E-02  0.60568673206E-02  0.23224897381E-01  0.00000000000E+00 0.  1.
     999901    1    3    3    0    0  0.13791793775E-01 -0.11959099795E+00  0.29309955088E-01  0.88867952257E+00  0.88000000000E+00 0. -1.
        -11    1    4    4    0    0 -0.15395938782E-01  0.77121922080E-01 -0.18767354599E-01  0.80853574541E-01  0.51100000000E-03 0.  1.
         11    1    4    4    0    0 -0.20782501914E-01  0.43713365341E-01 -0.16599467809E-01  0.51172005509E-01  0.51100000000E-03 0. -1.
</event>
<event>
 8    1  0.1117354E+005  0.1043930E+01  0.7957747E-01            NaN
         13   -1    0    0    0    0  0.00000000000E+00  0.00000000000E+00  0.74505805969E-08  0.10566000000E+00  0.10566000000E+00 0. -1.
     999900   -1    0    0    0    0 -0.00000000000E+00 -0.00000000000E+00 -0.74505805969E-08  0.93827000000E+00  0.93827000000E+00 0. -1.
     999902    2    1    2    0    0  0.11433681185E-01 -0.19545582193E-01  0.44014187062E-02  0.10208620279E+01  0.10206013662E+01 0.  0.
     999903    2    3    3    0    0 -0.44495718214E-02 -0.78733086501E-01  0.10513092450E+00  0.13299837188E+00  0.20429342596E-01 0.  0.
         14    1    1    2    0    0 -0.11433681185E-01  0.19545582193E-01 -0.44014187062E-02  0.23067972068E-01  0.00000000000E+00 0. -1.
     999901    1    3    3    0    0  0.15883253006E-01  0.59187504308E-01 -0.10072950579E+00  0.88786365605E+00  0.88000000000E+00 0. -1.
        -11    1    4    4    0    0 -0.48627852559E-02 -0.48216854025E-01  0.47924077446E-01  0.68157831630E-01  0.51100000000E-03 0. -1.
         11    1    4    4    0    0  0.41321343450E-03 -0.30516232476E-01  0.57206847052E-01  0.64840540255E-01  0.51100000000E-03 0.  1.
</event>
<event>
 8    1  0.1117354E+005  0.1043930E+01  0.7957747E-01            NaN
         13   -1    0    0    0    0  0.00000000000E+00  0.00000000000E+00  0.74505805969E-08  0.10566000000E+00  0.10566000000E+00 0. -1.
     999900   -1    0    0    0    0 -0.00000000000E+00 -0.00000000000E+00 -0.74505805969E-08  0.93827000000E+00  0.93827000000E+00 0.  1.
     999902    2    1    2    0    0  0.82738486412E-02 -0.27071367358E-02 -0.21855507492E-01  0.10204045166E+01  0.10201332899E+01 0.  0.
     999903    2    3    3    0    0  0.12690731576E+00  0.28020786788E-01  0.37945745980E-02  0.13154230485E+00  0.19958654298E-01 0.  0.
         14    1    1    2    0    0 -0.82738486412E-02  0.27071367358E-02  0.21855507492E-01  0.23525483382E-01  0.00000000000E+00 0. -1.
     999901    1    3    3    0    0 -0.11863346712E+00 -0.30727923524E-01 -0.25650082090E-01  0.88886221177E+00  0.88000000000E+00 0. -1.
        -11    1    4    4    0    0  0.29225373732E-01  0.69738858526E-02 -0.75253679730E-02  0.30978215536E-01  0.51100000000E-03 0.  1.
         11    1    4    4    0    0  0.97681942030E-01  0.21046900935E-01  0.11319942571E-01  0.10056408931E+00  0.51100000000E-03 0. -1.
</event>
<event>
 8    1  0.1117354E+005  0.1043930E+01  0.7957747E-01            NaN
         13   -1    0    0    0    0  0.00000000000E+00  0.00000000000E+00  0.74505805969E-08  0.10566000000E+00  0.10566000000E+00 0. -1.
     999900   -1    0    0    0    0 -0.00000000000E+00 -0.00000000000E+00 -0.74505805969E-08  0.93827000000E+00  0.93827000000E+00 0. -1.
     999902    2    1    2    0    0  0.16567867616E-01  0.21636053318E-02 -0.16279674224E-01  0.10206018364E+01  0.10203351926E+01 0.  0.
     999903    2    3    3    0    0 -0.92154955653E-01 -0.82699509690E-01 -0.31906079177E-01  0.12972216710E+00  0.21865452078E-01 0.  0.
         14    1    1    2    0    0 -0.16567867616E-01 -0.21636053318E-02  0.16279674224E-01  0.23328163627E-01  0.00000000000E+00 0.  1.
     999901    1    3    3    0    0  0.10872282327E+00  0.84863115022E-01  0.15626404952E-01  0.89087966927E+00  0.88000000000E+00 0.  1.
        -11    1    4    4    0    0 -0.50530300435E-01 -0.31445983315E-01 -0.11566947623E-01  0.60631811180E-01  0.51100000000E-03 0.  1.
         11    1    4    4    0    0 -0.41624655218E-01 -0.51253526375E-01 -0.20339131553E-01  0.69090355920E-01  0.51100000000E-03 0. -1.
</event>
<event>
 8    1  0.1117354E+005  0.1043930E+01  0.7957747E-01            NaN
         13   -1    0    0    0    0  0.00000000000E+00  0.00000000000E+00  0.74505805969E-08  0.10566000000E+00  0.10566000000E+00 0. -1.
     999900   -1    0    0    0    0 -0.00000000000E+00 -0.00000000000E+00 -0.74505805969E-08  0.93827000000E+00  0.93827000000E+00 0.  1.
     999902    2    1    2    0    0  0.29697843043E-03  0.14913275964E-01  0.17166754664E-01  0.10211881561E+01  0.10209348945E+01 0.  0.
     999903    2    3    3    0    0 -0.90580001615E-01 -0.67257670651E-01  0.64174003508E-01  0.13145765121E+00  0.20844192997E-01 0.  0.
         14    1    1    2    0    0 -0.29697843043E-03 -0.14913275964E-01 -0.17166754664E-01  0.22741843853E-01  0.00000000000E+00 0.  1.
     999901    1    3    3    0    0  0.90876980046E-01  0.82170946615E-01 -0.47007248844E-01  0.88973050494E+00  0.88000000000E+00 0.  1.
        -11    1    4    4    0    0 -0.58644585190E-01 -0.30876164298E-01  0.38773633590E-01  0.76786591776E-01  0.51100000000E-03 0.  1.
         11    1    4    4    0    0 -0.31935416426E-01 -0.36381506353E-01  0.25400369918E-01  0.54671059435E-01  0.51100000000E-03 0. -1.
</event>
<event>
 8    1  0.1117354E+005  0.1043930E+01  0.7957747E-01            NaN
         13   -1    0    0    0    0  0.00000000000E+00  0.00000000000E+00  0.74505805969E-08  0.10566000000E+00  0.10566000000E+00 0.  1.
     999900   -1    0    0    0    0 -0.00000000000E+00 -0.00000000000E+00 -0.74505805969E-08  0.93827000000E+00  0.93827000000E+00 0. -1.
     999902    2    1    2    0    0 -0.14177937756E-01  0.65533536505E-03 -0.16719425933E-01  0.10219986848E+01  0.10217633430E+01 0.  0.
     999903    2    3    3    0    0  0.69758679835E-01  0.58870766926E-01 -0.94711064792E-01  0.13266349040E+00  0.17244572483E-01 0.  0.
         14    1    1    2    0    0  0.14177937756E-01 -0.65533536505E-03  0.16719425933E-01  0.21931315213E-01  0.00000000000E+00 0.  1.
     999901    1    3    3    0    0 -0.83936617591E-01 -0.58215431561E-01  0.77991638859E-01  0.88933519439E+00  0.88000000000E+00 0.  1.
        -11    1    4    4    0    0  0.43476421777E-01  0.40588244907E-01 -0.72083832347E-01  0.93455577051E-01  0.51100000000E-03 0.  1.
         11    1    4    4    0    0  0.26282258057E-01  0.18282522019E-01 -0.22627232445E-01  0.39207913348E-01  0.51100000000E-03 0. -1.
</event>
<event>
 8    1  0.1117354E+005  0.1043930E+01  0.7957747E-01            NaN
         13   -1    0    0    0    0  0.00000000000E+00  0.00000000000E+00  0.74505805969E-08  0.10566000000E+00  0.10566000000E+00 0.  1.
     999900   -1    0    0    0    0 -0.00000000000E+00 -0.00000000000E+00 -0.74505805969E-08  0.93827000000E+00  0.93827000000E+00 0. -1.
     999902    2    1    2    0    0  0.81083540430E-02 -0.42453184508E-02  0.22072104191E-01  0.10200355254E+01  0.10197556213E+01 0.  0.
     999903    2    3    3    0    0  0.88336759222E-01  0.33987632782E-01  0.90981834712E-01  0.13287888390E+00  0.20507591941E-01 0.  0.
         14    1    1    2    0    0 -0.81083540430E-02  0.42453184508E-02 -0.22072104191E-01  0.23894474622E-01  0.00000000000E+00 0. -1.
     999901    1    3    3    0    0 -0.80228405179E-01 -0.38232951233E-01 -0.68909730521E-01  0.88715664148E+00  0.88000000000E+00 0. -1.
        -11    1    4    4    0    0  0.70746503745E-01  0.18809171239E-01  0.63693669209E-01  0.97036062024E-01  0.51100000000E-03 0. -1.
         11    1    4    4    0    0  0.17590255477E-01  0.15178461543E-01  0.27288165503E-01  0.35842821876E-01  0.51100000000E-03 0.  1.
</event>
<event>
 8    1  0.1117354E+005  0.1043930E+01  0.7957747E-01            NaN
         13   -1    0    0    0    0  0.00000000000E+00  0.00000000000E+00  0.74505805969E-08  0.10566000000E+00  0.10566000000E+00 0. -1.
     999900   -1    0    0    0    0 -0.00000000000E+00 -0.00000000000E+00 -0.74505805969E-08  0.93827000000E+00  0.93827000000E+00 0. -1.
     999902    2    1    2    0    0 -0.39993092755E-02 -0.49323486842E-02 -0.23093669450E-01  0.10199792149E+01  0.10196979743E+01 0.  0.
     999903    2    3    3    0    0 -0.11194931385E+00 -0.52967408692E-01  0.34088138668E-01  0.13024311377E+00  0.21519113145E-01 0.  0.
         14    1    1    2    0    0  0.39993092755E-02  0.49323486842E-02  0.23093669450E-01  0.23950785100E-01  0.00000000000E+00 0. -1.
     999901    1    3    3    0    0  0.10795000458E+00  0.48035060008E-01 -0.57181808118E-01  0.88973610113E+00  0.88000000000E+00 0. -1.
        -11    1    4    4    0    0 -0.64454973936E-01 -0.40137003690E-01  0.14591589180E-01  0.77321396302E-01  0.51100000000E-03 0. -1.
         11    1    4    4    0    0 -0.47494339916E-01 -0.12830405002E-01  0.19496549488E-01  0.52921717466E-01  0.51100000000E-03 0.  1.
</event>
<event>
 8    1  0.1117354E+005  0.1043930E+01  0.7957747E-01            NaN
         13   -1    0    0    0    0  0.00000000000E+00  0.00000000000E+00  0.74505805969E-08  0.10566000000E+00  0.10566000000E+00 0.  1.
     999900   -1    0    0    0    0 -0.00000000000E+00 -0.00000000000E+00 -0.74505805969E-08  0.93827000000E+00  0.93827000000E+00 0.  1.
     999902    2    1    2    0    0  0.12460566343E-01 -0.42715383648E-02 -0.20031263799E-01  0.10199557788E+01  0.10196739809E+01 0.  0.
     999903    2    3    3    0    0  0.48734594803E-01  0.97684551945E-01  0.64547426176E-01  0.12930185930E+00  0.25204526841E-01 0.  0.
         14    1    1    2    0    0 -0.12460566343E-01  0.42715383648E-02  0.20031263799E-01  0.23974221217E-01  0.00000000000E+00 0.  1.
     999901    1    3    3    0    0 -0.36274028460E-01 -0.10195609031E+00 -0.84578689975E-01  0.89065391948E+00  0.88000000000E+00 0.  1.
        -11    1    4    4    0    0  0.27719272327E-01  0.69793031604E-01  0.32244758015E-01  0.81727662754E-01  0.51100000000E-03 0.  1.
         11    1    4    4    0    0  0.21015322476E-01  0.27891520341E-01  0.32302668161E-01  0.47574196546E-01  0.51100000000E-03 0. -1.
</event>
<event>
 8    1  0.1117354E+005  0.1043930E+01  0.7957747E-01            NaN
         13   -1    0    0    0    0  0.00000000000E+00  0.00000000000E+00  0.74505805969E-08  0.10566000000E+00  0.10566000000E+00 0. -1.
     999900   -1    0    0    0    0 -0.00000000000E+00 -0.00000000000E+00 -0.74505805969E-08  0.93827000000E+00  0.93827000000E+00 0. -1.
     999902    2    1    2    0    0  0.12323681599E-01  0.20607991666E-01 -0.21335416719E-02  0.10198236845E+01  0.10195387354E+01 0.  0.
     999903    2    3    3    0    0 -0.31803032835E-01  0.12327415705E+00  0.29549877417E-01  0.13219124506E+00  0.19833792370E-01 0.  0.
         14    1    1    2    0    0 -0.12323681599E-01 -0.20607991666E-01  0.21335416719E-02  0.24106315536E-01  0.00000000000E+00 0. -1.
     999901    1    3    3    0    0  0.44126714434E-01 -0.10266616539E+00 -0.31683419089E-01  0.88763243941E+00  0.88000000000E+00 0. -1.
        -11    1    4    4    0    0 -0.28626064153E-01  0.72213986720E-01  0.18191898425E-01  0.79784194652E-01  0.51100000000E-03 0. -1.
         11    1    4    4    0    0 -0.31769686817E-02  0.51060170333E-01  0.11357978992E-01  0.52407050406E-01  0.51100000000E-03 0.  1.
</event>
<event>
 8    1  0.1117354E+005  0.1043930E+01  0.7957747E-01            NaN
         13   -1    0    0    0    0  0.00000000000E+00  0.00000000000E+00  0.74505805969E-08  0.10566000000E+00  0.10566000000E+00 0. -1.
     999900   -1    0    0    0    0 -0.00000000000E+00 -0.00000000000E+00 -0.74505805969E-08  0.93827000000E+00  0.93827000000E+00 0. -1.
     999902    2    1    2    0    0  0.19134671867E-01 -0.94826509477E-03  0.13576388299E-01  0.10204490887E+01  0.10201789007E+01 0.  0.
     999903    2    3    3    0    0  0.10579521931E+00 -0.51770602460E-01  0.59133388957E-01  0.13356217331E+00  0.21662703925E-01 0.  0.
         14    1    1    2    0    0 -0.19134671867E-01  0.94826509477E-03 -0.13576388299E-01  0.23480911255E-01  0.00000000000E+00 0.  1.
     999901    1    3    3    0    0 -0.86660547446E-01  0.50822337366E-01 -0.45557000659E-01  0.88688691543E+00  0.88000000000E+00 0. -1.
        -11    1    4    4    0    0  0.23423712397E-01 -0.11634157517E-01  0.35712563615E-02  0.26401494590E-01  0.51100000000E-03 0.  1.
         11    1    4    4    0    0  0.82371506916E-01 -0.40136444944E-01  0.55562132596E-01  0.10716067872E+00  0.51100000000E-03 0. -1.
</event>
<event>
 8    1  0.1117354E+005  0.1043930E+01  0.7957747E-01            NaN
         13   -1    0    0    0    0  0.00000000000E+00  0.00000000000E+00  0.74505805969E-08  0.10566000000E+00  0.10566000000E+00 0.  1.
     999900   -1    0    0    0    0 -0.00000000000E+00 -0.00000000000E+00 -0.74505805969E-08  0.93827000000E+00  0.93827000000E+00 0. -1.
     999902    2    1    2    0    0 -0.12055224009E-01 -0.85372842423E-02  0.18603643592E-01  0.10201748068E+01  0.10198981946E+01 0.  0.
     999903    2    3    3    0    0 -0.10008017306E+00 -0.73963100199E-01 -0.38212546647E-01  0.13154833382E+00  0.18925754367E-01 0.  0.
         14    1    1    2    0    0  0.12055224009E-01  0.85372842423E-02 -0.18603643592E-01  0.23755193180E-01  0.00000000000E+00 0. -1.
     999901    1    3    3    0    0  0.88024949048E-01  0.65425815957E-01  0.56816190239E-01  0.88862647300E+00  0.88000000000E+00 0.  1.
        -11    1    4    4    0    0 -0.87435063572E-02 -0.10033858668E-02 -0.10241206059E-02  0.88750003172E-02  0.51100000000E-03 0. -1.
         11    1    4    4    0    0 -0.91336666700E-01 -0.72959714333E-01 -0.37188426041E-01  0.12267333350E+00  0.51100000000E-03 0.  1.
</event>
<event>
 8    1  0.1117354E+005  0.1043930E+01  0.7957747E-01            NaN
         13   -1    0    0    0    0  0.00000000000E+00  0.00000000000E+00  0.74505805969E-08  0.10566000000E+00  0.10566000000E+00 0. -1.
     999900   -1    0    0    0    0 -0.00000000000E+00 -0.00000000000E+00 -0.74505805969E-08  0.93827000000E+00  0.93827000000E+00 0.  1.
     999902    2    1    2    0    0 -0.26091363863E-02 -0.18545464904E-01  0.15204741262E-01  0.10198068572E+01  0.10195215054E+01 0.  0.
     999903    2    3    3    0    0  0.36208168164E-02  0.11453864559E+00 -0.51628912759E-01  0.12727286341E+00  0.20015630872E-01 0.  0.
         14    1    1    2    0    0  0.26091363863E-02  0.18545464904E-01 -0.15204741262E-01  0.24123142789E-01  0.00000000000E+00 0.  1.
     999901    1    3    3    0    0 -0.62299532027E-02 -0.13308411049E+00  0.66833654022E-01  0.89253399380E+00  0.88000000000E+00 0. -1.
        -11    1    4    4    0    0 -0.40643048536E-02  0.96912660672E-01 -0.44980906358E-01  0.10692111779E+00  0.51100000000E-03 0. -1.
         11    1    4    4    0    0  0.76851216700E-02  0.17625984919E-01 -0.66480064017E-02  0.20351745615E-01  0.51100000000E-03 0.  1.
</event>
<event>
 8    1  0.1117354E+005  0.1043930E+01  0.7957747E-01            NaN
         13   -1    0    0    0    0  0.00000000000E+00  0.00000000000E+00  0.74505805969E-08  0.10566000000E+00  0.10566000000E+00 0.  1.
     999900   -1    0    0    0    0 -0.00000000000E+00 -0.00000000000E+00 -0.74505805969E-08  0.93827000000E+00  0.93827000000E+00 0.  1.
     999902    2    1    2    0    0  0.44826693485E-02  0.21617867492E-01  0.46983847519E-02  0.10213578637E+01  0.10211084097E+01 0.  0.
     999903    2    3    3    0    0 -0.68578017315E-01 -0.58053877664E-01  0.92896095284E-01  0.13036724247E+00  0.17109535944E-01 0.  0.
         14    1    1    2    0    0 -0.44826693485E-02 -0.21617867492E-01 -0.46983847519E-02  0.22572136334E-01  0.00000000000E+00 0. -1.
     999901    1    3    3    0    0  0.73060686663E-01  0.79671745157E-01 -0.88197710532E-01  0.89099062119E+00  0.88000000000E+00 0. -1.
        -11    1    4    4    0    0 -0.16854797571E-01 -0.85605557821E-02  0.27695956286E-01  0.33536464215E-01  0.51100000000E-03 0. -1.
         11    1    4    4    0    0 -0.51723219743E-01 -0.49493321882E-01  0.65200138998E-01  0.96830778257E-01  0.51100000000E-03 0.  1.
</event>
<event>
 8    1  0.1117354E+005  0.1043930E+01  0.7957747E-01            NaN
         13   -1    0    0    0    0  0.00000000000E+00  0.00000000000E+00  0.74505805969E-08  0.10566000000E+00  0.10566000000E+00 0. -1.
     999900   -1    0    0    0    0 -0.00000000000E+00 -0.00000000000E+00 -0.74505805969E-08  0.93827000000E+00  0.93827000000E+00 0. -1.
     999902    2    1    2    0    0  0.22309204716E-01 -0.61723253213E-02 -0.86290204990E-03  0.10207666061E+01  0.10205037586E+01 0.  0.
     999903    2    3    3    0    0 -0.35736040690E-02 -0.14745558236E-01  0.12860915046E+00  0.13087535858E+00  0.18916758912E-01 0.  0.
         14    1    1    2    0    0 -0.22309204716E-01  0.61723253213E-02  0.86290204990E-03  0.23163393855E-01  0.00000000000E+00 0.  1.
     999901    1    3    3    0    0  0.25882808785E-01  0.85732329146E-02 -0.12947205251E+00  0.88989124757E+00  0.88000000000E+00 0. -1.
        -11    1    4    4    0    0 -0.81924427346E-02 -0.25220528354E-02  0.24774598180E-01  0.26220577881E-01  0.51100000000E-03 0. -1.
         11    1    4    4    0    0  0.46188386656E-02 -0.12223505401E-01  0.10383455228E+00  0.10465478070E+00  0.51100000000E-03 0.  1.
</event>
<event>
 8    1  0.1117354E+005  0.1043930E+01  0.7957747E-01            NaN
         13   -1    0    0    0    0  0.00000000000E+00  0.00000000000E+00  0.74505805969E-08  0.10566000000E+00  0.10566000000E+00 0.  1.
     999900   -1    0    0    0    0 -0.00000000000E+00 -0.00000000000E+00 -0.74505805969E-08  0.93827000000E+00  0.93827000000E+00 0.  1.
     999902    2    1    2    0    0 -0.25736082492E-02 -0.12679627080E-02 -0.22214145243E-01  0.10215313519E+01  0.10212857599E+01 0.  0.
     999903    2    3    3    0    0  0.97073492570E-01  0.81986228796E-01  0.23335363601E-01  0.13083748592E+00  0.20709994076E-01 0.  0.
         14    1    1    2    0    0  0.25736082492E-02  0.12679627080E-02  0.22214145243E-01  0.22398648123E-01  0.00000000000E+00 0.  1.
     999901    1    3    3    0    0 -0.99647100819E-01 -0.83254191504E-01 -0.45549508844E-01  0.89069386596E+00  0.88000000000E+00 0.  1.
        -11    1    4    4    0    0  0.46275598572E-01  0.52419971565E-01  0.11127360382E-01  0.70805110777E-01  0.51100000000E-03 0. -1.
         11    1    4    4    0    0  0.50797893998E-01  0.29566257230E-01  0.12208003219E-01  0.60032375139E-01  0.51100000000E-03 0.  1.
</event>
<event>
 8    1  0.1117354E+005  0.1043930E+01  0.7957747E-01            NaN
         13   -1    0    0    0    0  0.00000000000E+00  0.00000000000E+00  0.74505805969E-08  0.10566000000E+00  0.10566000000E+00 0.  1.
     999900   -1    0    0    0    0 -0.00000000000E+00 -0.00000000000E+00 -0.74505805969E-08  0.93827000000E+00  0.93827000000E+00 0. -1.
     999902    2    1    2    0    0 -0.21024863212E-01  0.97812377704E-02 -0.51694976131E-02  0.10201720289E+01  0.10198953512E+01 0.  0.
     999903    2    3    3    0    0  0.12139065320E+00 -0.20595994890E-02  0.34482501784E-01  0.12776255685E+00  0.19856872096E-01 0.  0.
         14    1    1    2    0    0  0.21024863212E-01 -0.97812377704E-02  0.51694976131E-02  0.23757971104E-01  0.00000000000E+00 0.  1.
     999901    1    3    3    0    0 -0.14241551641E+00  0.11840837259E-01 -0.39651999397E-01  0.89240947205E+00  0.88000000000E+00 0. -1.
        -11    1    4    4    0    0  0.51154013977E-01  0.91183805223E-03  0.45908698490E-02  0.51370242374E-01  0.51100000000E-03 0. -1.
         11    1    4    4    0    0  0.70236639222E-01 -0.29714375412E-02  0.29891631935E-01  0.76392314476E-01  0.51100000000E-03 0.  1.
</event>
<event>
 8    1  0.1117354E+005  0.1043930E+01  0.7957747E-01            NaN
         13   -1    0    0    0    0  0.00000000000E+00  0.00000000000E+00  0.74505805969E-08  0.10566000000E+00  0.10566000000E+00 0.  1.
     999900   -1    0    0    0    0 -0.00000000000E+00 -0.00000000000E+00 -0.74505805969E-08  0.93827000000E+00  0.93827000000E+00 0.  1.
     999902    2    1    2    0    0  0.18510056825E-01 -0.19524331693E-02  0.12820500821E-01  0.10213291274E+01  0.10210790308E+01 0.  0.
     999903    2    3    3    0    0 -0.20231332297E-01 -0.12812046556E+00 -0.38806619364E-02  0.13133014067E+00  0.20208557812E-01 0.  0.
         14    1    1    2    0    0 -0.18510056825E-01  0.19524331693E-02 -0.12820500821E-01  0.22600872555E-01  0.00000000000E+00 0. -1.
     999901    1    3    3    0    0  0.38741389122E-01  0.12616803239E+00  0.16701162757E-01  0.88999898678E+00  0.88000000000E+00 0.  1.
        -11    1    4    4    0    0 -0.16397715057E-01 -0.44289743364E-01  0.13226572180E-02  0.47249094906E-01  0.51100000000E-03 0. -1.
         11    1    4    4    0    0 -0.38336172393E-02 -0.83830722196E-01 -0.52033191544E-02  0.84081045761E-01  0.51100000000E-03 0.  1.
</event>
<event>
 8    1  0.1117354E+005  0.1043930E+01  0.7957747E-01            NaN
         13   -1    0    0    0    0  0.00000000000E+00  0.00000000000E+00  0.74505805969E-08  0.10566000000E+00  0.10566000000E+00 0. -1.
     999900   -1    0    0    0    0 -0.00000000000E+00 -0.00000000000E+00 -0.74505805969E-08  0.93827000000E+00  0.93827000000E+00 0.  1.
     999902    2    1    2    0    0  0.21369811882E-01  0.31826097673E-02 -0.10234016782E-01  0.10200232444E+01  0.10197430491E+01 0.  0.
     999903    2    3    3    0    0 -0.76708148878E-01 -0.60907447814E-01 -0.81791924255E-01  0.12937889561E+00  0.21333599166E-01 0.  0.
         14    1    1    2    0    0 -0.21369811882E-01 -0.31826097673E-02  0.10234016782E-01  0.23906755620E-01  0.00000000000E+00 0. -1.
     999901    1    3    3    0    0  0.98077960760E-01  0.64090057581E-01  0.71557907473E-01  0.89064434877E+00  0.88000000000E+00 0. -1.
        -11    1    4    4    0    0 -0.69809055475E-01 -0.59211135044E-01 -0.68617856066E-01  0.11440250885E+00  0.51100000000E-03 0.  1.
         11    1    4    4    0    0 -0.68990934027E-02 -0.16963127705E-02 -0.13174068189E-01  0.14976386762E-01  0.51100000000E-03 0. -1.
</event>
<event>
 8    1  0.1117354E+005  0.1043930E+01  0.7957747E-01            NaN
         13   -1    0    0    0    0  0.00000000000E+00  0.00000000000E+00  0.74505805969E-08  0.10566000000E+00  0.10566000000E+00 0.  1.
     999900   -1    0    0    0    0 -0.00000000000E+00 -0.00000000000E+00 -0.74505805969E-08  0.93827000000E+00  0.93827000000E+00 0. -1.
     999902    2    1    2    0    0  0.15688641596E-01 -0.15595238389E-01 -0.76623030020E-02  0.10205194079E+01  0.10202508545E+01 0.  0.
     999903    2    3    3    0    0 -0.12327392663E+00 -0.33099085166E-01  0.91067222102E-02  0.12928533077E+00  0.18432415382E-01 0.  0.
         14    1    1    2    0    0 -0.15688641596E-01  0.15595238389E-01  0.76623030020E-02  0.23410592108E-01  0.00000000000E+00 0.  1.
     999901    1    3    3    0    0  0.13896256823E+00  0.17503846777E-01 -0.16769025212E-01  0.89123407712E+00  0.88000000000E+00 0. -1.
        -11    1    4    4    0    0 -0.93658233211E-01 -0.33074812346E-01  0.78708854488E-02  0.99639449109E-01  0.51100000000E-03 0.  1.
         11    1    4    4    0    0 -0.29615693419E-01 -0.24272819627E-04  0.12358367614E-02  0.29645881660E-01  0.51100000000E-03 0. -1.
</event>
<event>
 8    1  0.1117354E+005  0.1043930E+01  0.7957747E-01            NaN
         13   -1    0    0    0    0  0.00000000000E+00  0.00000000000E+00  0.74505805969E-08  0.10566000000E+00  0.10566000000E+00 0. -1.
     999900   -1    0    0    0    0 -0.00000000000E+00 -0.00000000000E+00 -0.74505805969E-08  0.93827000000E+00  0.93827000000E+00 0.  1.
     999902    2    1    2    0    0 -0.14061994955E-01  0.61892705304E-03 -0.18925616936E-01  0.10203439501E+01  0.10200713087E+01 0.  0.
     999903    2    3    3    0    0 -0.17418719538E-01 -0.12130261230E+00  0.39882141282E-01  0.12998757103E+00  0.16983753616E-01 0.  0.
         14    1    1    2    0    0  0.14061994955E-01 -0.61892705304E-03  0.18925616936E-01  0.23586049886E-01  0.00000000000E+00 0.  1.
     999901    1    3    3    0    0  0.33567245826E-02  0.12192153935E+00 -0.58807758217E-01  0.89035637909E+00  0.88000000000E+00 0.  1.
        -11    1    4    4    0    0 -0.12073486023E-01 -0.45928942113E-01  0.89040859780E-02  0.48319568049E-01  0.51100000000E-03 0. -1.
         11    1    4    4    0    0 -0.53452335143E-02 -0.75373670186E-01  0.30978055304E-01  0.81668002976E-01  0.51100000000E-03 0.  1.
</event>
<event>
 8    1  0.1117354E+005  0.1043930E+01  0.7957747E-01            NaN
         13   -1    0    0    0    0  0.00000000000E+00  0.00000000000E+00  0.74505805969E-08  0.10566000000E+00  0.10566000000E+00 0. -1.
     999900   -1    0    0    0    0 -0.00000000000E+00 -0.00000000000E+00 -0.74505805969E-08  0.93827000000E+00  0.93827000000E+00 0.  1.
     999902    2    1    2    0    0  0.11077788210E-02  0.26846170355E-01  0.63987031855E-03  0.10170533657E+01  0.10166981830E+01 0.  0.
     999903    2    3    3    0    0 -0.19196229639E-01  0.84357056588E-01  0.94967671722E-01  0.12991330410E+00  0.19339071381E-01 0.  0.
         14    1    1    2    0    0 -0.11077788210E-02 -0.26846170355E-01 -0.63987031855E-03  0.26876634288E-01  0.00000000000E+00 0. -1.
     999901    1    3    3    0    0  0.20304008460E-01 -0.57510886234E-01 -0.94327801403E-01  0.88714006161E+00  0.88000000000E+00 0.  1.
        -11    1    4    4    0    0 -0.30636104023E-02  0.38849278241E-01  0.31179101215E-01  0.49910415767E-01  0.51100000000E-03 0.  1.
         11    1    4    4    0    0 -0.16132619237E-01  0.45507778348E-01  0.63788570507E-01  0.80002888335E-01  0.51100000000E-03 0. -1.
</event>
<event>
 8    1  0.1117354E+005  0.1043930E+01  0.7957747E-01            NaN
         13   -1    0    0    0    0  0.00000000000E+00  0.00000000000E+00  0.74505805969E-08  0.10566000000E+00  0.10566000000E+00 0.  1.
     999900   -1    0    0    0    0 -0.00000000000E+00 -0.00000000000E+00 -0.74505805969E-08  0.93827000000E+00  0.93827000000E+00 0.  1.
     999902    2    1    2    0    0  0.56629795134E-02 -0.16624007494E-01  0.17024884227E-01  0.10194703670E+01  0.10191769010E+01 0.  0.
     999903    2    3    3    0    0 -0.62594508720E-01  0.27648067843E-01 -0.10547742377E+00  0.12726752192E+00  0.19724275198E-01 0.  0.
         14    1    1    2    0    0 -0.56629795134E-02  0.16624007494E-01 -0.17024884227E-01  0.24459632971E-01  0.00000000000E+00 0.  1.
     999901    1    3    3    0    0  0.68257488234E-01 -0.44272075337E-01  0.12250230800E+00  0.89220284511E+00  0.88000000000E+00 0. -1.
        -11    1    4    4    0    0 -0.57067404916E-01  0.23360015076E-01 -0.80981881219E-01  0.10178754941E+00  0.51100000000E-03 0.  1.
         11    1    4    4    0    0 -0.55271038047E-02  0.42880527675E-02 -0.24495542556E-01  0.25479972510E-01  0.51100000000E-03 0. -1.
</event>
<event>
 8    1  0.1117354E+005  0.1043930E+01  0.7957747E-01            NaN
         13   -1    0    0    0    0  0.00000000000E+00  0.00000000000E+00  0.74505805969E-08  0.10566000000E+00  0.10566000000E+00 0.  1.
     999900   -1    0    0    0    0 -0.00000000000E+00 -0.00000000000E+00 -0.74505805969E-08  0.93827000000E+00  0.93827000000E+00 0.  1.
     999902    2    1    2    0    0 -0.18818916789E-01 -0.89665750403E-02  0.11122513104E-01  0.10203024442E+01  0.10200288310E+01 0.  0.
     999903    2    3    3    0    0  0.50197716931E-01  0.10020252106E+00 -0.58887781486E-01  0.12812385855E+00  0.19687465796E-01 0.  0.
         14    1    1    2    0    0  0.18818916789E-01  0.89665750403E-02 -0.11122513104E-01  0.23627555837E-01  0.00000000000E+00 0. -1.
     999901    1    3    3    0    0 -0.69016633720E-01 -0.10916909610E+00  0.70010294590E-01  0.89217858561E+00  0.88000000000E+00 0. -1.
        -11    1    4    4    0    0  0.33972832789E-01  0.55472562051E-01 -0.42909301664E-01  0.77928350415E-01  0.51100000000E-03 0. -1.
         11    1    4    4    0    0  0.16224884143E-01  0.44729959013E-01 -0.15978479822E-01  0.50195508137E-01  0.51100000000E-03 0.  1.
</event>
<event>
 8    1  0.1117354E+005  0.1043930E+01  0.7957747E-01            NaN
         13   -1    0    0    0    0  0.00000000000E+00  0.00000000000E+00  0.74505805969E-08  0.10566000000E+00  0.10566000000E+00 0. -1.
     999900   -1    0    0    0    0 -0.00000000000E+00 -0.00000000000E+00 -0.74505805969E-08  0.93827000000E+00  0.93827000000E+00 0. -1.
     999902    2    1    2    0    0 -0.30484528857E-01  0.12274826615E-01  0.86481090763E-03  0.10110556062E+01  0.10105210107E+01 0.  0.
     999903    2    3    3    0    0  0.13596043622E-01 -0.49012827340E-01  0.10821211950E+00  0.12132378255E+00  0.20554507033E-01 0.  0.
         14    1    1    2    0    0  0.30484528857E-01 -0.12274826615E-01 -0.86481090763E-03  0.32874393774E-01  0.00000000000E+00 0.  1.
     999901    1    3    3    0    0 -0.44080572480E-01  0.61287653955E-01 -0.10734730859E+00  0.88973182367E+00  0.88000000000E+00 0. -1.
        -11    1    4    4    0    0  0.15172065586E-01 -0.29943768529E-01  0.83994193696E-01  0.90454997338E-01  0.51100000000E-03 0.  1.
         11    1    4    4    0    0 -0.15760219637E-02 -0.19069058811E-01  0.24217925806E-01  0.30868785213E-01  0.51100000000E-03 0. -1.
</event>
<event>
 8    1  0.1117354E+005  0.1043930E+01  0.7957747E-01            NaN
         13   -1    0    0    0    0  0.00000000000E+00  0.00000000000E+00  0.74505805969E-08  0.10566000000E+00  0.10566000000E+00 0.  1.
     999900   -1    0    0    0    0 -0.00000000000E+00 -0.00000000000E+00 -0.74505805969E-08  0.93827000000E+00  0.93827000000E+00 0. -1.
     999902    2    1    2    0    0 -0.11931125414E-01 -0.65402572821E-02  0.19579008104E-01  0.10200875111E+01  0.10198088380E+01 0.  0.
     999903    2    3    3    0    0  0.66457772661E-01 -0.10657336375E+00 -0.26128544241E-01  0.12978384263E+00  0.19662847600E-01 0.  0.
         14    1    1    2    0    0  0.11931125414E-01  0.65402572821E-02 -0.19579008104E-01  0.23842488907E-01  0.00000000000E+00 0. -1.
     999901    1    3    3    0    0 -0.78388898075E-01  0.10003310647E+00  0.45707552345E-01  0.89030366846E+00  0.88000000000E+00 0.  1.
        -11    1    4    4    0    0  0.29612307778E-01 -0.47247982437E-01 -0.21595936530E-01  0.59798881360E-01  0.51100000000E-03 0. -1.
         11    1    4    4    0    0  0.36845464883E-01 -0.59325381316E-01 -0.45326077116E-02  0.69984961273E-01  0.51100000000E-03 0.  1.
</event>
<event>
 8    1  0.1117354E+005  0.1043930E+01  0.7957747E-01            NaN
         13   -1    0    0    0    0  0.00000000000E+00  0.00000000000E+00  0.74505805969E-08  0.10566000000E+00  0.10566000000E+00 0.  1.
     999900   -1    0    0    0    0 -0.00000000000E+00 -0.00000000000E+00 -0.74505805969E-08  0.93827000000E+00  0.93827000000E+00 0.  1.
     999902    2    1    2    0    0 -0.75174075647E-02 -0.18064254711E-01  0.13149482868E-01  0.10203559122E+01  0.10200835505E+01 0.  0.
     999903    2    3    3    0    0  0.11090560748E+00  0.82386019027E-02 -0.62139345680E-01  0.12884917727E+00  0.19310201231E-01 0.  0.
         14    1    1    2    0    0  0.75174075647E-02  0.18064254711E-01 -0.13149482868E-01  0.23574087776E-01  0.00000000000E+00 0. -1.
     999901    1    3    3    0    0 -0.11842301504E+00 -0.26302856614E-01  0.75288828548E-01  0.89150673495E+00  0.88000000000E+00 0. -1.
        -11    1    4    4    0    0  0.84669278109E-01  0.13541273217E-01 -0.42888074805E-01  0.95874401262E-01  0.51100000000E-03 0.  1.
         11    1    4    4    0    0  0.26236329368E-01 -0.53026713143E-02 -0.19251270875E-01  0.32974776012E-01  0.51100000000E-03 0. -1.
</event>
<event>
 8    1  0.1117354E+005  0.1043930E+01  0.7957747E-01            NaN
         13   -1    0    0    0    0  0.00000000000E+00  0.00000000000E+00  0.74505805969E-08  0.10566000000E+00  0.10566000000E+00 0.  1.
     999900   -1    0    0    0    0 -0.00000000000E+00 -0.00000000000E+00 -0.74505805969E-08  0.93827000000E+00  0.93827000000E+00 0. -1.
     999902    2    1    2    0    0  0.72545443933E-02  0.22032361487E-01 -0.22794865720E-02  0.10206222883E+01  0.10203561172E+01 0.  0.
     999903    2    3    3    0    0  0.10422140018E-01 -0.99112655557E-01 -0.79404174404E-01  0.12897529181E+00  0.19941501736E-01 0.  0.
         14    1    1    2    0    0 -0.72545443933E-02 -0.22032361487E-01  0.22794865720E-02  0.23307711730E-01  0.00000000000E+00 0.  1.
     999901    1    3    3    0    0 -0.31675956251E-02  0.12114501704E+00  0.77124687832E-01  0.89164699646E+00  0.88000000000E+00 0.  1.
        -11    1    4    4    0    0 -0.56395079871E-02 -0.38586086993E-01 -0.29519981595E-01  0.48911967801E-01  0.51100000000E-03 0.  1.
         11    1    4    4    0    0  0.16061648005E-01 -0.60526568564E-01 -0.49884192809E-01  0.80063324012E-01  0.51100000000E-03 0. -1.
</event>
<event>
 8    1  0.1117354E+005  0.1043930E+01  0.7957747E-01            NaN
         13   -1    0    0    0    0  0.00000000000E+00  0.00000000000E+00  0.74505805969E-08  0.10566000000E+00  0.10566000000E+00 0. -1.
     999900   -1    0    0    0    0 -0.00000000000E+00 -0.00000000000E+00 -0.74505805969E-08  0.93827000000E+00  0.93827000000E+00 0.  1.
     999902    2    1    2    0    0 -0.16009081953E-01 -0.16331734654E-01 -0.59913448813E-02  0.10202886702E+01  0.10200147342E+01 0.  0.
     999903    2    3    3    0    0  0.71938434099E-01 -0.73824731677E-01 -0.78608205227E-01  0.13106798965E+00  0.19347833850E-01 0.  0.
         14    1    1    2    0    0  0.16009081953E-01  0.16331734654E-01  0.59913448813E-02  0.23641329812E-01  0.00000000000E+00 0. -1.
     999901    1    3    3    0    0 -0.87947516052E-01  0.57492997022E-01  0.72616860346E-01  0.88922068054E+00  0.88000000000E+00 0. -1.
        -11    1    4    4    0    0  0.53387369600E-01 -0.41573765115E-01 -0.51140390935E-01  0.84818570400E-01  0.51100000000E-03 0.  1.
         11    1    4    4    0    0  0.18551064499E-01 -0.32250966562E-01 -0.27467814292E-01  0.46249419253E-01  0.51100000000E-03 0. -1.
</event>
<event>
 8    1  0.1117354E+005  0.1043930E+01  0.7957747E-01            NaN
         13   -1    0    0    0    0  0.00000000000E+00  0.00000000000E+00  0.74505805969E-08  0.10566000000E+00  0.10566000000E+00 0.  1.
     999900   -1    0    0    0    0 -0.00000000000E+00 -0.00000000000E+00 -0.74505805969E-08  0.93827000000E+00  0.93827000000E+00 0.  1.
     999902    2    1    2    0    0  0.10029646250E-01 -0.49696425789E-02  0.20291081317E-01  0.10207563267E+01  0.10204932432E+01 0.  0.
     999903    2    3    3    0    0  0.28455777999E-01  0.63135065798E-01  0.11191589328E+00  0.13319062224E+00  0.20464770931E-01 0.  0.
         14    1    1    2    0    0 -0.10029646250E-01  0.49696425789E-02 -0.20291081317E-01  0.23173673258E-01  0.00000000000E+00 0. -1.
     999901    1    3    3    0    0 -0.18426131749E-01 -0.68104708377E-01 -0.91624811966E-01  0.88756570450E+00  0.88000000000E+00 0.  1.
        -11    1    4    4    0    0  0.98926489918E-02  0.41471888932E-01  0.55684659723E-01  0.70134332001E-01  0.51100000000E-03 0.  1.
         11    1    4    4    0    0  0.18563129007E-01  0.21663176866E-01  0.56231233560E-01  0.63056290242E-01  0.51100000000E-03 0. -1.
</event>
<event>
 8    1  0.1117354E+005  0.1043930E+01  0.7957747E-01            NaN
         13   -1    0    0    0    0  0.00000000000E+00  0.00000000000E+00  0.74505805969E-08  0.10566000000E+00  0.10566000000E+00 0.  1.
     999900   -1    0    0    0    0 -0.00000000000E+00 -0.00000000000E+00 -0.74505805969E-08  0.93827000000E+00  0.93827000000E+00 0. -1.
     999902    2    1    2    0    0  0.10207478194E-01  0.82179487494E-02  0.19746466431E-01  0.10202308391E+01  0.10199555455E+01 0.  0.
     999903    2    3    3    0    0  0.48147845292E-01  0.96817326803E-01  0.75210561362E-01  0.13323276292E+00  0.20063170238E-01 0.  0.
         14    1    1    2    0    0 -0.10207478194E-01 -0.82179487494E-02 -0.19746466431E-01  0.23699160939E-01  0.00000000000E+00 0.  1.
     999901    1    3    3    0    0 -0.37940367098E-01 -0.88599378053E-01 -0.55464094931E-01  0.88699807614E+00  0.88000000000E+00 0. -1.
        -11    1    4    4    0    0  0.38947163327E-01  0.74934778681E-01  0.48083307990E-01  0.97182139385E-01  0.51100000000E-03 0. -1.
         11    1    4    4    0    0  0.92006819653E-02  0.21882548122E-01  0.27127253372E-01  0.36050623537E-01  0.51100000000E-03 0.  1.
</event>
<event>
 8    1  0.1117354E+005  0.1043930E+01  0.7957747E-01            NaN
         13   -1    0    0    0    0  0.00000000000E+00  0.00000000000E+00  0.74505805969E-08  0.10566000000E+00  0.10566000000E+00 0. -1.
     999900   -1    0    0    0    0 -0.00000000000E+00 -0.00000000000E+00 -0.74505805969E-08  0.93827000000E+00  0.93827000000E+00 0. -1.
     999902    2    1    2    0    0 -0.18339470102E-01  0.40364924996E-02 -0.13877939819E-01  0.10205799112E+01  0.10203127601E+01 0.  0.
     999903    2    3    3    0    0  0.96769959119E-01 -0.43997292910E-01  0.68481562945E-01  0.12797668859E+00  0.19700801724E-01 0.  0.
         14    1    1    2    0    0  0.18339470102E-01 -0.40364924996E-02  0.13877939819E-01  0.23350088842E-01  0.00000000000E+00 0. -1.
     999901    1    3    3    0    0 -0.11510942922E+00  0.48033785410E-01 -0.82359502764E-01  0.89260322256E+00  0.88000000000E+00 0.  1.
        -11    1    4    4    0    0  0.40034288993E-01 -0.11621868240E-01  0.17958012254E-01  0.45393429499E-01  0.51100000000E-03 0. -1.
         11    1    4    4    0    0  0.56735670127E-01 -0.32375424670E-01  0.50523550691E-01  0.82583259095E-01  0.51100000000E-03 0.  1.
</event>
<event>
 8    1  0.1117354E+005  0.1043930E+01  0.7957747E-01            NaN
         13   -1    0    0    0    0  0.00000000000E+00  0.00000000000E+00  0.74505805969E-08  0.10566000000E+00  0.10566000000E+00 0. -1.
     999900   -1    0    0    0    0 -0.00000000000E+00 -0.00000000000E+00 -0.74505805969E-08  0.93827000000E+00  0.93827000000E+00 0.  1.
     999902    2    1    2    0    0  0.45228255559E-02  0.28042151898E-02  0.23140742084E-01  0.10201852423E+01  0.10199088759E+01 0.  0.
     999903    2    3    3    0    0 -0.11748953871E+00 -0.25648098093E-01 -0.42139140357E-01  0.12891759776E+00  0.19555644154E-01 0.  0.
         14    1    1    2    0    0 -0.45228255559E-02 -0.28042151898E-02 -0.23140742084E-01  0.23744757696E-01  0.00000000000E+00 0.  1.
     999901    1    3    3    0    0  0.12201236427E+00  0.28452313283E-01  0.65279882441E-01  0.89126764455E+00  0.88000000000E+00 0. -1.
        -11    1    4    4    0    0 -0.85757609095E-01 -0.97602300098E-02 -0.28502712267E-01  0.90897169016E-01  0.51100000000E-03 0. -1.
         11    1    4    4    0    0 -0.31731929620E-01 -0.15887868083E-01 -0.13636428090E-01  0.38020428741E-01  0.51100000000E-03 0.  1.
</event>
<event>
 7    1  0.1117354E+005  0.1043930E+01  0.7957747E-01            NaN
         13   -1    0    0    0    0  0.00000000000E+00  0.00000000000E+00  0.74505805969E-08  0.10566000000E+00  0.10566000000E+00 0. -1.
     999900   -1    0    0    0    0 -0.00000000000E+00 -0.00000000000E+00 -0.74505805969E-08  0.93827000000E+00  0.93827000000E+00 0. -1.
     999903    2    1    2    0    0 -0.25966205904E-01 -0.49069568457E-01 -0.96899340769E-01  0.11339855858E+00  0.19689704121E-01 0.  0.
         14    1    1    2    0    0  0.18928290420E-01 -0.19543535285E-01 -0.27998286168E-01  0.39040158529E-01  0.00000000000E+00 0.  1.
     999901    1    1    2    0    0  0.70379154837E-02  0.68613103743E-01  0.12489762694E+00  0.89149128289E+00  0.88000000000E+00 0. -1.
        -11    1    3    3    0    0 -0.18700973455E-01 -0.30403962056E-01 -0.78327351935E-01  0.86078815622E-01  0.51100000000E-03 0. -1.
         11    1    3    3    0    0 -0.72652324488E-02 -0.18665606402E-01 -0.18571988834E-01  0.27319742955E-01  0.51100000000E-03 0.  1.
</event>
<event>
 8    1  0.1117354E+005  0.1043930E+01  0.7957747E-01            NaN
         13   -1    0    0    0    0  0.00000000000E+00  0.00000000000E+00  0.74505805969E-08  0.10566000000E+00  0.10566000000E+00 0. -1.
     999900   -1    0    0    0    0 -0.00000000000E+00 -0.00000000000E+00 -0.74505805969E-08  0.93827000000E+00  0.93827000000E+00 0. -1.
     999902    2    1    2    0    0 -0.89227103319E-02 -0.22451221491E-01  0.12563560509E-01  0.10166992241E+01  0.10163344907E+01 0.  0.
     999903    2    3    3    0    0  0.21074524801E-02 -0.54188409771E-01  0.11607493364E+00  0.12999548662E+00  0.22013886816E-01 0.  0.
         14    1    1    2    0    0  0.89227103319E-02  0.22451221491E-01 -0.12563560509E-01  0.27230775949E-01  0.00000000000E+00 0.  1.
     999901    1    3    3    0    0 -0.11030162812E-01  0.31737188280E-01 -0.10351137313E+00  0.88670373743E+00  0.88000000000E+00 0. -1.
        -11    1    4    4    0    0 -0.33604205334E-02 -0.57564082269E-02  0.33056342712E-01  0.33725533003E-01  0.51100000000E-03 0.  1.
         11    1    4    4    0    0  0.54678730135E-02 -0.48432001544E-01  0.83018590924E-01  0.96269953615E-01  0.51100000000E-03 0. -1.
</event>
<event>
 8    1  0.1117354E+005  0.1043930E+01  0.7957747E-01            NaN
         13   -1    0    0    0    0  0.00000000000E+00  0.00000000000E+00  0.74505805969E-08  0.10566000000E+00  0.10566000000E+00 0.  1.
     999900   -1    0    0    0    0 -0.00000000000E+00 -0.00000000000E+00 -0.74505805969E-08  0.93827000000E+00  0.93827000000E+00 0. -1.
     999902    2    1    2    0    0 -0.15336490367E-01 -0.83570470713E-02  0.23411762097E-01  0.10147211182E+01  0.10143006403E+01 0.  0.
     999903    2    3    3    0    0  0.85728020379E-01 -0.87949958705E-01  0.15062846645E-01  0.12532875746E+00  0.19897723091E-01 0.  0.
         14    1    1    2    0    0  0.15336490367E-01  0.83570470713E-02 -0.23411762097E-01  0.29208881817E-01  0.00000000000E+00 0. -1.
     999901    1    3    3    0    0 -0.10106451075E+00  0.79592911634E-01  0.83489154517E-02  0.88939236072E+00  0.88000000000E+00 0. -1.
        -11    1    4    4    0    0  0.85481608702E-01 -0.83744356497E-01  0.16602425708E-01  0.12081442104E+00  0.51100000000E-03 0.  1.
         11    1    4    4    0    0  0.24641167751E-03 -0.42056022085E-02 -0.15395790623E-02  0.45143364230E-02  0.51100000000E-03 0. -1.
</event>
<event>
 8    1  0.1117354E+005  0.1043930E+01  0.7957747E-01            NaN
         13   -1    0    0    0    0  0.00000000000E+00  0.00000000000E+00  0.74505805969E-08  0.10566000000E+00  0.10566000000E+00 0.  1.
     999900   -1    0    0    0    0 -0.00000000000E+00 -0.00000000000E+00 -0.74505805969E-08  0.93827000000E+00  0.93827000000E+00 0.  1.
     999902    2    1    2    0    0  0.21563272195E-01  0.59972837493E-02  0.72185848788E-02  0.10204129830E+01  0.10201419538E+01 0.  0.
     999903    2    3    3    0    0  0.10326768712E+00  0.75473636936E-01 -0.27564032208E-01  0.13321942718E+00  0.25043059546E-01 0.  0.
         14    1    1    2    0    0 -0.21563272195E-01 -0.59972837493E-02 -0.72185848788E-02  0.23517016983E-01  0.00000000000E+00 0.  1.
     999901    1    3    3    0    0 -0.81704414922E-01 -0.69476353187E-01  0.34782617087E-01  0.88719355584E+00  0.88000000000E+00 0. -1.
        -11    1    4    4    0    0  0.58333031516E-01  0.53293991865E-01 -0.25637018359E-01  0.83069308208E-01  0.51100000000E-03 0.  1.
         11    1    4    4    0    0  0.44934655601E-01  0.22179645071E-01 -0.19270138496E-02  0.50150118971E-01  0.51100000000E-03 0. -1.
</event>
<event>
 8    1  0.1117354E+005  0.1043930E+01  0.7957747E-01            NaN
         13   -1    0    0    0    0  0.00000000000E+00  0.00000000000E+00  0.74505805969E-08  0.10566000000E+00  0.10566000000E+00 0.  1.
     999900   -1    0    0    0    0 -0.00000000000E+00 -0.00000000000E+00 -0.74505805969E-08  0.93827000000E+00  0.93827000000E+00 0.  1.
     999902    2    1    2    0    0 -0.91364618309E-02 -0.21610997481E-01  0.34021380442E-02  0.10202216747E+01  0.10199461656E+01 0.  0.
     999903    2    3    3    0    0 -0.12046001726E+00 -0.32719380532E-01  0.38913625283E-01  0.13242811989E+00  0.21018160838E-01 0.  0.
         14    1    1    2    0    0  0.91364618309E-02  0.21610997481E-01 -0.34021380442E-02  0.23708325335E-01  0.00000000000E+00 0. -1.
     999901    1    3    3    0    0  0.11132355543E+00  0.11108383050E-01 -0.35511487239E-01  0.88779355477E+00  0.88000000000E+00 0.  1.
        -11    1    4    4    0    0 -0.79227880334E-01 -0.12195371331E-01  0.19888342859E-01  0.82592925888E-01  0.51100000000E-03 0.  1.
         11    1    4    4    0    0 -0.41232136927E-01 -0.20524009200E-01  0.19025282424E-01  0.49835194005E-01  0.51100000000E-03 0. -1.
</event>
<event>
 8    1  0.1117354E+005  0.1043930E+01  0.7957747E-01            NaN
         13   -1    0    0    0    0  0.00000000000E+00  0.00000000000E+00  0.74505805969E-08  0.10566000000E+00  0.10566000000E+00 0.  1.
     999900   -1    0    0    0    0 -0.00000000000E+00 -0.00000000000E+00 -0.74505805969E-08  0.93827000000E+00  0.93827000000E+00 0. -1.
     999902    2    1    2    0    0 -0.23297594398E-01 -0.37019096330E-02 -0.26532073845E-02  0.10201913912E+01  0.10199151695E+01 0.  0.
     999903    2    3    3    0    0  0.28869128384E-01  0.11885177585E+00 -0.37472928299E-01  0.12948763248E+00  0.20091177511E-01 0.  0.
         14    1    1    2    0    0  0.23297594398E-01  0.37019096330E-02  0.26532073845E-02  0.23738608828E-01  0.00000000000E+00 0.  1.
     999901    1    3    3    0    0 -0.52166722782E-01 -0.12255368548E+00  0.34819720914E-01  0.89070375870E+00  0.88000000000E+00 0. -1.
        -11    1    4    4    0    0  0.21805081594E-01  0.61465044394E-01 -0.12052989204E-01  0.66324572637E-01  0.51100000000E-03 0. -1.
         11    1    4    4    0    0  0.70640467896E-02  0.57386731451E-01 -0.25419939095E-01  0.63163059839E-01  0.51100000000E-03 0.  1.
</event>
<event>
 8    1  0.1117354E+005  0.1043930E+01  0.7957747E-01            NaN
         13   -1    0    0    0    0  0.00000000000E+00  0.00000000000E+00  0.74505805969E-08  0.10566000000E+00  0.10566000000E+00 0.  1.
     999900   -1    0    0    0    0 -0.00000000000E+00 -0.00000000000E+00 -0.74505805969E-08  0.93827000000E+00  0.93827000000E+00 0. -1.
     999902    2    1    2    0    0  0.39394222951E-02  0.23469763565E-01 -0.35816449487E-02  0.10198639029E+01  0.10195799151E+01 0.  0.
     999903    2    3    3    0    0 -0.12506529112E+00  0.41513230993E-02 -0.28491699232E-01  0.12989989854E+00  0.20090947913E-01 0.  0.
         14    1    1    2    0    0 -0.39394222951E-02 -0.23469763565E-01  0.35816449487E-02  0.24066097115E-01  0.00000000000E+00 0.  1.
     999901    1    3    3    0    0  0.12900471342E+00  0.19318440466E-01  0.24910054283E-01  0.88996400435E+00  0.88000000000E+00 0.  1.
        -11    1    4    4    0    0 -0.80265220673E-01  0.41455153439E-03 -0.85661841960E-02  0.80723714827E-01  0.51100000000E-03 0. -1.
         11    1    4    4    0    0 -0.44800070450E-01  0.37367715649E-02 -0.19925515036E-01  0.49176183712E-01  0.51100000000E-03 0.  1.
</event>
<event>
 8    1  0.1117354E+005  0.1043930E+01  0.7957747E-01            NaN
         13   -1    0    0    0    0  0.00000000000E+00  0.00000000000E+00  0.74505805969E-08  0.10566000000E+00  0.10566000000E+00 0. -1.
     999900   -1    0    0    0    0 -0.00000000000E+00 -0.00000000000E+00 -0.74505805969E-08  0.93827000000E+00  0.93827000000E+00 0. -1.
     999902    2    1    2    0    0  0.31258470820E-02  0.23884716243E-01 -0.31119221623E-03  0.10198395988E+01  0.10195550303E+01 0.  0.
     999903    2    3    3    0    0 -0.10375611837E+00  0.18716642654E-01 -0.73818372177E-01  0.13031513649E+00  0.20426402392E-01 0.  0.
         14    1    1    2    0    0 -0.31258470820E-02 -0.23884716243E-01  0.31119221623E-03  0.24090401212E-01  0.00000000000E+00 0.  1.
     999901    1    3    3    0    0  0.10688196546E+00  0.51680735889E-02  0.73507179960E-01  0.88952446230E+00  0.88000000000E+00 0.  1.
        -11    1    4    4    0    0 -0.44691752302E-01  0.17436182322E-02 -0.40842038984E-01  0.60570010713E-01  0.51100000000E-03 0. -1.
         11    1    4    4    0    0 -0.59064366073E-01  0.16973024421E-01 -0.32976333192E-01  0.69745125775E-01  0.51100000000E-03 0.  1.
</event>
<event>
 8    1  0.1117354E+005  0.1043930E+01  0.7957747E-01            NaN
         13   -1    0    0    0    0  0.00000000000E+00  0.00000000000E+00  0.74505805969E-08  0.10566000000E+00  0.10566000000E+00 0. -1.
     999900   -1    0    0    0    0 -0.00000000000E+00 -0.00000000000E+00 -0.74505805969E-08  0.93827000000E+00  0.93827000000E+00 0. -1.
     999902    2    1    2    0    0  0.13903273331E-01 -0.21516712610E-01  0.19137867308E-03  0.10183115192E+01  0.10179892159E+01 0.  0.
     999903    2    3    3    0    0 -0.98796765371E-01 -0.32322405854E-01  0.72339879090E-01  0.12812981428E+00  0.19458993605E-01 0.  0.
         14    1    1    2    0    0 -0.13903273331E-01  0.21516712610E-01 -0.19137867308E-03  0.25618480764E-01  0.00000000000E+00 0.  1.
     999901    1    3    3    0    0  0.11270003870E+00  0.10805693244E-01 -0.72148500417E-01  0.89018170496E+00  0.88000000000E+00 0. -1.
        -11    1    4    4    0    0 -0.28678244661E-01 -0.13434646328E-01  0.32148593506E-01  0.45130085577E-01  0.51100000000E-03 0. -1.
         11    1    4    4    0    0 -0.70118520710E-01 -0.18887759526E-01  0.40191285585E-01  0.82999728701E-01  0.51100000000E-03 0.  1.
</event>
<event>
 8    1  0.1117354E+005  0.1043930E+01  0.7957747E-01            NaN
         13   -1    0    0    0    0  0.00000000000E+00  0.00000000000E+00  0.74505805969E-08  0.10566000000E+00  0.10566000000E+00 0.  1.
     999900   -1    0    0    0    0 -0.00000000000E+00 -0.00000000000E+00 -0.74505805969E-08  0.93827000000E+00  0.93827000000E+00 0.  1.
     999902    2    1    2    0    0 -0.22515084968E-01 -0.67833183489E-02 -0.32089495743E-02  0.10201973260E+01  0.10199212441E+01 0.  0.
     999903    2    3    3    0    0 -0.88354181293E-01  0.91913919371E-01 -0.27955421105E-01  0.13189089282E+00  0.18949198216E-01 0.  0.
         14    1    1    2    0    0  0.22515084968E-01  0.67833183489E-02  0.32089495743E-02  0.23732674024E-01  0.00000000000E+00 0.  1.
     999901    1    3    3    0    0  0.65839096324E-01 -0.98697237719E-01  0.24746471530E-01  0.88830643316E+00  0.88000000000E+00 0. -1.
        -11    1    4    4    0    0 -0.30677985988E-01  0.19655039031E-01 -0.79514969725E-02  0.37295399297E-01  0.51100000000E-03 0. -1.
         11    1    4    4    0    0 -0.57676195305E-01  0.72258880339E-01 -0.20003924132E-01  0.94595493521E-01  0.51100000000E-03 0.  1.
</event>
<event>
 8    1  0.1117354E+005  0.1043930E+01  0.7957747E-01            NaN
         13   -1    0    0    0    0  0.00000000000E+00  0.00000000000E+00  0.74505805969E-08  0.10566000000E+00  0.10566000000E+00 0. -1.
     999900   -1    0    0    0    0 -0.00000000000E+00 -0.00000000000E+00 -0.74505805969E-08  0.93827000000E+00  0.93827000000E+00 0. -1.
     999902    2    1    2    0    0  0.21067584500E-01  0.96038948757E-02  0.42234179394E-02  0.10203945975E+01  0.10201231393E+01 0.  0.
     999903    2    3    3    0    0  0.49117947378E-01 -0.89090285382E-01  0.80469740082E-01  0.13115848387E+00  0.19429799764E-01 0.  0.
         14    1    1    2    0    0 -0.21067584500E-01 -0.96038948757E-02 -0.42234179394E-02  0.23535402536E-01  0.00000000000E+00 0.  1.
     999901    1    3    3    0    0 -0.28050362879E-01  0.98694180258E-01 -0.76246322143E-01  0.88923611359E+00  0.88000000000E+00 0.  1.
        -11    1    4    4    0    0  0.33687447018E-01 -0.60588583347E-01  0.42848278336E-01  0.81498813464E-01  0.51100000000E-03 0.  1.
         11    1    4    4    0    0  0.15430500360E-01 -0.28501702035E-01  0.37621461747E-01  0.49659670410E-01  0.51100000000E-03 0. -1.
</event>
<event>
 8    1  0.1117354E+005  0.1043930E+01  0.7957747E-01            NaN
         13   -1    0    0    0    0  0.00000000000E+00  0.00000000000E+00  0.74505805969E-08  0.10566000000E+00  0.10566000000E+00 0.  1.
     999900   -1    0    0    0    0 -0.00000000000E+00 -0.00000000000E+00 -0.74505805969E-08  0.93827000000E+00  0.93827000000E+00 0. -1.
     999902    2    1    2    0    0 -0.18628015330E-01  0.67237597460E-03 -0.15441026258E-01  0.10197250349E+01  0.10194377207E+01 0.  0.
     999903    2    3    3    0    0 -0.10580232544E+00  0.19429016901E-01  0.71552298932E-01  0.13095115444E+00  0.21374157302E-01 0.  0.
         14    1    1    2    0    0  0.18628015330E-01 -0.67237597460E-03  0.15441026258E-01  0.24204965121E-01  0.00000000000E+00 0.  1.
     999901    1    3    3    0    0  0.87174310111E-01 -0.18756640927E-01 -0.86993325190E-01  0.88877388044E+00  0.88000000000E+00 0. -1.
        -11    1    4    4    0    0 -0.85236445256E-01  0.23669870285E-01  0.60904120525E-01  0.10740152409E+00  0.51100000000E-03 0. -1.
         11    1    4    4    0    0 -0.20565880185E-01 -0.42408533835E-02  0.10648178407E-01  0.23549630350E-01  0.51100000000E-03 0.  1.
</event>
<event>
 8    1  0.1117354E+005  0.1043930E+01  0.7957747E-01            NaN
         13   -1    0    0    0    0  0.00000000000E+00  0.00000000000E+00  0.74505805969E-08  0.10566000000E+00  0.10566000000E+00 0. -1.
     999900   -1    0    0    0    0 -0.00000000000E+00 -0.00000000000E+00 -0.74505805969E-08  0.93827000000E+00  0.93827000000E+00 0.  1.
     999902    2    1    2    0    0 -0.18037126380E-01 -0.10116590795E-02 -0.15463877573E-01  0.10201499056E+01  0.10198727062E+01 0.  0.
     999903    2    3    3    0    0 -0.10038624707E+00 -0.37281808279E-01 -0.77228938435E-01  0.13340765206E+00  0.19130103660E-01 0.  0.
         14    1    1    2    0    0  0.18037126380E-01  0.10116590795E-02  0.15463877573E-01  0.23780094443E-01  0.00000000000E+00 0. -1.
     999901    1    3    3    0    0  0.82349120690E-01  0.36270149199E-01  0.61765060862E-01  0.88674225350E+00  0.88000000000E+00 0. -1.
        -11    1    4    4    0    0 -0.41449156474E-01 -0.69353031133E-02 -0.24067076344E-01  0.48431562916E-01  0.51100000000E-03 0. -1.
         11    1    4    4    0    0 -0.58937090595E-01 -0.30346505166E-01 -0.53161862091E-01  0.84976089140E-01  0.51100000000E-03 0.  1.
</event>
<event>
 8    1  0.1117354E+005  0.1043930E+01  0.7957747E-01            NaN
         13   -1    0    0    0    0  0.00000000000E+00  0.00000000000E+00  0.74505805969E-08  0.10566000000E+00  0.10566000000E+00 0.  1.
     999900   -1    0    0    0    0 -0.00000000000E+00 -0.00000000000E+00 -0.74505805969E-08  0.93827000000E+00  0.93827000000E+00 0. -1.
     999902    2    1    2    0    0 -0.12150393025E-02  0.15874513224E-01 -0.18755285753E-01  0.10193284302E+01  0.10190315066E+01 0.  0.
     999903    2    3    3    0    0 -0.30802566146E-01 -0.10768004281E+00 -0.60948950835E-01  0.12920402578E+00  0.20859433533E-01 0.  0.
         14    1    1    2    0    0  0.12150393025E-02 -0.15874513224E-01  0.18755285753E-01  0.24601569752E-01  0.00000000000E+00 0.  1.
     999901    1    3    3    0    0  0.29587526843E-01  0.12355455604E+00  0.42193665082E-01  0.89012440447E+00  0.88000000000E+00 0.  1.
        -11    1    4    4    0    0 -0.13189221285E-01 -0.56992117795E-01 -0.43053159735E-01  0.72635340799E-01  0.51100000000E-03 0.  1.
         11    1    4    4    0    0 -0.17613344860E-01 -0.50687925020E-01 -0.17895791099E-01  0.56568684977E-01  0.51100000000E-03 0. -1.
</event>
<event>
 8    1  0.1117354E+005  0.1043930E+01  0.7957747E-01            NaN
         13   -1    0    0    0    0  0.00000000000E+00  0.00000000000E+00  0.74505805969E-08  0.10566000000E+00  0.10566000000E+00 0. -1.
     999900   -1    0    0    0    0 -0.00000000000E+00 -0.00000000000E+00 -0.74505805969E-08  0.93827000000E+00  0.93827000000E+00 0.  1.
     999902    2    1    2    0    0  0.21210216254E-01 -0.34639482279E-02 -0.91920312221E-02  0.10205555343E+01  0.10202878186E+01 0.  0.
     999903    2    3    3    0    0 -0.11202199025E+00 -0.47598382560E-01 -0.37905269745E-01  0.12897092290E+00  0.19548840290E-01 0.  0.
         14    1    1    2    0    0 -0.21210216254E-01  0.34639482279E-02  0.91920312221E-02  0.23374465745E-01  0.00000000000E+00 0. -1.
     999901    1    3    3    0    0  0.13323220650E+00  0.44134434332E-01  0.28713238523E-01  0.89158461136E+00  0.88000000000E+00 0. -1.
        -11    1    4    4    0    0 -0.76126701019E-01 -0.39265371327E-01 -0.32989496855E-01  0.91791132563E-01  0.51100000000E-03 0.  1.
         11    1    4    4    0    0 -0.35895289231E-01 -0.83330112332E-02 -0.49157728896E-02  0.37179790334E-01  0.51100000000E-03 0. -1.
</event>
<event>
 8    1  0.1117354E+005  0.1043930E+01  0.7957747E-01            NaN
         13   -1    0    0    0    0  0.00000000000E+00  0.00000000000E+00  0.74505805969E-08  0.10566000000E+00  0.10566000000E+00 0.  1.
     999900   -1    0    0    0    0 -0.00000000000E+00 -0.00000000000E+00 -0.74505805969E-08  0.93827000000E+00  0.93827000000E+00 0. -1.
     999902    2    1    2    0    0 -0.11637782576E-01  0.20705918045E-01 -0.19487085830E-02  0.10200978685E+01  0.10198194403E+01 0.  0.
     999903    2    3    3    0    0 -0.52823205976E-01 -0.26788955959E-02 -0.11832792812E+00  0.13117311842E+00  0.20184668739E-01 0.  0.
         14    1    1    2    0    0  0.11637782576E-01 -0.20705918045E-01  0.19487085830E-02  0.23832131472E-01  0.00000000000E+00 0. -1.
     999901    1    3    3    0    0  0.41185423400E-01  0.23384813641E-01  0.11637921954E+00  0.88892475011E+00  0.88000000000E+00 0.  1.
        -11    1    4    4    0    0 -0.79254193253E-02  0.70996534370E-02 -0.21532344828E-01  0.24023329186E-01  0.51100000000E-03 0. -1.
         11    1    4    4    0    0 -0.44897786651E-01 -0.97785490329E-02 -0.96795583293E-01  0.10714978924E+00  0.51100000000E-03 0.  1.
</event>
<event>
 8    1  0.1117354E+005  0.1043930E+01  0.7957747E-01            NaN
         13   -1    0    0    0    0  0.00000000000E+00  0.00000000000E+00  0.74505805969E-08  0.10566000000E+00  0.10566000000E+00 0.  1.
     999900   -1    0    0    0    0 -0.00000000000E+00 -0.00000000000E+00 -0.74505805969E-08  0.93827000000E+00  0.93827000000E+00 0. -1.
     999902    2    1    2    0    0  0.13557260658E-01 -0.58819460481E-02 -0.19321626761E-01  0.10196046662E+01  0.10193144527E+01 0.  0.
     999903    2    3    3    0    0 -0.11099765259E+00  0.15500991689E-01 -0.61817103914E-01  0.12956139641E+00  0.20100783045E-01 0.  0.
         14    1    1    2    0    0 -0.13557260658E-01  0.58819460481E-02  0.19321626761E-01  0.24325333843E-01  0.00000000000E+00 0.  1.
     999901    1    3    3    0    0  0.12455491325E+00 -0.21382937737E-01  0.42495477153E-01  0.89004326975E+00  0.88000000000E+00 0. -1.
        -11    1    4    4    0    0 -0.31039222981E-01  0.99998214619E-02 -0.99680642689E-02  0.34103566072E-01  0.51100000000E-03 0.  1.
         11    1    4    4    0    0 -0.79958429612E-01  0.55011702274E-02 -0.51849039645E-01  0.95457830340E-01  0.51100000000E-03 0. -1.
</event>
<event>
 8    1  0.1117354E+005  0.1043930E+01  0.7957747E-01            NaN
         13   -1    0    0    0    0  0.00000000000E+00  0.00000000000E+00  0.74505805969E-08  0.10566000000E+00  0.10566000000E+00 0.  1.
     999900   -1    0    0    0    0 -0.00000000000E+00 -0.00000000000E+00 -0.74505805969E-08  0.93827000000E+00  0.93827000000E+00 0. -1.
     999902    2    1    2    0    0 -0.25055545555E-01 -0.11446968837E-01  0.24026454869E-01  0.10073775173E+01  0.10067141493E+01 0.  0.
     999903    2    3    3    0    0 -0.77973342454E-01 -0.42309762067E-01  0.83331353110E-01  0.12325655487E+00  0.19444942996E-01 0.  0.
         14    1    1    2    0    0  0.25055545555E-01  0.11446968837E-01 -0.24026454869E-01  0.36552482709E-01  0.00000000000E+00 0. -1.
     999901    1    3    3    0    0  0.52917796899E-01  0.30862793229E-01 -0.59304898242E-01  0.88412096242E+00  0.88000000000E+00 0. -1.
        -11    1    4    4    0    0 -0.42417346454E-01 -0.19208145830E-01  0.55890208604E-01  0.72747238334E-01  0.51100000000E-03 0. -1.
         11    1    4    4    0    0 -0.35555996000E-01 -0.23101616237E-01  0.27441144506E-01  0.50509316538E-01  0.51100000000E-03 0.  1.
</event>
<event>
 8    1  0.1117354E+005  0.1043930E+01  0.7957747E-01            NaN
         13   -1    0    0    0    0  0.00000000000E+00  0.00000000000E+00  0.74505805969E-08  0.10566000000E+00  0.10566000000E+00 0.  1.
     999900   -1    0    0    0    0 -0.00000000000E+00 -0.00000000000E+00 -0.74505805969E-08  0.93827000000E+00  0.93827000000E+00 0.  1.
     999902    2    1    2    0    0 -0.51711241215E-02 -0.11035287918E-02 -0.23458395542E-01  0.10198830746E+01  0.10195995445E+01 0.  0.
     999903    2    3    3    0    0 -0.32066793872E-01  0.12387720875E+00  0.12662798584E-01  0.12991211861E+00  0.18519448665E-01 0.  0.
         14    1    1    2    0    0  0.51711241215E-02  0.11035287918E-02  0.23458395542E-01  0.24046925414E-01  0.00000000000E+00 0.  1.
     999901    1    3    3    0    0  0.26895669751E-01 -0.12498073754E+00 -0.36121194126E-01  0.88997095597E+00  0.88000000000E+00 0.  1.
        -11    1    4    4    0    0 -0.14064423459E-02  0.34464726670E-01 -0.32939126677E-03  0.34498769314E-01  0.51100000000E-03 0. -1.
         11    1    4    4    0    0 -0.30660351526E-01  0.89412482077E-01  0.12992189851E-01  0.95413349301E-01  0.51100000000E-03 0.  1.
</event>
<event>
 8    1  0.1117354E+005  0.1043930E+01  0.7957747E-01            NaN
         13   -1    0    0    0    0  0.00000000000E+00  0.00000000000E+00  0.74505805969E-08  0.10566000000E+00  0.10566000000E+00 0. -1.
     999900   -1    0    0    0    0 -0.00000000000E+00 -0.00000000000E+00 -0.74505805969E-08  0.93827000000E+00  0.93827000000E+00 0. -1.
     999902    2    1    2    0    0 -0.67334810193E-02  0.21728822861E-01 -0.53099515832E-02  0.10205702677E+01  0.10203028933E+01 0.  0.
     999903    2    3    3    0    0  0.11148552679E+00 -0.46038162054E-02 -0.64887893592E-01  0.13027892609E+00  0.17661881013E-01 0.  0.
         14    1    1    2    0    0  0.67334810193E-02 -0.21728822861E-01  0.53099515832E-02  0.23359732348E-01  0.00000000000E+00 0. -1.
     999901    1    3    3    0    0 -0.11821900781E+00  0.26332639067E-01  0.59577942009E-01  0.89029134156E+00  0.88000000000E+00 0.  1.
        -11    1    4    4    0    0  0.81332998910E-01 -0.69707067386E-02 -0.39029233202E-01  0.90483090296E-01  0.51100000000E-03 0. -1.
         11    1    4    4    0    0  0.30152527879E-01  0.23668905332E-02 -0.25858660390E-01  0.39795835793E-01  0.51100000000E-03 0.  1.
</event>
<event>
 8    1  0.1117354E+005  0.1043930E+01  0.7957747E-01            NaN
         13   -1    0    0    0    0  0.00000000000E+00  0.00000000000E+00  0.74505805969E-08  0.10566000000E+00  0.10566000000E+00 0. -1.
     999900   -1    0    0    0    0 -0.00000000000E+00 -0.00000000000E+00 -0.74505805969E-08  0.93827000000E+00  0.93827000000E+00 0.  1.
     999902    2    1    2    0    0  0.13548516716E-01  0.26664397945E-01  0.95165033502E-02  0.10125434382E+01  0.10120568650E+01 0.  0.
     999903    2    3    3    0    0 -0.99394629512E-01 -0.32955630448E-01  0.59231168317E-01  0.12193564017E+00  0.19864619064E-01 0.  0.
         14    1    1    2    0    0 -0.13548516716E-01 -0.26664397945E-01 -0.95165033502E-02  0.31386561758E-01  0.00000000000E+00 0.  1.
     999901    1    3    3    0    0  0.11294314623E+00  0.59620028394E-01 -0.49714664967E-01  0.89060779807E+00  0.88000000000E+00 0. -1.
        -11    1    4    4    0    0 -0.60591742552E-01 -0.29600338075E-01  0.33966623948E-01  0.75508489212E-01  0.51100000000E-03 0. -1.
         11    1    4    4    0    0 -0.38802886960E-01 -0.33552923730E-02  0.25264544369E-01  0.46427150963E-01  0.51100000000E-03 0.  1.
</event>
<event>
 8    1  0.1117354E+005  0.1043930E+01  0.7957747E-01            NaN
         13   -1    0    0    0    0  0.00000000000E+00  0.00000000000E+00  0.74505805969E-08  0.10566000000E+00  0.10566000000E+00 0. -1.
     999900   -1    0    0    0    0 -0.00000000000E+00 -0.00000000000E+00 -0.74505805969E-08  0.93827000000E+00  0.93827000000E+00 0.  1.
     999902    2    1    2    0    0  0.70213873119E-02 -0.19923740884E-01 -0.64946941860E-02  0.10218294031E+01  0.10215903742E+01 0.  0.
     999903    2    3    3    0    0  0.69116207038E-01  0.78481399057E-01  0.75621039787E-01  0.13037983528E+00  0.18546690180E-01 0.  0.
         14    1    1    2    0    0 -0.70213873119E-02  0.19923740884E-01  0.64946941860E-02  0.22100596896E-01  0.00000000000E+00 0. -1.
     999901    1    3    3    0    0 -0.62094819726E-01 -0.98405139941E-01 -0.82115733973E-01  0.89144956782E+00  0.88000000000E+00 0.  1.
        -11    1    4    4    0    0  0.31028556816E-01  0.30219360333E-01  0.41861614337E-01  0.60238168572E-01  0.51100000000E-03 0. -1.
         11    1    4    4    0    0  0.38087650222E-01  0.48262038724E-01  0.33759425450E-01  0.70141666710E-01  0.51100000000E-03 0.  1.
</event>
<event>
 8    1  0.1117354E+005  0.1043930E+01  0.7957747E-01            NaN
         13   -1    0    0    0    0  0.00000000000E+00  0.00000000000E+00  0.74505805969E-08  0.10566000000E+00  0.10566000000E+00 0. -1.
     999900   -1    0    0    0    0 -0.00000000000E+00 -0.00000000000E+00 -0.74505805969E-08  0.93827000000E+00  0.93827000000E+00 0.  1.
     999902    2    1    2    0    0  0.21489048151E-01 -0.50094310205E-02 -0.45523021970E-02  0.10214000856E+01  0.10211515743E+01 0.  0.
     999903    2    3    3    0    0 -0.58368079808E-01  0.23123664476E-02 -0.11474804755E+00  0.13090928162E+00  0.23620876717E-01 0.  0.
         14    1    1    2    0    0 -0.21489048151E-01  0.50094310205E-02  0.45523021970E-02  0.22529914445E-01  0.00000000000E+00 0.  1.
     999901    1    3    3    0    0  0.79857127959E-01 -0.73217974681E-02  0.11019574536E+00  0.89049080394E+00  0.88000000000E+00 0. -1.
        -11    1    4    4    0    0 -0.37987226555E-01 -0.93131211429E-03 -0.95092766699E-01  0.10240503954E+00  0.51100000000E-03 0. -1.
         11    1    4    4    0    0 -0.20380853252E-01  0.32436785619E-02 -0.19655280856E-01  0.28504242078E-01  0.51100000000E-03 0.  1.
</event>
<event>
 8    1  0.1117354E+005  0.1043930E+01  0.7957747E-01            NaN
         13   -1    0    0    0    0  0.00000000000E+00  0.00000000000E+00  0.74505805969E-08  0.10566000000E+00  0.10566000000E+00 0.  1.
     999900   -1    0    0    0    0 -0.00000000000E+00 -0.00000000000E+00 -0.74505805969E-08  0.93827000000E+00  0.93827000000E+00 0.  1.
     999902    2    1    2    0    0 -0.16725301505E-01  0.15247810575E-01 -0.75998002032E-02  0.10200555701E+01  0.10197761410E+01 0.  0.
     999903    2    3    3    0    0 -0.29034975628E-02 -0.60442300318E-01  0.11163857762E+00  0.12868705718E+00  0.20868270358E-01 0.  0.
         14    1    1    2    0    0  0.16725301505E-01 -0.15247810575E-01  0.75998002032E-02  0.23874429855E-01  0.00000000000E+00 0.  1.
     999901    1    3    3    0    0 -0.13821803942E-01  0.75690110893E-01 -0.11923837782E+00  0.89136851296E+00  0.88000000000E+00 0.  1.
        -11    1    4    4    0    0  0.64398731256E-02 -0.61598358435E-02  0.15595600238E-01  0.17969402084E-01  0.51100000000E-03 0.  1.
         11    1    4    4    0    0 -0.93433706884E-02 -0.54282464475E-01  0.96042977384E-01  0.11071765510E+00  0.51100000000E-03 0. -1.
</event>
<event>
 8    1  0.1117354E+005  0.1043930E+01  0.7957747E-01            NaN
         13   -1    0    0    0    0  0.00000000000E+00  0.00000000000E+00  0.74505805969E-08  0.10566000000E+00  0.10566000000E+00 0. -1.
     999900   -1    0    0    0    0 -0.00000000000E+00 -0.00000000000E+00 -0.74505805969E-08  0.93827000000E+00  0.93827000000E+00 0. -1.
     999902    2    1    2    0    0  0.12586125338E-01  0.18878296232E-01  0.65642394482E-02  0.10203103078E+01  0.10200368789E+01 0.  0.
     999903    2    3    3    0    0  0.57181692836E-02 -0.98158359536E-01  0.81097535662E-01  0.12941190740E+00  0.22424773772E-01 0.  0.
         14    1    1    2    0    0 -0.12586125338E-01 -0.18878296232E-01 -0.65642394482E-02  0.23619692191E-01  0.00000000000E+00 0.  1.
     999901    1    3    3    0    0  0.68679560545E-02  0.11703665577E+00 -0.74533296214E-01  0.89089840041E+00  0.88000000000E+00 0. -1.
        -11    1    4    4    0    0 -0.11232150691E-02 -0.20738283992E-01  0.29649031824E-01  0.36203097162E-01  0.51100000000E-03 0. -1.
         11    1    4    4    0    0  0.68413843527E-02 -0.77420075544E-01  0.51448503838E-01  0.93208810234E-01  0.51100000000E-03 0.  1.
</event>
<event>
 8    1  0.1117354E+005  0.1043930E+01  0.7957747E-01            NaN
         13   -1    0    0    0    0  0.00000000000E+00  0.00000000000E+00  0.74505805969E-08  0.10566000000E+00  0.10566000000E+00 0.  1.
     999900   -1    0    0    0    0 -0.00000000000E+00 -0.00000000000E+00 -0.74505805969E-08  0.93827000000E+00  0.93827000000E+00 0. -1.
     999902    2    1    2    0    0 -0.19341123867E-01 -0.10517021970E-01 -0.76735246410E-02  0.10206154165E+01  0.10203490866E+01 0.  0.
     999903    2    3    3    0    0 -0.14761529327E-02 -0.52484794094E-01 -0.11993381908E+00  0.13231207597E+00  0.19118887257E-01 0.  0.
         14    1    1    2    0    0  0.19341123867E-01  0.10517021970E-01  0.76735246410E-02  0.23314583504E-01  0.00000000000E+00 0. -1.
     999901    1    3    3    0    0 -0.17864970934E-01  0.41967772124E-01  0.11226029444E+00  0.88830334053E+00  0.88000000000E+00 0.  1.
        -11    1    4    4    0    0 -0.43658537659E-02 -0.30494624233E-01 -0.48020323701E-01  0.57054319693E-01  0.51100000000E-03 0. -1.
         11    1    4    4    0    0  0.28897008332E-02 -0.21990169861E-01 -0.71913495378E-01  0.75257756277E-01  0.51100000000E-03 0.  1.
</event>
<event>
 8    1  0.1117354E+005  0.1043930E+01  0.7957747E-01            NaN
         13   -1    0    0    0    0  0.00000000000E+00  0.00000000000E+00  0.74505805969E-08  0.10566000000E+00  0.10566000000E+00 0.  1.
     999900   -1    0    0    0    0 -0.00000000000E+00 -0.00000000000E+00 -0.74505805969E-08  0.93827000000E+00  0.93827000000E+00 0. -1.
     999902    2    1    2    0    0  0.95046050379E-02  0.16817543044E-01  0.13537892395E-01  0.10203409813E+01  0.10200682705E+01 0.  0.
     999903    2    3    3    0    0 -0.33806547252E-01 -0.98112179791E-01  0.75133170559E-01  0.12967905030E+00  0.20069387350E-01 0.  0.
         14    1    1    2    0    0 -0.95046050379E-02 -0.16817543044E-01 -0.13537892395E-01  0.23589018663E-01  0.00000000000E+00 0. -1.
     999901    1    3    3    0    0  0.43311152290E-01  0.11492972283E+00 -0.61595278164E-01  0.89066193104E+00  0.88000000000E+00 0. -1.
        -11    1    4    4    0    0 -0.56900849522E-02 -0.34565284318E-01  0.16357148570E-01  0.38664626948E-01  0.51100000000E-03 0.  1.
         11    1    4    4    0    0 -0.28116462300E-01 -0.63546895473E-01  0.58776021989E-01  0.91014423354E-01  0.51100000000E-03 0. -1.
</event>
<event>
 8    1  0.1117354E+005  0.1043930E+01  0.7957747E-01            NaN
         13   -1    0    0    0    0  0.00000000000E+00  0.00000000000E+00  0.74505805969E-08  0.10566000000E+00  0.10566000000E+00 0. -1.
     999900   -1    0    0    0    0 -0.00000000000E+00 -0.00000000000E+00 -0.74505805969E-08  0.93827000000E+00  0.93827000000E+00 0. -1.
     999902    2    1    2    0    0 -0.14290179375E-01 -0.50548019928E-03 -0.19346169753E-01  0.10198730047E+01  0.10195892343E+01 0.  0.
     999903    2    3    3    0    0 -0.98445415124E-01 -0.25063159364E-02 -0.86776347776E-01  0.13328801956E+00  0.23190089373E-01 0.  0.
         14    1    1    2    0    0  0.14290179375E-01  0.50548019928E-03  0.19346169753E-01  0.24056995259E-01  0.00000000000E+00 0. -1.
     999901    1    3    3    0    0  0.84155235749E-01  0.20008357371E-02  0.67430178024E-01  0.88658498519E+00  0.88000000000E+00 0.  1.
        -11    1    4    4    0    0 -0.59748955513E-01 -0.54904520642E-02 -0.66237325176E-01  0.89374085261E-01  0.51100000000E-03 0. -1.
         11    1    4    4    0    0 -0.38696459611E-01  0.29841361278E-02 -0.20539022600E-01  0.43913934295E-01  0.51100000000E-03 0.  1.
</event>
<event>
 8    1  0.1117354E+005  0.1043930E+01  0.7957747E-01            NaN
         13   -1    0    0    0    0  0.00000000000E+00  0.00000000000E+00  0.74505805969E-08  0.10566000000E+00  0.10566000000E+00 0.  1.
     999900   -1    0    0    0    0 -0.00000000000E+00 -0.00000000000E+00 -0.74505805969E-08  0.93827000000E+00  0.93827000000E+00 0.  1.
     999902    2    1    2    0    0 -0.15101261772E-01 -0.10962516647E-01  0.14005423671E-01  0.10205981169E+01  0.10203313870E+01 0.  0.
     999903    2    3    3    0    0  0.76922406534E-01 -0.90376291725E-01  0.52811739812E-01  0.13139575892E+00  0.19769543948E-01 0.  0.
         14    1    1    2    0    0  0.15101261772E-01  0.10962516647E-01 -0.14005423671E-01  0.23331883133E-01  0.00000000000E+00 0.  1.
     999901    1    3    3    0    0 -0.92023668306E-01  0.79413775078E-01 -0.38806316141E-01  0.88920235794E+00  0.88000000000E+00 0.  1.
        -11    1    4    4    0    0  0.24319890002E-01 -0.33667008710E-01  0.90021340242E-02  0.42499694860E-01  0.51100000000E-03 0.  1.
         11    1    4    4    0    0  0.52602516532E-01 -0.56709283015E-01  0.43809605787E-01  0.88896064063E-01  0.51100000000E-03 0. -1.
</event>
<event>
 8    1  0.1117354E+005  0.1043930E+01  0.7957747E-01            NaN
         13   -1    0    0    0    0  0.00000000000E+00  0.00000000000E+00  0.74505805969E-08  0.10566000000E+00  0.10566000000E+00 0.  1.
     999900   -1    0    0    0    0 -0.00000000000E+00 -0.00000000000E+00 -0.74505805969E-08  0.93827000000E+00  0.93827000000E+00 0.  1.
     999902    2    1    2    0    0 -0.22823141320E-01 -0.48883307556E-02 -0.39610025375E-02  0.10202555180E+01  0.10199808042E+01 0.  0.
     999903    2    3    3    0    0  0.74400219328E-01  0.10220969509E+00 -0.14306088589E-01  0.12838703565E+00  0.17214887307E-01 0.  0.
         14    1    1    2    0    0  0.22823141320E-01  0.48883307556E-02  0.39610025375E-02  0.23674482009E-01  0.00000000000E+00 0. -1.
     999901    1    3    3    0    0 -0.97223360648E-01 -0.10709802584E+00  0.10345086052E-01  0.89186848235E+00  0.88000000000E+00 0. -1.
        -11    1    4    4    0    0  0.18977550025E-01  0.26230488223E-01  0.38371341194E-02  0.32606297499E-01  0.51100000000E-03 0.  1.
         11    1    4    4    0    0  0.55422669303E-01  0.75979206866E-01 -0.18143222709E-01  0.95780738147E-01  0.51100000000E-03 0. -1.
</event>
<event>
 8    1  0.1117354E+005  0.1043930E+01  0.7957747E-01            NaN
         13   -1    0    0    0    0  0.00000000000E+00  0.00000000000E+00  0.74505805969E-08  0.10566000000E+00  0.10566000000E+00 0. -1.
     999900   -1    0    0    0    0 -0.00000000000E+00 -0.00000000000E+00 -0.74505805969E-08  0.93827000000E+00  0.93827000000E+00 0. -1.
     999902    2    1    2    0    0 -0.15336958206E-01 -0.49166576625E-02  0.15346703844E-01  0.10216832670E+01  0.10214410316E+01 0.  0.
     999903    2    3    3    0    0 -0.62719715722E-01  0.99545546126E-01  0.59157712450E-01  0.13315815077E+00  0.19707350905E-01 0.  0.
         14    1    1    2    0    0  0.15336958206E-01  0.49166576625E-02 -0.15346703844E-01  0.22246732983E-01  0.00000000000E+00 0.  1.
     999901    1    3    3    0    0  0.47382757517E-01 -0.10446220379E+00 -0.43811008606E-01  0.88852511625E+00  0.88000000000E+00 0. -1.
        -11    1    4    4    0    0 -0.27159681080E-01  0.60160912016E-01  0.28756053587E-01  0.72001078810E-01  0.51100000000E-03 0. -1.
         11    1    4    4    0    0 -0.35560034643E-01  0.39384634111E-01  0.30401658863E-01  0.61157071958E-01  0.51100000000E-03 0.  1.
</event>
<event>
 8    1  0.1117354E+005  0.1043930E+01  0.7957747E-01            NaN
         13   -1    0    0    0    0  0.00000000000E+00  0.00000000000E+00  0.74505805969E-08  0.10566000000E+00  0.10566000000E+00 0.  1.
     999900   -1    0    0    0    0 -0.00000000000E+00 -0.00000000000E+00 -0.74505805969E-08  0.93827000000E+00  0.93827000000E+00 0.  1.
     999902    2    1    2    0    0 -0.16618004516E-01  0.18623719072E-01  0.19954590232E-01  0.10119739887E+01  0.10114693110E+01 0.  0.
     999903    2    3    3    0    0 -0.12292545801E+00  0.98835939145E-02 -0.65835607028E-02  0.12513581976E+00  0.20181091613E-01 0.  0.
         14    1    1    2    0    0  0.16618004516E-01 -0.18623719072E-01 -0.19954590232E-01  0.31956011289E-01  0.00000000000E+00 0. -1.
     999901    1    3    3    0    0  0.10630745350E+00  0.87401251575E-02  0.26538150934E-01  0.88683816895E+00  0.88000000000E+00 0.  1.
        -11    1    4    4    0    0 -0.11850143607E+00  0.11214573392E-01 -0.26737896572E-02  0.11906203123E+00  0.51100000000E-03 0. -1.
         11    1    4    4    0    0 -0.44240219391E-02 -0.13309794774E-02 -0.39097710456E-02  0.60737885307E-02  0.51100000000E-03 0.  1.
</event>
<event>
 8    1  0.1117354E+005  0.1043930E+01  0.7957747E-01            NaN
         13   -1    0    0    0    0  0.00000000000E+00  0.00000000000E+00  0.74505805969E-08  0.10566000000E+00  0.10566000000E+00 0.  1.
     999900   -1    0    0    0    0 -0.00000000000E+00 -0.00000000000E+00 -0.74505805969E-08  0.93827000000E+00  0.93827000000E+00 0.  1.
     999902    2    1    2    0    0  0.13845368895E-01 -0.10274029520E-01 -0.18041395944E-01  0.10189752031E+01  0.10186695846E+01 0.  0.
     999903    2    3    3    0    0 -0.87953283254E-01 -0.33446487508E-01  0.82979391817E-01  0.12706426135E+00  0.20132051181E-01 0.  0.
         14    1    1    2    0    0 -0.13845368895E-01  0.10274029520E-01  0.18041395944E-01  0.24954796935E-01  0.00000000000E+00 0.  1.
     999901    1    3    3    0    0  0.10179865215E+00  0.23172457988E-01 -0.10102078776E+00  0.89191094171E+00  0.88000000000E+00 0.  1.
        -11    1    4    4    0    0 -0.73342388734E-01 -0.19214918891E-01  0.64835622422E-01  0.99760904912E-01  0.51100000000E-03 0. -1.
         11    1    4    4    0    0 -0.14610894521E-01 -0.14231568617E-01  0.18143769395E-01  0.27303356439E-01  0.51100000000E-03 0.  1.
</event>
<event>
 8    1  0.1117354E+005  0.1043930E+01  0.7957747E-01            NaN
         13   -1    0    0    0    0  0.00000000000E+00  0.00000000000E+00  0.74505805969E-08  0.10566000000E+00  0.10566000000E+00 0.  1.
     999900   -1    0    0    0    0 -0.00000000000E+00 -0.00000000000E+00 -0.74505805969E-08  0.93827000000E+00  0.93827000000E+00 0. -1.
     999902    2    1    2    0    0 -0.22579336057E-01 -0.66127378472E-02 -0.14308345224E-02  0.10203587886E+01  0.10200864941E+01 0.  0.
     999903    2    3    3    0    0 -0.85862473785E-01 -0.96010803939E-01  0.26655457067E-01  0.13312397781E+00  0.20519288435E-01 0.  0.
         14    1    1    2    0    0  0.22579336057E-01  0.66127378472E-02  0.14308345224E-02  0.23571211383E-01  0.00000000000E+00 0.  1.
     999901    1    3    3    0    0  0.63283137728E-01  0.89398066091E-01 -0.28086291589E-01  0.88723481081E+00  0.88000000000E+00 0. -1.
        -11    1    4    4    0    0 -0.59820879832E-01 -0.74172773175E-01  0.11762550448E-01  0.96014356522E-01  0.51100000000E-03 0. -1.
         11    1    4    4    0    0 -0.26041593953E-01 -0.21838030764E-01  0.14892906618E-01  0.37109621283E-01  0.51100000000E-03 0.  1.
</event>
<event>
 8    1  0.1117354E+005  0.1043930E+01  0.7957747E-01            NaN
         13   -1    0    0    0    0  0.00000000000E+00  0.00000000000E+00  0.74505805969E-08  0.10566000000E+00  0.10566000000E+00 0.  1.
     999900   -1    0    0    0    0 -0.00000000000E+00 -0.00000000000E+00 -0.74505805969E-08  0.93827000000E+00  0.93827000000E+00 0. -1.
     999902    2    1    2    0    0  0.10109721721E-01 -0.19620558165E-01  0.91094654933E-02  0.10200520785E+01  0.10197725666E+01 0.  0.
     999903    2    3    3    0    0  0.11894311278E+00  0.45872852637E-01 -0.19288104357E-01  0.13047885727E+00  0.20022950279E-01 0.  0.
         14    1    1    2    0    0 -0.10109721721E-01  0.19620558165E-01 -0.91094654933E-02  0.23877921550E-01  0.00000000000E+00 0. -1.
     999901    1    3    3    0    0 -0.10883339106E+00 -0.65493410802E-01  0.28397569850E-01  0.88957322118E+00  0.88000000000E+00 0.  1.
        -11    1    4    4    0    0  0.40004351095E-01  0.22158995255E-01 -0.14236196400E-01  0.47898847441E-01  0.51100000000E-03 0.  1.
         11    1    4    4    0    0  0.78938761685E-01  0.23713857382E-01 -0.50519079569E-02  0.82580009829E-01  0.51100000000E-03 0. -1.
</event>
<event>
 8    1  0.1117354E+005  0.1043930E+01  0.7957747E-01            NaN
         13   -1    0    0    0    0  0.00000000000E+00  0.00000000000E+00  0.74505805969E-08  0.10566000000E+00  0.10566000000E+00 0.  1.
     999900   -1    0    0    0    0 -0.00000000000E+00 -0.00000000000E+00 -0.74505805969E-08  0.93827000000E+00  0.93827000000E+00 0.  1.
     999902    2    1    2    0    0  0.13606185950E-01  0.66576451855E-02  0.18173977581E-01  0.10202710483E+01  0.10199966990E+01 0.  0.
     999903    2    3    3    0    0  0.21693481929E-01  0.62280470805E-01  0.11412717601E+00  0.13327255934E+00  0.19674820609E-01 0.  0.
         14    1    1    2    0    0 -0.13606185950E-01 -0.66576451855E-02 -0.18173977581E-01  0.23658951724E-01  0.00000000000E+00 0. -1.
     999901    1    3    3    0    0 -0.80872959789E-02 -0.55622825620E-01 -0.95953198433E-01  0.88699848894E+00  0.88000000000E+00 0.  1.
        -11    1    4    4    0    0  0.66824518170E-02  0.22197331036E-01  0.59597140864E-01  0.63948862285E-01  0.51100000000E-03 0.  1.
         11    1    4    4    0    0  0.15011030112E-01  0.40083139769E-01  0.54530035150E-01  0.69323697054E-01  0.51100000000E-03 0. -1.
</event>
<event>
 8    1  0.1117354E+005  0.1043930E+01  0.7957747E-01            NaN
         13   -1    0    0    0    0  0.00000000000E+00  0.00000000000E+00  0.74505805969E-08  0.10566000000E+00  0.10566000000E+00 0.  1.
     999900   -1    0    0    0    0 -0.00000000000E+00 -0.00000000000E+00 -0.74505805969E-08  0.93827000000E+00  0.93827000000E+00 0. -1.
     999902    2    1    2    0    0 -0.83276414927E-02 -0.16538530288E-01 -0.14760077031E-01  0.10202502097E+01  0.10199753712E+01 0.  0.
     999903    2    3    3    0    0 -0.37398101535E-01  0.11132712350E+00  0.47943437597E-01  0.12832731623E+00  0.19415984547E-01 0.  0.
         14    1    1    2    0    0  0.83276414927E-02  0.16538530288E-01  0.14760077031E-01  0.23679790347E-01  0.00000000000E+00 0.  1.
     999901    1    3    3    0    0  0.29070460043E-01 -0.12786565379E+00 -0.62703514628E-01  0.89192289342E+00  0.88000000000E+00 0. -1.
        -11    1    4    4    0    0 -0.32623493445E-01  0.92613911845E-01  0.31991256461E-01  0.10327308750E+00  0.51100000000E-03 0.  1.
         11    1    4    4    0    0 -0.47746080908E-02  0.18713211658E-01  0.15952181135E-01  0.25054228724E-01  0.51100000000E-03 0. -1.
</event>
<event>
 8    1  0.1117354E+005  0.1043930E+01  0.7957747E-01            NaN
         13   -1    0    0    0    0  0.00000000000E+00  0.00000000000E+00  0.74505805969E-08  0.10566000000E+00  0.10566000000E+00 0.  1.
     999900   -1    0    0    0    0 -0.00000000000E+00 -0.00000000000E+00 -0.74505805969E-08  0.93827000000E+00  0.93827000000E+00 0. -1.
     999902    2    1    2    0    0  0.20804784166E-01 -0.11130993247E-01  0.93131254278E-04  0.10203345189E+01  0.10200616568E+01 0.  0.
     999903    2    3    3    0    0 -0.78362101609E-01 -0.10164001781E+00 -0.38807504149E-02  0.13014254719E+00  0.21229935835E-01 0.  0.
         14    1    1    2    0    0 -0.20804784166E-01  0.11130993247E-01 -0.93131254278E-04  0.23595481099E-01  0.00000000000E+00 0.  1.
     999901    1    3    3    0    0  0.99166885775E-01  0.90509024567E-01  0.39738816692E-02  0.89019197171E+00  0.88000000000E+00 0.  1.
        -11    1    4    4    0    0 -0.16380141979E-01 -0.33360948554E-01  0.49774344903E-02  0.37500638859E-01  0.51100000000E-03 0. -1.
         11    1    4    4    0    0 -0.61981959629E-01 -0.68279069260E-01 -0.88581849052E-02  0.92641908332E-01  0.51100000000E-03 0.  1.
</event>
<event>
 8    1  0.1117354E+005  0.1043930E+01  0.7957747E-01            NaN
         13   -1    0    0    0    0  0.00000000000E+00  0.00000000000E+00  0.74505805969E-08  0.10566000000E+00  0.10566000000E+00 0.  1.
     999900   -1    0    0    0    0 -0.00000000000E+00 -0.00000000000E+00 -0.74505805969E-08  0.93827000000E+00  0.93827000000E+00 0.  1.
     999902    2    1    2    0    0  0.21289483639E-01 -0.85127052148E-02  0.70292475216E-02  0.10199483699E+01  0.10196663957E+01 0.  0.
     999903    2    3    3    0    0 -0.36830974499E-01  0.11637719383E+00  0.35427881978E-01  0.12877949867E+00  0.20708754863E-01 0.  0.
         14    1    1    2    0    0 -0.21289483639E-01  0.85127052148E-02 -0.70292475216E-02  0.23981630145E-01  0.00000000000E+00 0.  1.
     999901    1    3    3    0    0  0.58120458137E-01 -0.12488989905E+00 -0.28398634456E-01  0.89116887119E+00  0.88000000000E+00 0. -1.
        -11    1    4    4    0    0 -0.16451158296E-01  0.68635389280E-01  0.11097168435E-01  0.71448341752E-01  0.51100000000E-03 0.  1.
         11    1    4    4    0    0 -0.20379816202E-01  0.47741804554E-01  0.24330713543E-01  0.57331156913E-01  0.51100000000E-03 0. -1.
</event>
<event>
 8    1  0.1117354E+005  0.1043930E+01  0.7957747E-01            NaN
         13   -1    0    0    0    0  0.00000000000E+00  0.00000000000E+00  0.74505805969E-08  0.10566000000E+00  0.10566000000E+00 0.  1.
     999900   -1    0    0    0    0 -0.00000000000E+00 -0.00000000000E+00 -0.74505805969E-08  0.93827000000E+00  0.93827000000E+00 0.  1.
     999902    2    1    2    0    0 -0.15381493735E-01 -0.20644056484E-01  0.12983179143E-01  0.10150972000E+01  0.10146876342E+01 0.  0.
     999903    2    3    3    0    0  0.10165492881E+00 -0.63820128365E-01  0.34976057205E-01  0.12602724542E+00  0.15899958308E-01 0.  0.
         14    1    1    2    0    0  0.15381493735E-01  0.20644056484E-01 -0.12983179143E-01  0.28832800042E-01  0.00000000000E+00 0. -1.
     999901    1    3    3    0    0 -0.11703642254E+00  0.43176071881E-01 -0.21992878062E-01  0.88906995454E+00  0.88000000000E+00 0.  1.
        -11    1    4    4    0    0  0.47296271478E-01 -0.24594806299E-01  0.22381281005E-01  0.57818895294E-01  0.51100000000E-03 0.  1.
         11    1    4    4    0    0  0.54358657328E-01 -0.39225322065E-01  0.12594776200E-01  0.68208350121E-01  0.51100000000E-03 0. -1.
</event>
<event>
 8    1  0.1117354E+005  0.1043930E+01  0.7957747E-01            NaN
         13   -1    0    0    0    0  0.00000000000E+00  0.00000000000E+00  0.74505805969E-08  0.10566000000E+00  0.10566000000E+00 0. -1.
     999900   -1    0    0    0    0 -0.00000000000E+00 -0.00000000000E+00 -0.74505805969E-08  0.93827000000E+00  0.93827000000E+00 0. -1.
     999902    2    1    2    0    0 -0.10333601258E-01 -0.58727523639E-02  0.21378603312E-01  0.10194694764E+01  0.10191759888E+01 0.  0.
     999903    2    3    3    0    0 -0.56804878824E-01  0.26207587290E-01 -0.10978177173E+00  0.12795852761E+00  0.20191966073E-01 0.  0.
         14    1    1    2    0    0  0.10333601258E-01  0.58727523639E-02 -0.21378603312E-01  0.24460523602E-01  0.00000000000E+00 0.  1.
     999901    1    3    3    0    0  0.46471277565E-01 -0.32080339654E-01  0.13116037504E+00  0.89151094879E+00  0.88000000000E+00 0.  1.
        -11    1    4    4    0    0 -0.16124668836E-01 -0.13880265287E-02 -0.33506722064E-01  0.37214151975E-01  0.51100000000E-03 0.  1.
         11    1    4    4    0    0 -0.40680209987E-01  0.27595613819E-01 -0.76275049665E-01  0.90744375634E-01  0.51100000000E-03 0. -1.
</event>
<event>
 8    1  0.1117354E+005  0.1043930E+01  0.7957747E-01            NaN
         13   -1    0    0    0    0  0.00000000000E+00  0.00000000000E+00  0.74505805969E-08  0.10566000000E+00  0.10566000000E+00 0.  1.
     999900   -1    0    0    0    0 -0.00000000000E+00 -0.00000000000E+00 -0.74505805969E-08  0.93827000000E+00  0.93827000000E+00 0. -1.
     999902    2    1    2    0    0  0.13717548259E-01  0.19525249099E-01 -0.80721762215E-03  0.10200541108E+01  0.10197746472E+01 0.  0.
     999903    2    3    3    0    0  0.11590718967E-01  0.12836343422E+00  0.25646230949E-01  0.13295205421E+00  0.20174328903E-01 0.  0.
         14    1    1    2    0    0 -0.13717548259E-01 -0.19525249099E-01  0.80721762215E-03  0.23875889154E-01  0.00000000000E+00 0. -1.
     999901    1    3    3    0    0  0.21268292919E-02 -0.10883818512E+00 -0.26453448571E-01  0.88710205663E+00  0.88000000000E+00 0.  1.
        -11    1    4    4    0    0  0.16548627419E-01  0.10767441257E+00  0.24373108684E-01  0.11163308533E+00  0.51100000000E-03 0. -1.
         11    1    4    4    0    0 -0.49579084521E-02  0.20689021650E-01  0.12731222643E-02  0.21318968886E-01  0.51100000000E-03 0.  1.
</event>
<event>
 8    1  0.1117354E+005  0.1043930E+01  0.7957747E-01            NaN
         13   -1    0    0    0    0  0.00000000000E+00  0.00000000000E+00  0.74505805969E-08  0.10566000000E+00  0.10566000000E+00 0.  1.
     999900   -1    0    0    0    0 -0.00000000000E+00 -0.00000000000E+00 -0.74505805969E-08  0.93827000000E+00  0.93827000000E+00 0. -1.
     999902    2    1    2    0    0 -0.15150009419E-01 -0.78601749984E-02  0.16478101509E-01  0.10202058991E+01  0.10199300189E+01 0.  0.
     999903    2    3    3    0    0  0.17380945475E-02  0.12674790773E+00 -0.14783493739E-01  0.12926155100E+00  0.20541270459E-01 0.  0.
         14    1    1    2    0    0  0.15150009419E-01  0.78601749984E-02 -0.16478101509E-01  0.23724100947E-01  0.00000000000E+00 0. -1.
     999901    1    3    3    0    0 -0.16888103966E-01 -0.13460808273E+00  0.31261595247E-01  0.89094434805E+00  0.88000000000E+00 0.  1.
        -11    1    4    4    0    0  0.82406905376E-02  0.37376903535E-01  0.91103576084E-03  0.38288810448E-01  0.51100000000E-03 0. -1.
         11    1    4    4    0    0 -0.65025959901E-02  0.89371004199E-01 -0.15694529500E-01  0.90972740551E-01  0.51100000000E-03 0.  1.
</event>
<event>
 8    1  0.1117354E+005  0.1043930E+01  0.7957747E-01            NaN
         13   -1    0    0    0    0  0.00000000000E+00  0.00000000000E+00  0.74505805969E-08  0.10566000000E+00  0.10566000000E+00 0. -1.
     999900   -1    0    0    0    0 -0.00000000000E+00 -0.00000000000E+00 -0.74505805969E-08  0.93827000000E+00  0.93827000000E+00 0. -1.
     999902    2    1    2    0    0 -0.85746681089E-02  0.16606166594E-01 -0.13668500339E-01  0.10207757865E+01  0.10205131497E+01 0.  0.
     999903    2    3    3    0    0 -0.80668208320E-01 -0.73367524549E-01 -0.70997756408E-01  0.13140556703E+00  0.18346338619E-01 0.  0.
         14    1    1    2    0    0  0.85746681089E-02 -0.16606166594E-01  0.13668500339E-01  0.23154213518E-01  0.00000000000E+00 0. -1.
     999901    1    3    3    0    0  0.72093540211E-01  0.89973691143E-01  0.57329256069E-01  0.88937021945E+00  0.88000000000E+00 0.  1.
        -11    1    4    4    0    0 -0.68738014495E-01 -0.60139231243E-01 -0.66636456147E-01  0.11305892349E+00  0.51100000000E-03 0.  1.
         11    1    4    4    0    0 -0.11930193826E-01 -0.13228293307E-01 -0.43613002609E-02  0.18346643548E-01  0.51100000000E-03 0. -1.
</event>
<event>
 8    1  0.1117354E+005  0.1043930E+01  0.7957747E-01            NaN
         13   -1    0    0    0    0  0.00000000000E+00  0.00000000000E+00  0.74505805969E-08  0.10566000000E+00  0.10566000000E+00 0.  1.
     999900   -1    0    0    0    0 -0.00000000000E+00 -0.00000000000E+00 -0.74505805969E-08  0.93827000000E+00  0.93827000000E+00 0. -1.
     999902    2    1    2    0    0  0.33496228354E-02  0.18316866481E-02  0.23741855750E-01  0.10198831548E+01  0.10195996267E+01 0.  0.
     999903    2    3    3    0    0 -0.91443473281E-01 -0.78508861123E-01  0.46246067805E-01  0.13086865873E+00  0.21502487504E-01 0.  0.
         14    1    1    2    0    0 -0.33496228354E-02 -0.18316866481E-02 -0.23741855750E-01  0.24046845190E-01  0.00000000000E+00 0. -1.
     999901    1    3    3    0    0  0.94793096117E-01  0.80340547771E-01 -0.22504212055E-01  0.88901449608E+00  0.88000000000E+00 0.  1.
        -11    1    4    4    0    0 -0.30650556924E-01 -0.30642241834E-01  0.63332542422E-02  0.43803822375E-01  0.51100000000E-03 0.  1.
         11    1    4    4    0    0 -0.60792916357E-01 -0.47866619288E-01  0.39912813563E-01  0.87064836351E-01  0.51100000000E-03 0. -1.
</event>
<event>
 8    1  0.1117354E+005  0.1043930E+01  0.7957747E-01            NaN
         13   -1    0    0    0    0  0.00000000000E+00  0.00000000000E+00  0.74505805969E-08  0.10566000000E+00  0.10566000000E+00 0.  1.
     999900   -1    0    0    0    0 -0.00000000000E+00 -0.00000000000E+00 -0.74505805969E-08  0.93827000000E+00  0.93827000000E+00 0. -1.
     999902    2    1    2    0    0 -0.12111869614E-01  0.71023269186E-02 -0.18712880999E-01  0.10205352923E+01  0.10202671074E+01 0.  0.
     999903    2    3    3    0    0 -0.26858372885E-01  0.12733238884E+00 -0.11664911348E-01  0.13220967574E+00  0.20209373133E-01 0.  0.
         14    1    1    2    0    0  0.12111869614E-01 -0.71023269186E-02  0.18712880999E-01  0.23394707703E-01  0.00000000000E+00 0.  1.
     999901    1    3    3    0    0  0.14746503271E-01 -0.12023006192E+00 -0.70479696510E-02  0.88832561655E+00  0.88000000000E+00 0. -1.
        -11    1    4    4    0    0 -0.23788520823E-01  0.73642888158E-01 -0.10836369999E-02  0.77398992818E-01  0.51100000000E-03 0. -1.
         11    1    4    4    0    0 -0.30698520626E-02  0.53689500680E-01 -0.10581274348E-01  0.54810682926E-01  0.51100000000E-03 0.  1.
</event>
<event>
 8    1  0.1117354E+005  0.1043930E+01  0.7957747E-01            NaN
         13   -1    0    0    0    0  0.00000000000E+00  0.00000000000E+00  0.74505805969E-08  0.10566000000E+00  0.10566000000E+00 0. -1.
     999900   -1    0    0    0    0 -0.00000000000E+00 -0.00000000000E+00 -0.74505805969E-08  0.93827000000E+00  0.93827000000E+00 0.  1.
     999902    2    1    2    0    0 -0.23604870704E-01 -0.23056530851E-03  0.18658369658E-02  0.10202503795E+01  0.10199755450E+01 0.  0.
     999903    2    3    3    0    0  0.10579736712E+00  0.66619333280E-01  0.19215543538E-01  0.12810977372E+00  0.20289370411E-01 0.  0.
         14    1    1    2    0    0  0.23604870704E-01  0.23056530851E-03 -0.18658369658E-02  0.23679620540E-01  0.00000000000E+00 0.  1.
     999901    1    3    3    0    0 -0.12940223783E+00 -0.66849898588E-01 -0.17349706573E-01  0.89214060574E+00  0.88000000000E+00 0.  1.
        -11    1    4    4    0    0  0.87190807311E-01  0.48585063996E-01  0.88847787208E-02  0.10020950921E+00  0.51100000000E-03 0.  1.
         11    1    4    4    0    0  0.18606559812E-01  0.18034269283E-01  0.10330764818E-01  0.27900264503E-01  0.51100000000E-03 0. -1.
</event>
<event>
 8    1  0.1117354E+005  0.1043930E+01  0.7957747E-01            NaN
         13   -1    0    0    0    0  0.00000000000E+00  0.00000000000E+00  0.74505805969E-08  0.10566000000E+00  0.10566000000E+00 0.  1.
     999900   -1    0    0    0    0 -0.00000000000E+00 -0.00000000000E+00 -0.74505805969E-08  0.93827000000E+00  0.93827000000E+00 0.  1.
     999902    2    1    2    0    0 -0.13110653629E-01 -0.99226527171E-02 -0.18124377164E-01  0.10194587654E+01  0.10191650176E+01 0.  0.
     999903    2    3    3    0    0  0.10352416159E+00 -0.69837277757E-01  0.23454791907E-01  0.12877236171E+00  0.20921196893E-01 0.  0.
         14    1    1    2    0    0  0.13110653629E-01  0.99226527171E-02  0.18124377164E-01  0.24471234605E-01  0.00000000000E+00 0.  1.
     999901    1    3    3    0    0 -0.11663481522E+00  0.59914625040E-01 -0.41579169071E-01  0.89068640369E+00  0.88000000000E+00 0. -1.
        -11    1    4    4    0    0  0.32327304319E-01 -0.33885880682E-01  0.98407525770E-02  0.47858218170E-01  0.51100000000E-03 0.  1.
         11    1    4    4    0    0  0.71196857267E-01 -0.35951397075E-01  0.13614039330E-01  0.80914143536E-01  0.51100000000E-03 0. -1.
</event>
<event>
 8    1  0.1117354E+005  0.1043930E+01  0.7957747E-01            NaN
         13   -1    0    0    0    0  0.00000000000E+00  0.00000000000E+00  0.74505805969E-08  0.10566000000E+00  0.10566000000E+00 0.  1.
     999900   -1    0    0    0    0 -0.00000000000E+00 -0.00000000000E+00 -0.74505805969E-08  0.93827000000E+00  0.93827000000E+00 0. -1.
     999902    2    1    2    0    0 -0.29060803120E-02 -0.75906230279E-02 -0.22871208792E-01  0.10196574836E+01  0.10193685442E+01 0.  0.
     999903    2    3    3    0    0  0.51019793339E-01 -0.10544379488E-01 -0.12036909706E+00  0.13262729091E+00  0.19674234855E-01 0.  0.
         14    1    1    2    0    0  0.29060803120E-02  0.75906230279E-02  0.22871208792E-01  0.24272516399E-01  0.00000000000E+00 0.  1.
     999901    1    3    3    0    0 -0.53925873651E-01  0.29537564596E-02  0.97497888265E-01  0.88703019269E+00  0.88000000000E+00 0.  1.
        -11    1    4    4    0    0  0.48820723110E-01 -0.95072826851E-02 -0.95896803344E-01  0.10802920643E+00  0.51100000000E-03 0.  1.
         11    1    4    4    0    0  0.21990702289E-02 -0.10370968024E-02 -0.24472293713E-01  0.24598084483E-01  0.51100000000E-03 0. -1.
</event>
<event>
 8    1  0.1117354E+005  0.1043930E+01  0.7957747E-01            NaN
         13   -1    0    0    0    0  0.00000000000E+00  0.00000000000E+00  0.74505805969E-08  0.10566000000E+00  0.10566000000E+00 0. -1.
     999900   -1    0    0    0    0 -0.00000000000E+00 -0.00000000000E+00 -0.74505805969E-08  0.93827000000E+00  0.93827000000E+00 0.  1.
     999902    2    1    2    0    0 -0.17753584282E-02  0.33918923485E-02 -0.23254852185E-01  0.10203621197E+01  0.10200899031E+01 0.  0.
     999903    2    3    3    0    0 -0.10777707186E+00  0.55987700456E-01  0.41771077459E-01  0.13006382486E+00  0.20524517182E-01 0.  0.
         14    1    1    2    0    0  0.17753584282E-02 -0.33918923485E-02  0.23254852185E-01  0.23567880291E-01  0.00000000000E+00 0. -1.
     999901    1    3    3    0    0  0.10600171343E+00 -0.52595808108E-01 -0.65025929645E-01  0.89029829485E+00  0.88000000000E+00 0.  1.
        -11    1    4    4    0    0 -0.90091410936E-01  0.48803291713E-01  0.42564155134E-01  0.11095130477E+00  0.51100000000E-03 0.  1.
         11    1    4    4    0    0 -0.17685660920E-01  0.71844087428E-02 -0.79307767471E-03  0.19112520094E-01  0.51100000000E-03 0. -1.
</event>
<event>
 8    1  0.1117354E+005  0.1043930E+01  0.7957747E-01            NaN
         13   -1    0    0    0    0  0.00000000000E+00  0.00000000000E+00  0.74505805969E-08  0.10566000000E+00  0.10566000000E+00 0. -1.
     999900   -1    0    0    0    0 -0.00000000000E+00 -0.00000000000E+00 -0.74505805969E-08  0.93827000000E+00  0.93827000000E+00 0. -1.
     999902    2    1    2    0    0 -0.19654763331E-02  0.23311914959E-01  0.31003105374E-02  0.10203308390E+01  0.10200578908E+01 0.  0.
     999903    2    3    3    0    0 -0.11552691925E-01 -0.12501875760E+00  0.14357245119E-01  0.12779477711E+00  0.19032081516E-01 0.  0.
         14    1    1    2    0    0  0.19654763331E-02 -0.23311914959E-01 -0.31003105374E-02  0.23599161038E-01  0.00000000000E+00 0. -1.
     999901    1    3    3    0    0  0.95872155921E-02  0.14833067256E+00 -0.11256934582E-01  0.89253606185E+00  0.88000000000E+00 0. -1.
        -11    1    4    4    0    0 -0.40743407034E-02 -0.14814763455E-01 -0.38440053102E-02  0.15846607404E-01  0.51100000000E-03 0.  1.
         11    1    4    4    0    0 -0.74783512218E-02 -0.11020399415E+00  0.18201250430E-01  0.11194816971E+00  0.51100000000E-03 0. -1.
</event>
<event>
 8    1  0.1117354E+005  0.1043930E+01  0.7957747E-01            NaN
         13   -1    0    0    0    0  0.00000000000E+00  0.00000000000E+00  0.74505805969E-08  0.10566000000E+00  0.10566000000E+00 0.  1.
     999900   -1    0    0    0    0 -0.00000000000E+00 -0.00000000000E+00 -0.74505805969E-08  0.93827000000E+00  0.93827000000E+00 0.  1.
     999902    2    1    2    0    0 -0.13470197366E-01  0.20363981805E-01 -0.16923795609E-02  0.10194554802E+01  0.10191616525E+01 0.  0.
     999903    2    3    3    0    0  0.96019829689E-01 -0.73740594612E-01 -0.33382973216E-01  0.12712816856E+00  0.19739943101E-01 0.  0.
         14    1    1    2    0    0  0.13470197366E-01 -0.20363981805E-01  0.16923795609E-02  0.24474519824E-01  0.00000000000E+00 0. -1.
     999901    1    3    3    0    0 -0.10949002706E+00  0.94104576417E-01  0.31690593655E-01  0.89232731161E+00  0.88000000000E+00 0.  1.
        -11    1    4    4    0    0  0.38439127896E-01 -0.34907835837E-01 -0.23419687502E-01  0.56963729161E-01  0.51100000000E-03 0.  1.
         11    1    4    4    0    0  0.57580701793E-01 -0.38832758775E-01 -0.99632857137E-02  0.70164439400E-01  0.51100000000E-03 0. -1.
</event>
<event>
 8    1  0.1117354E+005  0.1043930E+01  0.7957747E-01            NaN
         13   -1    0    0    0    0  0.00000000000E+00  0.00000000000E+00  0.74505805969E-08  0.10566000000E+00  0.10566000000E+00 0.  1.
     999900   -1    0    0    0    0 -0.00000000000E+00 -0.00000000000E+00 -0.74505805969E-08  0.93827000000E+00  0.93827000000E+00 0.  1.
     999902    2    1    2    0    0 -0.43062875599E-02  0.16424700513E-01  0.15903404464E-01  0.10206655814E+01  0.10204004096E+01 0.  0.
     999903    2    3    3    0    0  0.91877260763E-01 -0.87335973420E-01  0.17348472058E-01  0.12936336517E+00  0.19102551333E-01 0.  0.
         14    1    1    2    0    0  0.43062875599E-02 -0.16424700513E-01 -0.15903404464E-01  0.23264418605E-01  0.00000000000E+00 0.  1.
     999901    1    3    3    0    0 -0.96183548323E-01  0.10376067393E+00 -0.14450675946E-02  0.89130221622E+00  0.88000000000E+00 0. -1.
        -11    1    4    4    0    0  0.70567441132E-01 -0.61485845113E-01  0.20146954887E-01  0.95741494710E-01  0.51100000000E-03 0. -1.
         11    1    4    4    0    0  0.21309819631E-01 -0.25850128308E-01 -0.27984828291E-02  0.33621870462E-01  0.51100000000E-03 0.  1.
</event>
<event>
 8    1  0.1117354E+005  0.1043930E+01  0.7957747E-01            NaN
         13   -1    0    0    0    0  0.00000000000E+00  0.00000000000E+00  0.74505805969E-08  0.10566000000E+00  0.10566000000E+00 0.  1.
     999900   -1    0    0    0    0 -0.00000000000E+00 -0.00000000000E+00 -0.74505805969E-08  0.93827000000E+00  0.93827000000E+00 0. -1.
     999902    2    1    2    0    0 -0.19814511398E-01  0.12588894315E-01  0.19327844301E-02  0.10203751538E+01  0.10201032417E+01 0.  0.
     999903    2    3    3    0    0  0.97519352528E-01  0.44914052876E-01  0.68954386871E-01  0.12947445977E+00  0.21946115846E-01 0.  0.
         14    1    1    2    0    0  0.19814511398E-01 -0.12588894315E-01 -0.19327844301E-02  0.23554846161E-01  0.00000000000E+00 0.  1.
     999901    1    3    3    0    0 -0.11733386393E+00 -0.32325158560E-01 -0.67021602441E-01  0.89090069407E+00  0.88000000000E+00 0. -1.
        -11    1    4    4    0    0  0.81793487459E-01  0.45947814793E-01  0.58963924224E-01  0.11080785963E+00  0.51100000000E-03 0. -1.
         11    1    4    4    0    0  0.15725865068E-01 -0.10337619172E-02  0.99904626473E-02  0.18666600139E-01  0.51100000000E-03 0.  1.
</event>
<event>
 8    1  0.1117354E+005  0.1043930E+01  0.7957747E-01            NaN
         13   -1    0    0    0    0  0.00000000000E+00  0.00000000000E+00  0.74505805969E-08  0.10566000000E+00  0.10566000000E+00 0.  1.
     999900   -1    0    0    0    0 -0.00000000000E+00 -0.00000000000E+00 -0.74505805969E-08  0.93827000000E+00  0.93827000000E+00 0.  1.
     999902    2    1    2    0    0  0.19355100660E-01 -0.11602013365E-02 -0.13881761837E-01  0.10200832119E+01  0.10198044371E+01 0.  0.
     999903    2    3    3    0    0 -0.80544093158E-01  0.50031224421E-01  0.83304881549E-01  0.12764517228E+00  0.19055507246E-01 0.  0.
         14    1    1    2    0    0 -0.19355100660E-01  0.11602013365E-02  0.13881761837E-01  0.23846788052E-01  0.00000000000E+00 0.  1.
     999901    1    3    3    0    0  0.99899193817E-01 -0.51191425758E-01 -0.97186643386E-01  0.89243803967E+00  0.88000000000E+00 0.  1.
        -11    1    4    4    0    0 -0.17016111077E-01  0.19553376052E-01  0.27181620544E-01  0.37563069199E-01  0.51100000000E-03 0.  1.
         11    1    4    4    0    0 -0.63527982080E-01  0.30477848369E-01  0.56123261006E-01  0.90082103080E-01  0.51100000000E-03 0. -1.
</event>
<event>
 8    1  0.1117354E+005  0.1043930E+01  0.7957747E-01            NaN
         13   -1    0    0    0    0  0.00000000000E+00  0.00000000000E+00  0.74505805969E-08  0.10566000000E+00  0.10566000000E+00 0.  1.
     999900   -1    0    0    0    0 -0.00000000000E+00 -0.00000000000E+00 -0.74505805969E-08  0.93827000000E+00  0.93827000000E+00 0.  1.
     999902    2    1    2    0    0 -0.14981031786E-01 -0.13033971312E-01 -0.12605772147E-01  0.10204093450E+01  0.10201382309E+01 0.  0.
     999903    2    3    3    0    0 -0.85080689368E-01  0.95982915649E-01  0.12958053797E-01  0.13054859585E+00  0.20581081597E-01 0.  0.
         14    1    1    2    0    0  0.14981031786E-01  0.13033971312E-01  0.12605772147E-01  0.23520655028E-01  0.00000000000E+00 0.  1.
     999901    1    3    3    0    0  0.70099657582E-01 -0.10901688696E+00 -0.25563825944E-01  0.88986074912E+00  0.88000000000E+00 0.  1.
        -11    1    4    4    0    0 -0.60926783488E-01  0.81086762528E-01  0.12178834947E-01  0.10215537747E+00  0.51100000000E-03 0. -1.
         11    1    4    4    0    0 -0.24153905879E-01  0.14896153121E-01  0.77921884991E-03  0.28393218381E-01  0.51100000000E-03 0.  1.
</event>
<event>
 8    1  0.1117354E+005  0.1043930E+01  0.7957747E-01            NaN
         13   -1    0    0    0    0  0.00000000000E+00  0.00000000000E+00  0.74505805969E-08  0.10566000000E+00  0.10566000000E+00 0.  1.
     999900   -1    0    0    0    0 -0.00000000000E+00 -0.00000000000E+00 -0.74505805969E-08  0.93827000000E+00  0.93827000000E+00 0. -1.
     999902    2    1    2    0    0 -0.12289012685E-02 -0.68410729439E-02  0.22840591361E-01  0.10200552625E+01  0.10197758261E+01 0.  0.
     999903    2    3    3    0    0 -0.11937124141E+00  0.47927095190E-01  0.32063239430E-02  0.13025603276E+00  0.20244846950E-01 0.  0.
         14    1    1    2    0    0  0.12289012685E-02  0.68410729439E-02 -0.22840591361E-01  0.23874737508E-01  0.00000000000E+00 0. -1.
     999901    1    3    3    0    0  0.11814234014E+00 -0.54768168134E-01  0.19634267418E-01  0.88979922973E+00  0.88000000000E+00 0. -1.
        -11    1    4    4    0    0 -0.21319934414E-01  0.97799363814E-02  0.83898420851E-02  0.24916607519E-01  0.51100000000E-03 0.  1.
         11    1    4    4    0    0 -0.98051306996E-01  0.38147158809E-01 -0.51835181421E-02  0.10533942524E+00  0.51100000000E-03 0. -1.
</event>
<event>
 8    1  0.1117354E+005  0.1043930E+01  0.7957747E-01            NaN
         13   -1    0    0    0    0  0.00000000000E+00  0.00000000000E+00  0.74505805969E-08  0.10566000000E+00  0.10566000000E+00 0.  1.
     999900   -1    0    0    0    0 -0.00000000000E+00 -0.00000000000E+00 -0.74505805969E-08  0.93827000000E+00  0.93827000000E+00 0. -1.
     999902    2    1    2    0    0  0.21196737360E-01 -0.51907513028E-02  0.12573869833E-01  0.10187437383E+01  0.10184323525E+01 0.  0.
     999903    2    3    3    0    0  0.12222738856E-01  0.67891420394E-01  0.10888929073E+00  0.13043174542E+00  0.19922908154E-01 0.  0.
         14    1    1    2    0    0 -0.21196737360E-01  0.51907513028E-02 -0.12573869833E-01  0.25186261660E-01  0.00000000000E+00 0.  1.
     999901    1    3    3    0    0  0.89739985042E-02 -0.73082171697E-01 -0.96315420894E-01  0.88831199292E+00  0.88000000000E+00 0. -1.
        -11    1    4    4    0    0  0.13975066257E-03  0.51026238823E-01  0.78793797606E-01  0.93874491960E-01  0.51100000000E-03 0. -1.
         11    1    4    4    0    0  0.12082988194E-01  0.16865181571E-01  0.30095493121E-01  0.36557253457E-01  0.51100000000E-03 0.  1.
</event>
<event>
 8    1  0.1117354E+005  0.1043930E+01  0.7957747E-01            NaN
         13   -1    0    0    0    0  0.00000000000E+00  0.00000000000E+00  0.74505805969E-08  0.10566000000E+00  0.10566000000E+00 0. -1.
     999900   -1    0    0    0    0 -0.00000000000E+00 -0.00000000000E+00 -0.74505805969E-08  0.93827000000E+00  0.93827000000E+00 0. -1.
     999902    2    1    2    0    0 -0.77482669743E-02  0.13629447855E-01  0.18460536303E-01  0.10197104028E+01  0.10194227369E+01 0.  0.
     999903    2    3    3    0    0  0.31780712345E-01  0.12543330020E+00 -0.10271961313E-01  0.13129147116E+00  0.19708138775E-01 0.  0.
         14    1    1    2    0    0  0.77482669743E-02 -0.13629447855E-01 -0.18460536303E-01  0.24219597241E-01  0.00000000000E+00 0.  1.
     999901    1    3    3    0    0 -0.39528979319E-01 -0.11180385234E+00  0.28732497617E-01  0.88841893160E+00  0.88000000000E+00 0.  1.
        -11    1    4    4    0    0  0.12674713054E-01  0.85145334009E-01 -0.10305779220E-01  0.86699748908E-01  0.51100000000E-03 0. -1.
         11    1    4    4    0    0  0.19105999291E-01  0.40287966190E-01  0.33817906547E-04  0.44591722251E-01  0.51100000000E-03 0.  1.
</event>
<event>
 8    1  0.1117354E+005  0.1043930E+01  0.7957747E-01            NaN
         13   -1    0    0    0    0  0.00000000000E+00  0.00000000000E+00  0.74505805969E-08  0.10566000000E+00  0.10566000000E+00 0.  1.
     999900   -1    0    0    0    0 -0.00000000000E+00 -0.00000000000E+00 -0.74505805969E-08  0.93827000000E+00  0.93827000000E+00 0. -1.
     999902    2    1    2    0    0  0.10851633467E-01 -0.75520859491E-02 -0.18665971279E-01  0.10210562064E+01  0.10207999638E+01 0.  0.
     999903    2    3    3    0    0 -0.11431169755E+00  0.27259785601E-01  0.49159088760E-01  0.12893627912E+00  0.19942115161E-01 0.  0.
         14    1    1    2    0    0 -0.10851633467E-01  0.75520859491E-02  0.18665971279E-01  0.22873793626E-01  0.00000000000E+00 0.  1.
     999901    1    3    3    0    0  0.12516333102E+00 -0.34811871550E-01 -0.67825060038E-01  0.89211992725E+00  0.88000000000E+00 0. -1.
        -11    1    4    4    0    0 -0.99196694414E-01  0.29913698138E-01  0.45446392486E-01  0.11313907031E+00  0.51100000000E-03 0.  1.
         11    1    4    4    0    0 -0.15115003140E-01 -0.26539125371E-02  0.37126962733E-02  0.15797208813E-01  0.51100000000E-03 0. -1.
</event>
<event>
 8    1  0.1117354E+005  0.1043930E+01  0.7957747E-01            NaN
         13   -1    0    0    0    0  0.00000000000E+00  0.00000000000E+00  0.74505805969E-08  0.10566000000E+00  0.10566000000E+00 0. -1.
     999900   -1    0    0    0    0 -0.00000000000E+00 -0.00000000000E+00 -0.74505805969E-08  0.93827000000E+00  0.93827000000E+00 0.  1.
     999902    2    1    2    0    0  0.80466066516E-02 -0.32298771916E-01  0.30179656478E-02  0.10105074528E+01  0.10099545759E+01 0.  0.
     999903    2    3    3    0    0  0.86460426609E-01  0.73388075292E-01 -0.33480473741E-01  0.11997358318E+00  0.20285550872E-01 0.  0.
         14    1    1    2    0    0 -0.80466066516E-02  0.32298771916E-01 -0.30179656478E-02  0.33422547218E-01  0.00000000000E+00 0. -1.
     999901    1    3    3    0    0 -0.78413819957E-01 -0.10568684721E+00  0.36498439389E-01  0.89053386960E+00  0.88000000000E+00 0.  1.
        -11    1    4    4    0    0  0.59873095878E-01  0.37902937994E-01 -0.20609425789E-01  0.73799931375E-01  0.51100000000E-03 0.  1.
         11    1    4    4    0    0  0.26587330731E-01  0.35485137298E-01 -0.12871047953E-01  0.46173651803E-01  0.51100000000E-03 0. -1.
</event>
<event>
 8    1  0.1117354E+005  0.1043930E+01  0.7957747E-01            NaN
         13   -1    0    0    0    0  0.00000000000E+00  0.00000000000E+00  0.74505805969E-08  0.10566000000E+00  0.10566000000E+00 0. -1.
     999900   -1    0    0    0    0 -0.00000000000E+00 -0.00000000000E+00 -0.74505805969E-08  0.93827000000E+00  0.93827000000E+00 0. -1.
     999902    2    1    2    0    0 -0.11911917311E-01 -0.80696543178E-02  0.19622249458E-01  0.10195980094E+01  0.10193076351E+01 0.  0.
     999903    2    3    3    0    0  0.10867587506E+00  0.14148756203E-01 -0.61747733987E-01  0.12737822273E+00  0.20044846001E-01 0.  0.
         14    1    1    2    0    0  0.11911917311E-01  0.80696543178E-02 -0.19622249458E-01  0.24331990642E-01  0.00000000000E+00 0.  1.
     999901    1    3    3    0    0 -0.12058779238E+00 -0.22218410521E-01  0.81369983445E-01  0.89221978662E+00  0.88000000000E+00 0.  1.
        -11    1    4    4    0    0  0.62121691473E-01  0.71684517154E-02 -0.23803744081E-01  0.66913157187E-01  0.51100000000E-03 0.  1.
         11    1    4    4    0    0  0.46554183592E-01  0.69803044880E-02 -0.37943989906E-01  0.60465065547E-01  0.51100000000E-03 0. -1.
</event>
<event>
 8    1  0.1117354E+005  0.1043930E+01  0.7957747E-01            NaN
         13   -1    0    0    0    0  0.00000000000E+00  0.00000000000E+00  0.74505805969E-08  0.10566000000E+00  0.10566000000E+00 0. -1.
     999900   -1    0    0    0    0 -0.00000000000E+00 -0.00000000000E+00 -0.74505805969E-08  0.93827000000E+00  0.93827000000E+00 0. -1.
     999902    2    1    2    0    0  0.13717205009E-02 -0.10970156713E-02  0.23098215799E-01  0.10207650991E+01  0.10205022170E+01 0.  0.
     999903    2    3    3    0    0 -0.11750564436E+00  0.27556621867E-01  0.48966731093E-01  0.13193325961E+00  0.21016668895E-01 0.  0.
         14    1    1    2    0    0 -0.13717205009E-02  0.10970156713E-02 -0.23098215799E-01  0.23164900898E-01  0.00000000000E+00 0.  1.
     999901    1    3    3    0    0  0.11887736486E+00 -0.28653637538E-01 -0.25868515294E-01  0.88883183950E+00  0.88000000000E+00 0. -1.
        -11    1    4    4    0    0 -0.88846128789E-01  0.28168026988E-01  0.31619886238E-01  0.98423323821E-01  0.51100000000E-03 0. -1.
         11    1    4    4    0    0 -0.28659515569E-01 -0.61140512129E-03  0.17346844854E-01  0.33509935784E-01  0.51100000000E-03 0.  1.
</event>
<event>
 8    1  0.1117354E+005  0.1043930E+01  0.7957747E-01            NaN
         13   -1    0    0    0    0  0.00000000000E+00  0.00000000000E+00  0.74505805969E-08  0.10566000000E+00  0.10566000000E+00 0. -1.
     999900   -1    0    0    0    0 -0.00000000000E+00 -0.00000000000E+00 -0.74505805969E-08  0.93827000000E+00  0.93827000000E+00 0. -1.
     999902    2    1    2    0    0 -0.15102679109E-01 -0.17614126062E-01 -0.38223617266E-02  0.10204149239E+01  0.10201439399E+01 0.  0.
     999903    2    3    3    0    0 -0.31116483932E-01 -0.68906954373E-01  0.10632953413E+00  0.13192134695E+00  0.19515840244E-01 0.  0.
         14    1    1    2    0    0  0.15102679109E-01  0.17614126062E-01  0.38223617266E-02  0.23515076066E-01  0.00000000000E+00 0.  1.
     999901    1    3    3    0    0  0.16013804824E-01  0.51292828310E-01 -0.11015189585E+00  0.88849357698E+00  0.88000000000E+00 0. -1.
        -11    1    4    4    0    0 -0.16465260932E-02 -0.25547183236E-01  0.32682489478E-01  0.41518379773E-01  0.51100000000E-03 0.  1.
         11    1    4    4    0    0 -0.29469957839E-01 -0.43359771136E-01  0.73647044649E-01  0.90402967178E-01  0.51100000000E-03 0. -1.
</event>
<event>
 8    1  0.1117354E+005  0.1043930E+01  0.7957747E-01            NaN
         13   -1    0    0    0    0  0.00000000000E+00  0.00000000000E+00  0.74505805969E-08  0.10566000000E+00  0.10566000000E+00 0.  1.
     999900   -1    0    0    0    0 -0.00000000000E+00 -0.00000000000E+00 -0.74505805969E-08  0.93827000000E+00  0.93827000000E+00 0.  1.
     999902    2    1    2    0    0 -0.20018815928E-01  0.75499295580E-02  0.10515147871E-01  0.10200904790E+01  0.10198118761E+01 0.  0.
     999903    2    3    3    0    0  0.39375411974E-01  0.46037894530E-01  0.11461207937E+00  0.13113312967E+00  0.19749890073E-01 0.  0.
         14    1    1    2    0    0  0.20018815928E-01 -0.75499295580E-02 -0.10515147871E-01  0.23839521015E-01  0.00000000000E+00 0. -1.
     999901    1    3    3    0    0 -0.59394227901E-01 -0.38487964972E-01 -0.10409693150E+00  0.88895734932E+00  0.88000000000E+00 0.  1.
        -11    1    4    4    0    0  0.21764942042E-01  0.22677254746E-01  0.79113275511E-01  0.85130147821E-01  0.51100000000E-03 0.  1.
         11    1    4    4    0    0  0.17610469932E-01  0.23360639784E-01  0.35498803860E-01  0.46002981848E-01  0.51100000000E-03 0. -1.
</event>
<event>
 8    1  0.1117354E+005  0.1043930E+01  0.7957747E-01            NaN
         13   -1    0    0    0    0  0.00000000000E+00  0.00000000000E+00  0.74505805969E-08  0.10566000000E+00  0.10566000000E+00 0.  1.
     999900   -1    0    0    0    0 -0.00000000000E+00 -0.00000000000E+00 -0.74505805969E-08  0.93827000000E+00  0.93827000000E+00 0. -1.
     999902    2    1    2    0    0 -0.16067166226E-01 -0.13806401861E-02 -0.17821953150E-01  0.10198949836E+01  0.10196117377E+01 0.  0.
     999903    2    3    3    0    0 -0.77014439467E-01 -0.83573236887E-01  0.60537419982E-01  0.13050733787E+00  0.21252675366E-01 0.  0.
         14    1    1    2    0    0  0.16067166226E-01  0.13806401861E-02  0.17821953150E-01  0.24035016371E-01  0.00000000000E+00 0.  1.
     999901    1    3    3    0    0  0.60947273242E-01  0.82192596701E-01 -0.78359373132E-01  0.88938764576E+00  0.88000000000E+00 0. -1.
        -11    1    4    4    0    0 -0.60138691620E-01 -0.67834881349E-01  0.57182035157E-01  0.10718339248E+00  0.51100000000E-03 0.  1.
         11    1    4    4    0    0 -0.16875747847E-01 -0.15738355538E-01  0.33553848255E-02  0.23323945394E-01  0.51100000000E-03 0. -1.
</event>
<event>
 8    1  0.1117354E+005  0.1043930E+01  0.7957747E-01            NaN
         13   -1    0    0    0    0  0.00000000000E+00  0.00000000000E+00  0.74505805969E-08  0.10566000000E+00  0.10566000000E+00 0. -1.
     999900   -1    0    0    0    0 -0.00000000000E+00 -0.00000000000E+00 -0.74505805969E-08  0.93827000000E+00  0.93827000000E+00 0.  1.
     999902    2    1    2    0    0  0.18090058135E-01 -0.61819772808E-02  0.14545974113E-01  0.10199080848E+01  0.10196251512E+01 0.  0.
     999903    2    3    3    0    0 -0.12548114954E+00 -0.15731415165E-01  0.45111101568E-02  0.12816564333E+00  0.20324509953E-01 0.  0.
         14    1    1    2    0    0 -0.18090058135E-01  0.61819772808E-02 -0.14545974113E-01  0.24021915189E-01  0.00000000000E+00 0.  1.
     999901    1    3    3    0    0  0.14357120767E+00  0.95494378842E-02  0.10034863956E-01  0.89174244148E+00  0.88000000000E+00 0.  1.
        -11    1    4    4    0    0 -0.67136074733E-01 -0.16721542143E-01 -0.34195812978E-02  0.69273495361E-01  0.51100000000E-03 0. -1.
         11    1    4    4    0    0 -0.58345074802E-01  0.99012697808E-03  0.79306914545E-02  0.58892147974E-01  0.51100000000E-03 0.  1.
</event>
<event>
 8    1  0.1117354E+005  0.1043930E+01  0.7957747E-01            NaN
         13   -1    0    0    0    0  0.00000000000E+00  0.00000000000E+00  0.74505805969E-08  0.10566000000E+00  0.10566000000E+00 0. -1.
     999900   -1    0    0    0    0 -0.00000000000E+00 -0.00000000000E+00 -0.74505805969E-08  0.93827000000E+00  0.93827000000E+00 0.  1.
     999902    2    1    2    0    0 -0.20213748634E-01 -0.35688992763E-02 -0.10466428621E-01  0.10208891926E+01  0.10206291515E+01 0.  0.
     999903    2    3    3    0    0  0.52248078761E-01 -0.10959474176E+00  0.42638629978E-01  0.12998384247E+00  0.18354219701E-01 0.  0.
         14    1    1    2    0    0  0.20213748634E-01  0.35688992763E-02  0.10466428621E-01  0.23040807363E-01  0.00000000000E+00 0. -1.
     999901    1    3    3    0    0 -0.72461827395E-01  0.10602584249E+00 -0.53105058599E-01  0.89090535017E+00  0.88000000000E+00 0.  1.
        -11    1    4    4    0    0  0.27489543259E-01 -0.73048776824E-01  0.33314370177E-01  0.84864051078E-01  0.51100000000E-03 0. -1.
         11    1    4    4    0    0  0.24758535502E-01 -0.36545964940E-01  0.93242598007E-02  0.45119791393E-01  0.51100000000E-03 0.  1.
</event>
<event>
 8    1  0.1117354E+005  0.1043930E+01  0.7957747E-01            NaN
         13   -1    0    0    0    0  0.00000000000E+00  0.00000000000E+00  0.74505805969E-08  0.10566000000E+00  0.10566000000E+00 0.  1.
     999900   -1    0    0    0    0 -0.00000000000E+00 -0.00000000000E+00 -0.74505805969E-08  0.93827000000E+00  0.93827000000E+00 0.  1.
     999902    2    1    2    0    0  0.59674301611E-02  0.18939315422E-01  0.12684605647E-01  0.10203671667E+01  0.10200950680E+01 0.  0.
     999903    2    3    3    0    0  0.69629608147E-01 -0.64649313678E-01 -0.84393498149E-01  0.12881565949E+00  0.21056958720E-01 0.  0.
         14    1    1    2    0    0 -0.59674301611E-02 -0.18939315422E-01 -0.12684605647E-01  0.23562833272E-01  0.00000000000E+00 0. -1.
     999901    1    3    3    0    0 -0.63662177986E-01  0.83588629100E-01  0.97078103796E-01  0.89155150724E+00  0.88000000000E+00 0. -1.
        -11    1    4    4    0    0  0.21178699615E-01 -0.13737409832E-01 -0.12135868370E-01  0.28014177989E-01  0.51100000000E-03 0.  1.
         11    1    4    4    0    0  0.48450908531E-01 -0.50911903846E-01 -0.72257629779E-01  0.10080148150E+00  0.51100000000E-03 0. -1.
</event>
<event>
 8    1  0.1117354E+005  0.1043930E+01  0.7957747E-01            NaN
         13   -1    0    0    0    0  0.00000000000E+00  0.00000000000E+00  0.74505805969E-08  0.10566000000E+00  0.10566000000E+00 0.  1.
     999900   -1    0    0    0    0 -0.00000000000E+00 -0.00000000000E+00 -0.74505805969E-08  0.93827000000E+00  0.93827000000E+00 0. -1.
     999902    2    1    2    0    0 -0.12068279696E-01  0.19870226743E-01 -0.25098370243E-02  0.10205469171E+01  0.10202790017E+01 0.  0.
     999903    2    3    3    0    0 -0.70174974699E-01  0.11117622457E+00  0.14401533963E-01  0.13375541524E+00  0.19960634800E-01 0.  0.
         14    1    1    2    0    0  0.12068279696E-01 -0.19870226743E-01  0.25098370243E-02  0.23383082935E-01  0.00000000000E+00 0. -1.
     999901    1    3    3    0    0  0.58106695003E-01 -0.91305997827E-01 -0.16911370987E-01  0.88679150183E+00  0.88000000000E+00 0. -1.
        -11    1    4    4    0    0 -0.33940803737E-01  0.53951899523E-01  0.17007593309E-01  0.65972001422E-01  0.51100000000E-03 0.  1.
         11    1    4    4    0    0 -0.36234170962E-01  0.57224325046E-01 -0.26060593456E-02  0.67783413816E-01  0.51100000000E-03 0. -1.
</event>
<event>
 8    1  0.1117354E+005  0.1043930E+01  0.7957747E-01            NaN
         13   -1    0    0    0    0  0.00000000000E+00  0.00000000000E+00  0.74505805969E-08  0.10566000000E+00  0.10566000000E+00 0. -1.
     999900   -1    0    0    0    0 -0.00000000000E+00 -0.00000000000E+00 -0.74505805969E-08  0.93827000000E+00  0.93827000000E+00 0.  1.
     999902    2    1    2    0    0  0.41982389185E-02  0.71122374952E-02 -0.21864363848E-01  0.10205578042E+01  0.10202901411E+01 0.  0.
     999903    2    3    3    0    0  0.32581524720E-01 -0.45625160658E-01  0.11345637964E+00  0.12820218687E+00  0.20499746323E-01 0.  0.
         14    1    1    2    0    0 -0.41982389185E-02 -0.71122374952E-02  0.21864363848E-01  0.23372195846E-01  0.00000000000E+00 0. -1.
     999901    1    3    3    0    0 -0.28383285802E-01  0.52737398153E-01 -0.13532074349E+00  0.89235561728E+00  0.88000000000E+00 0.  1.
        -11    1    4    4    0    0  0.26892395545E-01 -0.34711139725E-01  0.66754244533E-01  0.79902781199E-01  0.51100000000E-03 0.  1.
         11    1    4    4    0    0  0.56891291752E-02 -0.10914020932E-01  0.46702135108E-01  0.48299405672E-01  0.51100000000E-03 0. -1.
</event>
<event>
 8    1  0.1117354E+005  0.1043930E+01  0.7957747E-01            NaN
         13   -1    0    0    0    0  0.00000000000E+00  0.00000000000E+00  0.74505805969E-08  0.10566000000E+00  0.10566000000E+00 0.  1.
     999900   -1    0    0    0    0 -0.00000000000E+00 -0.00000000000E+00 -0.74505805969E-08  0.93827000000E+00  0.93827000000E+00 0. -1.
     999902    2    1    2    0    0  0.87128535947E-02  0.84880249592E-02 -0.21150645658E-01  0.10195310206E+01  0.10192390258E+01 0.  0.
     999903    2    3    3    0    0 -0.11413259558E+00  0.53378560046E-01 -0.25537781304E-01  0.12985388167E+00  0.18284754962E-01 0.  0.
         14    1    1    2    0    0 -0.87128535947E-02 -0.84880249592E-02  0.21150645658E-01  0.24398979430E-01  0.00000000000E+00 0.  1.
     999901    1    3    3    0    0  0.12284544918E+00 -0.44890535087E-01  0.43871356466E-02  0.88967713890E+00  0.88000000000E+00 0.  1.
        -11    1    4    4    0    0 -0.35409326450E-01  0.10589961542E-01 -0.10981714420E-02  0.36978842419E-01  0.51100000000E-03 0.  1.
         11    1    4    4    0    0 -0.78723269131E-01  0.42788598504E-01 -0.24439609862E-01  0.92875039251E-01  0.51100000000E-03 0. -1.
</event>
<event>
 8    1  0.1117354E+005  0.1043930E+01  0.7957747E-01            NaN
         13   -1    0    0    0    0  0.00000000000E+00  0.00000000000E+00  0.74505805969E-08  0.10566000000E+00  0.10566000000E+00 0. -1.
     999900   -1    0    0    0    0 -0.00000000000E+00 -0.00000000000E+00 -0.74505805969E-08  0.93827000000E+00  0.93827000000E+00 0.  1.
     999902    2    1    2    0    0 -0.19800487700E-01 -0.28921092638E-02 -0.12220725140E-01  0.10204828310E+01  0.10202134280E+01 0.  0.
     999903    2    3    3    0    0 -0.89924091966E-02  0.55955220932E-02  0.12770930923E+00  0.12932107863E+00  0.17381036273E-01 0.  0.
         14    1    1    2    0    0  0.19800487700E-01  0.28921092638E-02  0.12220725140E-01  0.23447168957E-01  0.00000000000E+00 0. -1.
     999901    1    3    3    0    0 -0.10808078503E-01 -0.84876313569E-02 -0.13993003437E+00  0.89116175241E+00  0.88000000000E+00 0.  1.
        -11    1    4    4    0    0 -0.86575254499E-02  0.93641691356E-02  0.12040126300E+00  0.12107586739E+00  0.51100000000E-03 0. -1.
         11    1    4    4    0    0 -0.33488374672E-03 -0.37686470425E-02  0.73080462324E-02  0.82452112398E-02  0.51100000000E-03 0.  1.
</event>
<event>
 8    1  0.1117354E+005  0.1043930E+01  0.7957747E-01            NaN
         13   -1    0    0    0    0  0.00000000000E+00  0.00000000000E+00  0.74505805969E-08  0.10566000000E+00  0.10566000000E+00 0.  1.
     999900   -1    0    0    0    0 -0.00000000000E+00 -0.00000000000E+00 -0.74505805969E-08  0.93827000000E+00  0.93827000000E+00 0. -1.
     999902    2    1    2    0    0 -0.21540833061E-01  0.99020508272E-02 -0.73378879721E-03  0.10202108823E+01  0.10199351194E+01 0.  0.
     999903    2    3    3    0    0 -0.67418921536E-01 -0.46394773127E-01 -0.10105281043E+00  0.13153881819E+00  0.19824334569E-01 0.  0.
         14    1    1    2    0    0  0.21540833061E-01 -0.99020508272E-02  0.73378879721E-03  0.23719117723E-01  0.00000000000E+00 0.  1.
     999901    1    3    3    0    0  0.45878088475E-01  0.56296823954E-01  0.10031902163E+00  0.88867206409E+00  0.88000000000E+00 0.  1.
        -11    1    4    4    0    0 -0.55237976516E-01 -0.37227996799E-01 -0.68287947216E-01  0.95397393315E-01  0.51100000000E-03 0.  1.
         11    1    4    4    0    0 -0.12180945021E-01 -0.91667763279E-02 -0.32764863210E-01  0.36141424875E-01  0.51100000000E-03 0. -1.
</event>
<event>
 8    1  0.1117354E+005  0.1043930E+01  0.7957747E-01            NaN
         13   -1    0    0    0    0  0.00000000000E+00  0.00000000000E+00  0.74505805969E-08  0.10566000000E+00  0.10566000000E+00 0. -1.
     999900   -1    0    0    0    0 -0.00000000000E+00 -0.00000000000E+00 -0.74505805969E-08  0.93827000000E+00  0.93827000000E+00 0. -1.
     999902    2    1    2    0    0  0.25282509396E-01  0.92299936417E-02  0.52486349892E-02  0.10165083620E+01  0.10161384274E+01 0.  0.
     999903    2    3    3    0    0 -0.64287062216E-02 -0.70922325953E-01  0.10280397548E+00  0.12693147377E+00  0.21717206897E-01 0.  0.
         14    1    1    2    0    0 -0.25282509396E-01 -0.92299936417E-02 -0.52486349892E-02  0.27421638048E-01  0.00000000000E+00 0.  1.
     999901    1    3    3    0    0  0.31711215617E-01  0.80152319595E-01 -0.97555340494E-01  0.88957688818E+00  0.88000000000E+00 0. -1.
        -11    1    4    4    0    0  0.58238036342E-02 -0.48453965723E-01  0.69589936725E-01  0.84998375852E-01  0.51100000000E-03 0.  1.
         11    1    4    4    0    0 -0.12252509856E-01 -0.22468360230E-01  0.33214038759E-01  0.41933097916E-01  0.51100000000E-03 0. -1.
</event>
<event>
 8    1  0.1117354E+005  0.1043930E+01  0.7957747E-01            NaN
         13   -1    0    0    0    0  0.00000000000E+00  0.00000000000E+00  0.74505805969E-08  0.10566000000E+00  0.10566000000E+00 0. -1.
     999900   -1    0    0    0    0 -0.00000000000E+00 -0.00000000000E+00 -0.74505805969E-08  0.93827000000E+00  0.93827000000E+00 0.  1.
     999902    2    1    2    0    0 -0.12350001479E-01  0.76063486360E-04  0.19669355841E-01  0.10207047577E+01  0.10204404884E+01 0.  0.
     999903    2    3    3    0    0  0.12371510642E+00 -0.22074995990E-01  0.26194619963E-01  0.12994835882E+00  0.20191206961E-01 0.  0.
         14    1    1    2    0    0  0.12350001479E-01 -0.76063486360E-04 -0.19669355841E-01  0.23225242332E-01  0.00000000000E+00 0.  1.
     999901    1    3    3    0    0 -0.13606510790E+00  0.22151059476E-01 -0.65252641216E-02  0.89075639885E+00  0.88000000000E+00 0.  1.
        -11    1    4    4    0    0  0.91269052555E-01 -0.76745837396E-02  0.15704745393E-01  0.92929216820E-01  0.51100000000E-03 0.  1.
         11    1    4    4    0    0  0.32446053868E-01 -0.14400412250E-01  0.10489874570E-01  0.37019141995E-01  0.51100000000E-03 0. -1.
</event>
<event>
 8    1  0.1117354E+005  0.1043930E+01  0.7957747E-01            NaN
         13   -1    0    0    0    0  0.00000000000E+00  0.00000000000E+00  0.74505805969E-08  0.10566000000E+00  0.10566000000E+00 0.  1.
     999900   -1    0    0    0    0 -0.00000000000E+00 -0.00000000000E+00 -0.74505805969E-08  0.93827000000E+00  0.93827000000E+00 0.  1.
     999902    2    1    2    0    0  0.20598079585E-01 -0.69557059386E-02  0.99040996454E-02  0.10200395434E+01  0.10197597345E+01 0.  0.
     999903    2    3    3    0    0 -0.35998656660E-01 -0.12315967446E+00  0.11912212050E-01  0.13059556798E+00  0.21191811764E-01 0.  0.
         14    1    1    2    0    0 -0.20598079585E-01  0.69557059386E-02 -0.99040996454E-02  0.23890456619E-01  0.00000000000E+00 0. -1.
     999901    1    3    3    0    0  0.56596736245E-01  0.11620396852E+00 -0.20081124044E-02  0.88944397540E+00  0.88000000000E+00 0.  1.
        -11    1    4    4    0    0 -0.13140179101E-01 -0.38068983551E-01  0.13481395345E-01  0.42472590654E-01  0.51100000000E-03 0. -1.
         11    1    4    4    0    0 -0.22858477559E-01 -0.85090690912E-01 -0.15691832951E-02  0.88122977330E-01  0.51100000000E-03 0.  1.
</event>
<event>
 8    1  0.1117354E+005  0.1043930E+01  0.7957747E-01            NaN
         13   -1    0    0    0    0  0.00000000000E+00  0.00000000000E+00  0.74505805969E-08  0.10566000000E+00  0.10566000000E+00 0. -1.
     999900   -1    0    0    0    0 -0.00000000000E+00 -0.00000000000E+00 -0.74505805969E-08  0.93827000000E+00  0.93827000000E+00 0.  1.
     999902    2    1    2    0    0 -0.11986512060E-01  0.12938142861E-01 -0.18002732144E-01  0.10187274133E+01  0.10184156186E+01 0.  0.
     999903    2    3    3    0    0  0.41759995169E-01 -0.11530061565E+00  0.24039307858E-01  0.12681856181E+00  0.21608566158E-01 0.  0.
         14    1    1    2    0    0  0.11986512060E-01 -0.12938142861E-01  0.18002732144E-01  0.25202586706E-01  0.00000000000E+00 0. -1.
     999901    1    3    3    0    0 -0.53746507229E-01  0.12823875851E+00 -0.42042040001E-01  0.89190885148E+00  0.88000000000E+00 0.  1.
        -11    1    4    4    0    0  0.23121172947E-01 -0.34396623333E-01  0.63835287285E-02  0.41937177960E-01  0.51100000000E-03 0.  1.
         11    1    4    4    0    0  0.18638822222E-01 -0.80903992319E-01  0.17655779129E-01  0.84881383852E-01  0.51100000000E-03 0. -1.
</event>
<event>
 8    1  0.1117354E+005  0.1043930E+01  0.7957747E-01            NaN
         13   -1    0    0    0    0  0.00000000000E+00  0.00000000000E+00  0.74505805969E-08  0.10566000000E+00  0.10566000000E+00 0.  1.
     999900   -1    0    0    0    0 -0.00000000000E+00 -0.00000000000E+00 -0.74505805969E-08  0.93827000000E+00  0.93827000000E+00 0. -1.
     999902    2    1    2    0    0  0.19946316174E-01  0.80813737586E-02 -0.35922044855E-02  0.10221110160E+01  0.10218781047E+01 0.  0.
     999903    2    3    3    0    0  0.38391439532E-02 -0.12098315134E+00 -0.46955961705E-01  0.13149465183E+00  0.20840325961E-01 0.  0.
         14    1    1    2    0    0 -0.19946316174E-01 -0.80813737586E-02  0.35922044855E-02  0.21818984024E-01  0.00000000000E+00 0.  1.
     999901    1    3    3    0    0  0.16107172221E-01  0.12906452510E+00  0.43363757219E-01  0.89061636414E+00  0.88000000000E+00 0.  1.
        -11    1    4    4    0    0 -0.39055687858E-02 -0.31378406683E-01 -0.20712620936E-01  0.37803857747E-01  0.51100000000E-03 0. -1.
         11    1    4    4    0    0  0.77447127390E-02 -0.89604744661E-01 -0.26243340769E-01  0.93690794088E-01  0.51100000000E-03 0.  1.
</event>
<event>
 8    1  0.1117354E+005  0.1043930E+01  0.7957747E-01            NaN
         13   -1    0    0    0    0  0.00000000000E+00  0.00000000000E+00  0.74505805969E-08  0.10566000000E+00  0.10566000000E+00 0.  1.
     999900   -1    0    0    0    0 -0.00000000000E+00 -0.00000000000E+00 -0.74505805969E-08  0.93827000000E+00  0.93827000000E+00 0. -1.
     999902    2    1    2    0    0 -0.56753936715E-02 -0.85746545101E-02 -0.21651153431E-01  0.10199611194E+01  0.10196794486E+01 0.  0.
     999903    2    3    3    0    0  0.53718741470E-01 -0.11641131331E+00 -0.20498197088E-01  0.13139050453E+00  0.20149231867E-01 0.  0.
         14    1    1    2    0    0  0.56753936715E-02  0.85746545101E-02  0.21651153431E-01  0.23968880620E-01  0.00000000000E+00 0.  1.
     999901    1    3    3    0    0 -0.59394135142E-01  0.10783665880E+00 -0.11529563433E-02  0.88857061485E+00  0.88000000000E+00 0. -1.
        -11    1    4    4    0    0  0.30355537228E-01 -0.65755558184E-01 -0.21649345815E-01  0.75592376386E-01  0.51100000000E-03 0.  1.
         11    1    4    4    0    0  0.23363204242E-01 -0.50655755125E-01  0.11511487275E-02  0.55798128142E-01  0.51100000000E-03 0. -1.
</event>
<event>
 8    1  0.1117354E+005  0.1043930E+01  0.7957747E-01            NaN
         13   -1    0    0    0    0  0.00000000000E+00  0.00000000000E+00  0.74505805969E-08  0.10566000000E+00  0.10566000000E+00 0.  1.
     999900   -1    0    0    0    0 -0.00000000000E+00 -0.00000000000E+00 -0.74505805969E-08  0.93827000000E+00  0.93827000000E+00 0. -1.
     999902    2    1    2    0    0 -0.16377266643E-01  0.12836293171E-01  0.39744208766E-02  0.10227455409E+01  0.10225261171E+01 0.  0.
     999903    2    3    3    0    0 -0.37441616281E-01  0.95870031583E-01  0.84931470430E-01  0.13488724569E+00  0.19704740427E-01 0.  0.
         14    1    1    2    0    0  0.16377266643E-01 -0.12836293171E-01 -0.39744208766E-02  0.21184459076E-01  0.00000000000E+00 0. -1.
     999901    1    3    3    0    0  0.21064349638E-01 -0.83033738412E-01 -0.80957049554E-01  0.88785829523E+00  0.88000000000E+00 0.  1.
        -11    1    4    4    0    0 -0.31969239344E-01  0.86048738323E-01  0.82392275271E-01  0.12334977007E+00  0.51100000000E-03 0. -1.
         11    1    4    4    0    0 -0.54723769364E-02  0.98212932605E-02  0.25391951595E-02  0.11537475621E-01  0.51100000000E-03 0.  1.
</event>
<event>
 8    1  0.1117354E+005  0.1043930E+01  0.7957747E-01            NaN
         13   -1    0    0    0    0  0.00000000000E+00  0.00000000000E+00  0.74505805969E-08  0.10566000000E+00  0.10566000000E+00 0. -1.
     999900   -1    0    0    0    0 -0.00000000000E+00 -0.00000000000E+00 -0.74505805969E-08  0.93827000000E+00  0.93827000000E+00 0. -1.
     999902    2    1    2    0    0  0.87492713815E-02  0.14320970907E-01  0.15225216447E-01  0.10212706273E+01  0.10210192197E+01 0.  0.
     999903    2    3    3    0    0  0.98828582154E-02 -0.12106118906E+00  0.43494848090E-01  0.13046829995E+00  0.19408583112E-01 0.  0.
         14    1    1    2    0    0 -0.87492713815E-02 -0.14320970907E-01 -0.15225216447E-01  0.22659372747E-01  0.00000000000E+00 0.  1.
     999901    1    3    3    0    0 -0.11335868339E-02  0.13538215997E+00 -0.28269631643E-01  0.89080232730E+00  0.88000000000E+00 0. -1.
        -11    1    4    4    0    0 -0.27586655167E-02 -0.25613839830E-01  0.16026478217E-01  0.30344491284E-01  0.51100000000E-03 0.  1.
         11    1    4    4    0    0  0.12641523732E-01 -0.95447349230E-01  0.27468369873E-01  0.10012380867E+00  0.51100000000E-03 0. -1.
</event>
<event>
 8    1  0.1117354E+005  0.1043930E+01  0.7957747E-01            NaN
         13   -1    0    0    0    0  0.00000000000E+00  0.00000000000E+00  0.74505805969E-08  0.10566000000E+00  0.10566000000E+00 0. -1.
     999900   -1    0    0    0    0 -0.00000000000E+00 -0.00000000000E+00 -0.74505805969E-08  0.93827000000E+00  0.93827000000E+00 0. -1.
     999902    2    1    2    0    0  0.22475835669E-02 -0.17130323762E-01  0.15780592735E-01  0.10205307109E+01  0.10202624197E+01 0.  0.
     999903    2    3    3    0    0  0.10963930991E+00 -0.25926852007E-01  0.66705301991E-01  0.13249710352E+00  0.20320068772E-01 0.  0.
         14    1    1    2    0    0 -0.22475835669E-02  0.17130323762E-01 -0.15780592735E-01  0.23399289116E-01  0.00000000000E+00 0.  1.
     999901    1    3    3    0    0 -0.10739172634E+00  0.87965282448E-02 -0.50924709256E-01  0.88803360736E+00  0.88000000000E+00 0. -1.
        -11    1    4    4    0    0  0.41098889646E-01 -0.86110777411E-03  0.18864310904E-01  0.45232550045E-01  0.51100000000E-03 0.  1.
         11    1    4    4    0    0  0.68540420264E-01 -0.25065744232E-01  0.47840991087E-01  0.87264553474E-01  0.51100000000E-03 0. -1.
</event>
<event>
 8    1  0.1117354E+005  0.1043930E+01  0.7957747E-01            NaN
         13   -1    0    0    0    0  0.00000000000E+00  0.00000000000E+00  0.74505805969E-08  0.10566000000E+00  0.10566000000E+00 0.  1.
     999900   -1    0    0    0    0 -0.00000000000E+00 -0.00000000000E+00 -0.74505805969E-08  0.93827000000E+00  0.93827000000E+00 0.  1.
     999902    2    1    2    0    0  0.23848013171E-01  0.29862534135E-02  0.17080428994E-01  0.10144446393E+01  0.10140160451E+01 0.  0.
     999903    2    3    3    0    0 -0.53766641711E-01 -0.10871253577E+00  0.16712558933E-01  0.12399487120E+00  0.19650731900E-01 0.  0.
         14    1    1    2    0    0 -0.23848013171E-01 -0.29862534135E-02 -0.17080428994E-01  0.29485360711E-01  0.00000000000E+00 0. -1.
     999901    1    3    3    0    0  0.77614654882E-01  0.11169878918E+00  0.36787006028E-03  0.89044976809E+00  0.88000000000E+00 0. -1.
        -11    1    4    4    0    0 -0.14072053513E-01 -0.45716689688E-01  0.74829500515E-03  0.47842026217E-01  0.51100000000E-03 0. -1.
         11    1    4    4    0    0 -0.39694588197E-01 -0.62995846081E-01  0.15964263928E-01  0.76152844985E-01  0.51100000000E-03 0.  1.
</event>
<event>
 8    1  0.1117354E+005  0.1043930E+01  0.7957747E-01            NaN
         13   -1    0    0    0    0  0.00000000000E+00  0.00000000000E+00  0.74505805969E-08  0.10566000000E+00  0.10566000000E+00 0.  1.
     999900   -1    0    0    0    0 -0.00000000000E+00 -0.00000000000E+00 -0.74505805969E-08  0.93827000000E+00  0.93827000000E+00 0. -1.
     999902    2    1    2    0    0  0.10581712783E-01 -0.10639258654E-01  0.17774529289E-01  0.10206684360E+01  0.10204033300E+01 0.  0.
     999903    2    3    3    0    0  0.82245998701E-01  0.94027326642E-01 -0.31378389311E-01  0.13021525170E+00  0.19127624044E-01 0.  0.
         14    1    1    2    0    0 -0.10581712783E-01  0.10639258654E-01 -0.17774529289E-01  0.23261564040E-01  0.00000000000E+00 0. -1.
     999901    1    3    3    0    0 -0.71664285918E-01 -0.10466658530E+00  0.49152918600E-01  0.89045318426E+00  0.88000000000E+00 0.  1.
        -11    1    4    4    0    0  0.54724886855E-01  0.75289250286E-01 -0.22840747671E-01  0.95839685543E-01  0.51100000000E-03 0. -1.
         11    1    4    4    0    0  0.27521111846E-01  0.18738076357E-01 -0.85376416407E-02  0.34375566156E-01  0.51100000000E-03 0.  1.
</event>
<event>
 8    1  0.1117354E+005  0.1043930E+01  0.7957747E-01            NaN
         13   -1    0    0    0    0  0.00000000000E+00  0.00000000000E+00  0.74505805969E-08  0.10566000000E+00  0.10566000000E+00 0. -1.
     999900   -1    0    0    0    0 -0.00000000000E+00 -0.00000000000E+00 -0.74505805969E-08  0.93827000000E+00  0.93827000000E+00 0.  1.
     999902    2    1    2    0    0 -0.12254913962E-01 -0.20965091297E-01  0.35771435552E-03  0.10196432561E+01  0.10193539737E+01 0.  0.
     999903    2    3    3    0    0 -0.38153335847E-01 -0.88287753912E-01 -0.88886981227E-01  0.13219315337E+00  0.17992493982E-01 0.  0.
         14    1    1    2    0    0  0.12254913962E-01  0.20965091297E-01 -0.35771435552E-03  0.24286743892E-01  0.00000000000E+00 0. -1.
     999901    1    3    3    0    0  0.25898421885E-01  0.67322662614E-01  0.89244695582E-01  0.88745010274E+00  0.88000000000E+00 0. -1.
        -11    1    4    4    0    0 -0.21885792123E-01 -0.32371637697E-01 -0.42537914631E-01  0.57763709422E-01  0.51100000000E-03 0. -1.
         11    1    4    4    0    0 -0.16267543724E-01 -0.55916116214E-01 -0.46349066596E-01  0.74429443949E-01  0.51100000000E-03 0.  1.
</event>
<event>
 8    1  0.1117354E+005  0.1043930E+01  0.7957747E-01            NaN
         13   -1    0    0    0    0  0.00000000000E+00  0.00000000000E+00  0.74505805969E-08  0.10566000000E+00  0.10566000000E+00 0.  1.
     999900   -1    0    0    0    0 -0.00000000000E+00 -0.00000000000E+00 -0.74505805969E-08  0.93827000000E+00  0.93827000000E+00 0.  1.
     999902    2    1    2    0    0  0.19388403813E-01 -0.30616982482E-02  0.92694237549E-02  0.10222227105E+01  0.10219922033E+01 0.  0.
     999903    2    3    3    0    0  0.90103315251E-01 -0.87247308160E-01 -0.41877803216E-01  0.13390753312E+00  0.21137095946E-01 0.  0.
         14    1    1    2    0    0 -0.19388403813E-01  0.30616982482E-02 -0.92694237549E-02  0.21707289451E-01  0.00000000000E+00 0. -1.
     999901    1    3    3    0    0 -0.70714911438E-01  0.84185609911E-01  0.51147226971E-01  0.88831517742E+00  0.88000000000E+00 0. -1.
        -11    1    4    4    0    0  0.44502968132E-01 -0.28681455566E-01 -0.16363442906E-01  0.55418078735E-01  0.51100000000E-03 0. -1.
         11    1    4    4    0    0  0.45600347119E-01 -0.58565852593E-01 -0.25514360310E-01  0.78489454389E-01  0.51100000000E-03 0.  1.
</event>
<event>
 8    1  0.1117354E+005  0.1043930E+01  0.7957747E-01            NaN
         13   -1    0    0    0    0  0.00000000000E+00  0.00000000000E+00  0.74505805969E-08  0.10566000000E+00  0.10566000000E+00 0. -1.
     999900   -1    0    0    0    0 -0.00000000000E+00 -0.00000000000E+00 -0.74505805969E-08  0.93827000000E+00  0.93827000000E+00 0.  1.
     999902    2    1    2    0    0 -0.18268517308E-02 -0.18878298108E-01 -0.15518034507E-01  0.10194241452E+01  0.10191295555E+01 0.  0.
     999903    2    3    3    0    0 -0.58830339646E-01  0.10533761986E+00  0.36621387954E-01  0.12734931013E+00  0.17880092676E-01 0.  0.
         14    1    1    2    0    0  0.18268517308E-02  0.18878298108E-01  0.15518034507E-01  0.24505854844E-01  0.00000000000E+00 0.  1.
     999901    1    3    3    0    0  0.57003487915E-01 -0.12421591797E+00 -0.52139422461E-01  0.89207483503E+00  0.88000000000E+00 0.  1.
        -11    1    4    4    0    0 -0.17739371697E-01  0.40230400246E-01  0.55304478147E-02  0.44317235769E-01  0.51100000000E-03 0.  1.
         11    1    4    4    0    0 -0.41090967949E-01  0.65107219615E-01  0.31090940139E-01  0.83032074361E-01  0.51100000000E-03 0. -1.
</event>
<event>
 8    1  0.1117354E+005  0.1043930E+01  0.7957747E-01            NaN
         13   -1    0    0    0    0  0.00000000000E+00  0.00000000000E+00  0.74505805969E-08  0.10566000000E+00  0.10566000000E+00 0.  1.
     999900   -1    0    0    0    0 -0.00000000000E+00 -0.00000000000E+00 -0.74505805969E-08  0.93827000000E+00  0.93827000000E+00 0. -1.
     999902    2    1    2    0    0 -0.25248585864E-01  0.17024471277E-01  0.16476334823E-01  0.10093064052E+01  0.10087123605E+01 0.  0.
     999903    2    3    3    0    0 -0.11374470311E+00  0.20474692539E-01 -0.37041895920E-01  0.12324338945E+00  0.21442025786E-01 0.  0.
         14    1    1    2    0    0  0.25248585864E-01 -0.17024471277E-01 -0.16476334823E-01  0.34623594839E-01  0.00000000000E+00 0. -1.
     999901    1    3    3    0    0  0.88496117242E-01 -0.34502212618E-02  0.53518230743E-01  0.88606301571E+00  0.88000000000E+00 0.  1.
        -11    1    4    4    0    0 -0.79256670915E-01  0.41058863862E-02 -0.25310136302E-01  0.83302714890E-01  0.51100000000E-03 0.  1.
         11    1    4    4    0    0 -0.34488032191E-01  0.16368806153E-01 -0.11731759618E-01  0.39940674556E-01  0.51100000000E-03 0. -1.
</event>
<event>
 8    1  0.1117354E+005  0.1043930E+01  0.7957747E-01            NaN
         13   -1    0    0    0    0  0.00000000000E+00  0.00000000000E+00  0.74505805969E-08  0.10566000000E+00  0.10566000000E+00 0. -1.
     999900   -1    0    0    0    0 -0.00000000000E+00 -0.00000000000E+00 -0.74505805969E-08  0.93827000000E+00  0.93827000000E+00 0. -1.
     999902    2    1    2    0    0  0.26204123787E-02 -0.23502303845E-01  0.48907923652E-03  0.10202770077E+01  0.10200027982E+01 0.  0.
     999903    2    3    3    0    0 -0.30712991945E-01 -0.11587783451E+00  0.53486564225E-01  0.13322960877E+00  0.22767426197E-01 0.  0.
         14    1    1    2    0    0 -0.26204123787E-02  0.23502303845E-01 -0.48907923652E-03  0.23652992317E-01  0.00000000000E+00 0.  1.
     999901    1    3    3    0    0  0.33333404323E-01  0.92375530660E-01 -0.52997484988E-01  0.88704739892E+00  0.88000000000E+00 0.  1.
        -11    1    4    4    0    0  0.17250502632E-02 -0.84034380492E-02  0.90796358587E-02  0.12501778985E-01  0.51100000000E-03 0. -1.
         11    1    4    4    0    0 -0.32438042208E-01 -0.10747439646E+00  0.44406928366E-01  0.12072782978E+00  0.51100000000E-03 0.  1.
</event>
<event>
 8    1  0.1117354E+005  0.1043930E+01  0.7957747E-01            NaN
         13   -1    0    0    0    0  0.00000000000E+00  0.00000000000E+00  0.74505805969E-08  0.10566000000E+00  0.10566000000E+00 0. -1.
     999900   -1    0    0    0    0 -0.00000000000E+00 -0.00000000000E+00 -0.74505805969E-08  0.93827000000E+00  0.93827000000E+00 0.  1.
     999902    2    1    2    0    0 -0.31855566498E-02 -0.15093898892E-01 -0.18546722270E-01  0.10198062677E+01  0.10195209017E+01 0.  0.
     999903    2    3    3    0    0 -0.41851042610E-01 -0.85386005408E-01 -0.91055079513E-01  0.13318714881E+00  0.20137264363E-01 0.  0.
         14    1    1    2    0    0  0.31855566498E-02  0.15093898892E-01  0.18546722270E-01  0.24123732338E-01  0.00000000000E+00 0. -1.
     999901    1    3    3    0    0  0.38665485960E-01  0.70292106516E-01  0.72508357243E-01  0.88661911885E+00  0.88000000000E+00 0. -1.
        -11    1    4    4    0    0 -0.28092533849E-01 -0.53757543361E-01 -0.44430100188E-01  0.75188821311E-01  0.51100000000E-03 0.  1.
         11    1    4    4    0    0 -0.13758508761E-01 -0.31628462047E-01 -0.46624979325E-01  0.57998327500E-01  0.51100000000E-03 0. -1.
</event>
<event>
 8    1  0.1117354E+005  0.1043930E+01  0.7957747E-01            NaN
         13   -1    0    0    0    0  0.00000000000E+00  0.00000000000E+00  0.74505805969E-08  0.10566000000E+00  0.10566000000E+00 0. -1.
     999900   -1    0    0    0    0 -0.00000000000E+00 -0.00000000000E+00 -0.74505805969E-08  0.93827000000E+00  0.93827000000E+00 0. -1.
     999902    2    1    2    0    0  0.11827048819E-02  0.46203202307E-02  0.23158895924E-01  0.10202851145E+01  0.10200110952E+01 0.  0.
     999903    2    3    3    0    0  0.12161026201E+00  0.29655645572E-01  0.35766668194E-01  0.13164091126E+00  0.19533607550E-01 0.  0.
         14    1    1    2    0    0 -0.11827048819E-02 -0.46203202307E-02 -0.23158895924E-01  0.23644885500E-01  0.00000000000E+00 0.  1.
     999901    1    3    3    0    0 -0.12042755713E+00 -0.25035325341E-01 -0.12607772270E-01  0.88864420324E+00  0.88000000000E+00 0. -1.
        -11    1    4    4    0    0  0.70041472963E-01  0.83231261680E-02  0.24767229074E-01  0.74758003726E-01  0.51100000000E-03 0.  1.
         11    1    4    4    0    0  0.51568789045E-01  0.21332519404E-01  0.10999439120E-01  0.56882907535E-01  0.51100000000E-03 0. -1.
</event>
<event>
 8    1  0.1117354E+005  0.1043930E+01  0.7957747E-01            NaN
         13   -1    0    0    0    0  0.00000000000E+00  0.00000000000E+00  0.74505805969E-08  0.10566000000E+00  0.10566000000E+00 0. -1.
     999900   -1    0    0    0    0 -0.00000000000E+00 -0.00000000000E+00 -0.74505805969E-08  0.93827000000E+00  0.93827000000E+00 0. -1.
     999902    2    1    2    0    0  0.56028565402E-03 -0.14617725858E-01 -0.35032493564E-03  0.10292973462E+01  0.10291933309E+01 0.  0.
     999903    2    3    3    0    0  0.62382432256E-01  0.76632338383E-01  0.93490674695E-01  0.13747074578E+00  0.19839771906E-01 0.  0.
         14    1    1    2    0    0 -0.56028565402E-03  0.14617725858E-01  0.35032493564E-03  0.14632653787E-01  0.00000000000E+00 0. -1.
     999901    1    3    3    0    0 -0.61822146602E-01 -0.91250064242E-01 -0.93840999631E-01  0.89182660044E+00  0.88000000000E+00 0. -1.
        -11    1    4    4    0    0  0.62735138942E-01  0.69883111625E-01  0.85622669001E-01  0.12708599261E+00  0.51100000000E-03 0. -1.
         11    1    4    4    0    0 -0.35270668688E-03  0.67492267579E-02  0.78680056935E-02  0.10384753171E-01  0.51100000000E-03 0.  1.
</event>
<event>
 8    1  0.1117354E+005  0.1043930E+01  0.7957747E-01            NaN
         13   -1    0    0    0    0  0.00000000000E+00  0.00000000000E+00  0.74505805969E-08  0.10566000000E+00  0.10566000000E+00 0. -1.
     999900   -1    0    0    0    0 -0.00000000000E+00 -0.00000000000E+00 -0.74505805969E-08  0.93827000000E+00  0.93827000000E+00 0. -1.
     999902    2    1    2    0    0  0.14068962382E-01  0.89739964329E-02  0.14334373903E-01  0.10219313048E+01  0.10216944989E+01 0.  0.
     999903    2    3    3    0    0  0.72243145641E-01 -0.10736380065E+00 -0.16008812843E-01  0.13185297815E+00  0.19567012429E-01 0.  0.
         14    1    1    2    0    0 -0.14068962382E-01 -0.89739964329E-02 -0.14334373903E-01  0.21998695182E-01  0.00000000000E+00 0.  1.
     999901    1    3    3    0    0 -0.58174183258E-01  0.11633779708E+00  0.30343186746E-01  0.89007832667E+00  0.88000000000E+00 0. -1.
        -11    1    4    4    0    0  0.12740349843E-01 -0.34460205849E-01 -0.32517985333E-02  0.36887092810E-01  0.51100000000E-03 0.  1.
         11    1    4    4    0    0  0.59502795798E-01 -0.72903594802E-01 -0.12757014309E-01  0.94965885337E-01  0.51100000000E-03 0. -1.
</event>
<event>
 8    1  0.1117354E+005  0.1043930E+01  0.7957747E-01            NaN
         13   -1    0    0    0    0  0.00000000000E+00  0.00000000000E+00  0.74505805969E-08  0.10566000000E+00  0.10566000000E+00 0. -1.
     999900   -1    0    0    0    0 -0.00000000000E+00 -0.00000000000E+00 -0.74505805969E-08  0.93827000000E+00  0.93827000000E+00 0.  1.
     999902    2    1    2    0    0 -0.25151299613E-02 -0.70400731375E-02 -0.22727772279E-01  0.10200042787E+01  0.10197236333E+01 0.  0.
     999903    2    3    3    0    0 -0.14866855981E-01 -0.41153420593E-01 -0.12440703689E+00  0.13340687372E+00  0.20140896055E-01 0.  0.
         14    1    1    2    0    0  0.25151299613E-02  0.70400731375E-02  0.22727772279E-01  0.23925721333E-01  0.00000000000E+00 0. -1.
     999901    1    3    3    0    0  0.12351726019E-01  0.34113347456E-01  0.10167926461E+00  0.88659740495E+00  0.88000000000E+00 0. -1.
        -11    1    4    4    0    0 -0.89638704818E-02 -0.30841140832E-02 -0.20651872346E-01  0.22729357362E-01  0.51100000000E-03 0. -1.
         11    1    4    4    0    0 -0.59029854989E-02 -0.38069306510E-01 -0.10375516455E+00  0.11067751636E+00  0.51100000000E-03 0.  1.
</event>
<event>
 8    1  0.1397422E+005  0.1043930E+01  0.7957747E-01            NaN
         13   -1    0    0    0    0  0.00000000000E+00  0.00000000000E+00  0.74505805969E-08  0.10566000000E+00  0.10566000000E+00 0.  1.
     999900   -1    0    0    0    0 -0.00000000000E+00 -0.00000000000E+00 -0.74505805969E-08  0.93827000000E+00  0.93827000000E+00 0.  1.
     999902    2    1    2    0    0 -0.18048900573E-01 -0.28616692262E-01  0.12772255743E-03  0.10100966703E+01  0.10095298852E+01 0.  0.
     999903    2    3    3    0    0  0.67725544618E-01 -0.13909523170E-01 -0.96554691911E-01  0.12053439277E+00  0.20627823019E-01 0.  0.
         14    1    1    2    0    0  0.18048900573E-01  0.28616692262E-01 -0.12772255743E-03  0.33833329735E-01  0.00000000000E+00 0.  1.
     999901    1    3    3    0    0 -0.85774445190E-01 -0.14707169092E-01  0.96682414468E-01  0.88956227749E+00  0.88000000000E+00 0. -1.
        -11    1    4    4    0    0  0.34726828659E-01 -0.16820296722E-01 -0.45351966279E-01  0.59547770545E-01  0.51100000000E-03 0. -1.
         11    1    4    4    0    0  0.32998715959E-01  0.29107735521E-02 -0.51202725632E-01  0.60986622228E-01  0.51100000000E-03 0.  1.
</event>
<event>
 8    1  0.1117354E+005  0.1043930E+01  0.7957747E-01            NaN
         13   -1    0    0    0    0  0.00000000000E+00  0.00000000000E+00  0.74505805969E-08  0.10566000000E+00  0.10566000000E+00 0.  1.
     999900   -1    0    0    0    0 -0.00000000000E+00 -0.00000000000E+00 -0.74505805969E-08  0.93827000000E+00  0.93827000000E+00 0.  1.
     999902    2    1    2    0    0 -0.18670946622E-01  0.13637729428E-01  0.62767083888E-03  0.10208002382E+01  0.10205381621E+01 0.  0.
     999903    2    3    3    0    0  0.59542876374E-01 -0.77209991577E-01  0.82094788080E-01  0.12894397076E+00  0.19500165124E-01 0.  0.
         14    1    1    2    0    0  0.18670946622E-01 -0.13637729428E-01 -0.62767083888E-03  0.23129761832E-01  0.00000000000E+00 0.  1.
     999901    1    3    3    0    0 -0.78213822996E-01  0.90847721005E-01 -0.81467117241E-01  0.89185626741E+00  0.88000000000E+00 0.  1.
        -11    1    4    4    0    0  0.87884465834E-02 -0.13918914552E-01  0.54824323428E-02  0.17357740667E-01  0.51100000000E-03 0.  1.
         11    1    4    4    0    0  0.50754429790E-01 -0.63291077024E-01  0.76612355738E-01  0.11158623010E+00  0.51100000000E-03 0. -1.
</event>
<event>
 8    1  0.1117354E+005  0.1043930E+01  0.7957747E-01            NaN
         13   -1    0    0    0    0  0.00000000000E+00  0.00000000000E+00  0.74505805969E-08  0.10566000000E+00  0.10566000000E+00 0. -1.
     999900   -1    0    0    0    0 -0.00000000000E+00 -0.00000000000E+00 -0.74505805969E-08  0.93827000000E+00  0.93827000000E+00 0. -1.
     999902    2    1    2    0    0 -0.20398366949E-01  0.45519378466E-02 -0.75870808889E-02  0.10216954029E+01  0.10214534346E+01 0.  0.
     999903    2    3    3    0    0 -0.83243715089E-01  0.12990768903E-01  0.10067055691E+00  0.13279694536E+00  0.20054712406E-01 0.  0.
         14    1    1    2    0    0  0.20398366949E-01 -0.45519378466E-02  0.75870808889E-02  0.22234597113E-01  0.00000000000E+00 0. -1.
     999901    1    3    3    0    0  0.62845348140E-01 -0.84388310563E-02 -0.10825763780E+00  0.88889845753E+00  0.88000000000E+00 0. -1.
        -11    1    4    4    0    0 -0.21214966068E-01  0.81378507507E-02  0.39324969446E-01  0.45420411084E-01  0.51100000000E-03 0.  1.
         11    1    4    4    0    0 -0.62028749020E-01  0.48529181523E-02  0.61345587465E-01  0.87376534276E-01  0.51100000000E-03 0. -1.
</event>
<event>
 8    1  0.1117354E+005  0.1043930E+01  0.7957747E-01            NaN
         13   -1    0    0    0    0  0.00000000000E+00  0.00000000000E+00  0.74505805969E-08  0.10566000000E+00  0.10566000000E+00 0. -1.
     999900   -1    0    0    0    0 -0.00000000000E+00 -0.00000000000E+00 -0.74505805969E-08  0.93827000000E+00  0.93827000000E+00 0. -1.
     999902    2    1    2    0    0 -0.10633381434E-01  0.14537628769E-01 -0.13845130782E-01  0.10212121855E+01  0.10209594647E+01 0.  0.
     999903    2    3    3    0    0 -0.12461401073E+00  0.41825549045E-01 -0.12609617205E-01  0.13344096440E+00  0.19221350452E-01 0.  0.
         14    1    1    2    0    0  0.10633381434E-01 -0.14537628769E-01  0.13845130782E-01  0.22717814536E-01  0.00000000000E+00 0. -1.
     999901    1    3    3    0    0  0.11398062929E+00 -0.27287920276E-01 -0.12355135761E-02  0.88777122106E+00  0.88000000000E+00 0. -1.
        -11    1    4    4    0    0 -0.11689320370E+00  0.35483704945E-01 -0.15208632261E-01  0.12310433788E+00  0.51100000000E-03 0. -1.
         11    1    4    4    0    0 -0.77208070245E-02  0.63418441000E-02  0.25990150553E-02  0.10336626527E-01  0.51100000000E-03 0.  1.
</event>
<event>
 8    1  0.1117354E+005  0.1043930E+01  0.7957747E-01            NaN
         13   -1    0    0    0    0  0.00000000000E+00  0.00000000000E+00  0.74505805969E-08  0.10566000000E+00  0.10566000000E+00 0.  1.
     999900   -1    0    0    0    0 -0.00000000000E+00 -0.00000000000E+00 -0.74505805969E-08  0.93827000000E+00  0.93827000000E+00 0. -1.
     999902    2    1    2    0    0 -0.39032707263E-02 -0.31875398577E-02 -0.26609413514E-01  0.10168475921E+01  0.10164868758E+01 0.  0.
     999903    2    3    3    0    0  0.79913647389E-01 -0.96398643739E-01  0.96148953178E-02  0.12722644448E+00  0.20377252282E-01 0.  0.
         14    1    1    2    0    0  0.39032707263E-02  0.31875398577E-02  0.26609413514E-01  0.27082407948E-01  0.00000000000E+00 0.  1.
     999901    1    3    3    0    0 -0.83816918115E-01  0.93211103881E-01 -0.36224308832E-01  0.88962114757E+00  0.88000000000E+00 0. -1.
        -11    1    4    4    0    0  0.56517675787E-01 -0.54416179773E-01  0.10479197699E-01  0.79154551372E-01  0.51100000000E-03 0.  1.
         11    1    4    4    0    0  0.23395971601E-01 -0.41982463966E-01 -0.86430238129E-03  0.48071893113E-01  0.51100000000E-03 0. -1.
</event>
<event>
 8    1  0.1117354E+005  0.1043930E+01  0.7957747E-01            NaN
         13   -1    0    0    0    0  0.00000000000E+00  0.00000000000E+00  0.74505805969E-08  0.10566000000E+00  0.10566000000E+00 0.  1.
     999900   -1    0    0    0    0 -0.00000000000E+00 -0.00000000000E+00 -0.74505805969E-08  0.93827000000E+00  0.93827000000E+00 0. -1.
     999902    2    1    2    0    0 -0.98159512243E-02 -0.77122709041E-02  0.19735573705E-01  0.10205778076E+01  0.10203106078E+01 0.  0.
     999903    2    3    3    0    0 -0.46763936978E-01  0.73990513446E-01 -0.92359133216E-01  0.12894687388E+00  0.20871629402E-01 0.  0.
         14    1    1    2    0    0  0.98159512243E-02  0.77122709041E-02 -0.19735573705E-01  0.23352192411E-01  0.00000000000E+00 0. -1.
     999901    1    3    3    0    0  0.36947985753E-01 -0.81702784350E-01  0.11209470692E+00  0.89163093371E+00  0.88000000000E+00 0. -1.
        -11    1    4    4    0    0 -0.36880153010E-01  0.39320705504E-01 -0.56565365851E-01  0.78141956094E-01  0.51100000000E-03 0.  1.
         11    1    4    4    0    0 -0.98837839677E-02  0.34669807942E-01 -0.35793767366E-01  0.50804917788E-01  0.51100000000E-03 0. -1.
</event>
<event>
 8    1  0.1117354E+005  0.1043930E+01  0.7957747E-01            NaN
         13   -1    0    0    0    0  0.00000000000E+00  0.00000000000E+00  0.74505805969E-08  0.10566000000E+00  0.10566000000E+00 0. -1.
     999900   -1    0    0    0    0 -0.00000000000E+00 -0.00000000000E+00 -0.74505805969E-08  0.93827000000E+00  0.93827000000E+00 0. -1.
     999902    2    1    2    0    0 -0.17238048937E-01 -0.14492343505E-01  0.38602957654E-03  0.10214060712E+01  0.10211576934E+01 0.  0.
     999903    2    3    3    0    0 -0.50548989542E-02 -0.11997631758E+00 -0.54370938081E-01  0.13333308799E+00  0.20041074350E-01 0.  0.
         14    1    1    2    0    0  0.17238048937E-01  0.14492343505E-01 -0.38602957654E-03  0.22523928837E-01  0.00000000000E+00 0.  1.
     999901    1    3    3    0    0 -0.12183149983E-01  0.10548397408E+00  0.54756967658E-01  0.88807298317E+00  0.88000000000E+00 0.  1.
        -11    1    4    4    0    0 -0.80090921663E-02 -0.38748978936E-01 -0.10381429035E-01  0.40910440180E-01  0.51100000000E-03 0. -1.
         11    1    4    4    0    0  0.29541932121E-02 -0.81227338648E-01 -0.43989509047E-01  0.92422647812E-01  0.51100000000E-03 0.  1.
</event>
<event>
 8    1  0.1117354E+005  0.1043930E+01  0.7957747E-01            NaN
         13   -1    0    0    0    0  0.00000000000E+00  0.00000000000E+00  0.74505805969E-08  0.10566000000E+00  0.10566000000E+00 0. -1.
     999900   -1    0    0    0    0 -0.00000000000E+00 -0.00000000000E+00 -0.74505805969E-08  0.93827000000E+00  0.93827000000E+00 0.  1.
     999902    2    1    2    0    0 -0.27460680456E-01  0.74784448594E-02  0.50760216046E-02  0.10150201037E+01  0.10146083130E+01 0.  0.
     999903    2    3    3    0    0  0.43773075145E-01 -0.11333142697E+00 -0.11129721140E-01  0.12376710978E+00  0.20840641183E-01 0.  0.
         14    1    1    2    0    0  0.27460680456E-01 -0.74784448594E-02 -0.50760216046E-02  0.28909896298E-01  0.00000000000E+00 0.  1.
     999901    1    3    3    0    0 -0.71233755601E-01  0.12080987183E+00  0.16205742745E-01  0.89125299392E+00  0.88000000000E+00 0. -1.
        -11    1    4    4    0    0  0.88049411326E-02 -0.14777549787E-01  0.50797343100E-02  0.17943460862E-01  0.51100000000E-03 0. -1.
         11    1    4    4    0    0  0.34968134012E-01 -0.98553877184E-01 -0.16209455450E-01  0.10582364892E+00  0.51100000000E-03 0.  1.
</event>
<event>
 8    1  0.1117354E+005  0.1043930E+01  0.7957747E-01            NaN
         13   -1    0    0    0    0  0.00000000000E+00  0.00000000000E+00  0.74505805969E-08  0.10566000000E+00  0.10566000000E+00 0.  1.
     999900   -1    0    0    0    0 -0.00000000000E+00 -0.00000000000E+00 -0.74505805969E-08  0.93827000000E+00  0.93827000000E+00 0. -1.
     999902    2    1    2    0    0  0.37930717846E-02  0.11882984426E-01  0.20973543757E-01  0.10195274950E+01  0.10192354148E+01 0.  0.
     999903    2    3    3    0    0 -0.67243213636E-01 -0.10626340792E+00 -0.14698582960E-01  0.12808079189E+00  0.19366963253E-01 0.  0.
         14    1    1    2    0    0 -0.37930717846E-02 -0.11882984426E-01 -0.20973543757E-01  0.24402504998E-01  0.00000000000E+00 0. -1.
     999901    1    3    3    0    0  0.71036285420E-01  0.11814639235E+00  0.35672126717E-01  0.89144670312E+00  0.88000000000E+00 0. -1.
        -11    1    4    4    0    0 -0.20696927329E-01 -0.28776505677E-01  0.43064154319E-02  0.35710732487E-01  0.51100000000E-03 0. -1.
         11    1    4    4    0    0 -0.46546286307E-01 -0.77486902246E-01 -0.19004998392E-01  0.92370059400E-01  0.51100000000E-03 0.  1.
</event>
<event>
 8    1  0.1117354E+005  0.1043930E+01  0.7957747E-01            NaN
         13   -1    0    0    0    0  0.00000000000E+00  0.00000000000E+00  0.74505805969E-08  0.10566000000E+00  0.10566000000E+00 0. -1.
     999900   -1    0    0    0    0 -0.00000000000E+00 -0.00000000000E+00 -0.74505805969E-08  0.93827000000E+00  0.93827000000E+00 0. -1.
     999902    2    1    2    0    0  0.20823367622E-01 -0.55701671723E-02 -0.60888694060E-02  0.10215310328E+01  0.10212854338E+01 0.  0.
     999903    2    3    3    0    0 -0.53181551839E-01 -0.88769445078E-01 -0.78812174473E-01  0.13153804009E+00  0.19560299361E-01 0.  0.
         14    1    1    2    0    0 -0.20823367622E-01  0.55701671723E-02  0.60888694060E-02  0.22398967210E-01  0.00000000000E+00 0.  1.
     999901    1    3    3    0    0  0.74004919461E-01  0.83199277905E-01  0.72723305067E-01  0.88999299270E+00  0.88000000000E+00 0. -1.
        -11    1    4    4    0    0 -0.50536482718E-01 -0.72927656877E-01 -0.61752173857E-01  0.10810167122E+00  0.51100000000E-03 0. -1.
         11    1    4    4    0    0 -0.26450691209E-02 -0.15841788200E-01 -0.17060000616E-01  0.23436368875E-01  0.51100000000E-03 0.  1.
</event>
<event>
 8    1  0.1117354E+005  0.1043930E+01  0.7957747E-01            NaN
         13   -1    0    0    0    0  0.00000000000E+00  0.00000000000E+00  0.74505805969E-08  0.10566000000E+00  0.10566000000E+00 0. -1.
     999900   -1    0    0    0    0 -0.00000000000E+00 -0.00000000000E+00 -0.74505805969E-08  0.93827000000E+00  0.93827000000E+00 0.  1.
     999902    2    1    2    0    0 -0.31233331143E-02  0.24326343141E-01 -0.33321963613E-02  0.10191786422E+01  0.10188780472E+01 0.  0.
     999903    2    3    3    0    0  0.11451043025E+00 -0.90877868400E-02 -0.55425754572E-01  0.12919665071E+00  0.20604217497E-01 0.  0.
         14    1    1    2    0    0  0.31233331143E-02 -0.24326343141E-01  0.33321963613E-02  0.24751357800E-01  0.00000000000E+00 0.  1.
     999901    1    3    3    0    0 -0.11763376337E+00  0.33414129981E-01  0.52093558211E-01  0.88998199149E+00  0.88000000000E+00 0. -1.
        -11    1    4    4    0    0  0.43685496179E-01 -0.60337785170E-02 -0.32161720747E-01  0.54584489207E-01  0.51100000000E-03 0.  1.
         11    1    4    4    0    0  0.70824934075E-01 -0.30540083229E-02 -0.23264033825E-01  0.74612161504E-01  0.51100000000E-03 0. -1.
</event>
<event>
 8    1  0.1117354E+005  0.1043930E+01  0.7957747E-01            NaN
         13   -1    0    0    0    0  0.00000000000E+00  0.00000000000E+00  0.74505805969E-08  0.10566000000E+00  0.10566000000E+00 0. -1.
     999900   -1    0    0    0    0 -0.00000000000E+00 -0.00000000000E+00 -0.74505805969E-08  0.93827000000E+00  0.93827000000E+00 0.  1.
     999902    2    1    2    0    0 -0.11839375449E-01 -0.17403071091E-01 -0.13180097756E-01  0.10190954943E+01  0.10187928513E+01 0.  0.
     999903    2    3    3    0    0 -0.29154769053E-01  0.18838325106E-01 -0.12485793890E+00  0.13112860202E+00  0.20008056122E-01 0.  0.
         14    1    1    2    0    0  0.11839375449E-01  0.17403071091E-01  0.13180097756E-01  0.24834505658E-01  0.00000000000E+00 0. -1.
     999901    1    3    3    0    0  0.17315393604E-01 -0.36241396196E-01  0.11167784115E+00  0.88796689232E+00  0.88000000000E+00 0. -1.
        -11    1    4    4    0    0 -0.13869066523E-01  0.14450115921E-01 -0.39394923590E-01  0.44197035896E-01  0.51100000000E-03 0. -1.
         11    1    4    4    0    0 -0.15285702530E-01  0.43882091847E-02 -0.85463015312E-01  0.86931566125E-01  0.51100000000E-03 0.  1.
</event>
<event>
 8    1  0.1117354E+005  0.1043930E+01  0.7957747E-01            NaN
         13   -1    0    0    0    0  0.00000000000E+00  0.00000000000E+00  0.74505805969E-08  0.10566000000E+00  0.10566000000E+00 0.  1.
     999900   -1    0    0    0    0 -0.00000000000E+00 -0.00000000000E+00 -0.74505805969E-08  0.93827000000E+00  0.93827000000E+00 0.  1.
     999902    2    1    2    0    0 -0.15723169129E-01  0.16538253261E-01 -0.65649929543E-02  0.10201848742E+01  0.10199084991E+01 0.  0.
     999903    2    3    3    0    0 -0.32726949156E-01  0.12367297472E+00 -0.31544672210E-01  0.13317249463E+00  0.19333626233E-01 0.  0.
         14    1    1    2    0    0  0.15723169129E-01 -0.16538253261E-01  0.65649929543E-02  0.23745125835E-01  0.00000000000E+00 0. -1.
     999901    1    3    3    0    0  0.17003780026E-01 -0.10713472146E+00  0.24979679256E-01  0.88701237954E+00  0.88000000000E+00 0. -1.
        -11    1    4    4    0    0 -0.18534616778E-01  0.52897500252E-01 -0.50593677809E-02  0.56280865979E-01  0.51100000000E-03 0. -1.
         11    1    4    4    0    0 -0.14192332378E-01  0.70775474469E-01 -0.26485304429E-01  0.76891628649E-01  0.51100000000E-03 0.  1.
</event>
<event>
 8    1  0.1117354E+005  0.1043930E+01  0.7957747E-01            NaN
         13   -1    0    0    0    0  0.00000000000E+00  0.00000000000E+00  0.74505805969E-08  0.10566000000E+00  0.10566000000E+00 0.  1.
     999900   -1    0    0    0    0 -0.00000000000E+00 -0.00000000000E+00 -0.74505805969E-08  0.93827000000E+00  0.93827000000E+00 0.  1.
     999902    2    1    2    0    0 -0.78524949376E-02  0.21008338148E-01 -0.42787121375E-02  0.10210975817E+01  0.10208422758E+01 0.  0.
     999903    2    3    3    0    0  0.33398858936E-01  0.21793888121E-01  0.12259508589E+00  0.13104182393E+00  0.23493556493E-01 0.  0.
         14    1    1    2    0    0  0.78524949376E-02 -0.21008338148E-01  0.42787121375E-02  0.22832418314E-01  0.00000000000E+00 0. -1.
     999901    1    3    3    0    0 -0.41251353873E-01 -0.78554997284E-03 -0.12687379803E+00  0.89005575775E+00  0.88000000000E+00 0.  1.
        -11    1    4    4    0    0  0.26877543552E-01  0.77914292924E-02  0.98638967455E-01  0.10253299829E+00  0.51100000000E-03 0. -1.
         11    1    4    4    0    0  0.65213153836E-02  0.14002458829E-01  0.23956118438E-01  0.28508825637E-01  0.51100000000E-03 0.  1.
</event>
<event>
 8    1  0.1117354E+005  0.1043930E+01  0.7957747E-01            NaN
         13   -1    0    0    0    0  0.00000000000E+00  0.00000000000E+00  0.74505805969E-08  0.10566000000E+00  0.10566000000E+00 0.  1.
     999900   -1    0    0    0    0 -0.00000000000E+00 -0.00000000000E+00 -0.74505805969E-08  0.93827000000E+00  0.93827000000E+00 0.  1.
     999902    2    1    2    0    0 -0.25299389923E-02 -0.19176897953E-01 -0.14193202483E-01  0.10199383139E+01  0.10196561004E+01 0.  0.
     999903    2    3    3    0    0  0.58691586876E-01  0.95934763920E-01 -0.60289464187E-01  0.12913887782E+00  0.19845628606E-01 0.  0.
         14    1    1    2    0    0  0.25299389923E-02  0.19176897953E-01  0.14193202483E-01  0.23991686126E-01  0.00000000000E+00 0.  1.
     999901    1    3    3    0    0 -0.61221525868E-01 -0.11511166187E+00  0.46096261704E-01  0.89079943605E+00  0.88000000000E+00 0. -1.
        -11    1    4    4    0    0  0.35468347991E-01  0.65000310703E-01 -0.29548852534E-01  0.79727284588E-01  0.51100000000E-03 0. -1.
         11    1    4    4    0    0  0.23223238885E-01  0.30934453217E-01 -0.30740611652E-01  0.49411593234E-01  0.51100000000E-03 0.  1.
</event>
<event>
 8    1  0.1117354E+005  0.1043930E+01  0.7957747E-01            NaN
         13   -1    0    0    0    0  0.00000000000E+00  0.00000000000E+00  0.74505805969E-08  0.10566000000E+00  0.10566000000E+00 0.  1.
     999900   -1    0    0    0    0 -0.00000000000E+00 -0.00000000000E+00 -0.74505805969E-08  0.93827000000E+00  0.93827000000E+00 0. -1.
     999902    2    1    2    0    0  0.47468085099E-02 -0.95654898711E-02  0.22121809459E-01  0.10193656917E+01  0.10190696778E+01 0.  0.
     999903    2    3    3    0    0 -0.24500262766E-01  0.96781151895E-01 -0.76013725818E-01  0.12706776912E+00  0.20031904523E-01 0.  0.
         14    1    1    2    0    0 -0.47468085099E-02  0.95654898711E-02 -0.22121809459E-01  0.24564308279E-01  0.00000000000E+00 0. -1.
     999901    1    3    3    0    0  0.29247071275E-01 -0.10634664177E+00  0.98135535277E-01  0.89229792260E+00  0.88000000000E+00 0.  1.
        -11    1    4    4    0    0 -0.24300373919E-02  0.48578718632E-01 -0.39984300545E-01  0.62966676875E-01  0.51100000000E-03 0. -1.
         11    1    4    4    0    0 -0.22070225374E-01  0.48202433263E-01 -0.36029425273E-01  0.64101092245E-01  0.51100000000E-03 0.  1.
</event>
<event>
 8    1  0.1117354E+005  0.1043930E+01  0.7957747E-01            NaN
         13   -1    0    0    0    0  0.00000000000E+00  0.00000000000E+00  0.74505805969E-08  0.10566000000E+00  0.10566000000E+00 0.  1.
     999900   -1    0    0    0    0 -0.00000000000E+00 -0.00000000000E+00 -0.74505805969E-08  0.93827000000E+00  0.93827000000E+00 0. -1.
     999902    2    1    2    0    0 -0.20293657740E-01 -0.10111247950E-01  0.41597653829E-02  0.10208784593E+01  0.10206181731E+01 0.  0.
     999903    2    3    3    0    0 -0.12093257387E+00 -0.52551454295E-01  0.13325606539E-01  0.13407894692E+00  0.20328537745E-01 0.  0.
         14    1    1    2    0    0  0.20293657740E-01  0.10111247950E-01 -0.41597653829E-02  0.23051540678E-01  0.00000000000E+00 0.  1.
     999901    1    3    3    0    0  0.10063891613E+00  0.42440206345E-01 -0.91658411559E-02  0.88679951240E+00  0.88000000000E+00 0. -1.
        -11    1    4    4    0    0 -0.82162429815E-01 -0.36986273687E-01  0.18481746518E-01  0.91980896874E-01  0.51100000000E-03 0.  1.
         11    1    4    4    0    0 -0.38770144052E-01 -0.15565180608E-01 -0.51561399793E-02  0.42098050046E-01  0.51100000000E-03 0. -1.
</event>
<event>
 8    1  0.1117354E+005  0.1043930E+01  0.7957747E-01            NaN
         13   -1    0    0    0    0  0.00000000000E+00  0.00000000000E+00  0.74505805969E-08  0.10566000000E+00  0.10566000000E+00 0. -1.
     999900   -1    0    0    0    0 -0.00000000000E+00 -0.00000000000E+00 -0.74505805969E-08  0.93827000000E+00  0.93827000000E+00 0.  1.
     999902    2    1    2    0    0  0.14526596357E-01 -0.11409941971E-01  0.14594088335E-01  0.10203886281E+01  0.10201170306E+01 0.  0.
     999903    2    3    3    0    0  0.38037443445E-03 -0.65186472232E-01 -0.11050712203E+00  0.12980323429E+00  0.19688442444E-01 0.  0.
         14    1    1    2    0    0 -0.14526596357E-01  0.11409941971E-01 -0.14594088335E-01  0.23541371919E-01  0.00000000000E+00 0.  1.
     999901    1    3    3    0    0  0.14146221923E-01  0.53776530261E-01  0.12510121036E+00  0.89058539379E+00  0.88000000000E+00 0. -1.
        -11    1    4    4    0    0 -0.61429422293E-02 -0.39686864046E-01 -0.52489881635E-01  0.66092599525E-01  0.51100000000E-03 0. -1.
         11    1    4    4    0    0  0.65233166638E-02 -0.25499608186E-01 -0.58017240394E-01  0.63710634763E-01  0.51100000000E-03 0.  1.
</event>
<event>
 8    1  0.1117354E+005  0.1043930E+01  0.7957747E-01            NaN
         13   -1    0    0    0    0  0.00000000000E+00  0.00000000000E+00  0.74505805969E-08  0.10566000000E+00  0.10566000000E+00 0. -1.
     999900   -1    0    0    0    0 -0.00000000000E+00 -0.00000000000E+00 -0.74505805969E-08  0.93827000000E+00  0.93827000000E+00 0. -1.
     999902    2    1    2    0    0  0.22916556246E-01  0.12528614494E-02 -0.53587839660E-02  0.10203619119E+01  0.10200896904E+01 0.  0.
     999903    2    3    3    0    0  0.13684021929E-01 -0.11461612952E+00 -0.59227808499E-01  0.13108538877E+00  0.18743965624E-01 0.  0.
         14    1    1    2    0    0 -0.22916556246E-01 -0.12528614494E-02  0.53587839660E-02  0.23568088119E-01  0.00000000000E+00 0. -1.
     999901    1    3    3    0    0  0.92325343173E-02  0.11586899096E+00  0.53869024533E-01  0.88927652311E+00  0.88000000000E+00 0.  1.
        -11    1    4    4    0    0  0.50235066832E-02 -0.99859602577E-02 -0.15520817024E-02  0.11297127966E-01  0.51100000000E-03 0.  1.
         11    1    4    4    0    0  0.86605152459E-02 -0.10463016926E+00 -0.57675726797E-01  0.11978826080E+00  0.51100000000E-03 0. -1.
</event>
<event>
 8    1  0.1117354E+005  0.1043930E+01  0.7957747E-01            NaN
         13   -1    0    0    0    0  0.00000000000E+00  0.00000000000E+00  0.74505805969E-08  0.10566000000E+00  0.10566000000E+00 0. -1.
     999900   -1    0    0    0    0 -0.00000000000E+00 -0.00000000000E+00 -0.74505805969E-08  0.93827000000E+00  0.93827000000E+00 0. -1.
     999902    2    1    2    0    0  0.79227979771E-02  0.22059247656E-01 -0.19369917999E-02  0.10204112187E+01  0.10201401483E+01 0.  0.
     999903    2    3    3    0    0  0.59732349620E-01  0.98889856214E-01 -0.63503556390E-01  0.13340636310E+00  0.20430339866E-01 0.  0.
         14    1    1    2    0    0 -0.79227979771E-02 -0.22059247656E-01  0.19369917999E-02  0.23518781265E-01  0.00000000000E+00 0. -1.
     999901    1    3    3    0    0 -0.51809551642E-01 -0.76830608558E-01  0.61566564590E-01  0.88700485564E+00  0.88000000000E+00 0.  1.
        -11    1    4    4    0    0  0.98095960448E-02  0.32934114348E-01 -0.14855094550E-01  0.37440873621E-01  0.51100000000E-03 0. -1.
         11    1    4    4    0    0  0.49922753575E-01  0.65955741867E-01 -0.48648461840E-01  0.95965489474E-01  0.51100000000E-03 0.  1.
</event>
<event>
 8    1  0.1117354E+005  0.1043930E+01  0.7957747E-01            NaN
         13   -1    0    0    0    0  0.00000000000E+00  0.00000000000E+00  0.74505805969E-08  0.10566000000E+00  0.10566000000E+00 0.  1.
     999900   -1    0    0    0    0 -0.00000000000E+00 -0.00000000000E+00 -0.74505805969E-08  0.93827000000E+00  0.93827000000E+00 0.  1.
     999902    2    1    2    0    0  0.10326988598E-02 -0.72665380535E-02  0.22151900856E-01  0.10205938531E+01  0.10203270246E+01 0.  0.
     999903    2    3    3    0    0  0.35482318544E-01 -0.11809219524E+00  0.44592951978E-01  0.13269030911E+00  0.20332861564E-01 0.  0.
         14    1    1    2    0    0 -0.10326988598E-02  0.72665380535E-02 -0.22151900856E-01  0.23336146934E-01  0.00000000000E+00 0. -1.
     999901    1    3    3    0    0 -0.34449619685E-01  0.11082565719E+00 -0.22441051122E-01  0.88790354395E+00  0.88000000000E+00 0.  1.
        -11    1    4    4    0    0 -0.12068109008E-02 -0.11479571930E-01  0.31756028478E-03  0.11558500326E-01  0.51100000000E-03 0.  1.
         11    1    4    4    0    0  0.36689129445E-01 -0.10661262331E+00  0.44275391693E-01  0.12113180879E+00  0.51100000000E-03 0. -1.
</event>
<event>
 8    1  0.1117354E+005  0.1043930E+01  0.7957747E-01            NaN
         13   -1    0    0    0    0  0.00000000000E+00  0.00000000000E+00  0.74505805969E-08  0.10566000000E+00  0.10566000000E+00 0. -1.
     999900   -1    0    0    0    0 -0.00000000000E+00 -0.00000000000E+00 -0.74505805969E-08  0.93827000000E+00  0.93827000000E+00 0. -1.
     999902    2    1    2    0    0  0.16434998049E-01  0.13257022641E-01  0.10499497934E-01  0.10203482853E+01  0.10200757453E+01 0.  0.
     999903    2    3    3    0    0 -0.12171258270E+00  0.35954845858E-01  0.13816562777E-01  0.12927536566E+00  0.20359740464E-01 0.  0.
         14    1    1    2    0    0 -0.16434998049E-01 -0.13257022641E-01 -0.10499497934E-01  0.23581714676E-01  0.00000000000E+00 0.  1.
     999901    1    3    3    0    0  0.13814758074E+00 -0.22697823217E-01 -0.33170648423E-02  0.89107291967E+00  0.88000000000E+00 0. -1.
        -11    1    4    4    0    0 -0.31420639649E-01  0.27593478987E-02  0.96275636146E-02  0.32982142122E-01  0.51100000000E-03 0.  1.
         11    1    4    4    0    0 -0.90291943046E-01  0.33195497959E-01  0.41889991620E-02  0.96293223535E-01  0.51100000000E-03 0. -1.
</event>
<event>
 8    1  0.1117354E+005  0.1043930E+01  0.7957747E-01            NaN
         13   -1    0    0    0    0  0.00000000000E+00  0.00000000000E+00  0.74505805969E-08  0.10566000000E+00  0.10566000000E+00 0.  1.
     999900   -1    0    0    0    0 -0.00000000000E+00 -0.00000000000E+00 -0.74505805969E-08  0.93827000000E+00  0.93827000000E+00 0.  1.
     999902    2    1    2    0    0 -0.17521364901E-01 -0.13847232809E-01  0.64204144399E-02  0.10206928357E+01  0.10204282919E+01 0.  0.
     999903    2    3    3    0    0 -0.35264301554E-01  0.12105058907E+00 -0.22873350532E-01  0.12975492604E+00  0.20404278719E-01 0.  0.
         14    1    1    2    0    0  0.17521364901E-01  0.13847232809E-01 -0.64204144399E-02  0.23237164329E-01  0.00000000000E+00 0. -1.
     999901    1    3    3    0    0  0.17742936653E-01 -0.13489782188E+00  0.29293764971E-01  0.89093790963E+00  0.88000000000E+00 0. -1.
        -11    1    4    4    0    0 -0.34477451304E-01  0.86544222131E-01 -0.18188785882E-01  0.94919387301E-01  0.51100000000E-03 0. -1.
         11    1    4    4    0    0 -0.78685025007E-03  0.34506366936E-01 -0.46845646497E-02  0.34835538741E-01  0.51100000000E-03 0.  1.
</event>
<event>
 8    1  0.1117354E+005  0.1043930E+01  0.7957747E-01            NaN
         13   -1    0    0    0    0  0.00000000000E+00  0.00000000000E+00  0.74505805969E-08  0.10566000000E+00  0.10566000000E+00 0.  1.
     999900   -1    0    0    0    0 -0.00000000000E+00 -0.00000000000E+00 -0.74505805969E-08  0.93827000000E+00  0.93827000000E+00 0. -1.
     999902    2    1    2    0    0  0.45256495751E-02 -0.13479784668E-01  0.18876196933E-01  0.10202974608E+01  0.10200237309E+01 0.  0.
     999903    2    3    3    0    0 -0.38971088719E-01  0.49189144782E-01  0.11455760319E+00  0.13183007677E+00  0.17815919064E-01 0.  0.
         14    1    1    2    0    0 -0.45256495751E-02  0.13479784668E-01 -0.18876196933E-01  0.23632539208E-01  0.00000000000E+00 0. -1.
     999901    1    3    3    0    0  0.43496738294E-01 -0.62668929451E-01 -0.95681406261E-01  0.88846738402E+00  0.88000000000E+00 0. -1.
        -11    1    4    4    0    0 -0.22514018428E-01  0.36382971480E-01  0.89680468832E-01  0.99365231598E-01  0.51100000000E-03 0. -1.
         11    1    4    4    0    0 -0.16457070291E-01  0.12806173302E-01  0.24877134362E-01  0.32464845175E-01  0.51100000000E-03 0.  1.
</event>
<event>
 8    1  0.1117354E+005  0.1043930E+01  0.7957747E-01            NaN
         13   -1    0    0    0    0  0.00000000000E+00  0.00000000000E+00  0.74505805969E-08  0.10566000000E+00  0.10566000000E+00 0.  1.
     999900   -1    0    0    0    0 -0.00000000000E+00 -0.00000000000E+00 -0.74505805969E-08  0.93827000000E+00  0.93827000000E+00 0. -1.
     999902    2    1    2    0    0  0.74410161202E-02 -0.18818911557E-01  0.15102769531E-01  0.10186789842E+01  0.10183659750E+01 0.  0.
     999903    2    3    3    0    0  0.46574055083E-01 -0.73858118604E-01  0.97374668528E-01  0.13226521260E+00  0.19700154922E-01 0.  0.
         14    1    1    2    0    0 -0.74410161202E-02  0.18818911557E-01 -0.15102769531E-01  0.25251015833E-01  0.00000000000E+00 0. -1.
     999901    1    3    3    0    0 -0.39133038963E-01  0.55039207047E-01 -0.82271898997E-01  0.88641377156E+00  0.88000000000E+00 0. -1.
        -11    1    4    4    0    0  0.47317472912E-01 -0.63951073413E-01  0.87118713342E-01  0.11797717732E+00  0.51100000000E-03 0.  1.
         11    1    4    4    0    0 -0.74341782865E-03 -0.99070451909E-02  0.10255955186E-01  0.14288035283E-01  0.51100000000E-03 0. -1.
</event>
<event>
 8    1  0.1117354E+005  0.1043930E+01  0.7957747E-01            NaN
         13   -1    0    0    0    0  0.00000000000E+00  0.00000000000E+00  0.74505805969E-08  0.10566000000E+00  0.10566000000E+00 0.  1.
     999900   -1    0    0    0    0 -0.00000000000E+00 -0.00000000000E+00 -0.74505805969E-08  0.93827000000E+00  0.93827000000E+00 0.  1.
     999902    2    1    2    0    0  0.10081804063E-01  0.17725058577E-01 -0.10205662015E-01  0.10211270175E+01  0.10208723768E+01 0.  0.
     999903    2    3    3    0    0  0.27413207181E-01  0.10905416330E+00  0.68532646883E-01  0.13273459057E+00  0.16656931971E-01 0.  0.
         14    1    1    2    0    0 -0.10081804063E-01 -0.17725058577E-01  0.10205662015E-01  0.22802982521E-01  0.00000000000E+00 0. -1.
     999901    1    3    3    0    0 -0.17331403119E-01 -0.91329104727E-01 -0.78738308898E-01  0.88839242691E+00  0.88000000000E+00 0.  1.
        -11    1    4    4    0    0  0.20433850477E-01  0.57452596904E-01  0.30037951758E-01  0.67977075571E-01  0.51100000000E-03 0.  1.
         11    1    4    4    0    0  0.69793567047E-02  0.51601566399E-01  0.38494695124E-01  0.64757514997E-01  0.51100000000E-03 0. -1.
</event>
<event>
 8    1  0.1117354E+005  0.1043930E+01  0.7957747E-01            NaN
         13   -1    0    0    0    0  0.00000000000E+00  0.00000000000E+00  0.74505805969E-08  0.10566000000E+00  0.10566000000E+00 0. -1.
     999900   -1    0    0    0    0 -0.00000000000E+00 -0.00000000000E+00 -0.74505805969E-08  0.93827000000E+00  0.93827000000E+00 0.  1.
     999902    2    1    2    0    0 -0.18090593668E-02  0.36835331194E-02 -0.22421572782E-01  0.10211359649E+01  0.10208815263E+01 0.  0.
     999903    2    3    3    0    0  0.17799521739E-02  0.12400705731E+00  0.36833221445E-01  0.13096645172E+00  0.20361895336E-01 0.  0.
         14    1    1    2    0    0  0.18090593668E-02 -0.36835331194E-02  0.22421572782E-01  0.22794035142E-01  0.00000000000E+00 0. -1.
     999901    1    3    3    0    0 -0.35890115407E-02 -0.12032352419E+00 -0.59254794227E-01  0.89016951314E+00  0.88000000000E+00 0.  1.
        -11    1    4    4    0    0  0.14600569839E-02  0.21384302261E-01  0.14662416581E-01  0.25974366799E-01  0.51100000000E-03 0. -1.
         11    1    4    4    0    0  0.31989518999E-03  0.10262275505E+00  0.22170804864E-01  0.10499208492E+00  0.51100000000E-03 0.  1.
</event>
<event>
 8    1  0.1117354E+005  0.1043930E+01  0.7957747E-01            NaN
         13   -1    0    0    0    0  0.00000000000E+00  0.00000000000E+00  0.74505805969E-08  0.10566000000E+00  0.10566000000E+00 0.  1.
     999900   -1    0    0    0    0 -0.00000000000E+00 -0.00000000000E+00 -0.74505805969E-08  0.93827000000E+00  0.93827000000E+00 0.  1.
     999902    2    1    2    0    0  0.73268368205E-04 -0.11785843230E-01 -0.20394022948E-01  0.10203752204E+01  0.10201033099E+01 0.  0.
     999903    2    3    3    0    0  0.25536484782E-01  0.12470501275E+00 -0.13170739109E-01  0.12945978954E+00  0.19568251829E-01 0.  0.
         14    1    1    2    0    0 -0.73268368205E-04  0.11785843230E-01  0.20394022948E-01  0.23554779576E-01  0.00000000000E+00 0.  1.
     999901    1    3    3    0    0 -0.25463216413E-01 -0.13649085598E+00 -0.72232838394E-02  0.89091543088E+00  0.88000000000E+00 0. -1.
        -11    1    4    4    0    0  0.44384946657E-02  0.70168228051E-01 -0.72061615930E-02  0.70678641389E-01  0.51100000000E-03 0. -1.
         11    1    4    4    0    0  0.21097990116E-01  0.54536784697E-01 -0.59645775158E-02  0.58781148151E-01  0.51100000000E-03 0.  1.
</event>
<event>
 8    1  0.1117354E+005  0.1043930E+01  0.7957747E-01            NaN
         13   -1    0    0    0    0  0.00000000000E+00  0.00000000000E+00  0.74505805969E-08  0.10566000000E+00  0.10566000000E+00 0.  1.
     999900   -1    0    0    0    0 -0.00000000000E+00 -0.00000000000E+00 -0.74505805969E-08  0.93827000000E+00  0.93827000000E+00 0.  1.
     999902    2    1    2    0    0 -0.95583576468E-02 -0.19835462915E-01  0.91918327536E-02  0.10200700423E+01  0.10197909559E+01 0.  0.
     999903    2    3    3    0    0  0.10939351394E+00 -0.66128631274E-01 -0.17280102084E-01  0.13046711490E+00  0.19573690904E-01 0.  0.
         14    1    1    2    0    0  0.95583576468E-02  0.19835462915E-01 -0.91918327536E-02  0.23859957656E-01  0.00000000000E+00 0. -1.
     999901    1    3    3    0    0 -0.11895187158E+00  0.46293168359E-01  0.26471934837E-01  0.88960292745E+00  0.88000000000E+00 0. -1.
        -11    1    4    4    0    0  0.19384766501E-01 -0.20775905568E-01 -0.16020335511E-02  0.28464628172E-01  0.51100000000E-03 0. -1.
         11    1    4    4    0    0  0.90008747436E-01 -0.45352725706E-01 -0.15678068533E-01  0.10200248672E+00  0.51100000000E-03 0.  1.
</event>
<event>
 8    1  0.1117354E+005  0.1043930E+01  0.7957747E-01            NaN
         13   -1    0    0    0    0  0.00000000000E+00  0.00000000000E+00  0.74505805969E-08  0.10566000000E+00  0.10566000000E+00 0. -1.
     999900   -1    0    0    0    0 -0.00000000000E+00 -0.00000000000E+00 -0.74505805969E-08  0.93827000000E+00  0.93827000000E+00 0.  1.
     999902    2    1    2    0    0 -0.77015759235E-02 -0.16052913702E-01  0.18512197873E-01  0.10182451449E+01  0.10179211479E+01 0.  0.
     999903    2    3    3    0    0  0.21245116110E-01 -0.10741316124E+00  0.69906246230E-01  0.13155131163E+00  0.20734564445E-01 0.  0.
         14    1    1    2    0    0  0.77015759235E-02  0.16052913702E-01 -0.18512197873E-01  0.25684855073E-01  0.00000000000E+00 0.  1.
     999901    1    3    3    0    0 -0.28946692033E-01  0.91360247536E-01 -0.51394048357E-01  0.88669383330E+00  0.88000000000E+00 0. -1.
        -11    1    4    4    0    0  0.24789678499E-02 -0.64960916483E-01  0.39838650422E-01  0.76245951632E-01  0.51100000000E-03 0.  1.
         11    1    4    4    0    0  0.18766148260E-01 -0.42452244755E-01  0.30067595808E-01  0.55305359993E-01  0.51100000000E-03 0. -1.
</event>
<event>
 8    1  0.1117354E+005  0.1043930E+01  0.7957747E-01            NaN
         13   -1    0    0    0    0  0.00000000000E+00  0.00000000000E+00  0.74505805969E-08  0.10566000000E+00  0.10566000000E+00 0.  1.
     999900   -1    0    0    0    0 -0.00000000000E+00 -0.00000000000E+00 -0.74505805969E-08  0.93827000000E+00  0.93827000000E+00 0.  1.
     999902    2    1    2    0    0  0.14405551396E-01  0.28271641822E-02 -0.19749634612E-01  0.10193218543E+01  0.10190247700E+01 0.  0.
     999903    2    3    3    0    0 -0.10181668688E-01 -0.33535681856E-01 -0.12555807891E+00  0.13189737026E+00  0.20094197306E-01 0.  0.
         14    1    1    2    0    0 -0.14405551396E-01 -0.28271641822E-02  0.19749634612E-01  0.24608145717E-01  0.00000000000E+00 0.  1.
     999901    1    3    3    0    0  0.24587220084E-01  0.36362846038E-01  0.10580844430E+00  0.88742448403E+00  0.88000000000E+00 0. -1.
        -11    1    4    4    0    0  0.83260239292E-03 -0.20873281089E-01 -0.45095421658E-01  0.49701562004E-01  0.51100000000E-03 0.  1.
         11    1    4    4    0    0 -0.11014271081E-01 -0.12662400767E-01 -0.80462657256E-01  0.82195808253E-01  0.51100000000E-03 0. -1.
</event>
<event>
 8    1  0.1117354E+005  0.1043930E+01  0.7957747E-01            NaN
         13   -1    0    0    0    0  0.00000000000E+00  0.00000000000E+00  0.74505805969E-08  0.10566000000E+00  0.10566000000E+00 0. -1.
     999900   -1    0    0    0    0 -0.00000000000E+00 -0.00000000000E+00 -0.74505805969E-08  0.93827000000E+00  0.93827000000E+00 0.  1.
     999902    2    1    2    0    0 -0.19514394012E-02  0.23171448032E-01  0.45243676390E-02  0.10202404660E+01  0.10199653986E+01 0.  0.
     999903    2    3    3    0    0 -0.12341275193E+00  0.38277462329E-01 -0.14368693526E-01  0.13156842868E+00  0.20197044640E-01 0.  0.
         14    1    1    2    0    0  0.19514394012E-02 -0.23171448032E-01 -0.45243676390E-02  0.23689534022E-01  0.00000000000E+00 0. -1.
     999901    1    3    3    0    0  0.12146131253E+00 -0.15106014297E-01  0.18893061165E-01  0.88867203729E+00  0.88000000000E+00 0.  1.
        -11    1    4    4    0    0 -0.40574843429E-01  0.13851870425E-01 -0.14312753825E-01  0.45202967564E-01  0.51100000000E-03 0. -1.
         11    1    4    4    0    0 -0.82837908498E-01  0.24425591904E-01 -0.55939701340E-04  0.86365461120E-01  0.51100000000E-03 0.  1.
</event>
<event>
 8    1  0.1117354E+005  0.1043930E+01  0.7957747E-01            NaN
         13   -1    0    0    0    0  0.00000000000E+00  0.00000000000E+00  0.74505805969E-08  0.10566000000E+00  0.10566000000E+00 0.  1.
     999900   -1    0    0    0    0 -0.00000000000E+00 -0.00000000000E+00 -0.74505805969E-08  0.93827000000E+00  0.93827000000E+00 0. -1.
     999902    2    1    2    0    0 -0.70239141446E-02  0.31400082352E-02  0.21762454319E-01  0.10208475513E+01  0.10205865585E+01 0.  0.
     999903    2    3    3    0    0  0.92389669153E-01  0.87833892971E-01 -0.18235553291E-01  0.13031065968E+00  0.19942138865E-01 0.  0.
         14    1    1    2    0    0  0.70239141446E-02 -0.31400082352E-02 -0.21762454319E-01  0.23082448735E-01  0.00000000000E+00 0. -1.
     999901    1    3    3    0    0 -0.99413583298E-01 -0.84693884735E-01  0.39998007610E-01  0.89053689158E+00  0.88000000000E+00 0.  1.
        -11    1    4    4    0    0  0.30361054896E-01  0.38487655075E-01 -0.13766644789E-01  0.50920279627E-01  0.51100000000E-03 0. -1.
         11    1    4    4    0    0  0.62028614258E-01  0.49346237895E-01 -0.44689085016E-02  0.79390380055E-01  0.51100000000E-03 0.  1.
</event>
<event>
 8    1  0.1117354E+005  0.1043930E+01  0.7957747E-01            NaN
         13   -1    0    0    0    0  0.00000000000E+00  0.00000000000E+00  0.74505805969E-08  0.10566000000E+00  0.10566000000E+00 0.  1.
     999900   -1    0    0    0    0 -0.00000000000E+00 -0.00000000000E+00 -0.74505805969E-08  0.93827000000E+00  0.93827000000E+00 0.  1.
     999902    2    1    2    0    0  0.80263880547E-02 -0.31208092997E-02 -0.20313274826E-01  0.10218666483E+01  0.10216284331E+01 0.  0.
     999903    2    3    3    0    0 -0.12822272554E+00 -0.80794949341E-02 -0.81514312598E-02  0.13128463634E+00  0.25746151616E-01 0.  0.
         14    1    1    2    0    0 -0.80263880547E-02  0.31208092997E-02  0.20313274826E-01  0.22063351741E-01  0.00000000000E+00 0.  1.
     999901    1    3    3    0    0  0.13624911360E+00  0.49586856345E-02 -0.12161843566E-01  0.89058201192E+00  0.88000000000E+00 0.  1.
        -11    1    4    4    0    0 -0.11862543872E+00 -0.48211417694E-02 -0.75469651532E-03  0.11872686641E+00  0.51100000000E-03 0.  1.
         11    1    4    4    0    0 -0.95972868180E-02 -0.32583531647E-02 -0.73967347444E-02  0.12557769925E-01  0.51100000000E-03 0. -1.
</event>
<event>
 8    1  0.1117354E+005  0.1043930E+01  0.7957747E-01            NaN
         13   -1    0    0    0    0  0.00000000000E+00  0.00000000000E+00  0.74505805969E-08  0.10566000000E+00  0.10566000000E+00 0.  1.
     999900   -1    0    0    0    0 -0.00000000000E+00 -0.00000000000E+00 -0.74505805969E-08  0.93827000000E+00  0.93827000000E+00 0.  1.
     999902    2    1    2    0    0  0.42695153667E-02  0.68021625728E-02 -0.22186507186E-01  0.10203346768E+01  0.10200618184E+01 0.  0.
     999903    2    3    3    0    0 -0.74183102582E-01 -0.71364224849E-01  0.75321195650E-01  0.12804966093E+00  0.11289280434E-01 0.  0.
         14    1    1    2    0    0 -0.42695153667E-02 -0.68021625728E-02  0.22186507186E-01  0.23595323229E-01  0.00000000000E+00 0.  1.
     999901    1    3    3    0    0  0.78452617949E-01  0.78166387422E-01 -0.97507702836E-01  0.89228501584E+00  0.88000000000E+00 0.  1.
        -11    1    4    4    0    0 -0.22464642075E-01 -0.24766062053E-01  0.18697475189E-01  0.38312852577E-01  0.51100000000E-03 0. -1.
         11    1    4    4    0    0 -0.51718460507E-01 -0.46598162797E-01  0.56623720461E-01  0.89736808352E-01  0.51100000000E-03 0.  1.
</event>
<event>
 8    1  0.1117354E+005  0.1043930E+01  0.7957747E-01            NaN
         13   -1    0    0    0    0  0.00000000000E+00  0.00000000000E+00  0.74505805969E-08  0.10566000000E+00  0.10566000000E+00 0.  1.
     999900   -1    0    0    0    0 -0.00000000000E+00 -0.00000000000E+00 -0.74505805969E-08  0.93827000000E+00  0.93827000000E+00 0.  1.
     999902    2    1    2    0    0 -0.78174992972E-02 -0.22537500269E-01  0.36740065316E-02  0.10197939163E+01  0.10195082546E+01 0.  0.
     999903    2    3    3    0    0  0.11233122807E+00  0.46901080898E-02 -0.53840335742E-01  0.12935303732E+00  0.34541635694E-01 0.  0.
         14    1    1    2    0    0  0.78174992972E-02  0.22537500269E-01 -0.36740065316E-02  0.24136083726E-01  0.00000000000E+00 0. -1.
     999901    1    3    3    0    0 -0.12014872737E+00 -0.27227608359E-01  0.57514342273E-01  0.89044087895E+00  0.88000000000E+00 0. -1.
        -11    1    4    4    0    0  0.66165969661E-01  0.17329982076E-01 -0.21949152372E-01  0.71835160129E-01  0.51100000000E-03 0. -1.
         11    1    4    4    0    0  0.46165258414E-01 -0.12639873986E-01 -0.31891183369E-01  0.57517877191E-01  0.51100000000E-03 0.  1.
</event>
<event>
 8    1  0.1117354E+005  0.1043930E+01  0.7957747E-01            NaN
         13   -1    0    0    0    0  0.00000000000E+00  0.00000000000E+00  0.74505805969E-08  0.10566000000E+00  0.10566000000E+00 0.  1.
     999900   -1    0    0    0    0 -0.00000000000E+00 -0.00000000000E+00 -0.74505805969E-08  0.93827000000E+00  0.93827000000E+00 0. -1.
     999902    2    1    2    0    0  0.41694922606E-03  0.44184975396E-02  0.22562882158E-01  0.10209347697E+01  0.10206757679E+01 0.  0.
     999903    2    3    3    0    0 -0.17378812693E-01  0.11712808153E+00  0.56921850585E-01  0.13290285684E+00  0.20051475507E-01 0.  0.
         14    1    1    2    0    0 -0.41694922606E-03 -0.44184975396E-02 -0.22562882158E-01  0.22995230341E-01  0.00000000000E+00 0. -1.
     999901    1    3    3    0    0  0.17795761919E-01 -0.11270958399E+00 -0.34358968426E-01  0.88803191281E+00  0.88000000000E+00 0. -1.
        -11    1    4    4    0    0 -0.12819228252E-01  0.27443367447E-01  0.14372537265E-01  0.33530612554E-01  0.51100000000E-03 0. -1.
         11    1    4    4    0    0 -0.45595844409E-02  0.89684714082E-01  0.42549313320E-01  0.99372244290E-01  0.51100000000E-03 0.  1.
</event>
<event>
 8    1  0.1117354E+005  0.1043930E+01  0.7957747E-01            NaN
         13   -1    0    0    0    0  0.00000000000E+00  0.00000000000E+00  0.74505805969E-08  0.10566000000E+00  0.10566000000E+00 0.  1.
     999900   -1    0    0    0    0 -0.00000000000E+00 -0.00000000000E+00 -0.74505805969E-08  0.93827000000E+00  0.93827000000E+00 0. -1.
     999902    2    1    2    0    0 -0.12368972860E-02  0.99565504981E-02  0.21868775698E-01  0.10198695311E+01  0.10195856778E+01 0.  0.
     999903    2    3    3    0    0  0.26573043492E-01  0.42876727485E-01 -0.11580605541E+00  0.12812321630E+00  0.21447043720E-01 0.  0.
         14    1    1    2    0    0  0.12368972860E-02 -0.99565504981E-02 -0.21868775698E-01  0.24060468891E-01  0.00000000000E+00 0.  1.
     999901    1    3    3    0    0 -0.27809940779E-01 -0.32920176986E-01  0.13767483111E+00  0.89174631481E+00  0.88000000000E+00 0.  1.
        -11    1    4    4    0    0  0.25065700565E-01  0.26499739997E-01 -0.62850849311E-01  0.72670598902E-01  0.51100000000E-03 0. -1.
         11    1    4    4    0    0  0.15073429278E-02  0.16376987487E-01 -0.52955206101E-01  0.55452617395E-01  0.51100000000E-03 0.  1.
</event>
<event>
 8    1  0.1117354E+005  0.1043930E+01  0.7957747E-01            NaN
         13   -1    0    0    0    0  0.00000000000E+00  0.00000000000E+00  0.74505805969E-08  0.10566000000E+00  0.10566000000E+00 0. -1.
     999900   -1    0    0    0    0 -0.00000000000E+00 -0.00000000000E+00 -0.74505805969E-08  0.93827000000E+00  0.93827000000E+00 0.  1.
     999902    2    1    2    0    0  0.18400429339E-01  0.90741488608E-02  0.10157179298E-01  0.10210371131E+01  0.10207804378E+01 0.  0.
     999903    2    3    3    0    0 -0.10594426129E+00 -0.14047394338E-01  0.71224394866E-01  0.12989996732E+00  0.19482589597E-01 0.  0.
         14    1    1    2    0    0 -0.18400429339E-01 -0.90741488608E-02 -0.10157179298E-01  0.22892886858E-01  0.00000000000E+00 0. -1.
     999901    1    3    3    0    0  0.12434469063E+00  0.23121543199E-01 -0.61067215568E-01  0.89113714582E+00  0.88000000000E+00 0. -1.
        -11    1    4    4    0    0 -0.94382744368E-01 -0.15228161409E-01  0.69369267498E-01  0.11812009028E+00  0.51100000000E-03 0. -1.
         11    1    4    4    0    0 -0.11561516923E-01  0.11807670713E-02  0.18551273684E-02  0.11779877037E-01  0.51100000000E-03 0.  1.
</event>
<event>
 8    1  0.1117354E+005  0.1043930E+01  0.7957747E-01            NaN
         13   -1    0    0    0    0  0.00000000000E+00  0.00000000000E+00  0.74505805969E-08  0.10566000000E+00  0.10566000000E+00 0.  1.
     999900   -1    0    0    0    0 -0.00000000000E+00 -0.00000000000E+00 -0.74505805969E-08  0.93827000000E+00  0.93827000000E+00 0. -1.
     999902    2    1    2    0    0  0.92291860975E-02 -0.20335125737E-01  0.60258118762E-02  0.10207998114E+01  0.10205377256E+01 0.  0.
     999903    2    3    3    0    0 -0.36798393074E-01  0.85631071859E-01 -0.86057062220E-01  0.12848449228E+00  0.20387363688E-01 0.  0.
         14    1    1    2    0    0 -0.92291860975E-02  0.20335125737E-01 -0.60258118762E-02  0.23130188575E-01  0.00000000000E+00 0.  1.
     999901    1    3    3    0    0  0.46027579172E-01 -0.10596619760E+00  0.92082874097E-01  0.89231531914E+00  0.88000000000E+00 0. -1.
        -11    1    4    4    0    0 -0.13289533099E-01  0.32798050602E-01 -0.19853269271E-01  0.40580010289E-01  0.51100000000E-03 0.  1.
         11    1    4    4    0    0 -0.23508859975E-01  0.52833021257E-01 -0.66203792949E-01  0.87904481992E-01  0.51100000000E-03 0. -1.
</event>
<event>
 8    1  0.1117354E+005  0.1043930E+01  0.7957747E-01            NaN
         13   -1    0    0    0    0  0.00000000000E+00  0.00000000000E+00  0.74505805969E-08  0.10566000000E+00  0.10566000000E+00 0.  1.
     999900   -1    0    0    0    0 -0.00000000000E+00 -0.00000000000E+00 -0.74505805969E-08  0.93827000000E+00  0.93827000000E+00 0.  1.
     999902    2    1    2    0    0  0.10925712774E-01  0.24392847866E-02  0.22079052812E-01  0.10191750837E+01  0.10188744011E+01 0.  0.
     999903    2    3    3    0    0 -0.12832249380E-01 -0.47844150325E-01  0.12031346991E+00  0.13196436161E+00  0.22034798605E-01 0.  0.
         14    1    1    2    0    0 -0.10925712774E-01 -0.24392847866E-02 -0.22079052812E-01  0.24754916340E-01  0.00000000000E+00 0. -1.
     999901    1    3    3    0    0  0.23757962154E-01  0.50283435111E-01 -0.98234417099E-01  0.88721072205E+00  0.88000000000E+00 0.  1.
        -11    1    4    4    0    0 -0.22795763945E-02 -0.19177022172E-01  0.74009103395E-01  0.76488974070E-01  0.51100000000E-03 0.  1.
         11    1    4    4    0    0 -0.10552672985E-01 -0.28667128153E-01  0.46304366516E-01  0.55475387544E-01  0.51100000000E-03 0. -1.
</event>
<event>
 8    1  0.1117354E+005  0.1043930E+01  0.7957747E-01            NaN
         13   -1    0    0    0    0  0.00000000000E+00  0.00000000000E+00  0.74505805969E-08  0.10566000000E+00  0.10566000000E+00 0. -1.
     999900   -1    0    0    0    0 -0.00000000000E+00 -0.00000000000E+00 -0.74505805969E-08  0.93827000000E+00  0.93827000000E+00 0. -1.
     999902    2    1    2    0    0  0.45862739877E-02 -0.20545664122E-01  0.22131994532E-01  0.10133852229E+01  0.10129247883E+01 0.  0.
     999903    2    3    3    0    0 -0.43476125562E-01 -0.32667477111E-02  0.11738103743E+00  0.12677316834E+00  0.19806138652E-01 0.  0.
         14    1    1    2    0    0 -0.45862739877E-02  0.20545664122E-01 -0.22131994532E-01  0.30544777054E-01  0.00000000000E+00 0.  1.
     999901    1    3    3    0    0  0.48062399550E-01 -0.17278916411E-01 -0.95249042896E-01  0.88661205461E+00  0.88000000000E+00 0. -1.
        -11    1    4    4    0    0 -0.14378137583E-01 -0.82328333583E-02  0.59931532326E-01  0.62181669915E-01  0.51100000000E-03 0.  1.
         11    1    4    4    0    0 -0.29097987980E-01  0.49660856473E-02  0.57449505102E-01  0.64591498424E-01  0.51100000000E-03 0. -1.
</event>
<event>
 8    1  0.1117354E+005  0.1043930E+01  0.7957747E-01            NaN
         13   -1    0    0    0    0  0.00000000000E+00  0.00000000000E+00  0.74505805969E-08  0.10566000000E+00  0.10566000000E+00 0. -1.
     999900   -1    0    0    0    0 -0.00000000000E+00 -0.00000000000E+00 -0.74505805969E-08  0.93827000000E+00  0.93827000000E+00 0.  1.
     999902    2    1    2    0    0  0.93314178886E-02  0.18712726700E-02  0.21689077386E-01  0.10202447071E+01  0.10199697394E+01 0.  0.
     999903    2    3    3    0    0  0.89339078548E-01 -0.93598272256E-01  0.10149512594E-01  0.13139780166E+00  0.20500296371E-01 0.  0.
         14    1    1    2    0    0 -0.93314178886E-02 -0.18712726700E-02 -0.21689077386E-01  0.23685292885E-01  0.00000000000E+00 0.  1.
     999901    1    3    3    0    0 -0.80007660659E-01  0.95469544926E-01  0.11539564792E-01  0.88884690545E+00  0.88000000000E+00 0. -1.
        -11    1    4    4    0    0  0.41174329239E-01 -0.37443690793E-01  0.13742953300E-01  0.57327875025E-01  0.51100000000E-03 0. -1.
         11    1    4    4    0    0  0.48164749309E-01 -0.56154581463E-01 -0.35934407065E-02  0.74069926640E-01  0.51100000000E-03 0.  1.
</event>
<event>
 8    1  0.1117354E+005  0.1043930E+01  0.7957747E-01            NaN
         13   -1    0    0    0    0  0.00000000000E+00  0.00000000000E+00  0.74505805969E-08  0.10566000000E+00  0.10566000000E+00 0. -1.
     999900   -1    0    0    0    0 -0.00000000000E+00 -0.00000000000E+00 -0.74505805969E-08  0.93827000000E+00  0.93827000000E+00 0.  1.
     999902    2    1    2    0    0  0.14867781997E-01 -0.11999001250E-01  0.16641552446E-01  0.10185929078E+01  0.10182777340E+01 0.  0.
     999903    2    3    3    0    0  0.89081966444E-03 -0.53378887811E-01  0.11869411989E+00  0.13161918949E+00  0.19626964099E-01 0.  0.
         14    1    1    2    0    0 -0.14867781997E-01  0.11999001250E-01 -0.16641552446E-01  0.25337092184E-01  0.00000000000E+00 0.  1.
     999901    1    3    3    0    0  0.13976962332E-01  0.41379886561E-01 -0.10205256745E+00  0.88697371833E+00  0.88000000000E+00 0.  1.
        -11    1    4    4    0    0  0.42384421381E-02 -0.41742311965E-01  0.71586105726E-01  0.82977205629E-01  0.51100000000E-03 0. -1.
         11    1    4    4    0    0 -0.33476224737E-02 -0.11636575846E-01  0.47108014168E-01  0.48641983857E-01  0.51100000000E-03 0.  1.
</event>
<event>
 8    1  0.1117354E+005  0.1043930E+01  0.7957747E-01            NaN
         13   -1    0    0    0    0  0.00000000000E+00  0.00000000000E+00  0.74505805969E-08  0.10566000000E+00  0.10566000000E+00 0. -1.
     999900   -1    0    0    0    0 -0.00000000000E+00 -0.00000000000E+00 -0.74505805969E-08  0.93827000000E+00  0.93827000000E+00 0. -1.
     999902    2    1    2    0    0  0.16397257276E-01  0.13466365086E-01 -0.10729388387E-01  0.10201532717E+01  0.10198761517E+01 0.  0.
     999903    2    3    3    0    0 -0.32474559075E-01 -0.83547846773E-01 -0.91599218698E-01  0.12979371442E+00  0.20521982096E-01 0.  0.
         14    1    1    2    0    0 -0.16397257276E-01 -0.13466365086E-01  0.10729388387E-01  0.23776728328E-01  0.00000000000E+00 0.  1.
     999901    1    3    3    0    0  0.48871816352E-01  0.97014211859E-01  0.80869830311E-01  0.89035955725E+00  0.88000000000E+00 0.  1.
        -11    1    4    4    0    0 -0.15448964046E-01 -0.56037362682E-01 -0.47338574478E-01  0.74967047835E-01  0.51100000000E-03 0.  1.
         11    1    4    4    0    0 -0.17025595029E-01 -0.27510484091E-01 -0.44260644220E-01  0.54826666584E-01  0.51100000000E-03 0. -1.
</event>
<event>
 8    1  0.1117354E+005  0.1043930E+01  0.7957747E-01            NaN
         13   -1    0    0    0    0  0.00000000000E+00  0.00000000000E+00  0.74505805969E-08  0.10566000000E+00  0.10566000000E+00 0. -1.
     999900   -1    0    0    0    0 -0.00000000000E+00 -0.00000000000E+00 -0.74505805969E-08  0.93827000000E+00  0.93827000000E+00 0.  1.
     999902    2    1    2    0    0  0.86096985736E-02  0.56420197044E-02  0.21611393804E-01  0.10199923385E+01  0.10197114096E+01 0.  0.
     999903    2    3    3    0    0 -0.12682739668E+00  0.27813736539E-02  0.68455818207E-02  0.12950403466E+00  0.25129831194E-01 0.  0.
         14    1    1    2    0    0 -0.86096985736E-02 -0.56420197044E-02 -0.21611393804E-01  0.23937661498E-01  0.00000000000E+00 0.  1.
     999901    1    3    3    0    0  0.13543709525E+00  0.28606460505E-02  0.14765811983E-01  0.89048830384E+00  0.88000000000E+00 0.  1.
        -11    1    4    4    0    0 -0.33641741913E-01 -0.76482979645E-04 -0.92497879463E-02  0.34894015915E-01  0.51100000000E-03 0. -1.
         11    1    4    4    0    0 -0.93185654767E-01  0.28578566336E-02  0.16095369767E-01  0.94610018750E-01  0.51100000000E-03 0.  1.
</event>
<event>
 8    1  0.1117354E+005  0.1043930E+01  0.7957747E-01            NaN
         13   -1    0    0    0    0  0.00000000000E+00  0.00000000000E+00  0.74505805969E-08  0.10566000000E+00  0.10566000000E+00 0. -1.
     999900   -1    0    0    0    0 -0.00000000000E+00 -0.00000000000E+00 -0.74505805969E-08  0.93827000000E+00  0.93827000000E+00 0. -1.
     999902    2    1    2    0    0 -0.77873108210E-02  0.90681130543E-02  0.20281166029E-01  0.10203885774E+01  0.10201169787E+01 0.  0.
     999903    2    3    3    0    0 -0.68468618646E-01 -0.66363738895E-02 -0.10718625334E+00  0.12899820551E+00  0.20485383149E-01 0.  0.
         14    1    1    2    0    0  0.77873108210E-02 -0.90681130543E-02 -0.20281166029E-01  0.23541422635E-01  0.00000000000E+00 0.  1.
     999901    1    3    3    0    0  0.60681307825E-01  0.15704486944E-01  0.12746741937E+00  0.89139037185E+00  0.88000000000E+00 0.  1.
        -11    1    4    4    0    0 -0.46636847501E-01 -0.13846584758E-01 -0.69147178353E-01  0.84547719363E-01  0.51100000000E-03 0. -1.
         11    1    4    4    0    0 -0.21831771144E-01  0.72102108681E-02 -0.38039074988E-01  0.44450486150E-01  0.51100000000E-03 0.  1.
</event>
<event>
 8    1  0.1117354E+005  0.1043930E+01  0.7957747E-01            NaN
         13   -1    0    0    0    0  0.00000000000E+00  0.00000000000E+00  0.74505805969E-08  0.10566000000E+00  0.10566000000E+00 0. -1.
     999900   -1    0    0    0    0 -0.00000000000E+00 -0.00000000000E+00 -0.74505805969E-08  0.93827000000E+00  0.93827000000E+00 0.  1.
     999902    2    1    2    0    0 -0.15120272908E-01  0.93709431334E-03  0.17987702000E-01  0.10204128101E+01  0.10201417768E+01 0.  0.
     999903    2    3    3    0    0  0.76103480493E-01  0.49403302968E-01  0.91445409836E-01  0.13133082207E+00  0.25555738250E-01 0.  0.
         14    1    1    2    0    0  0.15120272908E-01 -0.93709431334E-03 -0.17987702000E-01  0.23517189922E-01  0.00000000000E+00 0.  1.
     999901    1    3    3    0    0 -0.91223753401E-01 -0.48466208654E-01 -0.73457707836E-01  0.88908198801E+00  0.88000000000E+00 0. -1.
        -11    1    4    4    0    0  0.41455977677E-01  0.36847142072E-01  0.41570859339E-01  0.69315996936E-01  0.51100000000E-03 0. -1.
         11    1    4    4    0    0  0.34647502816E-01  0.12556160896E-01  0.49874550496E-01  0.62014825131E-01  0.51100000000E-03 0.  1.
</event>
<event>
 8    1  0.1117354E+005  0.1043930E+01  0.7957747E-01            NaN
         13   -1    0    0    0    0  0.00000000000E+00  0.00000000000E+00  0.74505805969E-08  0.10566000000E+00  0.10566000000E+00 0.  1.
     999900   -1    0    0    0    0 -0.00000000000E+00 -0.00000000000E+00 -0.74505805969E-08  0.93827000000E+00  0.93827000000E+00 0. -1.
     999902    2    1    2    0    0 -0.54187241433E-02  0.71340872721E-02 -0.21742005465E-01  0.10204146311E+01  0.10201436403E+01 0.  0.
     999903    2    3    3    0    0  0.47126503728E-01  0.90451725658E-01  0.77158335568E-01  0.12941288740E+00  0.19795571436E-01 0.  0.
         14    1    1    2    0    0  0.54187241433E-02 -0.71340872721E-02  0.21742005465E-01  0.23515368893E-01  0.00000000000E+00 0.  1.
     999901    1    3    3    0    0 -0.52545227871E-01 -0.83317638386E-01 -0.98900341033E-01  0.89100174371E+00  0.88000000000E+00 0. -1.
        -11    1    4    4    0    0  0.38391756273E-01  0.53803838977E-01  0.46143387321E-01  0.80611744509E-01  0.51100000000E-03 0. -1.
         11    1    4    4    0    0  0.87347474548E-02  0.36647886682E-01  0.31014948247E-01  0.48801142887E-01  0.51100000000E-03 0.  1.
</event>
<event>
 8    1  0.1117354E+005  0.1043930E+01  0.7957747E-01            NaN
         13   -1    0    0    0    0  0.00000000000E+00  0.00000000000E+00  0.74505805969E-08  0.10566000000E+00  0.10566000000E+00 0.  1.
     999900   -1    0    0    0    0 -0.00000000000E+00 -0.00000000000E+00 -0.74505805969E-08  0.93827000000E+00  0.93827000000E+00 0. -1.
     999902    2    1    2    0    0 -0.14569204675E-01 -0.21694644242E-01  0.91779485240E-02  0.10162324540E+01  0.10158549338E+01 0.  0.
     999903    2    3    3    0    0 -0.23014978745E-01 -0.94229301853E-01  0.84199333815E-01  0.13002659989E+00  0.20212330165E-01 0.  0.
         14    1    1    2    0    0  0.14569204675E-01  0.21694644242E-01 -0.91779485240E-02  0.27697545970E-01  0.00000000000E+00 0.  1.
     999901    1    3    3    0    0  0.84457740700E-02  0.72534657610E-01 -0.75021385291E-01  0.88620585414E+00  0.88000000000E+00 0. -1.
        -11    1    4    4    0    0 -0.70112202306E-02 -0.59958197125E-01  0.43140973327E-01  0.74199375417E-01  0.51100000000E-03 0. -1.
         11    1    4    4    0    0 -0.16003758514E-01 -0.34271104728E-01  0.41058360488E-01  0.55827224477E-01  0.51100000000E-03 0.  1.
</event>
<event>
 8    1  0.1117354E+005  0.1043930E+01  0.7957747E-01            NaN
         13   -1    0    0    0    0  0.00000000000E+00  0.00000000000E+00  0.74505805969E-08  0.10566000000E+00  0.10566000000E+00 0.  1.
     999900   -1    0    0    0    0 -0.00000000000E+00 -0.00000000000E+00 -0.74505805969E-08  0.93827000000E+00  0.93827000000E+00 0.  1.
     999902    2    1    2    0    0  0.16824761188E-01  0.13074301219E-01  0.11194853401E-01  0.10198606277E+01  0.10195765617E+01 0.  0.
     999903    2    3    3    0    0 -0.84541311847E-01  0.96706602521E-01 -0.48186023134E-03  0.13002593054E+00  0.20176968154E-01 0.  0.
         14    1    1    2    0    0 -0.16824761188E-01 -0.13074301219E-01 -0.11194853401E-01  0.24069372324E-01  0.00000000000E+00 0. -1.
     999901    1    3    3    0    0  0.10136607304E+00 -0.83632301301E-01  0.11676713632E-01  0.88983469713E+00  0.88000000000E+00 0. -1.
        -11    1    4    4    0    0 -0.42835578801E-01  0.56152669197E-01  0.85913715679E-02  0.71148308874E-01  0.51100000000E-03 0.  1.
         11    1    4    4    0    0 -0.41705733046E-01  0.40553933323E-01 -0.90732317992E-02  0.58877621667E-01  0.51100000000E-03 0. -1.
</event>
<event>
 8    1  0.1117354E+005  0.1043930E+01  0.7957747E-01            NaN
         13   -1    0    0    0    0  0.00000000000E+00  0.00000000000E+00  0.74505805969E-08  0.10566000000E+00  0.10566000000E+00 0.  1.
     999900   -1    0    0    0    0 -0.00000000000E+00 -0.00000000000E+00 -0.74505805969E-08  0.93827000000E+00  0.93827000000E+00 0. -1.
     999902    2    1    2    0    0 -0.18390284803E-01 -0.15249508891E-01  0.50765212320E-02  0.10195062172E+01  0.10192136213E+01 0.  0.
     999903    2    3    3    0    0 -0.44771401837E-01 -0.10428056085E+00  0.65485499491E-01  0.13256104633E+00  0.20128749716E-01 0.  0.
         14    1    1    2    0    0  0.18390284803E-01  0.15249508891E-01 -0.50765212320E-02  0.24423782761E-01  0.00000000000E+00 0. -1.
     999901    1    3    3    0    0  0.26381117034E-01  0.89031051963E-01 -0.60408978259E-01  0.88694517091E+00  0.88000000000E+00 0. -1.
        -11    1    4    4    0    0 -0.36682416810E-01 -0.83663076716E-01  0.61304852559E-01  0.11001661773E+00  0.51100000000E-03 0. -1.
         11    1    4    4    0    0 -0.80889850265E-02 -0.20617484137E-01  0.41806469319E-02  0.22544428595E-01  0.51100000000E-03 0.  1.
</event>
<event>
 8    1  0.1117354E+005  0.1043930E+01  0.7957747E-01            NaN
         13   -1    0    0    0    0  0.00000000000E+00  0.00000000000E+00  0.74505805969E-08  0.10566000000E+00  0.10566000000E+00 0.  1.
     999900   -1    0    0    0    0 -0.00000000000E+00 -0.00000000000E+00 -0.74505805969E-08  0.93827000000E+00  0.93827000000E+00 0. -1.
     999902    2    1    2    0    0  0.11823607522E-02  0.11183698929E-01  0.20930961557E-01  0.10201691446E+01  0.10198923989E+01 0.  0.
     999903    2    3    3    0    0 -0.51235738833E-01 -0.94709190243E-01  0.72307855141E-01  0.13078702966E+00  0.16789567061E-01 0.  0.
         14    1    1    2    0    0 -0.11823607522E-02 -0.11183698929E-01 -0.20930961557E-01  0.23760855422E-01  0.00000000000E+00 0. -1.
     999901    1    3    3    0    0  0.52418099585E-01  0.10589288917E+00 -0.51376893584E-01  0.88938211492E+00  0.88000000000E+00 0. -1.
        -11    1    4    4    0    0 -0.35497992214E-01 -0.55776772679E-01  0.52125052178E-01  0.84192861974E-01  0.51100000000E-03 0.  1.
         11    1    4    4    0    0 -0.15737746618E-01 -0.38932417563E-01  0.20182802962E-01  0.46594167686E-01  0.51100000000E-03 0. -1.
</event>
<event>
 8    1  0.1117354E+005  0.1043930E+01  0.7957747E-01            NaN
         13   -1    0    0    0    0  0.00000000000E+00  0.00000000000E+00  0.74505805969E-08  0.10566000000E+00  0.10566000000E+00 0. -1.
     999900   -1    0    0    0    0 -0.00000000000E+00 -0.00000000000E+00 -0.74505805969E-08  0.93827000000E+00  0.93827000000E+00 0. -1.
     999902    2    1    2    0    0  0.21781786518E-02 -0.11595556575E-01 -0.17998522658E-01  0.10224091215E+01  0.10221825979E+01 0.  0.
     999903    2    3    3    0    0 -0.19754274082E-01  0.78112880369E-01 -0.10458916291E+00  0.13334974488E+00  0.18745880501E-01 0.  0.
         14    1    1    2    0    0 -0.21781786518E-02  0.11595556575E-01  0.17998522658E-01  0.21520878523E-01  0.00000000000E+00 0. -1.
     999901    1    3    3    0    0  0.21932452734E-01 -0.89708436944E-01  0.86590640254E-01  0.88905937660E+00  0.88000000000E+00 0.  1.
        -11    1    4    4    0    0 -0.19102199672E-01  0.73039794775E-01 -0.10347520284E+00  0.12809014161E+00  0.51100000000E-03 0.  1.
         11    1    4    4    0    0 -0.65207441054E-03  0.50730855940E-02 -0.11139600680E-02  0.52596032659E-02  0.51100000000E-03 0. -1.
</event>
<event>
 8    1  0.1117354E+005  0.1043930E+01  0.7957747E-01            NaN
         13   -1    0    0    0    0  0.00000000000E+00  0.00000000000E+00  0.74505805969E-08  0.10566000000E+00  0.10566000000E+00 0.  1.
     999900   -1    0    0    0    0 -0.00000000000E+00 -0.00000000000E+00 -0.74505805969E-08  0.93827000000E+00  0.93827000000E+00 0. -1.
     999902    2    1    2    0    0 -0.63242312175E-02  0.21356287711E-01 -0.92771676592E-02  0.10198021579E+01  0.10195166936E+01 0.  0.
     999903    2    3    3    0    0  0.37512850132E-01  0.16885432602E-01 -0.12306033482E+00  0.13138317600E+00  0.20624285950E-01 0.  0.
         14    1    1    2    0    0  0.63242312175E-02 -0.21356287711E-01  0.92771676592E-02  0.24127842114E-01  0.00000000000E+00 0.  1.
     999901    1    3    3    0    0 -0.43837081349E-01  0.44708551098E-02  0.11378316716E+00  0.88841898189E+00  0.88000000000E+00 0.  1.
        -11    1    4    4    0    0  0.22893012972E-01  0.47994363846E-02 -0.41462723989E-01  0.47608226539E-01  0.51100000000E-03 0.  1.
         11    1    4    4    0    0  0.14619837160E-01  0.12085996217E-01 -0.81597610829E-01  0.83774949461E-01  0.51100000000E-03 0. -1.
</event>
<event>
 8    1  0.1138052E+005  0.1043930E+01  0.7957747E-01            NaN
         13   -1    0    0    0    0  0.00000000000E+00  0.00000000000E+00  0.74505805969E-08  0.10566000000E+00  0.10566000000E+00 0.  1.
     999900   -1    0    0    0    0 -0.00000000000E+00 -0.00000000000E+00 -0.74505805969E-08  0.93827000000E+00  0.93827000000E+00 0.  1.
     999902    2    1    2    0    0 -0.18466747810E-01 -0.93647753808E-02  0.11554419551E-01  0.10202187283E+01  0.10199431500E+01 0.  0.
     999903    2    3    3    0    0  0.20065716761E-01  0.68648878539E-01 -0.10463912816E+00  0.12832645819E+00  0.20075637385E-01 0.  0.
         14    1    1    2    0    0  0.18466747810E-01  0.93647753808E-02 -0.11554419551E-01  0.23711271660E-01  0.00000000000E+00 0.  1.
     999901    1    3    3    0    0 -0.38532464571E-01 -0.78013653919E-01  0.11619354771E+00  0.89189227015E+00  0.88000000000E+00 0. -1.
        -11    1    4    4    0    0  0.14382562473E-01  0.21599662108E-01 -0.47134229866E-01  0.53807994318E-01  0.51100000000E-03 0. -1.
         11    1    4    4    0    0  0.56831542885E-02  0.47049216430E-01 -0.57504898291E-01  0.74518463872E-01  0.51100000000E-03 0.  1.
</event>
<event>
 8    1  0.1117354E+005  0.1043930E+01  0.7957747E-01            NaN
         13   -1    0    0    0    0  0.00000000000E+00  0.00000000000E+00  0.74505805969E-08  0.10566000000E+00  0.10566000000E+00 0.  1.
     999900   -1    0    0    0    0 -0.00000000000E+00 -0.00000000000E+00 -0.74505805969E-08  0.93827000000E+00  0.93827000000E+00 0. -1.
     999902    2    1    2    0    0 -0.39431451360E-02 -0.10849864107E-02 -0.21060157153E-01  0.10224764267E+01  0.10222513327E+01 0.  0.
     999903    2    3    3    0    0  0.73512780214E-01  0.55850636454E-02 -0.11074302917E+00  0.13450856269E+00  0.19829602549E-01 0.  0.
         14    1    1    2    0    0  0.39431451360E-02  0.10849864107E-02  0.21060157153E-01  0.21453573324E-01  0.00000000000E+00 0.  1.
     999901    1    3    3    0    0 -0.77455925350E-01 -0.66700500560E-02  0.89682872014E-01  0.88796786399E+00  0.88000000000E+00 0.  1.
        -11    1    4    4    0    0  0.24537468671E-01  0.11320508072E-01 -0.38520384156E-01  0.47056587087E-01  0.51100000000E-03 0. -1.
         11    1    4    4    0    0  0.48975311543E-01 -0.57354444262E-02 -0.72222645011E-01  0.87451975603E-01  0.51100000000E-03 0.  1.
</event>
<event>
 8    1  0.1117354E+005  0.1043930E+01  0.7957747E-01            NaN
         13   -1    0    0    0    0  0.00000000000E+00  0.00000000000E+00  0.74505805969E-08  0.10566000000E+00  0.10566000000E+00 0.  1.
     999900   -1    0    0    0    0 -0.00000000000E+00 -0.00000000000E+00 -0.74505805969E-08  0.93827000000E+00  0.93827000000E+00 0. -1.
     999902    2    1    2    0    0  0.11418754144E-01  0.18517048836E-01 -0.14790289383E-02  0.10221250334E+01  0.10218924245E+01 0.  0.
     999903    2    3    3    0    0  0.15311463840E-01 -0.12332856195E+00 -0.33808693277E-01  0.13017181839E+00  0.18902366103E-01 0.  0.
         14    1    1    2    0    0 -0.11418754144E-01 -0.18517048836E-01  0.14790289383E-02  0.21804966645E-01  0.00000000000E+00 0. -1.
     999901    1    3    3    0    0 -0.38927096960E-02  0.14184561079E+00  0.32329664338E-01  0.89195321496E+00  0.88000000000E+00 0.  1.
        -11    1    4    4    0    0  0.37404750574E-02 -0.91872770254E-01 -0.28261997548E-01  0.96195627209E-01  0.51100000000E-03 0.  1.
         11    1    4    4    0    0  0.11570988783E-01 -0.31455791697E-01 -0.55466957287E-02  0.33976191181E-01  0.51100000000E-03 0. -1.
</event>
<event>
 8    1  0.1117354E+005  0.1043930E+01  0.7957747E-01            NaN
         13   -1    0    0    0    0  0.00000000000E+00  0.00000000000E+00  0.74505805969E-08  0.10566000000E+00  0.10566000000E+00 0. -1.
     999900   -1    0    0    0    0 -0.00000000000E+00 -0.00000000000E+00 -0.74505805969E-08  0.93827000000E+00  0.93827000000E+00 0. -1.
     999902    2    1    2    0    0 -0.22032028328E-02 -0.19354349276E-01 -0.16394456171E-01  0.10184697735E+01  0.10181514899E+01 0.  0.
     999903    2    3    3    0    0  0.10002717323E+00 -0.30888664240E-01  0.71308181573E-01  0.12814632507E+00  0.19418519725E-01 0.  0.
         14    1    1    2    0    0  0.22032028328E-02  0.19354349276E-01  0.16394456171E-01  0.25460226468E-01  0.00000000000E+00 0. -1.
     999901    1    3    3    0    0 -0.10223037606E+00  0.11534314964E-01 -0.87702637745E-01  0.89032344846E+00  0.88000000000E+00 0. -1.
        -11    1    4    4    0    0  0.69627378373E-01 -0.13144552134E-01  0.52849525329E-01  0.88397310583E-01  0.51100000000E-03 0. -1.
         11    1    4    4    0    0  0.30399794852E-01 -0.17744112106E-01  0.18458656244E-01  0.39749014489E-01  0.51100000000E-03 0.  1.
</event>
<event>
 8    1  0.1117354E+005  0.1043930E+01  0.7957747E-01            NaN
         13   -1    0    0    0    0  0.00000000000E+00  0.00000000000E+00  0.74505805969E-08  0.10566000000E+00  0.10566000000E+00 0. -1.
     999900   -1    0    0    0    0 -0.00000000000E+00 -0.00000000000E+00 -0.74505805969E-08  0.93827000000E+00  0.93827000000E+00 0.  1.
     999902    2    1    2    0    0  0.35035313362E-02 -0.13930144222E-01 -0.18005025972E-01  0.10208973143E+01  0.10206374585E+01 0.  0.
     999903    2    3    3    0    0 -0.12178281412E+00  0.17974481196E-02 -0.45606786627E-01  0.13145598251E+00  0.19141883827E-01 0.  0.
         14    1    1    2    0    0 -0.35035313362E-02  0.13930144222E-01  0.18005025972E-01  0.23032685691E-01  0.00000000000E+00 0. -1.
     999901    1    3    3    0    0  0.12528634546E+00 -0.15727592342E-01  0.27601760655E-01  0.88944133180E+00  0.88000000000E+00 0. -1.
        -11    1    4    4    0    0 -0.57448682577E-01 -0.57693445191E-02 -0.28839448790E-01  0.64541547809E-01  0.51100000000E-03 0.  1.
         11    1    4    4    0    0 -0.64334131544E-01  0.75667926387E-02 -0.16767337837E-01  0.66914434702E-01  0.51100000000E-03 0. -1.
</event>
<event>
 8    1  0.1117354E+005  0.1043930E+01  0.7957747E-01            NaN
         13   -1    0    0    0    0  0.00000000000E+00  0.00000000000E+00  0.74505805969E-08  0.10566000000E+00  0.10566000000E+00 0.  1.
     999900   -1    0    0    0    0 -0.00000000000E+00 -0.00000000000E+00 -0.74505805969E-08  0.93827000000E+00  0.93827000000E+00 0. -1.
     999902    2    1    2    0    0 -0.99407724641E-02 -0.12660991728E-01 -0.17199749055E-01  0.10203726012E+01  0.10201006295E+01 0.  0.
     999903    2    3    3    0    0 -0.41679736956E-01  0.11913382466E+00  0.19416862877E-01  0.12923960793E+00  0.19894548111E-01 0.  0.
         14    1    1    2    0    0  0.99407724641E-02  0.12660991728E-01  0.17199749055E-01  0.23557398758E-01  0.00000000000E+00 0.  1.
     999901    1    3    3    0    0  0.31738964491E-01 -0.13179481639E+00 -0.36616611931E-01  0.89113299331E+00  0.88000000000E+00 0.  1.
        -11    1    4    4    0    0 -0.26740006001E-02  0.68550790250E-02 -0.35390028283E-02  0.81809565252E-02  0.51100000000E-03 0.  1.
         11    1    4    4    0    0 -0.39005736355E-01  0.11227874563E+00  0.22955865705E-01  0.12105865141E+00  0.51100000000E-03 0. -1.
</event>
<event>
 8    1  0.1117354E+005  0.1043930E+01  0.7957747E-01            NaN
         13   -1    0    0    0    0  0.00000000000E+00  0.00000000000E+00  0.74505805969E-08  0.10566000000E+00  0.10566000000E+00 0.  1.
     999900   -1    0    0    0    0 -0.00000000000E+00 -0.00000000000E+00 -0.74505805969E-08  0.93827000000E+00  0.93827000000E+00 0.  1.
     999902    2    1    2    0    0  0.22155711651E-02 -0.86723021185E-02 -0.22610045788E-01  0.10196126862E+01  0.10193226663E+01 0.  0.
     999903    2    3    3    0    0  0.11380385981E-01  0.66259783356E-01  0.10598524987E+00  0.12706825519E+00  0.19839259370E-01 0.  0.
         14    1    1    2    0    0 -0.22155711651E-02  0.86723021185E-02  0.22610045788E-01  0.24317313794E-01  0.00000000000E+00 0.  1.
     999901    1    3    3    0    0 -0.91648148164E-02 -0.74932085474E-01 -0.12859529566E+00  0.89254443101E+00  0.88000000000E+00 0.  1.
        -11    1    4    4    0    0  0.16134123446E-01  0.45718493448E-01  0.80667052085E-01  0.94116550062E-01  0.51100000000E-03 0. -1.
         11    1    4    4    0    0 -0.47537374642E-02  0.20541289908E-01  0.25318197787E-01  0.32951705132E-01  0.51100000000E-03 0.  1.
</event>
<event>
 8    1  0.1117354E+005  0.1043930E+01  0.7957747E-01            NaN
         13   -1    0    0    0    0  0.00000000000E+00  0.00000000000E+00  0.74505805969E-08  0.10566000000E+00  0.10566000000E+00 0. -1.
     999900   -1    0    0    0    0 -0.00000000000E+00 -0.00000000000E+00 -0.74505805969E-08  0.93827000000E+00  0.93827000000E+00 0. -1.
     999902    2    1    2    0    0  0.11038735120E-01  0.50471476961E-02  0.20324116416E-01  0.10202572925E+01  0.10199826203E+01 0.  0.
     999903    2    3    3    0    0  0.45143672332E-01  0.52529765919E-01  0.11300055846E+00  0.13346156139E+00  0.15669546825E-01 0.  0.
         14    1    1    2    0    0 -0.11038735120E-01 -0.50471476961E-02 -0.20324116416E-01  0.23672707514E-01  0.00000000000E+00 0.  1.
     999901    1    3    3    0    0 -0.34104937212E-01 -0.47482618223E-01 -0.92676442045E-01  0.88679573109E+00  0.88000000000E+00 0. -1.
        -11    1    4    4    0    0  0.36783846158E-01  0.50179040113E-01  0.96761748053E-01  0.11503949066E+00  0.51100000000E-03 0. -1.
         11    1    4    4    0    0  0.83598261733E-02  0.23507258054E-02  0.16238810409E-01  0.18422070729E-01  0.51100000000E-03 0.  1.
</event>
<event>
 8    1  0.1117354E+005  0.1043930E+01  0.7957747E-01            NaN
         13   -1    0    0    0    0  0.00000000000E+00  0.00000000000E+00  0.74505805969E-08  0.10566000000E+00  0.10566000000E+00 0. -1.
     999900   -1    0    0    0    0 -0.00000000000E+00 -0.00000000000E+00 -0.74505805969E-08  0.93827000000E+00  0.93827000000E+00 0.  1.
     999902    2    1    2    0    0  0.25307193304E-01 -0.69025643063E-03  0.68405520490E-02  0.10177055145E+01  0.10173675789E+01 0.  0.
     999903    2    3    3    0    0 -0.67395441454E-02 -0.29825290176E-01 -0.12153245857E+00  0.12733734716E+00  0.22576361681E-01 0.  0.
         14    1    1    2    0    0 -0.25307193304E-01  0.69025643063E-03 -0.68405520490E-02  0.26224485489E-01  0.00000000000E+00 0. -1.
     999901    1    3    3    0    0  0.32046737449E-01  0.29135033745E-01  0.12837301062E+00  0.89036816735E+00  0.88000000000E+00 0. -1.
        -11    1    4    4    0    0 -0.11278944775E-01 -0.28198715486E-01 -0.80862217715E-01  0.86379057214E-01  0.51100000000E-03 0. -1.
         11    1    4    4    0    0  0.45394006293E-02 -0.16265746900E-02 -0.40670240855E-01  0.40958289948E-01  0.51100000000E-03 0.  1.
</event>
<event>
 8    1  0.1117354E+005  0.1043930E+01  0.7957747E-01            NaN
         13   -1    0    0    0    0  0.00000000000E+00  0.00000000000E+00  0.74505805969E-08  0.10566000000E+00  0.10566000000E+00 0.  1.
     999900   -1    0    0    0    0 -0.00000000000E+00 -0.00000000000E+00 -0.74505805969E-08  0.93827000000E+00  0.93827000000E+00 0. -1.
     999902    2    1    2    0    0 -0.97900655054E-02 -0.21298621035E-01 -0.29226685933E-02  0.10203075820E+01  0.10200340893E+01 0.  0.
     999903    2    3    3    0    0 -0.38858703254E-03  0.87587178420E-01 -0.92569177514E-01  0.12902704161E+00  0.20180684236E-01 0.  0.
         14    1    1    2    0    0  0.97900655054E-02  0.21298621035E-01  0.29226685933E-02  0.23622418003E-01  0.00000000000E+00 0. -1.
     999901    1    3    3    0    0 -0.94014784728E-02 -0.10888579945E+00  0.89646508921E-01  0.89128054039E+00  0.88000000000E+00 0.  1.
        -11    1    4    4    0    0 -0.14588900579E-02  0.54159497408E-01 -0.42727780586E-01  0.69002201954E-01  0.51100000000E-03 0.  1.
         11    1    4    4    0    0  0.10703030253E-02  0.33427681012E-01 -0.49841396928E-01  0.60024839651E-01  0.51100000000E-03 0. -1.
</event>
<event>
 8    1  0.1117354E+005  0.1043930E+01  0.7957747E-01            NaN
         13   -1    0    0    0    0  0.00000000000E+00  0.00000000000E+00  0.74505805969E-08  0.10566000000E+00  0.10566000000E+00 0.  1.
     999900   -1    0    0    0    0 -0.00000000000E+00 -0.00000000000E+00 -0.74505805969E-08  0.93827000000E+00  0.93827000000E+00 0.  1.
     999902    2    1    2    0    0  0.36684490402E-02 -0.18572835932E-01  0.13176492922E-01  0.10208642739E+01  0.10206036636E+01 0.  0.
     999903    2    3    3    0    0 -0.10997197042E+00  0.62314199752E-01 -0.21227924777E-01  0.12921382593E+00  0.16391895917E-01 0.  0.
         14    1    1    2    0    0 -0.36684490402E-02  0.18572835932E-01 -0.13176492922E-01  0.23065726059E-01  0.00000000000E+00 0. -1.
     999901    1    3    3    0    0  0.11364041946E+00 -0.80887035684E-01  0.34404417700E-01  0.89165044801E+00  0.88000000000E+00 0.  1.
        -11    1    4    4    0    0 -0.90215904982E-01  0.47911535876E-01 -0.11122508621E-01  0.10275405637E+00  0.51100000000E-03 0.  1.
         11    1    4    4    0    0 -0.19756065442E-01  0.14402663876E-01 -0.10105416156E-01  0.26459769560E-01  0.51100000000E-03 0. -1.
</event>
<event>
 8    1  0.1117354E+005  0.1043930E+01  0.7957747E-01            NaN
         13   -1    0    0    0    0  0.00000000000E+00  0.00000000000E+00  0.74505805969E-08  0.10566000000E+00  0.10566000000E+00 0. -1.
     999900   -1    0    0    0    0 -0.00000000000E+00 -0.00000000000E+00 -0.74505805969E-08  0.93827000000E+00  0.93827000000E+00 0.  1.
     999902    2    1    2    0    0  0.41730715778E-02  0.21501422645E-01  0.95541155282E-02  0.10200342509E+01  0.10197543166E+01 0.  0.
     999903    2    3    3    0    0  0.65443795621E-01 -0.10414494741E+00 -0.29933060102E-01  0.12812598824E+00  0.19779290155E-01 0.  0.
         14    1    1    2    0    0 -0.41730715778E-02 -0.21501422645E-01 -0.95541155282E-02  0.23895749113E-01  0.00000000000E+00 0.  1.
     999901    1    3    3    0    0 -0.61270724044E-01  0.12564637006E+00  0.39487175631E-01  0.89190826264E+00  0.88000000000E+00 0. -1.
        -11    1    4    4    0    0  0.49327306057E-01 -0.78128732074E-01 -0.31109771177E-01  0.97495440314E-01  0.51100000000E-03 0.  1.
         11    1    4    4    0    0  0.16116489565E-01 -0.26016215339E-01  0.11767110750E-02  0.30630547929E-01  0.51100000000E-03 0. -1.
</event>
<event>
 8    1  0.1117354E+005  0.1043930E+01  0.7957747E-01            NaN
         13   -1    0    0    0    0  0.00000000000E+00  0.00000000000E+00  0.74505805969E-08  0.10566000000E+00  0.10566000000E+00 0.  1.
     999900   -1    0    0    0    0 -0.00000000000E+00 -0.00000000000E+00 -0.74505805969E-08  0.93827000000E+00  0.93827000000E+00 0. -1.
     999902    2    1    2    0    0 -0.22721970711E-01  0.11233553722E-01 -0.36946582730E-02  0.10183149423E+01  0.10179927261E+01 0.  0.
     999903    2    3    3    0    0 -0.10287173394E+00  0.25045527840E-01 -0.75653553048E-01  0.13163978321E+00  0.19892217757E-01 0.  0.
         14    1    1    2    0    0  0.22721970711E-01 -0.11233553722E-01  0.36946582730E-02  0.25615057719E-01  0.00000000000E+00 0.  1.
     999901    1    3    3    0    0  0.80149763225E-01 -0.13811974119E-01  0.71958894775E-01  0.88667515907E+00  0.88000000000E+00 0.  1.
        -11    1    4    4    0    0 -0.84087002258E-01  0.27585646914E-01 -0.65730939959E-01  0.11023796739E+00  0.51100000000E-03 0.  1.
         11    1    4    4    0    0 -0.18784731678E-01 -0.25401190734E-02 -0.99226130885E-02  0.21401815825E-01  0.51100000000E-03 0. -1.
</event>
<event>
 8    1  0.1117354E+005  0.1043930E+01  0.7957747E-01            NaN
         13   -1    0    0    0    0  0.00000000000E+00  0.00000000000E+00  0.74505805969E-08  0.10566000000E+00  0.10566000000E+00 0.  1.
     999900   -1    0    0    0    0 -0.00000000000E+00 -0.00000000000E+00 -0.74505805969E-08  0.93827000000E+00  0.93827000000E+00 0.  1.
     999902    2    1    2    0    0  0.42881358436E-02 -0.22262173973E-01 -0.48591876873E-02  0.10207437065E+01  0.10204803331E+01 0.  0.
     999903    2    3    3    0    0  0.11199953007E+00  0.32831142377E-01  0.54672741401E-01  0.13047348435E+00  0.20308688270E-01 0.  0.
         14    1    1    2    0    0 -0.42881358436E-02  0.22262173973E-01  0.48591876873E-02  0.23186293451E-01  0.00000000000E+00 0.  1.
     999901    1    3    3    0    0 -0.10771139423E+00 -0.55093316350E-01 -0.59531929089E-01  0.89027022220E+00  0.88000000000E+00 0. -1.
        -11    1    4    4    0    0  0.46757213596E-01  0.22858240835E-01  0.29551817502E-01  0.59852378699E-01  0.51100000000E-03 0. -1.
         11    1    4    4    0    0  0.65242316479E-01  0.99729015423E-02  0.25120923900E-01  0.70621105650E-01  0.51100000000E-03 0.  1.
</event>
<event>
 8    1  0.1117354E+005  0.1043930E+01  0.7957747E-01            NaN
         13   -1    0    0    0    0  0.00000000000E+00  0.00000000000E+00  0.74505805969E-08  0.10566000000E+00  0.10566000000E+00 0. -1.
     999900   -1    0    0    0    0 -0.00000000000E+00 -0.00000000000E+00 -0.74505805969E-08  0.93827000000E+00  0.93827000000E+00 0. -1.
     999902    2    1    2    0    0 -0.22139245812E-01 -0.41475072336E-02 -0.42699946858E-02  0.10210044493E+01  0.10207470326E+01 0.  0.
     999903    2    3    3    0    0 -0.11687745944E+00 -0.30272473081E-01 -0.55252646304E-01  0.13406754412E+00  0.18560396270E-01 0.  0.
         14    1    1    2    0    0  0.22139245812E-01  0.41475072336E-02  0.42699946858E-02  0.22925550724E-01  0.00000000000E+00 0. -1.
     999901    1    3    3    0    0  0.94738213632E-01  0.26124965848E-01  0.50982651619E-01  0.88693690516E+00  0.88000000000E+00 0. -1.
        -11    1    4    4    0    0 -0.34051648900E-01 -0.12270940907E-01 -0.25325251193E-01  0.44178278062E-01  0.51100000000E-03 0.  1.
         11    1    4    4    0    0 -0.82825810545E-01 -0.18001532174E-01 -0.29927395111E-01  0.89889266057E-01  0.51100000000E-03 0. -1.
</event>
<event>
 8    1  0.1117354E+005  0.1043930E+01  0.7957747E-01            NaN
         13   -1    0    0    0    0  0.00000000000E+00  0.00000000000E+00  0.74505805969E-08  0.10566000000E+00  0.10566000000E+00 0. -1.
     999900   -1    0    0    0    0 -0.00000000000E+00 -0.00000000000E+00 -0.74505805969E-08  0.93827000000E+00  0.93827000000E+00 0. -1.
     999902    2    1    2    0    0 -0.61324638041E-02  0.21755845571E-01  0.69524936716E-02  0.10202812982E+01  0.10200071894E+01 0.  0.
     999903    2    3    3    0    0  0.63168406784E-01  0.36460175559E-01  0.10773011228E+00  0.13170099434E+00  0.20488601723E-01 0.  0.
         14    1    1    2    0    0  0.61324638041E-02 -0.21755845571E-01 -0.69524936716E-02  0.23648701805E-01  0.00000000000E+00 0.  1.
     999901    1    3    3    0    0 -0.69300870588E-01 -0.14704329988E-01 -0.10077761861E+00  0.88858030385E+00  0.88000000000E+00 0. -1.
        -11    1    4    4    0    0  0.25144618885E-01  0.15907285282E-01  0.62016116648E-01  0.68786288088E-01  0.51100000000E-03 0.  1.
         11    1    4    4    0    0  0.38023787899E-01  0.20552890277E-01  0.45713995634E-01  0.62914706252E-01  0.51100000000E-03 0. -1.
</event>
<event>
 8    1  0.1117354E+005  0.1043930E+01  0.7957747E-01            NaN
         13   -1    0    0    0    0  0.00000000000E+00  0.00000000000E+00  0.74505805969E-08  0.10566000000E+00  0.10566000000E+00 0.  1.
     999900   -1    0    0    0    0 -0.00000000000E+00 -0.00000000000E+00 -0.74505805969E-08  0.93827000000E+00  0.93827000000E+00 0. -1.
     999902    2    1    2    0    0  0.88127593046E-02  0.19956889481E-01  0.96952383780E-02  0.10200565878E+01  0.10197771827E+01 0.  0.
     999903    2    3    3    0    0 -0.79959762791E-01 -0.21101205097E-02  0.10124129046E+00  0.13059147139E+00  0.20157312092E-01 0.  0.
         14    1    1    2    0    0 -0.88127593046E-02 -0.19956889481E-01 -0.96952383780E-02  0.23873412230E-01  0.00000000000E+00 0. -1.
     999901    1    3    3    0    0  0.88772522096E-01  0.22067009991E-01 -0.91546052083E-01  0.88946511638E+00  0.88000000000E+00 0. -1.
        -11    1    4    4    0    0 -0.28438078531E-01  0.86634854542E-02  0.39923997473E-01  0.49779182255E-01  0.51100000000E-03 0.  1.
         11    1    4    4    0    0 -0.51521684260E-01 -0.10773605964E-01  0.61317292988E-01  0.80812289133E-01  0.51100000000E-03 0. -1.
</event>
<event>
 8    1  0.1117354E+005  0.1043930E+01  0.7957747E-01            NaN
         13   -1    0    0    0    0  0.00000000000E+00  0.00000000000E+00  0.74505805969E-08  0.10566000000E+00  0.10566000000E+00 0.  1.
     999900   -1    0    0    0    0 -0.00000000000E+00 -0.00000000000E+00 -0.74505805969E-08  0.93827000000E+00  0.93827000000E+00 0.  1.
     999902    2    1    2    0    0 -0.21536398894E-01  0.53728602544E-02  0.79055315132E-02  0.10203677095E+01  0.10200956235E+01 0.  0.
     999903    2    3    3    0    0  0.80063082971E-01 -0.68633521750E-01 -0.69725667897E-01  0.12805274134E+00  0.20375923024E-01 0.  0.
         14    1    1    2    0    0  0.21536398894E-01 -0.53728602544E-02 -0.79055315132E-02  0.23562290490E-01  0.00000000000E+00 0. -1.
     999901    1    3    3    0    0 -0.10159948187E+00  0.74006382005E-01  0.77631199410E-01  0.89231496817E+00  0.88000000000E+00 0. -1.
        -11    1    4    4    0    0  0.33230496012E-01 -0.27996176844E-01 -0.17009501193E-01  0.46665147968E-01  0.51100000000E-03 0. -1.
         11    1    4    4    0    0  0.46832586959E-01 -0.40637344906E-01 -0.52716166704E-01  0.81387593374E-01  0.51100000000E-03 0.  1.
</event>
<event>
 8    1  0.1117354E+005  0.1043930E+01  0.7957747E-01            NaN
         13   -1    0    0    0    0  0.00000000000E+00  0.00000000000E+00  0.74505805969E-08  0.10566000000E+00  0.10566000000E+00 0. -1.
     999900   -1    0    0    0    0 -0.00000000000E+00 -0.00000000000E+00 -0.74505805969E-08  0.93827000000E+00  0.93827000000E+00 0.  1.
     999902    2    1    2    0    0 -0.11813923444E-01  0.11969328246E-01 -0.16846628280E-01  0.10201257464E+01  0.10198479769E+01 0.  0.
     999903    2    3    3    0    0  0.27325626550E-01  0.57466568472E-01  0.11058903261E+00  0.12892332779E+00  0.18498485248E-01 0.  0.
         14    1    1    2    0    0  0.11813923444E-01 -0.11969328246E-01  0.16846628280E-01  0.23804253616E-01  0.00000000000E+00 0. -1.
     999901    1    3    3    0    0 -0.39139549995E-01 -0.45497240226E-01 -0.12743566089E+00  0.89120241859E+00  0.88000000000E+00 0.  1.
        -11    1    4    4    0    0  0.60109359353E-02  0.33671466695E-01  0.53473425192E-01  0.63478873202E-01  0.51100000000E-03 0.  1.
         11    1    4    4    0    0  0.21314690615E-01  0.23795101777E-01  0.57115607418E-01  0.65444454588E-01  0.51100000000E-03 0. -1.
</event>
<event>
 8    1  0.1117354E+005  0.1043930E+01  0.7957747E-01            NaN
         13   -1    0    0    0    0  0.00000000000E+00  0.00000000000E+00  0.74505805969E-08  0.10566000000E+00  0.10566000000E+00 0. -1.
     999900   -1    0    0    0    0 -0.00000000000E+00 -0.00000000000E+00 -0.74505805969E-08  0.93827000000E+00  0.93827000000E+00 0. -1.
     999902    2    1    2    0    0  0.93628361376E-02  0.17578829600E-01  0.14646218349E-01  0.10192077496E+01  0.10189078699E+01 0.  0.
     999903    2    3    3    0    0  0.26390788384E-01  0.88989973238E-01  0.92735035418E-01  0.13270486418E+00  0.19877251666E-01 0.  0.
         14    1    1    2    0    0 -0.93628361376E-02 -0.17578829600E-01 -0.14646218349E-01  0.24722250354E-01  0.00000000000E+00 0. -1.
     999901    1    3    3    0    0 -0.17027952247E-01 -0.71411143638E-01 -0.78088817069E-01  0.88650288547E+00  0.88000000000E+00 0. -1.
        -11    1    4    4    0    0  0.14336925880E-01  0.71649286185E-01  0.78416302891E-01  0.10718463199E+00  0.51100000000E-03 0.  1.
         11    1    4    4    0    0  0.12053862505E-01  0.17340687053E-01  0.14318732527E-01  0.25520232188E-01  0.51100000000E-03 0. -1.
</event>
<event>
 8    1  0.1117354E+005  0.1043930E+01  0.7957747E-01            NaN
         13   -1    0    0    0    0  0.00000000000E+00  0.00000000000E+00  0.74505805969E-08  0.10566000000E+00  0.10566000000E+00 0. -1.
     999900   -1    0    0    0    0 -0.00000000000E+00 -0.00000000000E+00 -0.74505805969E-08  0.93827000000E+00  0.93827000000E+00 0.  1.
     999902    2    1    2    0    0 -0.39367857971E-02  0.38257275306E-02 -0.23641735159E-01  0.10196593157E+01  0.10193704204E+01 0.  0.
     999903    2    3    3    0    0 -0.76903338954E-01 -0.25703505176E-01  0.97058805762E-01  0.12793922846E+00  0.19319437943E-01 0.  0.
         14    1    1    2    0    0  0.39367857971E-02 -0.38257275306E-02  0.23641735159E-01  0.24270684269E-01  0.00000000000E+00 0. -1.
     999901    1    3    3    0    0  0.72966553157E-01  0.29529232707E-01 -0.12070054092E+00  0.89172008727E+00  0.88000000000E+00 0.  1.
        -11    1    4    4    0    0 -0.47219932967E-01 -0.90233941808E-02  0.67345419582E-01  0.82745455293E-01  0.51100000000E-03 0.  1.
         11    1    4    4    0    0 -0.29683405987E-01 -0.16680110995E-01  0.29713386180E-01  0.45193773168E-01  0.51100000000E-03 0. -1.
</event>
<event>
 7    1  0.1117354E+005  0.1043930E+01  0.7957747E-01            NaN
         13   -1    0    0    0    0  0.00000000000E+00  0.00000000000E+00  0.74505805969E-08  0.10566000000E+00  0.10566000000E+00 0.  1.
     999900   -1    0    0    0    0 -0.00000000000E+00 -0.00000000000E+00 -0.74505805969E-08  0.93827000000E+00  0.93827000000E+00 0.  1.
     999903    2    1    2    0    0  0.11315694369E+00  0.15425349178E-01  0.17561778283E-01  0.11739978002E+00  0.20781169093E-01 0.  0.
         14    1    1    2    0    0 -0.18240473359E-02  0.61072933162E-02 -0.38483341662E-01  0.39007611640E-01  0.00000000000E+00 0. -1.
     999901    1    1    2    0    0 -0.11133289636E+00 -0.21532642495E-01  0.20921563379E-01  0.88752260834E+00  0.88000000000E+00 0.  1.
        -11    1    3    3    0    0  0.41496302038E-01 -0.39079201129E-02  0.93822175191E-02  0.42725894362E-01  0.51100000000E-03 0. -1.
         11    1    3    3    0    0  0.71660641654E-01  0.19333269291E-01  0.81795607641E-02  0.74673885656E-01  0.51100000000E-03 0.  1.
</event>
<event>
 8    1  0.1117354E+005  0.1043930E+01  0.7957747E-01            NaN
         13   -1    0    0    0    0  0.00000000000E+00  0.00000000000E+00  0.74505805969E-08  0.10566000000E+00  0.10566000000E+00 0.  1.
     999900   -1    0    0    0    0 -0.00000000000E+00 -0.00000000000E+00 -0.74505805969E-08  0.93827000000E+00  0.93827000000E+00 0. -1.
     999902    2    1    2    0    0  0.84738021472E-02 -0.20888491118E-01 -0.17476574767E-02  0.10213205177E+01  0.10210702283E+01 0.  0.
     999903    2    3    3    0    0  0.30718364218E-01 -0.12099209583E+00 -0.46033730282E-01  0.13425974836E+00  0.17996403886E-01 0.  0.
         14    1    1    2    0    0 -0.84738021472E-02  0.20888491118E-01  0.17476574767E-02  0.22609482317E-01  0.00000000000E+00 0. -1.
     999901    1    3    3    0    0 -0.22244562071E-01  0.10010360472E+00  0.44286072805E-01  0.88706076932E+00  0.88000000000E+00 0.  1.
        -11    1    4    4    0    0  0.47578624120E-02 -0.50137463162E-01 -0.13961954319E-01  0.52264708518E-01  0.51100000000E-03 0. -1.
         11    1    4    4    0    0  0.25960501806E-01 -0.70854632672E-01 -0.32071775963E-01  0.81995039847E-01  0.51100000000E-03 0.  1.
</event>
<event>
 8    1  0.1117354E+005  0.1043930E+01  0.7957747E-01            NaN
         13   -1    0    0    0    0  0.00000000000E+00  0.00000000000E+00  0.74505805969E-08  0.10566000000E+00  0.10566000000E+00 0. -1.
     999900   -1    0    0    0    0 -0.00000000000E+00 -0.00000000000E+00 -0.74505805969E-08  0.93827000000E+00  0.93827000000E+00 0. -1.
     999902    2    1    2    0    0  0.17574842983E-02  0.21114530093E-01  0.13880783865E-01  0.10186004068E+01  0.10182854219E+01 0.  0.
     999903    2    3    3    0    0  0.34849111405E-01  0.99192124967E-01 -0.73849955540E-01  0.13018167147E+00  0.20974113400E-01 0.  0.
         14    1    1    2    0    0 -0.17574842983E-02 -0.21114530093E-01 -0.13880783865E-01  0.25329593222E-01  0.00000000000E+00 0.  1.
     999901    1    3    3    0    0 -0.33091627107E-01 -0.78077594873E-01  0.87730739404E-01  0.88841873531E+00  0.88000000000E+00 0.  1.
        -11    1    4    4    0    0  0.17545551446E-01  0.22589408884E-01 -0.21754629968E-01  0.35939571719E-01  0.51100000000E-03 0.  1.
         11    1    4    4    0    0  0.17303559959E-01  0.76602716082E-01 -0.52095325572E-01  0.94242099753E-01  0.51100000000E-03 0. -1.
</event>
<event>
 8    1  0.1117354E+005  0.1043930E+01  0.7957747E-01            NaN
         13   -1    0    0    0    0  0.00000000000E+00  0.00000000000E+00  0.74505805969E-08  0.10566000000E+00  0.10566000000E+00 0.  1.
     999900   -1    0    0    0    0 -0.00000000000E+00 -0.00000000000E+00 -0.74505805969E-08  0.93827000000E+00  0.93827000000E+00 0. -1.
     999902    2    1    2    0    0  0.17586140370E-01 -0.99029672444E-02  0.11423318327E-01  0.10207387669E+01  0.10204752799E+01 0.  0.
     999903    2    3    3    0    0  0.10209940486E+00 -0.78984241307E-01 -0.26332454344E-01  0.13319146520E+00  0.19590033231E-01 0.  0.
         14    1    1    2    0    0 -0.17586140370E-01  0.99029672444E-02 -0.11423318327E-01  0.23191233149E-01  0.00000000000E+00 0. -1.
     999901    1    3    3    0    0 -0.84513264491E-01  0.69081274063E-01  0.37755772671E-01  0.88754730165E+00  0.88000000000E+00 0. -1.
        -11    1    4    4    0    0  0.42345686005E-01 -0.44460715317E-01 -0.92257550559E-02  0.62090965584E-01  0.51100000000E-03 0. -1.
         11    1    4    4    0    0  0.59753718856E-01 -0.34523525990E-01 -0.17106699288E-01  0.71100499614E-01  0.51100000000E-03 0.  1.
</event>
<event>
 8    1  0.1117354E+005  0.1043930E+01  0.7957747E-01            NaN
         13   -1    0    0    0    0  0.00000000000E+00  0.00000000000E+00  0.74505805969E-08  0.10566000000E+00  0.10566000000E+00 0. -1.
     999900   -1    0    0    0    0 -0.00000000000E+00 -0.00000000000E+00 -0.74505805969E-08  0.93827000000E+00  0.93827000000E+00 0. -1.
     999902    2    1    2    0    0 -0.20244270751E-01 -0.30826284064E-02  0.87134477631E-02  0.10216756236E+01  0.10214332199E+01 0.  0.
     999903    2    3    3    0    0 -0.63569104087E-01  0.34498006582E-01 -0.10863169001E+00  0.13203568147E+00  0.20035809310E-01 0.  0.
         14    1    1    2    0    0  0.20244270751E-01  0.30826284064E-02 -0.87134477631E-02  0.22254376379E-01  0.00000000000E+00 0.  1.
     999901    1    3    3    0    0  0.43324833336E-01 -0.37580634988E-01  0.11734513777E+00  0.88963994215E+00  0.88000000000E+00 0.  1.
        -11    1    4    4    0    0 -0.19554840493E-01  0.19590188605E-01 -0.31050120602E-01  0.41599740224E-01  0.51100000000E-03 0. -1.
         11    1    4    4    0    0 -0.44014263594E-01  0.14907817977E-01 -0.77581569407E-01  0.90435941247E-01  0.51100000000E-03 0.  1.
</event>
<event>
 8    1  0.1117354E+005  0.1043930E+01  0.7957747E-01            NaN
         13   -1    0    0    0    0  0.00000000000E+00  0.00000000000E+00  0.74505805969E-08  0.10566000000E+00  0.10566000000E+00 0.  1.
     999900   -1    0    0    0    0 -0.00000000000E+00 -0.00000000000E+00 -0.74505805969E-08  0.93827000000E+00  0.93827000000E+00 0. -1.
     999902    2    1    2    0    0  0.11095971936E-01 -0.12272140659E-01  0.15629791280E-01  0.10211700263E+01  0.10209163561E+01 0.  0.
     999903    2    3    3    0    0  0.91841434913E-01 -0.85422389494E-01 -0.38502936784E-01  0.13280009151E+00  0.20531789296E-01 0.  0.
         14    1    1    2    0    0 -0.11095971936E-01  0.12272140659E-01 -0.15629791280E-01  0.22759973749E-01  0.00000000000E+00 0.  1.
     999901    1    3    3    0    0 -0.80745462976E-01  0.73150248835E-01  0.54132728064E-01  0.88836993474E+00  0.88000000000E+00 0.  1.
        -11    1    4    4    0    0  0.36769527465E-01 -0.47431019335E-01 -0.14752561636E-01  0.61802903985E-01  0.51100000000E-03 0. -1.
         11    1    4    4    0    0  0.55071907448E-01 -0.37991370159E-01 -0.23750375148E-01  0.70997187530E-01  0.51100000000E-03 0.  1.
</event>
<event>
 8    1  0.1117354E+005  0.1043930E+01  0.7957747E-01            NaN
         13   -1    0    0    0    0  0.00000000000E+00  0.00000000000E+00  0.74505805969E-08  0.10566000000E+00  0.10566000000E+00 0. -1.
     999900   -1    0    0    0    0 -0.00000000000E+00 -0.00000000000E+00 -0.74505805969E-08  0.93827000000E+00  0.93827000000E+00 0. -1.
     999902    2    1    2    0    0 -0.17037318961E-01  0.12689343361E-01  0.83005294194E-02  0.10211223596E+01  0.10208676137E+01 0.  0.
     999903    2    3    3    0    0 -0.75586950898E-01  0.10840521991E+00 -0.69091002751E-02  0.13386764912E+00  0.20192398698E-01 0.  0.
         14    1    1    2    0    0  0.17037318961E-01 -0.12689343361E-01 -0.83005294194E-02  0.22807640407E-01  0.00000000000E+00 0.  1.
     999901    1    3    3    0    0  0.58549631937E-01 -0.95715876544E-01  0.15209629694E-01  0.88725471047E+00  0.88000000000E+00 0.  1.
        -11    1    4    4    0    0 -0.50952614780E-01  0.71517561308E-01  0.49404604575E-02  0.87952258634E-01  0.51100000000E-03 0. -1.
         11    1    4    4    0    0 -0.24634336118E-01  0.36887658597E-01 -0.11849560733E-01  0.45915390484E-01  0.51100000000E-03 0.  1.
</event>
<event>
 8    1  0.1117354E+005  0.1043930E+01  0.7957747E-01            NaN
         13   -1    0    0    0    0  0.00000000000E+00  0.00000000000E+00  0.74505805969E-08  0.10566000000E+00  0.10566000000E+00 0.  1.
     999900   -1    0    0    0    0 -0.00000000000E+00 -0.00000000000E+00 -0.74505805969E-08  0.93827000000E+00  0.93827000000E+00 0. -1.
     999902    2    1    2    0    0 -0.58746838226E-02  0.22755801349E-01  0.49620067731E-02  0.10199100101E+01  0.10196271224E+01 0.  0.
     999903    2    3    3    0    0 -0.13181147610E-01 -0.12090427639E+00  0.32866139557E-01  0.12779441051E+00  0.21439252038E-01 0.  0.
         14    1    1    2    0    0  0.58746838226E-02 -0.22755801349E-01 -0.49620067731E-02  0.24019989930E-01  0.00000000000E+00 0.  1.
     999901    1    3    3    0    0  0.73064637876E-02  0.14366007773E+00 -0.27904132784E-01  0.89211559956E+00  0.88000000000E+00 0.  1.
        -11    1    4    4    0    0 -0.80487871865E-02 -0.10816841787E+00  0.23004673898E-01  0.11088131377E+00  0.51100000000E-03 0.  1.
         11    1    4    4    0    0 -0.51323604238E-02 -0.12735858511E-01  0.98614656585E-02  0.16913096744E-01  0.51100000000E-03 0. -1.
</event>
<event>
 8    1  0.1117354E+005  0.1043930E+01  0.7957747E-01            NaN
         13   -1    0    0    0    0  0.00000000000E+00  0.00000000000E+00  0.74505805969E-08  0.10566000000E+00  0.10566000000E+00 0.  1.
     999900   -1    0    0    0    0 -0.00000000000E+00 -0.00000000000E+00 -0.74505805969E-08  0.93827000000E+00  0.93827000000E+00 0.  1.
     999902    2    1    2    0    0 -0.20965529440E-01 -0.10441146704E-01 -0.23019348520E-02  0.10203955598E+01  0.10201241242E+01 0.  0.
     999903    2    3    3    0    0 -0.33834276489E-01  0.11374989714E+00  0.49355143948E-01  0.13008242740E+00  0.20042712376E-01 0.  0.
         14    1    1    2    0    0  0.20965529440E-01  0.10441146704E-01  0.23019348520E-02  0.23534440152E-01  0.00000000000E+00 0. -1.
     999901    1    3    3    0    0  0.12868747048E-01 -0.12419104384E+00 -0.51657078800E-01  0.89031313245E+00  0.88000000000E+00 0.  1.
        -11    1    4    4    0    0 -0.32383697402E-02  0.15882710188E-01 -0.14938829271E-03  0.16218229230E-01  0.51100000000E-03 0.  1.
         11    1    4    4    0    0 -0.30595906748E-01  0.97867186950E-01  0.49504532240E-01  0.11386419817E+00  0.51100000000E-03 0. -1.
</event>
<event>
 8    1  0.1117354E+005  0.1043930E+01  0.7957747E-01            NaN
         13   -1    0    0    0    0  0.00000000000E+00  0.00000000000E+00  0.74505805969E-08  0.10566000000E+00  0.10566000000E+00 0.  1.
     999900   -1    0    0    0    0 -0.00000000000E+00 -0.00000000000E+00 -0.74505805969E-08  0.93827000000E+00  0.93827000000E+00 0. -1.
     999902    2    1    2    0    0 -0.84315417892E-02 -0.59313489949E-02  0.19273949399E-01  0.10220723486E+01  0.10218386022E+01 0.  0.
     999903    2    3    3    0    0 -0.85865295798E-01 -0.38892678321E-01  0.94325884581E-01  0.13487720186E+00  0.20223689798E-01 0.  0.
         14    1    1    2    0    0  0.84315417892E-02  0.59313489949E-02 -0.19273949399E-01  0.21857651367E-01  0.00000000000E+00 0. -1.
     999901    1    3    3    0    0  0.77433754008E-01  0.32961329326E-01 -0.75051935182E-01  0.88719514678E+00  0.88000000000E+00 0. -1.
        -11    1    4    4    0    0 -0.48628695855E-01 -0.16254469363E-01  0.38857430835E-01  0.64335984387E-01  0.51100000000E-03 0. -1.
         11    1    4    4    0    0 -0.37236599942E-01 -0.22638208957E-01  0.55468453746E-01  0.70541217469E-01  0.51100000000E-03 0.  1.
</event>
<event>
 8    1  0.1117354E+005  0.1043930E+01  0.7957747E-01            NaN
         13   -1    0    0    0    0  0.00000000000E+00  0.00000000000E+00  0.74505805969E-08  0.10566000000E+00  0.10566000000E+00 0.  1.
     999900   -1    0    0    0    0 -0.00000000000E+00 -0.00000000000E+00 -0.74505805969E-08  0.93827000000E+00  0.93827000000E+00 0.  1.
     999902    2    1    2    0    0  0.12795848558E-01 -0.19134986243E-02  0.20458457568E-01  0.10197237259E+01  0.10194363803E+01 0.  0.
     999903    2    3    3    0    0 -0.90296687418E-01 -0.79170061735E-01 -0.40332217144E-01  0.12826864932E+00  0.20118852470E-01 0.  0.
         14    1    1    2    0    0 -0.12795848558E-01  0.19134986243E-02 -0.20458457568E-01  0.24206274050E-01  0.00000000000E+00 0. -1.
     999901    1    3    3    0    0  0.10309253598E+00  0.77256563111E-01  0.60790674712E-01  0.89145507663E+00  0.88000000000E+00 0. -1.
        -11    1    4    4    0    0 -0.80097204730E-01 -0.69173536780E-01 -0.28209685933E-01  0.10952893635E+00  0.51100000000E-03 0.  1.
         11    1    4    4    0    0 -0.10199482688E-01 -0.99965249549E-02 -0.12122531210E-01  0.18739712971E-01  0.51100000000E-03 0. -1.
</event>
<event>
 8    1  0.1117354E+005  0.1043930E+01  0.7957747E-01            NaN
         13   -1    0    0    0    0  0.00000000000E+00  0.00000000000E+00  0.74505805969E-08  0.10566000000E+00  0.10566000000E+00 0.  1.
     999900   -1    0    0    0    0 -0.00000000000E+00 -0.00000000000E+00 -0.74505805969E-08  0.93827000000E+00  0.93827000000E+00 0. -1.
     999902    2    1    2    0    0 -0.10372875252E-01 -0.21477741038E-01  0.27587384620E-02  0.10199195744E+01  0.10196369146E+01 0.  0.
     999903    2    3    3    0    0  0.53812395307E-01  0.73802210922E-01 -0.87301137692E-01  0.12789446290E+00  0.19823339074E-01 0.  0.
         14    1    1    2    0    0  0.10372875252E-01  0.21477741038E-01 -0.27587384620E-02  0.24010425631E-01  0.00000000000E+00 0. -1.
     999901    1    3    3    0    0 -0.64185270559E-01 -0.95279951960E-01  0.90059876154E-01  0.89202511147E+00  0.88000000000E+00 0. -1.
        -11    1    4    4    0    0  0.23588734859E-01  0.17100207182E-01 -0.29528420422E-01  0.41485349601E-01  0.51100000000E-03 0. -1.
         11    1    4    4    0    0  0.30223660448E-01  0.56702003740E-01 -0.57772717270E-01  0.86409113297E-01  0.51100000000E-03 0.  1.
</event>
<event>
 8    1  0.1117354E+005  0.1043930E+01  0.7957747E-01            NaN
         13   -1    0    0    0    0  0.00000000000E+00  0.00000000000E+00  0.74505805969E-08  0.10566000000E+00  0.10566000000E+00 0.  1.
     999900   -1    0    0    0    0 -0.00000000000E+00 -0.00000000000E+00 -0.74505805969E-08  0.93827000000E+00  0.93827000000E+00 0.  1.
     999902    2    1    2    0    0 -0.28207206078E-01  0.16681529726E-01 -0.50375437626E-03  0.10111554111E+01  0.10106241100E+01 0.  0.
     999903    2    3    3    0    0  0.72638334560E-01  0.78255246453E-01  0.52580111356E-01  0.12167295346E+00  0.25286918524E-01 0.  0.
         14    1    1    2    0    0  0.28207206078E-01 -0.16681529726E-01  0.50375437626E-03  0.32774588894E-01  0.00000000000E+00 0. -1.
     999901    1    3    3    0    0 -0.10084554064E+00 -0.61573716728E-01 -0.53083865732E-01  0.88948245765E+00  0.88000000000E+00 0. -1.
        -11    1    4    4    0    0  0.19407740544E-01  0.85505918130E-02  0.46261296659E-02  0.21712558810E-01  0.51100000000E-03 0. -1.
         11    1    4    4    0    0  0.53230594016E-01  0.69704654640E-01  0.47953981690E-01  0.99960394651E-01  0.51100000000E-03 0.  1.
</event>
<event>
 8    1  0.1117354E+005  0.1043930E+01  0.7957747E-01            NaN
         13   -1    0    0    0    0  0.00000000000E+00  0.00000000000E+00  0.74505805969E-08  0.10566000000E+00  0.10566000000E+00 0.  1.
     999900   -1    0    0    0    0 -0.00000000000E+00 -0.00000000000E+00 -0.74505805969E-08  0.93827000000E+00  0.93827000000E+00 0. -1.
     999902    2    1    2    0    0  0.22939247230E-01 -0.41666251218E-02  0.76723703884E-02  0.10193854467E+01  0.10190899145E+01 0.  0.
     999903    2    3    3    0    0  0.90467223209E-01 -0.18315633702E-02  0.94773741620E-01  0.13250770491E+00  0.19711840581E-01 0.  0.
         14    1    1    2    0    0 -0.22939247230E-01  0.41666251218E-02 -0.76723703884E-02  0.24544553281E-01  0.00000000000E+00 0. -1.
     999901    1    3    3    0    0 -0.67527975979E-01 -0.23350617516E-02 -0.87101371232E-01  0.88687774181E+00  0.88000000000E+00 0. -1.
        -11    1    4    4    0    0  0.29034646045E-01 -0.92189513285E-02  0.36056861804E-01  0.47205488438E-01  0.51100000000E-03 0. -1.
         11    1    4    4    0    0  0.61432577164E-01  0.73873879583E-02  0.58716879817E-01  0.85302216467E-01  0.51100000000E-03 0.  1.
</event>
<event>
 8    1  0.1117354E+005  0.1043930E+01  0.7957747E-01            NaN
         13   -1    0    0    0    0  0.00000000000E+00  0.00000000000E+00  0.74505805969E-08  0.10566000000E+00  0.10566000000E+00 0. -1.
     999900   -1    0    0    0    0 -0.00000000000E+00 -0.00000000000E+00 -0.74505805969E-08  0.93827000000E+00  0.93827000000E+00 0. -1.
     999902    2    1    2    0    0 -0.10011047682E-01  0.18186973801E-01  0.11395993565E-01  0.10202476065E+01  0.10199727069E+01 0.  0.
     999903    2    3    3    0    0  0.88493504642E-01  0.37042802792E-01  0.85936021520E-01  0.13141978017E+00  0.26132149238E-01 0.  0.
         14    1    1    2    0    0  0.10011047682E-01 -0.18186973801E-01 -0.11395993565E-01  0.23682393482E-01  0.00000000000E+00 0.  1.
     999901    1    3    3    0    0 -0.98504552324E-01 -0.18855828992E-01 -0.74540027955E-01  0.88882782634E+00  0.88000000000E+00 0. -1.
        -11    1    4    4    0    0  0.58049496809E-01  0.10475336275E-01  0.49400036781E-01  0.76942195866E-01  0.51100000000E-03 0.  1.
         11    1    4    4    0    0  0.30444007833E-01  0.26567466518E-01  0.36535984740E-01  0.54477584308E-01  0.51100000000E-03 0. -1.
</event>
<event>
 8    1  0.1117354E+005  0.1043930E+01  0.7957747E-01            NaN
         13   -1    0    0    0    0  0.00000000000E+00  0.00000000000E+00  0.74505805969E-08  0.10566000000E+00  0.10566000000E+00 0. -1.
     999900   -1    0    0    0    0 -0.00000000000E+00 -0.00000000000E+00 -0.74505805969E-08  0.93827000000E+00  0.93827000000E+00 0.  1.
     999902    2    1    2    0    0  0.21029577082E-01  0.95994960656E-02 -0.85546111741E-02  0.10192809674E+01  0.10189828829E+01 0.  0.
     999903    2    3    3    0    0  0.81344150486E-01  0.87295707448E-01  0.52411372733E-01  0.13170482967E+00  0.19021009704E-01 0.  0.
         14    1    1    2    0    0 -0.21029577082E-01 -0.95994960656E-02  0.85546111741E-02  0.24649032624E-01  0.00000000000E+00 0. -1.
     999901    1    3    3    0    0 -0.60314573405E-01 -0.77696211382E-01 -0.60965983907E-01  0.88757613770E+00  0.88000000000E+00 0.  1.
        -11    1    4    4    0    0  0.32587562975E-01  0.46790996375E-01  0.30281106711E-01  0.64564333398E-01  0.51100000000E-03 0.  1.
         11    1    4    4    0    0  0.48756587511E-01  0.40504711072E-01  0.22130266021E-01  0.67140496274E-01  0.51100000000E-03 0. -1.
</event>
<event>
 8    1  0.1117354E+005  0.1043930E+01  0.7957747E-01            NaN
         13   -1    0    0    0    0  0.00000000000E+00  0.00000000000E+00  0.74505805969E-08  0.10566000000E+00  0.10566000000E+00 0.  1.
     999900   -1    0    0    0    0 -0.00000000000E+00 -0.00000000000E+00 -0.74505805969E-08  0.93827000000E+00  0.93827000000E+00 0.  1.
     999902    2    1    2    0    0  0.14353073220E-01 -0.86281737056E-03 -0.18559109624E-01  0.10204524423E+01  0.10201823324E+01 0.  0.
     999903    2    3    3    0    0 -0.56149906036E-01 -0.87257652532E-01 -0.79384947564E-01  0.13133236033E+00  0.13398100530E-01 0.  0.
         14    1    1    2    0    0 -0.14353073220E-01  0.86281737056E-03  0.18559109624E-01  0.23477557682E-01  0.00000000000E+00 0. -1.
     999901    1    3    3    0    0  0.70502979255E-01  0.86394835162E-01  0.60825837940E-01  0.88912008198E+00  0.88000000000E+00 0.  1.
        -11    1    4    4    0    0 -0.41935072275E-01 -0.55297912247E-01 -0.56917296777E-01  0.89756610782E-01  0.51100000000E-03 0. -1.
         11    1    4    4    0    0 -0.14214833761E-01 -0.31959740285E-01 -0.22467650787E-01  0.41575749552E-01  0.51100000000E-03 0.  1.
</event>
<event>
 8    1  0.1117354E+005  0.1043930E+01  0.7957747E-01            NaN
         13   -1    0    0    0    0  0.00000000000E+00  0.00000000000E+00  0.74505805969E-08  0.10566000000E+00  0.10566000000E+00 0. -1.
     999900   -1    0    0    0    0 -0.00000000000E+00 -0.00000000000E+00 -0.74505805969E-08  0.93827000000E+00  0.93827000000E+00 0.  1.
     999902    2    1    2    0    0  0.22456002308E-01  0.77755862730E-02 -0.39412824501E-02  0.10198412996E+01  0.10195567717E+01 0.  0.
     999903    2    3    3    0    0  0.17326135670E-01 -0.77090464372E-01 -0.10157035564E+00  0.13036954733E+00  0.20893708417E-01 0.  0.
         14    1    1    2    0    0 -0.22456002308E-01 -0.77755862730E-02  0.39412824501E-02  0.24088700440E-01  0.00000000000E+00 0. -1.
     999901    1    3    3    0    0  0.51298666378E-02  0.84866050645E-01  0.97629073191E-01  0.88947175223E+00  0.88000000000E+00 0. -1.
        -11    1    4    4    0    0  0.23587937870E-02 -0.15995121777E-01 -0.36196005244E-01  0.39646181977E-01  0.51100000000E-03 0.  1.
         11    1    4    4    0    0  0.14967341883E-01 -0.61095342595E-01 -0.65374350397E-01  0.90723365352E-01  0.51100000000E-03 0. -1.
</event>
<event>
 8    1  0.1284887E+005  0.1043930E+01  0.7957747E-01            NaN
         13   -1    0    0    0    0  0.00000000000E+00  0.00000000000E+00  0.74505805969E-08  0.10566000000E+00  0.10566000000E+00 0.  1.
     999900   -1    0    0    0    0 -0.00000000000E+00 -0.00000000000E+00 -0.74505805969E-08  0.93827000000E+00  0.93827000000E+00 0.  1.
     999902    2    1    2    0    0 -0.45244374787E-02 -0.22916765381E-01 -0.60324710969E-04  0.10205707982E+01  0.10203034361E+01 0.  0.
     999903    2    3    3    0    0 -0.11806925505E+00  0.29306781077E-01  0.43306172130E-01  0.13068295276E+00  0.20084152770E-01 0.  0.
         14    1    1    2    0    0  0.45244374787E-02  0.22916765381E-01  0.60324710969E-04  0.23359201808E-01  0.00000000000E+00 0.  1.
     999901    1    3    3    0    0  0.11354481757E+00 -0.52223546459E-01 -0.43366496841E-01  0.88988784543E+00  0.88000000000E+00 0.  1.
        -11    1    4    4    0    0 -0.48141317516E-01  0.12128228174E-01  0.28229835200E-01  0.57112740148E-01  0.51100000000E-03 0. -1.
         11    1    4    4    0    0 -0.69927937532E-01  0.17178552903E-01  0.15076336930E-01  0.73570212610E-01  0.51100000000E-03 0.  1.
</event>
<event>
 8    1  0.1117354E+005  0.1043930E+01  0.7957747E-01            NaN
         13   -1    0    0    0    0  0.00000000000E+00  0.00000000000E+00  0.74505805969E-08  0.10566000000E+00  0.10566000000E+00 0. -1.
     999900   -1    0    0    0    0 -0.00000000000E+00 -0.00000000000E+00 -0.74505805969E-08  0.93827000000E+00  0.93827000000E+00 0.  1.
     999902    2    1    2    0    0 -0.31037668384E-02  0.13891399907E-02  0.24492751701E-01  0.10192023239E+01  0.10189023109E+01 0.  0.
     999903    2    3    3    0    0 -0.96152614248E-01  0.59767263219E-01  0.63910387758E-01  0.13149750625E+00  0.19738427182E-01 0.  0.
         14    1    1    2    0    0  0.31037668384E-02 -0.13891399907E-02 -0.24492751701E-01  0.24727676082E-01  0.00000000000E+00 0.  1.
     999901    1    3    3    0    0  0.93048847410E-01 -0.58378123229E-01 -0.39417636057E-01  0.88770481767E+00  0.88000000000E+00 0.  1.
        -11    1    4    4    0    0 -0.69327573947E-01  0.37695167742E-01  0.53084558800E-01  0.95107674162E-01  0.51100000000E-03 0.  1.
         11    1    4    4    0    0 -0.26825040301E-01  0.22072095477E-01  0.10825828958E-01  0.36389832090E-01  0.51100000000E-03 0. -1.
</event>
<event>
 8    1  0.1117354E+005  0.1043930E+01  0.7957747E-01            NaN
         13   -1    0    0    0    0  0.00000000000E+00  0.00000000000E+00  0.74505805969E-08  0.10566000000E+00  0.10566000000E+00 0.  1.
     999900   -1    0    0    0    0 -0.00000000000E+00 -0.00000000000E+00 -0.74505805969E-08  0.93827000000E+00  0.93827000000E+00 0. -1.
     999902    2    1    2    0    0 -0.68969407102E-02 -0.10206654922E-01 -0.20102408732E-01  0.10203535195E+01  0.10200811018E+01 0.  0.
     999903    2    3    3    0    0  0.76040092007E-01 -0.10001856391E-01 -0.10544354226E+00  0.13234355198E+00  0.22679118674E-01 0.  0.
         14    1    1    2    0    0  0.68969407102E-02  0.10206654922E-01  0.20102408732E-01  0.23576480498E-01  0.00000000000E+00 0.  1.
     999901    1    3    3    0    0 -0.82937032717E-01 -0.20479853160E-03  0.85341133528E-01  0.88800996752E+00  0.88000000000E+00 0.  1.
        -11    1    4    4    0    0  0.48870463519E-01 -0.81787690377E-02 -0.84613087116E-01  0.98055342026E-01  0.51100000000E-03 0. -1.
         11    1    4    4    0    0  0.27169628487E-01 -0.18230873530E-02 -0.20830455144E-01  0.34288209958E-01  0.51100000000E-03 0.  1.
</event>
<event>
 8    1  0.1117354E+005  0.1043930E+01  0.7957747E-01            NaN
         13   -1    0    0    0    0  0.00000000000E+00  0.00000000000E+00  0.74505805969E-08  0.10566000000E+00  0.10566000000E+00 0. -1.
     999900   -1    0    0    0    0 -0.00000000000E+00 -0.00000000000E+00 -0.74505805969E-08  0.93827000000E+00  0.93827000000E+00 0. -1.
     999902    2    1    2    0    0 -0.67240720410E-02  0.11748865964E-01  0.19087095566E-01  0.10205298672E+01  0.10202615565E+01 0.  0.
     999903    2    3    3    0    0 -0.42416004784E-01 -0.34262509933E-01  0.11958041445E+00  0.13289826127E+00  0.19734114588E-01 0.  0.
         14    1    1    2    0    0  0.67240720410E-02 -0.11748865964E-01 -0.19087095566E-01  0.23400132765E-01  0.00000000000E+00 0.  1.
     999901    1    3    3    0    0  0.35691932743E-01  0.46011375897E-01 -0.10049331888E+00  0.88763160597E+00  0.88000000000E+00 0. -1.
        -11    1    4    4    0    0 -0.22744370223E-02 -0.99123022782E-03  0.23028682285E-01  0.23167583601E-01  0.51100000000E-03 0. -1.
         11    1    4    4    0    0 -0.40141567761E-01 -0.33271279705E-01  0.96551732166E-01  0.10973067767E+00  0.51100000000E-03 0.  1.
</event>
<event>
 8    1  0.1117354E+005  0.1043930E+01  0.7957747E-01            NaN
         13   -1    0    0    0    0  0.00000000000E+00  0.00000000000E+00  0.74505805969E-08  0.10566000000E+00  0.10566000000E+00 0.  1.
     999900   -1    0    0    0    0 -0.00000000000E+00 -0.00000000000E+00 -0.74505805969E-08  0.93827000000E+00  0.93827000000E+00 0. -1.
     999902    2    1    2    0    0 -0.16364598616E-01 -0.13997092343E-01  0.89820435793E-02  0.10205977093E+01  0.10203309701E+01 0.  0.
     999903    2    3    3    0    0  0.29286773709E-02  0.12731895538E+00 -0.35968717633E-02  0.12902567916E+00  0.20395951710E-01 0.  0.
         14    1    1    2    0    0  0.16364598616E-01  0.13997092343E-01 -0.89820435793E-02  0.23332290689E-01  0.00000000000E+00 0. -1.
     999901    1    3    3    0    0 -0.19293275987E-01 -0.14131604772E+00  0.12578915343E-01  0.89157203015E+00  0.88000000000E+00 0.  1.
        -11    1    4    4    0    0  0.88231498642E-02  0.63212676691E-01 -0.88263752552E-02  0.64434901172E-01  0.51100000000E-03 0. -1.
         11    1    4    4    0    0 -0.58944724933E-02  0.64106278685E-01  0.52295034918E-02  0.64590777984E-01  0.51100000000E-03 0.  1.
</event>
<event>
 8    1  0.1117354E+005  0.1043930E+01  0.7957747E-01            NaN
         13   -1    0    0    0    0  0.00000000000E+00  0.00000000000E+00  0.74505805969E-08  0.10566000000E+00  0.10566000000E+00 0.  1.
     999900   -1    0    0    0    0 -0.00000000000E+00 -0.00000000000E+00 -0.74505805969E-08  0.93827000000E+00  0.93827000000E+00 0. -1.
     999902    2    1    2    0    0 -0.49824977827E-02 -0.16233781419E-01 -0.17253699631E-01  0.10197215078E+01  0.10194341089E+01 0.  0.
     999903    2    3    3    0    0 -0.11044918614E+00  0.59987703311E-01 -0.27892760932E-01  0.13008892819E+00  0.18643386418E-01 0.  0.
         14    1    1    2    0    0  0.49824977827E-02  0.16233781419E-01  0.17253699631E-01  0.24208492193E-01  0.00000000000E+00 0.  1.
     999901    1    3    3    0    0  0.10546668836E+00 -0.76221484730E-01  0.10639061302E-01  0.88963257962E+00  0.88000000000E+00 0. -1.
        -11    1    4    4    0    0 -0.56374749181E-01  0.39214577257E-01 -0.96135542215E-02  0.69343903556E-01  0.51100000000E-03 0. -1.
         11    1    4    4    0    0 -0.54074436963E-01  0.20773126054E-01 -0.18279206711E-01  0.60745024635E-01  0.51100000000E-03 0.  1.
</event>
<event>
 8    1  0.1117354E+005  0.1043930E+01  0.7957747E-01            NaN
         13   -1    0    0    0    0  0.00000000000E+00  0.00000000000E+00  0.74505805969E-08  0.10566000000E+00  0.10566000000E+00 0.  1.
     999900   -1    0    0    0    0 -0.00000000000E+00 -0.00000000000E+00 -0.74505805969E-08  0.93827000000E+00  0.93827000000E+00 0.  1.
     999902    2    1    2    0    0  0.26536954866E-02 -0.42381208387E-02  0.22836698852E-01  0.10205522631E+01  0.10202844717E+01 0.  0.
     999903    2    3    3    0    0  0.12963582814E+00 -0.31282400592E-02  0.14110273479E-01  0.13139432193E+00  0.15815631349E-01 0.  0.
         14    1    1    2    0    0 -0.26536954866E-02  0.42381208387E-02 -0.22836698852E-01  0.23377736897E-01  0.00000000000E+00 0. -1.
     999901    1    3    3    0    0 -0.12698213265E+00 -0.11098807795E-02  0.87264253727E-02  0.88915794117E+00  0.88000000000E+00 0. -1.
        -11    1    4    4    0    0  0.18266136588E-01  0.78296172316E-03 -0.33528383260E-02  0.18594822417E-01  0.51100000000E-03 0. -1.
         11    1    4    4    0    0  0.11136969155E+00 -0.39112017823E-02  0.17463111805E-01  0.11279949951E+00  0.51100000000E-03 0.  1.
</event>
<event>
 8    1  0.1117354E+005  0.1043930E+01  0.7957747E-01            NaN
         13   -1    0    0    0    0  0.00000000000E+00  0.00000000000E+00  0.74505805969E-08  0.10566000000E+00  0.10566000000E+00 0.  1.
     999900   -1    0    0    0    0 -0.00000000000E+00 -0.00000000000E+00 -0.74505805969E-08  0.93827000000E+00  0.93827000000E+00 0.  1.
     999902    2    1    2    0    0 -0.11648649496E-01 -0.14512528144E-01  0.15135623263E-01  0.10199426784E+01  0.10196605688E+01 0.  0.
     999903    2    3    3    0    0 -0.55446883888E-01 -0.68897414802E-01 -0.94020503989E-01  0.13045346462E+00  0.18895516975E-01 0.  0.
         14    1    1    2    0    0  0.11648649496E-01  0.14512528144E-01 -0.15135623263E-01  0.23987321646E-01  0.00000000000E+00 0. -1.
     999901    1    3    3    0    0  0.43798234392E-01  0.54384886657E-01  0.10915612725E+00  0.88948921373E+00  0.88000000000E+00 0. -1.
        -11    1    4    4    0    0 -0.26715108378E-01 -0.20201117524E-01 -0.40962258842E-01  0.52914553152E-01  0.51100000000E-03 0. -1.
         11    1    4    4    0    0 -0.28731775510E-01 -0.48696297278E-01 -0.53058245147E-01  0.77538911468E-01  0.51100000000E-03 0.  1.
</event>
<event>
 8    1  0.1117354E+005  0.1043930E+01  0.7957747E-01            NaN
         13   -1    0    0    0    0  0.00000000000E+00  0.00000000000E+00  0.74505805969E-08  0.10566000000E+00  0.10566000000E+00 0.  1.
     999900   -1    0    0    0    0 -0.00000000000E+00 -0.00000000000E+00 -0.74505805969E-08  0.93827000000E+00  0.93827000000E+00 0.  1.
     999902    2    1    2    0    0 -0.20983282397E-01 -0.10545751831E-01  0.55232051633E-02  0.10198049753E+01  0.10195195784E+01 0.  0.
     999903    2    3    3    0    0 -0.64145122664E-01  0.11145064708E+00  0.99627319146E-02  0.13032997553E+00  0.18729735702E-01 0.  0.
         14    1    1    2    0    0  0.20983282397E-01  0.10545751831E-01 -0.55232051633E-02  0.24125024707E-01  0.00000000000E+00 0. -1.
     999901    1    3    3    0    0  0.43161840266E-01 -0.12199639891E+00 -0.44395267513E-02  0.88947499976E+00  0.88000000000E+00 0. -1.
        -11    1    4    4    0    0 -0.21778821641E-01  0.22044934725E-01  0.33192840553E-02  0.31170097637E-01  0.51100000000E-03 0.  1.
         11    1    4    4    0    0 -0.42366301023E-01  0.89405712352E-01  0.66434478593E-02  0.99159877895E-01  0.51100000000E-03 0. -1.
</event>
<event>
 8    1  0.1117354E+005  0.1043930E+01  0.7957747E-01            NaN
         13   -1    0    0    0    0  0.00000000000E+00  0.00000000000E+00  0.74505805969E-08  0.10566000000E+00  0.10566000000E+00 0.  1.
     999900   -1    0    0    0    0 -0.00000000000E+00 -0.00000000000E+00 -0.74505805969E-08  0.93827000000E+00  0.93827000000E+00 0. -1.
     999902    2    1    2    0    0  0.16896403836E-02 -0.24930377009E-01 -0.56319503416E-02  0.10183156008E+01  0.10179934014E+01 0.  0.
     999903    2    3    3    0    0  0.90300684372E-01  0.86722721949E-02 -0.90050124119E-01  0.12921072327E+00  0.18893497618E-01 0.  0.
         14    1    1    2    0    0 -0.16896403836E-02  0.24930377009E-01  0.56319503416E-02  0.25614399214E-01  0.00000000000E+00 0.  1.
     999901    1    3    3    0    0 -0.88611043988E-01 -0.33602649204E-01  0.84418173778E-01  0.88910487751E+00  0.88000000000E+00 0.  1.
        -11    1    4    4    0    0  0.13920151595E-01  0.84081976692E-02 -0.15113718015E-01  0.22207070984E-01  0.51100000000E-03 0.  1.
         11    1    4    4    0    0  0.76380532777E-01  0.26407452562E-03 -0.74936406104E-01  0.10700365229E+00  0.51100000000E-03 0. -1.
</event>
<event>
 8    1  0.1117354E+005  0.1043930E+01  0.7957747E-01            NaN
         13   -1    0    0    0    0  0.00000000000E+00  0.00000000000E+00  0.74505805969E-08  0.10566000000E+00  0.10566000000E+00 0.  1.
     999900   -1    0    0    0    0 -0.00000000000E+00 -0.00000000000E+00 -0.74505805969E-08  0.93827000000E+00  0.93827000000E+00 0. -1.
     999902    2    1    2    0    0 -0.18332222860E-01 -0.18223595490E-01  0.71487699488E-02  0.10171107021E+01  0.10167570534E+01 0.  0.
     999903    2    3    3    0    0  0.28389486171E-01  0.65750040594E-01  0.10266604476E+00  0.12674109378E+00  0.19848358687E-01 0.  0.
         14    1    1    2    0    0  0.18332222860E-01  0.18223595490E-01 -0.71487699488E-02  0.26819297891E-01  0.00000000000E+00 0. -1.
     999901    1    3    3    0    0 -0.46721709031E-01 -0.83973636084E-01 -0.95517274810E-01  0.89036960833E+00  0.88000000000E+00 0. -1.
        -11    1    4    4    0    0  0.52342753737E-02  0.27816994882E-01  0.27805489994E-01  0.39681094210E-01  0.51100000000E-03 0. -1.
         11    1    4    4    0    0  0.23155210797E-01  0.37933045712E-01  0.74860554764E-01  0.87059999568E-01  0.51100000000E-03 0.  1.
</event>
<event>
 8    1  0.1117354E+005  0.1043930E+01  0.7957747E-01            NaN
         13   -1    0    0    0    0  0.00000000000E+00  0.00000000000E+00  0.74505805969E-08  0.10566000000E+00  0.10566000000E+00 0. -1.
     999900   -1    0    0    0    0 -0.00000000000E+00 -0.00000000000E+00 -0.74505805969E-08  0.93827000000E+00  0.93827000000E+00 0. -1.
     999902    2    1    2    0    0  0.22891313555E-01 -0.85745485690E-02 -0.12090138383E-03  0.10194851695E+01  0.10191920629E+01 0.  0.
     999903    2    3    3    0    0  0.26719585574E-02  0.20009843186E-01 -0.12660521026E+00  0.12975252982E+00  0.19982656053E-01 0.  0.
         14    1    1    2    0    0 -0.22891313555E-01  0.85745485690E-02  0.12090138383E-03  0.24444830467E-01  0.00000000000E+00 0. -1.
     999901    1    3    3    0    0  0.20219354997E-01 -0.28584391756E-01  0.12648430888E+00  0.88973263971E+00  0.88000000000E+00 0.  1.
        -11    1    4    4    0    0  0.32748281585E-02  0.21521016631E-01 -0.74437529803E-01  0.77556983054E-01  0.51100000000E-03 0.  1.
         11    1    4    4    0    0 -0.60286960110E-03 -0.15111734447E-02 -0.52167680462E-01  0.52195546771E-01  0.51100000000E-03 0. -1.
</event>
<event>
 8    1  0.1117354E+005  0.1043930E+01  0.7957747E-01            NaN
         13   -1    0    0    0    0  0.00000000000E+00  0.00000000000E+00  0.74505805969E-08  0.10566000000E+00  0.10566000000E+00 0.  1.
     999900   -1    0    0    0    0 -0.00000000000E+00 -0.00000000000E+00 -0.74505805969E-08  0.93827000000E+00  0.93827000000E+00 0.  1.
     999902    2    1    2    0    0 -0.10377209666E-01 -0.21121986225E-01 -0.31204266718E-02  0.10201905424E+01  0.10199143008E+01 0.  0.
     999903    2    3    3    0    0 -0.89578910537E-01  0.89904962434E-01 -0.16926309112E-01  0.12957811543E+00  0.19917444013E-01 0.  0.
         14    1    1    2    0    0  0.10377209666E-01  0.21121986225E-01  0.31204266718E-02  0.23739457559E-01  0.00000000000E+00 0. -1.
     999901    1    3    3    0    0  0.79201700871E-01 -0.11102694866E+00  0.13805882441E-01  0.89061242701E+00  0.88000000000E+00 0. -1.
        -11    1    4    4    0    0 -0.53019570573E-01  0.60243400244E-01 -0.18924120305E-01  0.82454384886E-01  0.51100000000E-03 0. -1.
         11    1    4    4    0    0 -0.36559339964E-01  0.29661562190E-01  0.19978111923E-02  0.47123730548E-01  0.51100000000E-03 0.  1.
</event>
<event>
 8    1  0.1117354E+005  0.1043930E+01  0.7957747E-01            NaN
         13   -1    0    0    0    0  0.00000000000E+00  0.00000000000E+00  0.74505805969E-08  0.10566000000E+00  0.10566000000E+00 0.  1.
     999900   -1    0    0    0    0 -0.00000000000E+00 -0.00000000000E+00 -0.74505805969E-08  0.93827000000E+00  0.93827000000E+00 0.  1.
     999902    2    1    2    0    0  0.11565823055E-01  0.70031853350E-02 -0.20612419525E-01  0.10192787382E+01  0.10189805992E+01 0.  0.
     999903    2    3    3    0    0  0.47762670732E-01  0.92765247214E-01 -0.79308306560E-01  0.13242443781E+00  0.18967351761E-01 0.  0.
         14    1    1    2    0    0 -0.11565823055E-01 -0.70031853350E-02  0.20612419525E-01  0.24651261762E-01  0.00000000000E+00 0.  1.
     999901    1    3    3    0    0 -0.36196847677E-01 -0.85762061879E-01  0.58695887035E-01  0.88685430043E+00  0.88000000000E+00 0. -1.
        -11    1    4    4    0    0  0.34100095913E-01  0.65494064476E-01 -0.66379372946E-01  0.99291345527E-01  0.51100000000E-03 0.  1.
         11    1    4    4    0    0  0.13662574819E-01  0.27271182738E-01 -0.12928933614E-01  0.33133092280E-01  0.51100000000E-03 0. -1.
</event>
<event>
 8    1  0.1117354E+005  0.1043930E+01  0.7957747E-01            NaN
         13   -1    0    0    0    0  0.00000000000E+00  0.00000000000E+00  0.74505805969E-08  0.10566000000E+00  0.10566000000E+00 0. -1.
     999900   -1    0    0    0    0 -0.00000000000E+00 -0.00000000000E+00 -0.74505805969E-08  0.93827000000E+00  0.93827000000E+00 0.  1.
     999902    2    1    2    0    0 -0.10986567088E-01 -0.12690193099E-01  0.16906548590E-01  0.10201061245E+01  0.10198278915E+01 0.  0.
     999903    2    3    3    0    0  0.10137901605E+00  0.64902774925E-01  0.42493528038E-01  0.12920692345E+00  0.19966322994E-01 0.  0.
         14    1    1    2    0    0  0.10986567088E-01  0.12690193099E-01 -0.16906548590E-01  0.23823875472E-01  0.00000000000E+00 0.  1.
     999901    1    3    3    0    0 -0.11236558314E+00 -0.77592968025E-01 -0.25586979448E-01  0.89089920108E+00  0.88000000000E+00 0.  1.
        -11    1    4    4    0    0  0.72838784921E-01  0.35830134126E-01  0.25814737921E-01  0.85181857900E-01  0.51100000000E-03 0.  1.
         11    1    4    4    0    0  0.28540231131E-01  0.29072640799E-01  0.16678790117E-01  0.44025065552E-01  0.51100000000E-03 0. -1.
</event>
<event>
 8    1  0.1117354E+005  0.1043930E+01  0.7957747E-01            NaN
         13   -1    0    0    0    0  0.00000000000E+00  0.00000000000E+00  0.74505805969E-08  0.10566000000E+00  0.10566000000E+00 0.  1.
     999900   -1    0    0    0    0 -0.00000000000E+00 -0.00000000000E+00 -0.74505805969E-08  0.93827000000E+00  0.93827000000E+00 0.  1.
     999902    2    1    2    0    0  0.92988361929E-02 -0.18825893382E-01  0.11760886122E-01  0.10198634037E+01  0.10195794040E+01 0.  0.
     999903    2    3    3    0    0  0.65746696369E-02  0.38717954369E-01 -0.12014731084E+00  0.12816923642E+00  0.21205437759E-01 0.  0.
         14    1    1    2    0    0 -0.92988361929E-02  0.18825893382E-01 -0.11760886122E-01  0.24066596323E-01  0.00000000000E+00 0. -1.
     999901    1    3    3    0    0  0.27241665560E-02 -0.57543847750E-01  0.13190819696E+00  0.89169416726E+00  0.88000000000E+00 0. -1.
        -11    1    4    4    0    0  0.10077320861E-01  0.12547754364E-01 -0.65855385722E-01  0.67795217271E-01  0.51100000000E-03 0. -1.
         11    1    4    4    0    0 -0.35026512241E-02  0.26170200004E-01 -0.54291925119E-01  0.60374019147E-01  0.51100000000E-03 0.  1.
</event>
<event>
 8    1  0.1117354E+005  0.1043930E+01  0.7957747E-01            NaN
         13   -1    0    0    0    0  0.00000000000E+00  0.00000000000E+00  0.74505805969E-08  0.10566000000E+00  0.10566000000E+00 0. -1.
     999900   -1    0    0    0    0 -0.00000000000E+00 -0.00000000000E+00 -0.74505805969E-08  0.93827000000E+00  0.93827000000E+00 0.  1.
     999902    2    1    2    0    0  0.26597356359E-01 -0.70329693360E-02 -0.16436876450E-01  0.10118823335E+01  0.10113747099E+01 0.  0.
     999903    2    3    3    0    0 -0.38734109316E-01  0.10339280215E+00 -0.47758657732E-01  0.12202666798E+00  0.20474753910E-01 0.  0.
         14    1    1    2    0    0 -0.26597356359E-01  0.70329693360E-02  0.16436876450E-01  0.32047666536E-01  0.00000000000E+00 0.  1.
     999901    1    3    3    0    0  0.65331465675E-01 -0.11042577149E+00  0.31321781282E-01  0.88985566549E+00  0.88000000000E+00 0.  1.
        -11    1    4    4    0    0 -0.15878370784E-01  0.45981368093E-01 -0.32078256109E-01  0.58272502147E-01  0.51100000000E-03 0. -1.
         11    1    4    4    0    0 -0.22855738532E-01  0.57411434060E-01 -0.15680401623E-01  0.63754165830E-01  0.51100000000E-03 0.  1.
</event>
<event>
 8    1  0.1117354E+005  0.1043930E+01  0.7957747E-01            NaN
         13   -1    0    0    0    0  0.00000000000E+00  0.00000000000E+00  0.74505805969E-08  0.10566000000E+00  0.10566000000E+00 0.  1.
     999900   -1    0    0    0    0 -0.00000000000E+00 -0.00000000000E+00 -0.74505805969E-08  0.93827000000E+00  0.93827000000E+00 0.  1.
     999902    2    1    2    0    0  0.23241944600E-01  0.38036783283E-02 -0.23626854575E-02  0.10202606477E+01  0.10199860543E+01 0.  0.
     999903    2    3    3    0    0 -0.84516472521E-01  0.18630986722E-01 -0.94747660249E-01  0.12876375529E+00  0.10622511974E-01 0.  0.
         14    1    1    2    0    0 -0.23241944600E-01 -0.38036783283E-02  0.23626854575E-02  0.23669352340E-01  0.00000000000E+00 0.  1.
     999901    1    3    3    0    0  0.10775841712E+00 -0.14827308394E-01  0.92384974791E-01  0.89149689237E+00  0.88000000000E+00 0. -1.
        -11    1    4    4    0    0 -0.61262624712E-01  0.15482593145E-01 -0.75147467689E-01  0.98184636773E-01  0.51100000000E-03 0. -1.
         11    1    4    4    0    0 -0.23253847809E-01  0.31483935768E-02 -0.19600192560E-01  0.30579118519E-01  0.51100000000E-03 0.  1.
</event>
<event>
 8    1  0.1117354E+005  0.1043930E+01  0.7957747E-01            NaN
         13   -1    0    0    0    0  0.00000000000E+00  0.00000000000E+00  0.74505805969E-08  0.10566000000E+00  0.10566000000E+00 0. -1.
     999900   -1    0    0    0    0 -0.00000000000E+00 -0.00000000000E+00 -0.74505805969E-08  0.93827000000E+00  0.93827000000E+00 0. -1.
     999902    2    1    2    0    0 -0.10364393822E-01  0.68170438500E-02 -0.18978570482E-01  0.10212566923E+01  0.10210049719E+01 0.  0.
     999903    2    3    3    0    0  0.55273980246E-01  0.40141152917E-01  0.10776905465E+00  0.12913346486E+00  0.19868506688E-01 0.  0.
         14    1    1    2    0    0  0.10364393822E-01 -0.68170438500E-02  0.18978570482E-01  0.22673307736E-01  0.00000000000E+00 0. -1.
     999901    1    3    3    0    0 -0.65638374068E-01 -0.33324109067E-01 -0.12674762513E+00  0.89212322740E+00  0.88000000000E+00 0. -1.
        -11    1    4    4    0    0  0.87195138447E-03  0.69477661598E-02  0.15247999544E-01  0.16786731811E-01  0.51100000000E-03 0.  1.
         11    1    4    4    0    0  0.54402028862E-01  0.33193386757E-01  0.92521055103E-01  0.11234673305E+00  0.51100000000E-03 0. -1.
</event>
<event>
 8    1  0.1117354E+005  0.1043930E+01  0.7957747E-01            NaN
         13   -1    0    0    0    0  0.00000000000E+00  0.00000000000E+00  0.74505805969E-08  0.10566000000E+00  0.10566000000E+00 0.  1.
     999900   -1    0    0    0    0 -0.00000000000E+00 -0.00000000000E+00 -0.74505805969E-08  0.93827000000E+00  0.93827000000E+00 0.  1.
     999902    2    1    2    0    0 -0.50909978705E-02 -0.60644241244E-02  0.19686910032E-01  0.10227104353E+01  0.10224902760E+01 0.  0.
     999903    2    3    3    0    0  0.19925982017E-01 -0.71720227470E-01  0.11099253166E+00  0.13520085770E+00  0.20471786729E-01 0.  0.
         14    1    1    2    0    0  0.50909978705E-02  0.60644241244E-02 -0.19686910032E-01  0.21219564696E-01  0.00000000000E+00 0. -1.
     999901    1    3    3    0    0 -0.25016979888E-01  0.65655803345E-01 -0.91305621626E-01  0.88750957760E+00  0.88000000000E+00 0.  1.
        -11    1    4    4    0    0  0.21707812822E-01 -0.52405724573E-01  0.72130077002E-01  0.91763817678E-01  0.51100000000E-03 0. -1.
         11    1    4    4    0    0 -0.17818308051E-02 -0.19314502897E-01  0.38862454656E-01  0.43437040024E-01  0.51100000000E-03 0.  1.
</event>
<event>
 8    1  0.1117354E+005  0.1043930E+01  0.7957747E-01            NaN
         13   -1    0    0    0    0  0.00000000000E+00  0.00000000000E+00  0.74505805969E-08  0.10566000000E+00  0.10566000000E+00 0. -1.
     999900   -1    0    0    0    0 -0.00000000000E+00 -0.00000000000E+00 -0.74505805969E-08  0.93827000000E+00  0.93827000000E+00 0.  1.
     999902    2    1    2    0    0 -0.15277582528E-01  0.12459367952E-01 -0.12357341721E-01  0.10206631938E+01  0.10203979669E+01 0.  0.
     999903    2    3    3    0    0  0.13118279668E-01  0.70970803367E-01  0.10610831589E+00  0.13034638213E+00  0.22853018169E-01 0.  0.
         14    1    1    2    0    0  0.15277582528E-01 -0.12459367952E-01  0.12357341721E-01  0.23266806228E-01  0.00000000000E+00 0. -1.
     999901    1    3    3    0    0 -0.28395862196E-01 -0.58511435415E-01 -0.11846565762E+00  0.89031681165E+00  0.88000000000E+00 0.  1.
        -11    1    4    4    0    0 -0.61932808829E-02  0.25727258915E-01  0.39212821872E-01  0.47309143932E-01  0.51100000000E-03 0. -1.
         11    1    4    4    0    0  0.19311560551E-01  0.45243544452E-01  0.66895494022E-01  0.83037238195E-01  0.51100000000E-03 0.  1.
</event>
<event>
 8    1  0.1117354E+005  0.1043930E+01  0.7957747E-01            NaN
         13   -1    0    0    0    0  0.00000000000E+00  0.00000000000E+00  0.74505805969E-08  0.10566000000E+00  0.10566000000E+00 0. -1.
     999900   -1    0    0    0    0 -0.00000000000E+00 -0.00000000000E+00 -0.74505805969E-08  0.93827000000E+00  0.93827000000E+00 0. -1.
     999902    2    1    2    0    0  0.17348494401E-01  0.18175580194E-01 -0.53254413405E-02  0.10182457188E+01  0.10179217365E+01 0.  0.
     999903    2    3    3    0    0  0.57399069103E-01  0.77507782450E-01 -0.87182441639E-01  0.13155246452E+00  0.20078927169E-01 0.  0.
         14    1    1    2    0    0 -0.17348494401E-01 -0.18175580194E-01  0.53254413405E-02  0.25684281163E-01  0.00000000000E+00 0. -1.
     999901    1    3    3    0    0 -0.40050574702E-01 -0.59332202256E-01  0.81857000298E-01  0.88669325432E+00  0.88000000000E+00 0.  1.
        -11    1    4    4    0    0  0.20798342721E-01  0.44911981890E-01 -0.43154666375E-01  0.65667674910E-01  0.51100000000E-03 0. -1.
         11    1    4    4    0    0  0.36600726382E-01  0.32595800560E-01 -0.44027775264E-01  0.65884789607E-01  0.51100000000E-03 0.  1.
</event>
<event>
 8    1  0.1117354E+005  0.1043930E+01  0.7957747E-01            NaN
         13   -1    0    0    0    0  0.00000000000E+00  0.00000000000E+00  0.74505805969E-08  0.10566000000E+00  0.10566000000E+00 0. -1.
     999900   -1    0    0    0    0 -0.00000000000E+00 -0.00000000000E+00 -0.74505805969E-08  0.93827000000E+00  0.93827000000E+00 0. -1.
     999902    2    1    2    0    0 -0.10303205053E-01 -0.15962871470E-01  0.14234701462E-01  0.10201898225E+01  0.10199135640E+01 0.  0.
     999903    2    3    3    0    0  0.10057773887E+00  0.60299688581E-01 -0.47184032616E-01  0.12784301626E+00  0.19119881612E-01 0.  0.
         14    1    1    2    0    0  0.10303205053E-01  0.15962871470E-01 -0.14234701462E-01  0.23740177456E-01  0.00000000000E+00 0.  1.
     999901    1    3    3    0    0 -0.11088094392E+00 -0.76262560051E-01  0.61418734078E-01  0.89234680628E+00  0.88000000000E+00 0.  1.
        -11    1    4    4    0    0  0.27815319980E-01  0.26905749070E-01 -0.17183475926E-01  0.42345534882E-01  0.51100000000E-03 0.  1.
         11    1    4    4    0    0  0.72762418891E-01  0.33393939511E-01 -0.30000556691E-01  0.85497481377E-01  0.51100000000E-03 0. -1.
</event>
<event>
 8    1  0.1117354E+005  0.1043930E+01  0.7957747E-01            NaN
         13   -1    0    0    0    0  0.00000000000E+00  0.00000000000E+00  0.74505805969E-08  0.10566000000E+00  0.10566000000E+00 0.  1.
     999900   -1    0    0    0    0 -0.00000000000E+00 -0.00000000000E+00 -0.74505805969E-08  0.93827000000E+00  0.93827000000E+00 0.  1.
     999902    2    1    2    0    0 -0.86873179277E-02  0.87204488652E-02 -0.20106278429E-01  0.10203550524E+01  0.10200826706E+01 0.  0.
     999903    2    3    3    0    0 -0.55319012051E-01  0.11092919300E+00  0.38490308600E-01  0.13127985746E+00  0.19682940962E-01 0.  0.
         14    1    1    2    0    0  0.86873179277E-02 -0.87204488652E-02  0.20106278429E-01  0.23574947582E-01  0.00000000000E+00 0.  1.
     999901    1    3    3    0    0  0.46631694123E-01 -0.10220874414E+00 -0.58596587029E-01  0.88907519496E+00  0.88000000000E+00 0.  1.
        -11    1    4    4    0    0 -0.27167367004E-01  0.56873899517E-01  0.93431076381E-02  0.63720177790E-01  0.51100000000E-03 0. -1.
         11    1    4    4    0    0 -0.28151645046E-01  0.54055293485E-01  0.29147200962E-01  0.67559679673E-01  0.51100000000E-03 0.  1.
</event>
<event>
 8    1  0.1117354E+005  0.1043930E+01  0.7957747E-01            NaN
         13   -1    0    0    0    0  0.00000000000E+00  0.00000000000E+00  0.74505805969E-08  0.10566000000E+00  0.10566000000E+00 0.  1.
     999900   -1    0    0    0    0 -0.00000000000E+00 -0.00000000000E+00 -0.74505805969E-08  0.93827000000E+00  0.93827000000E+00 0.  1.
     999902    2    1    2    0    0  0.13094045431E-01  0.12717873393E-01  0.92635620140E-02  0.10234602196E+01  0.10232554955E+01 0.  0.
     999903    2    3    3    0    0  0.38096372607E-01  0.12700706157E+00  0.20587298636E-01  0.13564528283E+00  0.19841335492E-01 0.  0.
         14    1    1    2    0    0 -0.13094045431E-01 -0.12717873393E-01 -0.92635620140E-02  0.20469780424E-01  0.00000000000E+00 0. -1.
     999901    1    3    3    0    0 -0.25002327176E-01 -0.11428918818E+00 -0.11323736622E-01  0.88781493675E+00  0.88000000000E+00 0.  1.
        -11    1    4    4    0    0  0.22774574778E-01  0.45017208603E-01  0.11447611343E-01  0.51735280546E-01  0.51100000000E-03 0.  1.
         11    1    4    4    0    0  0.15321797829E-01  0.81989852969E-01  0.91396872931E-02  0.83910002284E-01  0.51100000000E-03 0. -1.
</event>
<event>
 8    1  0.1117354E+005  0.1043930E+01  0.7957747E-01            NaN
         13   -1    0    0    0    0  0.00000000000E+00  0.00000000000E+00  0.74505805969E-08  0.10566000000E+00  0.10566000000E+00 0. -1.
     999900   -1    0    0    0    0 -0.00000000000E+00 -0.00000000000E+00 -0.74505805969E-08  0.93827000000E+00  0.93827000000E+00 0. -1.
     999902    2    1    2    0    0  0.14630207974E-01  0.12219416520E-01  0.10654504815E-01  0.10220925185E+01  0.10218592079E+01 0.  0.
     999903    2    3    3    0    0  0.87525600076E-01 -0.88473316275E-01 -0.39761435070E-01  0.13192706667E+00  0.18317227989E-01 0.  0.
         14    1    1    2    0    0 -0.14630207974E-01 -0.12219416520E-01 -0.10654504815E-01  0.21837481501E-01  0.00000000000E+00 0.  1.
     999901    1    3    3    0    0 -0.72895392101E-01  0.10069273280E+00  0.50415939884E-01  0.89016545182E+00  0.88000000000E+00 0.  1.
        -11    1    4    4    0    0  0.17799612301E-01 -0.29488544046E-01 -0.99955275744E-02  0.35868818220E-01  0.51100000000E-03 0.  1.
         11    1    4    4    0    0  0.69725987775E-01 -0.58984772229E-01 -0.29765907495E-01  0.96058248455E-01  0.51100000000E-03 0. -1.
</event>
<event>
 8    1  0.1117354E+005  0.1043930E+01  0.7957747E-01            NaN
         13   -1    0    0    0    0  0.00000000000E+00  0.00000000000E+00  0.74505805969E-08  0.10566000000E+00  0.10566000000E+00 0. -1.
     999900   -1    0    0    0    0 -0.00000000000E+00 -0.00000000000E+00 -0.74505805969E-08  0.93827000000E+00  0.93827000000E+00 0. -1.
     999902    2    1    2    0    0  0.39120573743E-02 -0.62959445426E-02 -0.22601877747E-01  0.10201437017E+01  0.10198663560E+01 0.  0.
     999903    2    3    3    0    0  0.80649109840E-01  0.41222188452E-01  0.88752138242E-01  0.12854611023E+00  0.21062114658E-01 0.  0.
         14    1    1    2    0    0 -0.39120573743E-02  0.62959445426E-02  0.22601877747E-01  0.23786298331E-01  0.00000000000E+00 0. -1.
     999901    1    3    3    0    0 -0.76737052465E-01 -0.47518132994E-01 -0.11135401599E+00  0.89159759144E+00  0.88000000000E+00 0. -1.
        -11    1    4    4    0    0  0.64804361763E-01  0.22971337372E-01  0.67635922857E-01  0.96447741425E-01  0.51100000000E-03 0. -1.
         11    1    4    4    0    0  0.15844748077E-01  0.18250851080E-01  0.21116215385E-01  0.32098368805E-01  0.51100000000E-03 0.  1.
</event>
<event>
 8    1  0.1117354E+005  0.1043930E+01  0.7957747E-01            NaN
         13   -1    0    0    0    0  0.00000000000E+00  0.00000000000E+00  0.74505805969E-08  0.10566000000E+00  0.10566000000E+00 0. -1.
     999900   -1    0    0    0    0 -0.00000000000E+00 -0.00000000000E+00 -0.74505805969E-08  0.93827000000E+00  0.93827000000E+00 0.  1.
     999902    2    1    2    0    0 -0.97316129587E-03 -0.25763408590E-01 -0.33814769079E-02  0.10179274107E+01  0.10175952431E+01 0.  0.
     999903    2    3    3    0    0  0.11882029664E+00  0.31899115034E-02  0.44916416999E-01  0.12802772315E+00  0.15658063475E-01 0.  0.
         14    1    1    2    0    0  0.97316129587E-03  0.25763408590E-01  0.33814769079E-02  0.26002589316E-01  0.00000000000E+00 0.  1.
     999901    1    3    3    0    0 -0.11979345793E+00 -0.28953320093E-01 -0.48297893907E-01  0.88989968753E+00  0.88000000000E+00 0.  1.
        -11    1    4    4    0    0  0.72798549137E-01  0.70539866531E-02  0.21450255883E-01  0.76221795325E-01  0.51100000000E-03 0.  1.
         11    1    4    4    0    0  0.46021747501E-01 -0.38640751497E-02  0.23466161117E-01  0.51805927830E-01  0.51100000000E-03 0. -1.
</event>
<event>
 8    1  0.1117354E+005  0.1043930E+01  0.7957747E-01            NaN
         13   -1    0    0    0    0  0.00000000000E+00  0.00000000000E+00  0.74505805969E-08  0.10566000000E+00  0.10566000000E+00 0. -1.
     999900   -1    0    0    0    0 -0.00000000000E+00 -0.00000000000E+00 -0.74505805969E-08  0.93827000000E+00  0.93827000000E+00 0.  1.
     999902    2    1    2    0    0 -0.25540216734E-01  0.28842191760E-02  0.46512843964E-02  0.10178099725E+01  0.10174747585E+01 0.  0.
     999903    2    3    3    0    0 -0.46175555100E-01 -0.11731294180E+00 -0.18581353854E-01  0.12909577198E+00  0.20638396958E-01 0.  0.
         14    1    1    2    0    0  0.25540216734E-01 -0.28842191760E-02 -0.46512843964E-02  0.26120027519E-01  0.00000000000E+00 0.  1.
     999901    1    3    3    0    0  0.20635338366E-01  0.12019716098E+00  0.23232638251E-01  0.88871420050E+00  0.88000000000E+00 0. -1.
        -11    1    4    4    0    0  0.20584101606E-02 -0.45281843425E-02  0.17406378077E-03  0.50032914195E-02  0.51100000000E-03 0.  1.
         11    1    4    4    0    0 -0.48233965261E-01 -0.11278475746E+00 -0.18755417635E-01  0.12409248056E+00  0.51100000000E-03 0. -1.
</event>
<event>
 8    1  0.1117354E+005  0.1043930E+01  0.7957747E-01            NaN
         13   -1    0    0    0    0  0.00000000000E+00  0.00000000000E+00  0.74505805969E-08  0.10566000000E+00  0.10566000000E+00 0. -1.
     999900   -1    0    0    0    0 -0.00000000000E+00 -0.00000000000E+00 -0.74505805969E-08  0.93827000000E+00  0.93827000000E+00 0.  1.
     999902    2    1    2    0    0 -0.11732379014E-01  0.70098323737E-02  0.21425879041E-01  0.10185163273E+01  0.10181992213E+01 0.  0.
     999903    2    3    3    0    0  0.12646576565E-01  0.17376114324E-01  0.12836516120E+00  0.13164666194E+00  0.19782915395E-01 0.  0.
         14    1    1    2    0    0  0.11732379014E-01 -0.70098323737E-02 -0.21425879041E-01  0.25413672696E-01  0.00000000000E+00 0.  1.
     999901    1    3    3    0    0 -0.24378955579E-01 -0.10366281950E-01 -0.10693928216E+00  0.88686966537E+00  0.88000000000E+00 0.  1.
        -11    1    4    4    0    0  0.10859519210E-01  0.17660040695E-01  0.12807626862E+00  0.12974435594E+00  0.51100000000E-03 0. -1.
         11    1    4    4    0    0  0.17870573557E-02 -0.28392637145E-03  0.28889258288E-03  0.19023059958E-02  0.51100000000E-03 0.  1.
</event>
<event>
 8    1  0.1117354E+005  0.1043930E+01  0.7957747E-01            NaN
         13   -1    0    0    0    0  0.00000000000E+00  0.00000000000E+00  0.74505805969E-08  0.10566000000E+00  0.10566000000E+00 0.  1.
     999900   -1    0    0    0    0 -0.00000000000E+00 -0.00000000000E+00 -0.74505805969E-08  0.93827000000E+00  0.93827000000E+00 0. -1.
     999902    2    1    2    0    0  0.22653670773E-01  0.34214073155E-02  0.87346929605E-02  0.10194108302E+01  0.10191159164E+01 0.  0.
     999903    2    3    3    0    0  0.82684334140E-01  0.96699628597E-01 -0.27668587266E-01  0.13170045741E+00  0.19797537177E-01 0.  0.
         14    1    1    2    0    0 -0.22653670773E-01 -0.34214073155E-02 -0.87346929605E-02  0.24519169819E-01  0.00000000000E+00 0.  1.
     999901    1    3    3    0    0 -0.60030663367E-01 -0.93278221281E-01  0.36403280227E-01  0.88771037277E+00  0.88000000000E+00 0.  1.
        -11    1    4    4    0    0  0.44389060162E-03  0.98158103323E-04 -0.21960919522E-02  0.23001336357E-02  0.51100000000E-03 0.  1.
         11    1    4    4    0    0  0.82240443539E-01  0.96601470493E-01 -0.25472495314E-01  0.12940032378E+00  0.51100000000E-03 0. -1.
</event>
<event>
 8    1  0.1117354E+005  0.1043930E+01  0.7957747E-01            NaN
         13   -1    0    0    0    0  0.00000000000E+00  0.00000000000E+00  0.74505805969E-08  0.10566000000E+00  0.10566000000E+00 0.  1.
     999900   -1    0    0    0    0 -0.00000000000E+00 -0.00000000000E+00 -0.74505805969E-08  0.93827000000E+00  0.93827000000E+00 0.  1.
     999902    2    1    2    0    0  0.18027744835E-01  0.93241973868E-02  0.13021422575E-01  0.10198157369E+01  0.10195305976E+01 0.  0.
     999903    2    3    3    0    0  0.90857802238E-02 -0.12101079649E+00  0.41005746068E-01  0.12973130732E+00  0.20556668477E-01 0.  0.
         14    1    1    2    0    0 -0.18027744835E-01 -0.93241973868E-02 -0.13021422575E-01  0.24114263137E-01  0.00000000000E+00 0. -1.
     999901    1    3    3    0    0  0.89419646117E-02  0.13033499387E+00 -0.27984323493E-01  0.89008442955E+00  0.88000000000E+00 0.  1.
        -11    1    4    4    0    0 -0.21596108979E-02 -0.49173213140E-01  0.25282495078E-01  0.55336556526E-01  0.51100000000E-03 0.  1.
         11    1    4    4    0    0  0.11245391122E-01 -0.71837583347E-01  0.15723250990E-01  0.74394750791E-01  0.51100000000E-03 0. -1.
</event>
<event>
 8    1  0.1117354E+005  0.1043930E+01  0.7957747E-01            NaN
         13   -1    0    0    0    0  0.00000000000E+00  0.00000000000E+00  0.74505805969E-08  0.10566000000E+00  0.10566000000E+00 0.  1.
     999900   -1    0    0    0    0 -0.00000000000E+00 -0.00000000000E+00 -0.74505805969E-08  0.93827000000E+00  0.93827000000E+00 0.  1.
     999902    2    1    2    0    0 -0.19913213275E-01 -0.19018998982E-01  0.14901207019E-01  0.10126201875E+01  0.10121360283E+01 0.  0.
     999903    2    3    3    0    0  0.13415627540E-01 -0.78383010641E-01 -0.92294700697E-01  0.12350497559E+00  0.20280330325E-01 0.  0.
         14    1    1    2    0    0  0.19913213275E-01  0.19018998982E-01 -0.14901207019E-01  0.31309812453E-01  0.00000000000E+00 0. -1.
     999901    1    3    3    0    0 -0.33328840815E-01  0.59364011659E-01  0.10719590772E+00  0.88911521196E+00  0.88000000000E+00 0. -1.
        -11    1    4    4    0    0  0.59281675777E-02 -0.21515934534E-01 -0.13655568761E-01  0.26168956588E-01  0.51100000000E-03 0.  1.
         11    1    4    4    0    0  0.74874599618E-02 -0.56867076108E-01 -0.78639131936E-01  0.97336018998E-01  0.51100000000E-03 0. -1.
</event>
<event>
 8    1  0.1117354E+005  0.1043930E+01  0.7957747E-01            NaN
         13   -1    0    0    0    0  0.00000000000E+00  0.00000000000E+00  0.74505805969E-08  0.10566000000E+00  0.10566000000E+00 0.  1.
     999900   -1    0    0    0    0 -0.00000000000E+00 -0.00000000000E+00 -0.74505805969E-08  0.93827000000E+00  0.93827000000E+00 0.  1.
     999902    2    1    2    0    0  0.19662738201E-01 -0.79991342774E-02  0.80720373787E-02  0.10212194912E+01  0.10209669348E+01 0.  0.
     999903    2    3    3    0    0 -0.52420811599E-01  0.92270973323E-01 -0.70795513391E-01  0.12910390272E+00  0.19847895993E-01 0.  0.
         14    1    1    2    0    0 -0.19662738201E-01  0.79991342774E-02 -0.80720373787E-02  0.22710508805E-01  0.00000000000E+00 0. -1.
     999901    1    3    3    0    0  0.72083549800E-01 -0.10027010760E+00  0.78867550770E-01  0.89211558847E+00  0.88000000000E+00 0. -1.
        -11    1    4    4    0    0 -0.30270874325E-01  0.71247791750E-01 -0.51378261094E-01  0.92911573529E-01  0.51100000000E-03 0.  1.
         11    1    4    4    0    0 -0.22149937275E-01  0.21023181574E-01 -0.19417252297E-01  0.36192329194E-01  0.51100000000E-03 0. -1.
</event>
<event>
 8    1  0.1117354E+005  0.1043930E+01  0.7957747E-01            NaN
         13   -1    0    0    0    0  0.00000000000E+00  0.00000000000E+00  0.74505805969E-08  0.10566000000E+00  0.10566000000E+00 0. -1.
     999900   -1    0    0    0    0 -0.00000000000E+00 -0.00000000000E+00 -0.74505805969E-08  0.93827000000E+00  0.93827000000E+00 0. -1.
     999902    2    1    2    0    0  0.16576473642E-01 -0.60508746783E-02  0.15691466311E-01  0.10203161338E+01  0.10200428413E+01 0.  0.
     999903    2    3    3    0    0  0.78408839060E-01  0.77986998056E-01  0.69670244673E-01  0.13251023496E+00  0.21796822433E-01 0.  0.
         14    1    1    2    0    0 -0.16576473642E-01  0.60508746783E-02 -0.15691466311E-01  0.23613866218E-01  0.00000000000E+00 0.  1.
     999901    1    3    3    0    0 -0.61832365418E-01 -0.84037872735E-01 -0.53978778362E-01  0.88780589882E+00  0.88000000000E+00 0. -1.
        -11    1    4    4    0    0  0.31936920965E-01  0.41965465255E-01  0.42521866093E-01  0.67745386646E-01  0.51100000000E-03 0. -1.
         11    1    4    4    0    0  0.46471918095E-01  0.36021532801E-01  0.27148378580E-01  0.64764848315E-01  0.51100000000E-03 0.  1.
</event>
<event>
 8    1  0.1117354E+005  0.1043930E+01  0.7957747E-01            NaN
         13   -1    0    0    0    0  0.00000000000E+00  0.00000000000E+00  0.74505805969E-08  0.10566000000E+00  0.10566000000E+00 0. -1.
     999900   -1    0    0    0    0 -0.00000000000E+00 -0.00000000000E+00 -0.74505805969E-08  0.93827000000E+00  0.93827000000E+00 0.  1.
     999902    2    1    2    0    0 -0.16538270963E-02 -0.23317175059E-01 -0.12772140215E-02  0.10205193812E+01  0.10202508272E+01 0.  0.
     999903    2    3    3    0    0  0.69805576347E-01 -0.36516250689E-01  0.10358490450E+00  0.13131933294E+00  0.17569283131E-01 0.  0.
         14    1    1    2    0    0  0.16538270963E-02  0.23317175059E-01  0.12772140215E-02  0.23410618796E-01  0.00000000000E+00 0. -1.
     999901    1    3    3    0    0 -0.71459403443E-01  0.13199075630E-01 -0.10486211852E+00  0.88920004827E+00  0.88000000000E+00 0.  1.
        -11    1    4    4    0    0  0.41328975652E-01 -0.18416366094E-01  0.45672104861E-01  0.64291905026E-01  0.51100000000E-03 0. -1.
         11    1    4    4    0    0  0.28476600695E-01 -0.18099884595E-01  0.57912799637E-01  0.67027427910E-01  0.51100000000E-03 0.  1.
</event>
<event>
 8    1  0.1117354E+005  0.1043930E+01  0.7957747E-01            NaN
         13   -1    0    0    0    0  0.00000000000E+00  0.00000000000E+00  0.74505805969E-08  0.10566000000E+00  0.10566000000E+00 0.  1.
     999900   -1    0    0    0    0 -0.00000000000E+00 -0.00000000000E+00 -0.74505805969E-08  0.93827000000E+00  0.93827000000E+00 0. -1.
     999902    2    1    2    0    0 -0.14532322471E-02  0.21158697815E-01 -0.14166762297E-01  0.10184251077E+01  0.10181056922E+01 0.  0.
     999903    2    3    3    0    0  0.29709339560E-01  0.69052493539E-01 -0.10646323932E+00  0.13175517970E+00  0.19342035333E-01 0.  0.
         14    1    1    2    0    0  0.14532322471E-02 -0.21158697815E-01  0.14166762297E-01  0.25504892299E-01  0.00000000000E+00 0.  1.
     999901    1    3    3    0    0 -0.31162571807E-01 -0.47893795724E-01  0.92296477020E-01  0.88666992800E+00  0.88000000000E+00 0.  1.
        -11    1    4    4    0    0  0.32228031044E-01  0.61797090282E-01 -0.92605266468E-01  0.11590307524E+00  0.51100000000E-03 0.  1.
         11    1    4    4    0    0 -0.25186914834E-02  0.72554032567E-02 -0.13857972850E-01  0.15852104457E-01  0.51100000000E-03 0. -1.
</event>
<event>
 8    1  0.1117354E+005  0.1043930E+01  0.7957747E-01            NaN
         13   -1    0    0    0    0  0.00000000000E+00  0.00000000000E+00  0.74505805969E-08  0.10566000000E+00  0.10566000000E+00 0.  1.
     999900   -1    0    0    0    0 -0.00000000000E+00 -0.00000000000E+00 -0.74505805969E-08  0.93827000000E+00  0.93827000000E+00 0. -1.
     999902    2    1    2    0    0 -0.10948990010E-01  0.19468665030E-01 -0.69298515098E-02  0.10205434196E+01  0.10202754232E+01 0.  0.
     999903    2    3    3    0    0  0.76625557206E-01 -0.83835524207E-01 -0.56999773727E-01  0.12877660371E+00  0.20846302355E-01 0.  0.
         14    1    1    2    0    0  0.10948990010E-01 -0.19468665030E-01  0.69298515098E-02  0.23386580388E-01  0.00000000000E+00 0.  1.
     999901    1    3    3    0    0 -0.87574547215E-01  0.10330418924E+00  0.50069922217E-01  0.89176681590E+00  0.88000000000E+00 0.  1.
        -11    1    4    4    0    0  0.33013527923E-01 -0.37357025869E-01 -0.13641954889E-01  0.51689500500E-01  0.51100000000E-03 0. -1.
         11    1    4    4    0    0  0.43612029283E-01 -0.46478498338E-01 -0.43357818838E-01  0.77087103210E-01  0.51100000000E-03 0.  1.
</event>
<event>
 8    1  0.1117354E+005  0.1043930E+01  0.7957747E-01            NaN
         13   -1    0    0    0    0  0.00000000000E+00  0.00000000000E+00  0.74505805969E-08  0.10566000000E+00  0.10566000000E+00 0. -1.
     999900   -1    0    0    0    0 -0.00000000000E+00 -0.00000000000E+00 -0.74505805969E-08  0.93827000000E+00  0.93827000000E+00 0.  1.
     999902    2    1    2    0    0  0.10203051361E-01  0.87845318254E-03 -0.21398451379E-01  0.10202072755E+01  0.10199314277E+01 0.  0.
     999903    2    3    3    0    0 -0.36185369840E-01  0.10058735626E+00  0.69148750471E-01  0.12875197838E+00  0.19191795497E-01 0.  0.
         14    1    1    2    0    0 -0.10203051361E-01 -0.87845318254E-03  0.21398451379E-01  0.23722724517E-01  0.00000000000E+00 0. -1.
     999901    1    3    3    0    0  0.46388421202E-01 -0.99708903078E-01 -0.90547201850E-01  0.89145529711E+00  0.88000000000E+00 0.  1.
        -11    1    4    4    0    0 -0.73675968555E-02  0.27140972318E-01  0.89747238550E-02  0.29524915767E-01  0.51100000000E-03 0.  1.
         11    1    4    4    0    0 -0.28817772985E-01  0.73446383943E-01  0.60174026616E-01  0.99227062611E-01  0.51100000000E-03 0. -1.
</event>
<event>
 8    1  0.1117354E+005  0.1043930E+01  0.7957747E-01            NaN
         13   -1    0    0    0    0  0.00000000000E+00  0.00000000000E+00  0.74505805969E-08  0.10566000000E+00  0.10566000000E+00 0.  1.
     999900   -1    0    0    0    0 -0.00000000000E+00 -0.00000000000E+00 -0.74505805969E-08  0.93827000000E+00  0.93827000000E+00 0.  1.
     999902    2    1    2    0    0  0.11667851225E-01  0.13114343025E-01 -0.13978477847E-01  0.10214906910E+01  0.10212441967E+01 0.  0.
     999903    2    3    3    0    0  0.12066603583E+00 -0.47207856802E-01 -0.20646025860E-01  0.13269159771E+00  0.19797165776E-01 0.  0.
         14    1    1    2    0    0 -0.11667851225E-01 -0.13114343025E-01  0.13978477847E-01  0.22439308994E-01  0.00000000000E+00 0.  1.
     999901    1    3    3    0    0 -0.10899818461E+00  0.60322199827E-01  0.66675480124E-02  0.88879909329E+00  0.88000000000E+00 0. -1.
        -11    1    4    4    0    0  0.76777184982E-01 -0.19765237612E-01 -0.11133813906E-01  0.80060125435E-01  0.51100000000E-03 0. -1.
         11    1    4    4    0    0  0.43888850851E-01 -0.27442619190E-01 -0.95122119537E-02  0.52631472279E-01  0.51100000000E-03 0.  1.
</event>
<event>
 8    1  0.1117354E+005  0.1043930E+01  0.7957747E-01            NaN
         13   -1    0    0    0    0  0.00000000000E+00  0.00000000000E+00  0.74505805969E-08  0.10566000000E+00  0.10566000000E+00 0.  1.
     999900   -1    0    0    0    0 -0.00000000000E+00 -0.00000000000E+00 -0.74505805969E-08  0.93827000000E+00  0.93827000000E+00 0. -1.
     999902    2    1    2    0    0 -0.23336886498E-02  0.17789864568E-01  0.17683874512E-01  0.10187378425E+01  0.10184263090E+01 0.  0.
     999903    2    3    3    0    0  0.10594341780E+00  0.11439283279E-01 -0.68254006308E-01  0.12792384334E+00  0.18735937106E-01 0.  0.
         14    1    1    2    0    0  0.23336886498E-02 -0.17789864568E-01 -0.17683874512E-01  0.25192157546E-01  0.00000000000E+00 0. -1.
     999901    1    3    3    0    0 -0.10827710645E+00  0.63505812884E-02  0.85937880820E-01  0.89081399912E+00  0.88000000000E+00 0.  1.
        -11    1    4    4    0    0  0.31632619916E-01 -0.47144582980E-02 -0.23422290177E-01  0.39644842766E-01  0.51100000000E-03 0. -1.
         11    1    4    4    0    0  0.74310797886E-01  0.16153741577E-01 -0.44831716131E-01  0.88279000570E-01  0.51100000000E-03 0.  1.
</event>
<event>
 8    1  0.1117354E+005  0.1043930E+01  0.7957747E-01            NaN
         13   -1    0    0    0    0  0.00000000000E+00  0.00000000000E+00  0.74505805969E-08  0.10566000000E+00  0.10566000000E+00 0.  1.
     999900   -1    0    0    0    0 -0.00000000000E+00 -0.00000000000E+00 -0.74505805969E-08  0.93827000000E+00  0.93827000000E+00 0.  1.
     999902    2    1    2    0    0 -0.17933202229E-01 -0.13548014319E-01  0.10824056040E-01  0.10189838856E+01  0.10186784824E+01 0.  0.
     999903    2    3    3    0    0  0.96800883100E-01  0.55794332561E-01  0.58035549725E-01  0.12757982653E+00  0.20617191612E-01 0.  0.
         14    1    1    2    0    0  0.17933202229E-01  0.13548014319E-01 -0.10824056040E-01  0.24946114394E-01  0.00000000000E+00 0. -1.
     999901    1    3    3    0    0 -0.11473408533E+00 -0.69342346880E-01 -0.47211493684E-01  0.89140405908E+00  0.88000000000E+00 0. -1.
        -11    1    4    4    0    0  0.41955485064E-01  0.32971603729E-01  0.19729277213E-01  0.56893715644E-01  0.51100000000E-03 0. -1.
         11    1    4    4    0    0  0.54845398036E-01  0.22822728832E-01  0.38306272511E-01  0.70686110883E-01  0.51100000000E-03 0.  1.
</event>
<event>
 8    1  0.1117354E+005  0.1043930E+01  0.7957747E-01            NaN
         13   -1    0    0    0    0  0.00000000000E+00  0.00000000000E+00  0.74505805969E-08  0.10566000000E+00  0.10566000000E+00 0.  1.
     999900   -1    0    0    0    0 -0.00000000000E+00 -0.00000000000E+00 -0.74505805969E-08  0.93827000000E+00  0.93827000000E+00 0. -1.
     999902    2    1    2    0    0  0.10689245392E-01  0.91988686451E-02 -0.19333579486E-01  0.10199995498E+01  0.10197187922E+01 0.  0.
     999903    2    3    3    0    0  0.97098829223E-01  0.89010910768E-02 -0.88490326364E-01  0.13306699289E+00  0.19206110453E-01 0.  0.
         14    1    1    2    0    0 -0.10689245392E-01 -0.91988686451E-02  0.19333579486E-01  0.23930450208E-01  0.00000000000E+00 0.  1.
     999901    1    3    3    0    0 -0.86409583831E-01  0.29777756831E-03  0.69156746877E-01  0.88693255690E+00  0.88000000000E+00 0.  1.
        -11    1    4    4    0    0  0.19905476807E-02  0.30849413274E-02 -0.13571512848E-02  0.39474198754E-02  0.51100000000E-03 0.  1.
         11    1    4    4    0    0  0.95108281542E-01  0.58161497494E-02 -0.87133175079E-01  0.12911957302E+00  0.51100000000E-03 0. -1.
</event>
<event>
 8    1  0.1117354E+005  0.1043930E+01  0.7957747E-01            NaN
         13   -1    0    0    0    0  0.00000000000E+00  0.00000000000E+00  0.74505805969E-08  0.10566000000E+00  0.10566000000E+00 0. -1.
     999900   -1    0    0    0    0 -0.00000000000E+00 -0.00000000000E+00 -0.74505805969E-08  0.93827000000E+00  0.93827000000E+00 0. -1.
     999902    2    1    2    0    0 -0.79208350089E-02 -0.23376861300E-01 -0.10653943863E-01  0.10170464773E+01  0.10166911100E+01 0.  0.
     999903    2    3    3    0    0  0.50460382229E-01 -0.10339707602E+00  0.54272176465E-01  0.12911235680E+00  0.22075462343E-01 0.  0.
         14    1    1    2    0    0  0.79208350089E-02  0.23376861300E-01  0.10653943863E-01  0.26883522673E-01  0.00000000000E+00 0. -1.
     999901    1    3    3    0    0 -0.58381217237E-01  0.80020214716E-01 -0.64926120329E-01  0.88793412052E+00  0.88000000000E+00 0. -1.
        -11    1    4    4    0    0  0.43080555918E-01 -0.76061252565E-01  0.49302323583E-01  0.10036049358E+00  0.51100000000E-03 0. -1.
         11    1    4    4    0    0  0.73798263102E-02 -0.27335823451E-01  0.49698528822E-02  0.28751863223E-01  0.51100000000E-03 0.  1.
</event>
<event>
 8    1  0.1117354E+005  0.1043930E+01  0.7957747E-01            NaN
         13   -1    0    0    0    0  0.00000000000E+00  0.00000000000E+00  0.74505805969E-08  0.10566000000E+00  0.10566000000E+00 0. -1.
     999900   -1    0    0    0    0 -0.00000000000E+00 -0.00000000000E+00 -0.74505805969E-08  0.93827000000E+00  0.93827000000E+00 0.  1.
     999902    2    1    2    0    0 -0.19982903721E-01  0.12933949301E-01 -0.98576413101E-03  0.10201061629E+01  0.10198279307E+01 0.  0.
     999903    2    3    3    0    0 -0.92545357918E-01  0.92327214891E-01  0.17675011838E-01  0.13336108960E+00  0.19591230006E-01 0.  0.
         14    1    1    2    0    0  0.19982903721E-01 -0.12933949301E-01  0.98576413101E-03  0.23823837150E-01  0.00000000000E+00 0.  1.
     999901    1    3    3    0    0  0.72562454197E-01 -0.79393265590E-01 -0.18660775969E-01  0.88674507325E+00  0.88000000000E+00 0.  1.
        -11    1    4    4    0    0 -0.67079950107E-01  0.56441151682E-01  0.62174952541E-02  0.87887665106E-01  0.51100000000E-03 0. -1.
         11    1    4    4    0    0 -0.25465407811E-01  0.35886063208E-01  0.11457516584E-01  0.45473424490E-01  0.51100000000E-03 0.  1.
</event>
<event>
 8    1  0.1117354E+005  0.1043930E+01  0.7957747E-01            NaN
         13   -1    0    0    0    0  0.00000000000E+00  0.00000000000E+00  0.74505805969E-08  0.10566000000E+00  0.10566000000E+00 0.  1.
     999900   -1    0    0    0    0 -0.00000000000E+00 -0.00000000000E+00 -0.74505805969E-08  0.93827000000E+00  0.93827000000E+00 0.  1.
     999902    2    1    2    0    0  0.75280160142E-02 -0.20601148652E-01 -0.96615085634E-02  0.10199628746E+01  0.10196812455E+01 0.  0.
     999903    2    3    3    0    0 -0.10397794561E+00  0.69956270573E-01 -0.18644941817E-01  0.12827070368E+00  0.20011161931E-01 0.  0.
         14    1    1    2    0    0 -0.75280160142E-02  0.20601148652E-01  0.96615085634E-02  0.23967125372E-01  0.00000000000E+00 0.  1.
     999901    1    3    3    0    0  0.11150596162E+00 -0.90557419224E-01  0.89834332539E-02  0.89169217095E+00  0.88000000000E+00 0. -1.
        -11    1    4    4    0    0 -0.48290347922E-01  0.44493181178E-01 -0.10390181080E-01  0.66481710700E-01  0.51100000000E-03 0.  1.
         11    1    4    4    0    0 -0.55687597688E-01  0.25463089395E-01 -0.82547607371E-02  0.61788992981E-01  0.51100000000E-03 0. -1.
</event>
<event>
 8    1  0.1117354E+005  0.1043930E+01  0.7957747E-01            NaN
         13   -1    0    0    0    0  0.00000000000E+00  0.00000000000E+00  0.74505805969E-08  0.10566000000E+00  0.10566000000E+00 0. -1.
     999900   -1    0    0    0    0 -0.00000000000E+00 -0.00000000000E+00 -0.74505805969E-08  0.93827000000E+00  0.93827000000E+00 0.  1.
     999902    2    1    2    0    0 -0.16418891670E-01 -0.15105617684E-01 -0.60907759182E-02  0.10208030192E+01  0.10205410069E+01 0.  0.
     999903    2    3    3    0    0  0.14912744053E-01  0.47028931656E-02  0.12725544775E+00  0.12998583041E+00  0.21397663074E-01 0.  0.
         14    1    1    2    0    0  0.16418891670E-01  0.15105617684E-01  0.60907759182E-02  0.23126980792E-01  0.00000000000E+00 0. -1.
     999901    1    3    3    0    0 -0.31331635722E-01 -0.19808510849E-01 -0.13334622367E+00  0.89081718880E+00  0.88000000000E+00 0.  1.
        -11    1    4    4    0    0  0.15550509410E-02  0.11361506622E-01  0.60646581293E-01  0.61723342097E-01  0.51100000000E-03 0.  1.
         11    1    4    4    0    0  0.13357693112E-01 -0.66586134561E-02  0.66608866457E-01  0.68262488309E-01  0.51100000000E-03 0. -1.
</event>
<event>
 8    1  0.1117354E+005  0.1043930E+01  0.7957747E-01            NaN
         13   -1    0    0    0    0  0.00000000000E+00  0.00000000000E+00  0.74505805969E-08  0.10566000000E+00  0.10566000000E+00 0. -1.
     999900   -1    0    0    0    0 -0.00000000000E+00 -0.00000000000E+00 -0.74505805969E-08  0.93827000000E+00  0.93827000000E+00 0. -1.
     999902    2    1    2    0    0 -0.15205425858E-01  0.58485308417E-02 -0.17073793893E-01  0.10203307473E+01  0.10200577970E+01 0.  0.
     999903    2    3    3    0    0  0.84876596765E-01 -0.72850145603E-01  0.58482574531E-01  0.12796386217E+00  0.21056070497E-01 0.  0.
         14    1    1    2    0    0  0.15205425858E-01 -0.58485308417E-02  0.17073793893E-01  0.23599252667E-01  0.00000000000E+00 0. -1.
     999901    1    3    3    0    0 -0.10008202262E+00  0.78698676444E-01 -0.75556368424E-01  0.89236688516E+00  0.88000000000E+00 0. -1.
        -11    1    4    4    0    0  0.73934023790E-02 -0.15760108998E-01  0.11439761129E-01  0.20836810938E-01  0.51100000000E-03 0. -1.
         11    1    4    4    0    0  0.77483194386E-01 -0.57090036604E-01  0.47042813402E-01  0.10712705123E+00  0.51100000000E-03 0.  1.
</event>
<event>
 8    1  0.1117354E+005  0.1043930E+01  0.7957747E-01            NaN
         13   -1    0    0    0    0  0.00000000000E+00  0.00000000000E+00  0.74505805969E-08  0.10566000000E+00  0.10566000000E+00 0.  1.
     999900   -1    0    0    0    0 -0.00000000000E+00 -0.00000000000E+00 -0.74505805969E-08  0.93827000000E+00  0.93827000000E+00 0. -1.
     999902    2    1    2    0    0  0.12054178672E-01 -0.21155895346E-01  0.43360340626E-02  0.10191979091E+01  0.10188977876E+01 0.  0.
     999903    2    3    3    0    0  0.38356165955E-01  0.10917905530E+00  0.48504570685E-01  0.12811438125E+00  0.25871600699E-01 0.  0.
         14    1    1    2    0    0 -0.12054178672E-01  0.21155895346E-01 -0.43360340626E-02  0.24732090950E-01  0.00000000000E+00 0. -1.
     999901    1    3    3    0    0 -0.26301987283E-01 -0.13033495064E+00 -0.44168536622E-01  0.89108352780E+00  0.88000000000E+00 0. -1.
        -11    1    4    4    0    0  0.28302847790E-01  0.45036136825E-01  0.16278235609E-01  0.55628651688E-01  0.51100000000E-03 0. -1.
         11    1    4    4    0    0  0.10053318165E-01  0.64142918472E-01  0.32226335076E-01  0.72485729559E-01  0.51100000000E-03 0.  1.
</event>
<event>
 8    1  0.1117354E+005  0.1043930E+01  0.7957747E-01            NaN
         13   -1    0    0    0    0  0.00000000000E+00  0.00000000000E+00  0.74505805969E-08  0.10566000000E+00  0.10566000000E+00 0. -1.
     999900   -1    0    0    0    0 -0.00000000000E+00 -0.00000000000E+00 -0.74505805969E-08  0.93827000000E+00  0.93827000000E+00 0.  1.
     999902    2    1    2    0    0 -0.14253100129E-01 -0.31759618740E-02 -0.18633588220E-01  0.10202562127E+01  0.10199815152E+01 0.  0.
     999903    2    3    3    0    0 -0.90079512430E-01  0.93309967995E-01  0.60309455186E-02  0.13139878951E+00  0.20203982122E-01 0.  0.
         14    1    1    2    0    0  0.14253100129E-01  0.31759618740E-02  0.18633588220E-01  0.23673787341E-01  0.00000000000E+00 0.  1.
     999901    1    3    3    0    0  0.75826412301E-01 -0.96485929869E-01 -0.24664533738E-01  0.88885742315E+00  0.88000000000E+00 0. -1.
        -11    1    4    4    0    0 -0.71107019995E-01  0.68799913745E-01  0.12503855572E-01  0.99730857557E-01  0.51100000000E-03 0.  1.
         11    1    4    4    0    0 -0.18972492436E-01  0.24510054250E-01 -0.64729100530E-02  0.31667931952E-01  0.51100000000E-03 0. -1.
</event>
<event>
 8    1  0.1117354E+005  0.1043930E+01  0.7957747E-01            NaN
         13   -1    0    0    0    0  0.00000000000E+00  0.00000000000E+00  0.74505805969E-08  0.10566000000E+00  0.10566000000E+00 0. -1.
     999900   -1    0    0    0    0 -0.00000000000E+00 -0.00000000000E+00 -0.74505805969E-08  0.93827000000E+00  0.93827000000E+00 0. -1.
     999902    2    1    2    0    0  0.19792111479E-01  0.10951628336E-01  0.40436979011E-02  0.10209513723E+01  0.10206927487E+01 0.  0.
     999903    2    3    3    0    0 -0.42899511345E-01  0.97409289154E-01 -0.73816606501E-01  0.13108205956E+00  0.20116591563E-01 0.  0.
         14    1    1    2    0    0 -0.19792111479E-01 -0.10951628336E-01 -0.40436979011E-02  0.22978627738E-01  0.00000000000E+00 0. -1.
     999901    1    3    3    0    0  0.62691622824E-01 -0.86457660818E-01  0.77860304402E-01  0.88986931270E+00  0.88000000000E+00 0. -1.
        -11    1    4    4    0    0 -0.24035356328E-01  0.41985322125E-01 -0.43916426074E-01  0.65340486896E-01  0.51100000000E-03 0.  1.
         11    1    4    4    0    0 -0.18864155017E-01  0.55423967029E-01 -0.29900180427E-01  0.65741572664E-01  0.51100000000E-03 0. -1.
</event>
<event>
 8    1  0.1117354E+005  0.1043930E+01  0.7957747E-01            NaN
         13   -1    0    0    0    0  0.00000000000E+00  0.00000000000E+00  0.74505805969E-08  0.10566000000E+00  0.10566000000E+00 0. -1.
     999900   -1    0    0    0    0 -0.00000000000E+00 -0.00000000000E+00 -0.74505805969E-08  0.93827000000E+00  0.93827000000E+00 0.  1.
     999902    2    1    2    0    0  0.17671334451E-01 -0.21878687322E-02  0.15411601652E-01  0.10203804714E+01  0.10201086835E+01 0.  0.
     999903    2    3    3    0    0 -0.19086959742E-01 -0.17200776914E-01  0.12828380339E+00  0.13228323940E+00  0.19543348054E-01 0.  0.
         14    1    1    2    0    0 -0.17671334451E-01  0.21878687322E-02 -0.15411601652E-01  0.23549528580E-01  0.00000000000E+00 0.  1.
     999901    1    3    3    0    0  0.36758294192E-01  0.15012908182E-01 -0.11287220174E+00  0.88809723202E+00  0.88000000000E+00 0.  1.
        -11    1    4    4    0    0 -0.99251432504E-02 -0.19833578989E-01  0.77623033566E-01  0.80730884952E-01  0.51100000000E-03 0.  1.
         11    1    4    4    0    0 -0.91618164914E-02  0.26328020750E-02  0.50660769827E-01  0.51552354444E-01  0.51100000000E-03 0. -1.
</event>
<event>
 8    1  0.1117354E+005  0.1043930E+01  0.7957747E-01            NaN
         13   -1    0    0    0    0  0.00000000000E+00  0.00000000000E+00  0.74505805969E-08  0.10566000000E+00  0.10566000000E+00 0. -1.
     999900   -1    0    0    0    0 -0.00000000000E+00 -0.00000000000E+00 -0.74505805969E-08  0.93827000000E+00  0.93827000000E+00 0. -1.
     999902    2    1    2    0    0 -0.12547355757E-01 -0.22012132351E-01  0.94956561877E-03  0.10185750837E+01  0.10182594607E+01 0.  0.
     999903    2    3    3    0    0 -0.96944616489E-03 -0.12964012030E+00  0.12530632125E-01  0.13186658992E+00  0.20598062499E-01 0.  0.
         14    1    1    2    0    0  0.12547355757E-01  0.22012132351E-01 -0.94956561877E-03  0.25354916328E-01  0.00000000000E+00 0.  1.
     999901    1    3    3    0    0 -0.11577909592E-01  0.10762798795E+00 -0.11581066506E-01  0.88670849375E+00  0.88000000000E+00 0. -1.
        -11    1    4    4    0    0  0.73772200854E-02 -0.10094592590E+00  0.12444666525E-01  0.10197859667E+00  0.51100000000E-03 0.  1.
         11    1    4    4    0    0 -0.83466662503E-02 -0.28694194402E-01  0.85965600635E-04  0.29887993258E-01  0.51100000000E-03 0. -1.
</event>
<event>
 8    1  0.1117354E+005  0.1043930E+01  0.7957747E-01            NaN
         13   -1    0    0    0    0  0.00000000000E+00  0.00000000000E+00  0.74505805969E-08  0.10566000000E+00  0.10566000000E+00 0. -1.
     999900   -1    0    0    0    0 -0.00000000000E+00 -0.00000000000E+00 -0.74505805969E-08  0.93827000000E+00  0.93827000000E+00 0.  1.
     999902    2    1    2    0    0 -0.92769843543E-02  0.20153360272E-01  0.91344740388E-02  0.10199371055E+01  0.10196548633E+01 0.  0.
     999903    2    3    3    0    0  0.19653817957E-01 -0.12059609800E+00 -0.29784055116E-01  0.12743385442E+00  0.20557380703E-01 0.  0.
         14    1    1    2    0    0  0.92769843543E-02 -0.20153360272E-01 -0.91344740388E-02  0.23992894468E-01  0.00000000000E+00 0.  1.
     999901    1    3    3    0    0 -0.28930802311E-01  0.14074945827E+00  0.38918529155E-01  0.89250325111E+00  0.88000000000E+00 0. -1.
        -11    1    4    4    0    0  0.22587348894E-01 -0.79896049261E-01 -0.21925756488E-01  0.85875298754E-01  0.51100000000E-03 0.  1.
         11    1    4    4    0    0 -0.29335309369E-02 -0.40700048739E-01 -0.78582986286E-02  0.41558555670E-01  0.51100000000E-03 0. -1.
</event>
<event>
 8    1  0.1117354E+005  0.1043930E+01  0.7957747E-01            NaN
         13   -1    0    0    0    0  0.00000000000E+00  0.00000000000E+00  0.74505805969E-08  0.10566000000E+00  0.10566000000E+00 0. -1.
     999900   -1    0    0    0    0 -0.00000000000E+00 -0.00000000000E+00 -0.74505805969E-08  0.93827000000E+00  0.93827000000E+00 0.  1.
     999902    2    1    2    0    0 -0.18295637043E-01 -0.96394249363E-02 -0.12207987256E-01  0.10199157584E+01  0.10196330077E+01 0.  0.
     999903    2    3    3    0    0  0.78016862919E-01 -0.77436264500E-01  0.64240262628E-01  0.12878342027E+00  0.19374004108E-01 0.  0.
         14    1    1    2    0    0  0.18295637043E-01  0.96394249363E-02  0.12207987256E-01  0.24014241624E-01  0.00000000000E+00 0.  1.
     999901    1    3    3    0    0 -0.96312499962E-01  0.67796839564E-01 -0.76448249885E-01  0.89113233810E+00  0.88000000000E+00 0. -1.
        -11    1    4    4    0    0  0.57939925140E-01 -0.67129650677E-01  0.55278285799E-01  0.10449581296E+00  0.51100000000E-03 0.  1.
         11    1    4    4    0    0  0.20076937779E-01 -0.10306613823E-01  0.89619768297E-02  0.24287607309E-01  0.51100000000E-03 0. -1.
</event>
<event>
 7    1  0.1117354E+005  0.1043930E+01  0.7957747E-01            NaN
         13   -1    0    0    0    0  0.00000000000E+00  0.00000000000E+00  0.74505805969E-08  0.10566000000E+00  0.10566000000E+00 0.  1.
     999900   -1    0    0    0    0 -0.00000000000E+00 -0.00000000000E+00 -0.74505805969E-08  0.93827000000E+00  0.93827000000E+00 0. -1.
     999902    2    1    2    0    0  0.15820596412E-01  0.13780626442E-01 -0.14996858917E-01  0.10181404146E+01  0.10178137360E+01 0.  0.
         14    1    1    2    0    0 -0.15820596412E-01 -0.13780626442E-01  0.14996858917E-01  0.25789585366E-01  0.00000000000E+00 0.  1.
     999901    1    3    3    0    0  0.51696655564E-01  0.12038687420E+00 -0.59467594895E-01  0.89168488746E+00  0.88000000000E+00 0. -1.
        -11    1    3    3    0    0 -0.15863550092E-01 -0.14151692428E-01 -0.14256805582E-02  0.21312351023E-01  0.51100000000E-03 0. -1.
         11    1    3    3    0    0 -0.20012509060E-01 -0.92454555329E-01  0.45896416537E-01  0.10514317615E+00  0.51100000000E-03 0.  1.
</event>
<event>
 7    1  0.1369320E+005  0.1043930E+01  0.7957747E-01            NaN
         13   -1    0    0    0    0  0.00000000000E+00  0.00000000000E+00  0.74505805969E-08  0.10566000000E+00  0.10566000000E+00 0. -1.
     999900   -1    0    0    0    0 -0.00000000000E+00 -0.00000000000E+00 -0.74505805969E-08  0.93827000000E+00  0.93827000000E+00 0.  1.
     999903    2    1    2    0    0  0.52247829677E-01 -0.51838359144E-01 -0.67769660669E-01  0.10206304449E+00  0.20176396056E-01 0.  0.
         14    1    1    2    0    0 -0.51465033848E-01  0.23259493122E-01 -0.12195807394E-01  0.57778814866E-01  0.00000000000E+00 0.  1.
     999901    1    1    2    0    0 -0.78279582901E-03  0.28578866022E-01  0.79965468064E-01  0.88408814065E+00  0.88000000000E+00 0. -1.
        -11    1    3    3    0    0  0.81417485532E-02 -0.19877065925E-01 -0.23764342989E-01  0.32037336625E-01  0.51100000000E-03 0. -1.
         11    1    3    3    0    0  0.44106081124E-01 -0.31961293219E-01 -0.44005317680E-01  0.70025707861E-01  0.51100000000E-03 0.  1.
</event>
<event>
 8    1  0.1117354E+005  0.1043930E+01  0.7957747E-01            NaN
         13   -1    0    0    0    0  0.00000000000E+00  0.00000000000E+00  0.74505805969E-08  0.10566000000E+00  0.10566000000E+00 0.  1.
     999900   -1    0    0    0    0 -0.00000000000E+00 -0.00000000000E+00 -0.74505805969E-08  0.93827000000E+00  0.93827000000E+00 0. -1.
     999902    2    1    2    0    0  0.35873861760E-02 -0.61537254643E-02  0.23440968338E-01  0.10194306801E+01  0.10191362495E+01 0.  0.
     999903    2    3    3    0    0  0.23836411392E-01  0.12424146462E+00 -0.13491531496E-01  0.12882586421E+00  0.20247612947E-01 0.  0.
         14    1    1    2    0    0 -0.35873861760E-02  0.61537254643E-02 -0.23440968338E-01  0.24499319853E-01  0.00000000000E+00 0. -1.
     999901    1    3    3    0    0 -0.20249025217E-01 -0.13039519008E+00  0.36932499834E-01  0.89060481593E+00  0.88000000000E+00 0.  1.
        -11    1    4    4    0    0  0.11867972860E-01  0.36312619763E-01  0.38721564385E-02  0.38401951127E-01  0.51100000000E-03 0. -1.
         11    1    4    4    0    0  0.11968438532E-01  0.87928844854E-01 -0.17363687935E-01  0.90423913087E-01  0.51100000000E-03 0.  1.
</event>
<event>
 8    1  0.1117354E+005  0.1043930E+01  0.7957747E-01            NaN
         13   -1    0    0    0    0  0.00000000000E+00  0.00000000000E+00  0.74505805969E-08  0.10566000000E+00  0.10566000000E+00 0. -1.
     999900   -1    0    0    0    0 -0.00000000000E+00 -0.00000000000E+00 -0.74505805969E-08  0.93827000000E+00  0.93827000000E+00 0.  1.
     999902    2    1    2    0    0  0.18308528922E-01  0.18300351565E-01 -0.48336364844E-02  0.10175961978E+01  0.10172554018E+01 0.  0.
     999903    2    3    3    0    0  0.11049370871E-01  0.92686537453E-01  0.87641042701E-01  0.12959982034E+00  0.20056875239E-01 0.  0.
         14    1    1    2    0    0 -0.18308528922E-01 -0.18300351565E-01  0.48336364844E-02  0.26333802239E-01  0.00000000000E+00 0.  1.
     999901    1    3    3    0    0  0.72591580509E-02 -0.74386185888E-01 -0.92474679185E-01  0.88799637742E+00  0.88000000000E+00 0.  1.
        -11    1    4    4    0    0 -0.43932172828E-02  0.37359405561E-01  0.40621358631E-01  0.55365886970E-01  0.51100000000E-03 0.  1.
         11    1    4    4    0    0  0.15442588154E-01  0.55327131891E-01  0.47019684069E-01  0.74233933367E-01  0.51100000000E-03 0. -1.
</event>
<event>
 8    1  0.1117354E+005  0.1043930E+01  0.7957747E-01            NaN
         13   -1    0    0    0    0  0.00000000000E+00  0.00000000000E+00  0.74505805969E-08  0.10566000000E+00  0.10566000000E+00 0.  1.
     999900   -1    0    0    0    0 -0.00000000000E+00 -0.00000000000E+00 -0.74505805969E-08  0.93827000000E+00  0.93827000000E+00 0. -1.
     999902    2    1    2    0    0  0.13975864224E-01  0.15373988488E-01 -0.11113934508E-01  0.10203672361E+01  0.10200951390E+01 0.  0.
     999903    2    3    3    0    0 -0.81049149568E-01 -0.72968997268E-01 -0.66385117458E-01  0.12913823070E+00  0.19397412228E-01 0.  0.
         14    1    1    2    0    0 -0.13975864224E-01 -0.15373988488E-01  0.11113934508E-01  0.23562763910E-01  0.00000000000E+00 0.  1.
     999901    1    3    3    0    0  0.95025013792E-01  0.88342985756E-01  0.55271182950E-01  0.89122900539E+00  0.88000000000E+00 0. -1.
        -11    1    4    4    0    0 -0.41293952233E-01 -0.48982254460E-01 -0.34042276144E-01  0.72550599095E-01  0.51100000000E-03 0. -1.
         11    1    4    4    0    0 -0.39755197335E-01 -0.23986742807E-01 -0.32342841314E-01  0.56587631607E-01  0.51100000000E-03 0.  1.
</event>
<event>
 8    1  0.1117354E+005  0.1043930E+01  0.7957747E-01            NaN
         13   -1    0    0    0    0  0.00000000000E+00  0.00000000000E+00  0.74505805969E-08  0.10566000000E+00  0.10566000000E+00 0. -1.
     999900   -1    0    0    0    0 -0.00000000000E+00 -0.00000000000E+00 -0.74505805969E-08  0.93827000000E+00  0.93827000000E+00 0.  1.
     999902    2    1    2    0    0 -0.20488291709E-01 -0.88314850490E-02  0.81101227800E-02  0.10201910169E+01  0.10199147865E+01 0.  0.
     999903    2    3    3    0    0 -0.56017538865E-01 -0.51032158633E-01  0.10755895958E+00  0.13287298185E+00  0.18548683106E-01 0.  0.
         14    1    1    2    0    0  0.20488291709E-01  0.88314850490E-02 -0.81101227800E-02  0.23738983062E-01  0.00000000000E+00 0. -1.
     999901    1    3    3    0    0  0.35529247157E-01  0.42200673584E-01 -0.99448836796E-01  0.88731803509E+00  0.88000000000E+00 0.  1.
        -11    1    4    4    0    0 -0.29583607622E-01 -0.38959058343E-01  0.65716478607E-01  0.81926276300E-01  0.51100000000E-03 0. -1.
         11    1    4    4    0    0 -0.26433931243E-01 -0.12073100290E-01  0.41842480970E-01  0.50946705549E-01  0.51100000000E-03 0.  1.
</event>
<event>
 8    1  0.1117354E+005  0.1043930E+01  0.7957747E-01            NaN
         13   -1    0    0    0    0  0.00000000000E+00  0.00000000000E+00  0.74505805969E-08  0.10566000000E+00  0.10566000000E+00 0.  1.
     999900   -1    0    0    0    0 -0.00000000000E+00 -0.00000000000E+00 -0.74505805969E-08  0.93827000000E+00  0.93827000000E+00 0.  1.
     999902    2    1    2    0    0 -0.75984224636E-02 -0.19904310298E-01 -0.11488777261E-01  0.10197244305E+01  0.10194371018E+01 0.  0.
     999903    2    3    3    0    0 -0.77263535783E-01  0.96144045663E-01  0.29739377262E-01  0.12842189506E+00  0.19860037591E-01 0.  0.
         14    1    1    2    0    0  0.75984224636E-02  0.19904310298E-01  0.11488777261E-01  0.24205569511E-01  0.00000000000E+00 0.  1.
     999901    1    3    3    0    0  0.69665113319E-01 -0.11604835596E+00 -0.41228154523E-01  0.89130253543E+00  0.88000000000E+00 0.  1.
        -11    1    4    4    0    0 -0.54703260984E-01  0.69685242688E-01  0.12057733098E-01  0.89409897993E-01  0.51100000000E-03 0. -1.
         11    1    4    4    0    0 -0.22560274799E-01  0.26458802976E-01  0.17681644164E-01  0.39011997068E-01  0.51100000000E-03 0.  1.
</event>
<event>
 8    1  0.1117354E+005  0.1043930E+01  0.7957747E-01            NaN
         13   -1    0    0    0    0  0.00000000000E+00  0.00000000000E+00  0.74505805969E-08  0.10566000000E+00  0.10566000000E+00 0. -1.
     999900   -1    0    0    0    0 -0.00000000000E+00 -0.00000000000E+00 -0.74505805969E-08  0.93827000000E+00  0.93827000000E+00 0.  1.
     999902    2    1    2    0    0 -0.17929041261E-01 -0.10996555245E-01 -0.10739026482E-01  0.10203142968E+01  0.10200409613E+01 0.  0.
     999903    2    3    3    0    0 -0.12382905272E-01  0.11580886762E+00  0.51745363660E-01  0.12901486681E+00  0.20055498866E-01 0.  0.
         14    1    1    2    0    0  0.17929041261E-01  0.10996555245E-01  0.10739026482E-01  0.23615703199E-01  0.00000000000E+00 0.  1.
     999901    1    3    3    0    0 -0.55461359891E-02 -0.12680542287E+00 -0.62484390142E-01  0.89129942999E+00  0.88000000000E+00 0.  1.
        -11    1    4    4    0    0 -0.15087804154E-03  0.13235106573E-01  0.13356007262E-01  0.18810498695E-01  0.51100000000E-03 0. -1.
         11    1    4    4    0    0 -0.12232027230E-01  0.10257376105E+00  0.38389356399E-01  0.11020436811E+00  0.51100000000E-03 0.  1.
</event>
<event>
 8    1  0.1117354E+005  0.1043930E+01  0.7957747E-01            NaN
         13   -1    0    0    0    0  0.00000000000E+00  0.00000000000E+00  0.74505805969E-08  0.10566000000E+00  0.10566000000E+00 0.  1.
     999900   -1    0    0    0    0 -0.00000000000E+00 -0.00000000000E+00 -0.74505805969E-08  0.93827000000E+00  0.93827000000E+00 0. -1.
     999902    2    1    2    0    0 -0.21279054953E-01  0.89849154785E-02  0.27218444567E-02  0.10206719837E+01  0.10204069595E+01 0.  0.
     999903    2    3    3    0    0 -0.72391039191E-01 -0.85618523222E-01  0.66460139965E-01  0.13183858205E+00  0.19836013661E-01 0.  0.
         14    1    1    2    0    0  0.21279054953E-01 -0.89849154785E-02 -0.27218444567E-02  0.23258016319E-01  0.00000000000E+00 0. -1.
     999901    1    3    3    0    0  0.51111984238E-01  0.94603438700E-01 -0.63738295509E-01  0.88883340163E+00  0.88000000000E+00 0. -1.
        -11    1    4    4    0    0 -0.62276652377E-01 -0.60711125905E-01  0.50768869050E-01  0.10070730572E+00  0.51100000000E-03 0.  1.
         11    1    4    4    0    0 -0.10114386814E-01 -0.24907397316E-01  0.15691270916E-01  0.31131276325E-01  0.51100000000E-03 0. -1.
</event>
<event>
 8    1  0.1117354E+005  0.1043930E+01  0.7957747E-01            NaN
         13   -1    0    0    0    0  0.00000000000E+00  0.00000000000E+00  0.74505805969E-08  0.10566000000E+00  0.10566000000E+00 0.  1.
     999900   -1    0    0    0    0 -0.00000000000E+00 -0.00000000000E+00 -0.74505805969E-08  0.93827000000E+00  0.93827000000E+00 0.  1.
     999902    2    1    2    0    0  0.55358883374E-03  0.13766526195E-02  0.23497004155E-01  0.10203861932E+01  0.10201145389E+01 0.  0.
     999903    2    3    3    0    0 -0.43092252622E-01  0.99155169978E-01 -0.67888187523E-01  0.12919774447E+00  0.19863564701E-01 0.  0.
         14    1    1    2    0    0 -0.55358883374E-03 -0.13766526195E-02 -0.23497004155E-01  0.23543806772E-01  0.00000000000E+00 0. -1.
     999901    1    3    3    0    0  0.43645841456E-01 -0.97778517359E-01  0.91385191679E-01  0.89118844875E+00  0.88000000000E+00 0. -1.
        -11    1    4    4    0    0 -0.81115815402E-02  0.29100955297E-01 -0.28542971970E-01  0.41564717299E-01  0.51100000000E-03 0.  1.
         11    1    4    4    0    0 -0.34980671082E-01  0.70054214682E-01 -0.39345215553E-01  0.87633027175E-01  0.51100000000E-03 0. -1.
</event>
<event>
 8    1  0.1117354E+005  0.1043930E+01  0.7957747E-01            NaN
         13   -1    0    0    0    0  0.00000000000E+00  0.00000000000E+00  0.74505805969E-08  0.10566000000E+00  0.10566000000E+00 0. -1.
     999900   -1    0    0    0    0 -0.00000000000E+00 -0.00000000000E+00 -0.74505805969E-08  0.93827000000E+00  0.93827000000E+00 0. -1.
     999902    2    1    2    0    0  0.10868674619E-01  0.18079965820E-01  0.47767158914E-02  0.10223006157E+01  0.10220717776E+01 0.  0.
     999903    2    3    3    0    0 -0.12091563516E+00  0.36077849470E-01  0.32433388319E-01  0.13187604298E+00  0.20424592656E-01 0.  0.
         14    1    1    2    0    0 -0.10868674619E-01 -0.18079965820E-01 -0.47767158914E-02  0.21629384335E-01  0.00000000000E+00 0. -1.
     999901    1    3    3    0    0  0.13178430978E+00 -0.17997883650E-01 -0.27656672428E-01  0.89042457269E+00  0.88000000000E+00 0. -1.
        -11    1    4    4    0    0 -0.79330281281E-01  0.18473255374E-01  0.12098614678E-01  0.82347995060E-01  0.51100000000E-03 0.  1.
         11    1    4    4    0    0 -0.41585353876E-01  0.17604594096E-01  0.20334773641E-01  0.49528047916E-01  0.51100000000E-03 0. -1.
</event>
<event>
 8    1  0.1117354E+005  0.1043930E+01  0.7957747E-01            NaN
         13   -1    0    0    0    0  0.00000000000E+00  0.00000000000E+00  0.74505805969E-08  0.10566000000E+00  0.10566000000E+00 0.  1.
     999900   -1    0    0    0    0 -0.00000000000E+00 -0.00000000000E+00 -0.74505805969E-08  0.93827000000E+00  0.93827000000E+00 0. -1.
     999902    2    1    2    0    0  0.22147269932E-01 -0.53633675240E-02  0.79296846944E-02  0.10198022737E+01  0.10195168122E+01 0.  0.
     999903    2    3    3    0    0  0.62241869497E-01  0.67768156737E-01 -0.90365203812E-01  0.13041052546E+00  0.19351012984E-01 0.  0.
         14    1    1    2    0    0 -0.22147269932E-01  0.53633675240E-02 -0.79296846944E-02  0.24127726291E-01  0.00000000000E+00 0. -1.
     999901    1    3    3    0    0 -0.40094599565E-01 -0.73131524261E-01  0.98294888507E-01  0.88939174825E+00  0.88000000000E+00 0.  1.
        -11    1    4    4    0    0  0.51416633676E-01  0.59830643948E-01 -0.84936842434E-01  0.11592197590E+00  0.51100000000E-03 0.  1.
         11    1    4    4    0    0  0.10825235820E-01  0.79375127886E-02 -0.54283613782E-02  0.14488549551E-01  0.51100000000E-03 0. -1.
</event>
<event>
 8    1  0.1117354E+005  0.1043930E+01  0.7957747E-01            NaN
         13   -1    0    0    0    0  0.00000000000E+00  0.00000000000E+00  0.74505805969E-08  0.10566000000E+00  0.10566000000E+00 0.  1.
     999900   -1    0    0    0    0 -0.00000000000E+00 -0.00000000000E+00 -0.74505805969E-08  0.93827000000E+00  0.93827000000E+00 0.  1.
     999902    2    1    2    0    0 -0.68351083755E-05  0.11697423479E-01 -0.21225111154E-01  0.10196950024E+01  0.10194069663E+01 0.  0.
     999903    2    3    3    0    0  0.12137049259E+00  0.41934186095E-01 -0.10045454904E-01  0.13077897593E+00  0.22648552857E-01 0.  0.
         14    1    1    2    0    0  0.68351083755E-05 -0.11697423479E-01  0.21225111154E-01  0.24234997551E-01  0.00000000000E+00 0.  1.
     999901    1    3    3    0    0 -0.12137732770E+00 -0.30236762616E-01 -0.11179656250E-01  0.88891602652E+00  0.88000000000E+00 0.  1.
        -11    1    4    4    0    0  0.51838332875E-01  0.16788202280E-01  0.68836864826E-02  0.54924518675E-01  0.51100000000E-03 0.  1.
         11    1    4    4    0    0  0.69532159711E-01  0.25145983815E-01 -0.16929141386E-01  0.75854457254E-01  0.51100000000E-03 0. -1.
</event>
<event>
 8    1  0.1117354E+005  0.1043930E+01  0.7957747E-01            NaN
         13   -1    0    0    0    0  0.00000000000E+00  0.00000000000E+00  0.74505805969E-08  0.10566000000E+00  0.10566000000E+00 0.  1.
     999900   -1    0    0    0    0 -0.00000000000E+00 -0.00000000000E+00 -0.74505805969E-08  0.93827000000E+00  0.93827000000E+00 0.  1.
     999902    2    1    2    0    0 -0.56615366885E-02 -0.85629652649E-02 -0.20520393201E-01  0.10209851987E+01  0.10207273446E+01 0.  0.
     999903    2    3    3    0    0  0.51734343489E-01 -0.87080389792E-01  0.79729453519E-01  0.12996931508E+00  0.16607243008E-01 0.  0.
         14    1    1    2    0    0  0.56615366885E-02  0.85629652649E-02  0.20520393201E-01  0.22944801349E-01  0.00000000000E+00 0.  1.
     999901    1    3    3    0    0 -0.57395880178E-01  0.78517424527E-01 -0.10024984672E+00  0.89101588358E+00  0.88000000000E+00 0.  1.
        -11    1    4    4    0    0  0.21613831040E-01 -0.36074107771E-01  0.22935250968E-01  0.47903922612E-01  0.51100000000E-03 0.  1.
         11    1    4    4    0    0  0.30120512449E-01 -0.51006282021E-01  0.56794202551E-01  0.82065392464E-01  0.51100000000E-03 0. -1.
</event>
<event>
 8    1  0.1117354E+005  0.1043930E+01  0.7957747E-01            NaN
         13   -1    0    0    0    0  0.00000000000E+00  0.00000000000E+00  0.74505805969E-08  0.10566000000E+00  0.10566000000E+00 0. -1.
     999900   -1    0    0    0    0 -0.00000000000E+00 -0.00000000000E+00 -0.74505805969E-08  0.93827000000E+00  0.93827000000E+00 0. -1.
     999902    2    1    2    0    0  0.11026056244E-01  0.95978962611E-02 -0.30536678314E-01  0.10100746865E+01  0.10095071521E+01 0.  0.
     999903    2    3    3    0    0  0.34203926216E-01 -0.10879201923E+00  0.30661495951E-01  0.11973845661E+00  0.19787840712E-01 0.  0.
         14    1    1    2    0    0 -0.11026056244E-01 -0.95978962611E-02  0.30536678314E-01  0.33855313488E-01  0.00000000000E+00 0. -1.
     999901    1    3    3    0    0 -0.23177869972E-01  0.11838991549E+00 -0.61198174265E-01  0.89033622990E+00  0.88000000000E+00 0.  1.
        -11    1    4    4    0    0  0.16686358822E-01 -0.59623138197E-01  0.66191573293E-02  0.62268993440E-01  0.51100000000E-03 0. -1.
         11    1    4    4    0    0  0.17517567394E-01 -0.49168881033E-01  0.24042338621E-01  0.57469463168E-01  0.51100000000E-03 0.  1.
</event>
<event>
 7    1  0.1117354E+005  0.1043930E+01  0.7957747E-01            NaN
         13   -1    0    0    0    0  0.00000000000E+00  0.00000000000E+00  0.74505805969E-08  0.10566000000E+00  0.10566000000E+00 0.  1.
     999900   -1    0    0    0    0 -0.00000000000E+00 -0.00000000000E+00 -0.74505805969E-08  0.93827000000E+00  0.93827000000E+00 0. -1.
     999903    2    1    2    0    0 -0.24920540895E-01  0.15687566633E-01 -0.10614615295E+00  0.11188202278E+00  0.19581831623E-01 0.  0.
         14    1    1    2    0    0 -0.11537531160E-01  0.12638928280E-01 -0.35610083012E-01  0.39508671776E-01  0.00000000000E+00 0. -1.
     999901    1    1    2    0    0  0.36458072055E-01 -0.28326494913E-01  0.14175623596E+00  0.89253930545E+00  0.88000000000E+00 0.  1.
        -11    1    3    3    0    0 -0.10482023726E-01  0.17895689273E-01 -0.62914817288E-01  0.66246991414E-01  0.51100000000E-03 0. -1.
         11    1    3    3    0    0 -0.14438517169E-01 -0.22081226399E-02 -0.43231335661E-01  0.45635031365E-01  0.51100000000E-03 0.  1.
</event>
<event>
 8    1  0.1117354E+005  0.1043930E+01  0.7957747E-01            NaN
         13   -1    0    0    0    0  0.00000000000E+00  0.00000000000E+00  0.74505805969E-08  0.10566000000E+00  0.10566000000E+00 0.  1.
     999900   -1    0    0    0    0 -0.00000000000E+00 -0.00000000000E+00 -0.74505805969E-08  0.93827000000E+00  0.93827000000E+00 0. -1.
     999902    2    1    2    0    0  0.13917798808E-01 -0.15380172763E-01  0.11778326780E-01  0.10200766183E+01  0.10197976875E+01 0.  0.
     999903    2    3    3    0    0 -0.46589400385E-01  0.11210891798E+00  0.37118501797E-01  0.12847316725E+00  0.19712681391E-01 0.  0.
         14    1    1    2    0    0 -0.13917798808E-01  0.15380172763E-01 -0.11778326780E-01  0.23853381723E-01  0.00000000000E+00 0. -1.
     999901    1    3    3    0    0  0.60507199193E-01 -0.12748909075E+00 -0.25340175018E-01  0.89160345103E+00  0.88000000000E+00 0. -1.
        -11    1    4    4    0    0 -0.31718990406E-01  0.60536691779E-01  0.12747172813E-01  0.69523643026E-01  0.51100000000E-03 0.  1.
         11    1    4    4    0    0 -0.14870409980E-01  0.51572226206E-01  0.24371328984E-01  0.58949524224E-01  0.51100000000E-03 0. -1.
</event>
<event>
 7    1  0.1117354E+005  0.1043930E+01  0.7957747E-01            NaN
         13   -1    0    0    0    0  0.00000000000E+00  0.00000000000E+00  0.74505805969E-08  0.10566000000E+00  0.10566000000E+00 0.  1.
     999900   -1    0    0    0    0 -0.00000000000E+00 -0.00000000000E+00 -0.74505805969E-08  0.93827000000E+00  0.93827000000E+00 0. -1.
     999903    2    1    2    0    0 -0.27909816674E-01 -0.57588478956E-01  0.23952964784E-01  0.71076931447E-01  0.19565144690E-01 0.  0.
         14    1    1    2    0    0  0.37999010130E-01  0.77047308917E-01 -0.34344095802E-01  0.92518806189E-01  0.00000000000E+00 0. -1.
     999901    1    1    2    0    0 -0.10089193456E-01 -0.19458829960E-01  0.10391131018E-01  0.88033426236E+00  0.88000000000E+00 0.  1.
        -11    1    3    3    0    0  0.16842723719E-02 -0.87800940401E-02 -0.52058677175E-03  0.89698916583E-02  0.51100000000E-03 0.  1.
         11    1    3    3    0    0 -0.29594089046E-01 -0.48808384916E-01  0.24473551556E-01  0.62107039789E-01  0.51100000000E-03 0. -1.
</event>
<event>
 8    1  0.1117354E+005  0.1043930E+01  0.7957747E-01            NaN
         13   -1    0    0    0    0  0.00000000000E+00  0.00000000000E+00  0.74505805969E-08  0.10566000000E+00  0.10566000000E+00 0. -1.
     999900   -1    0    0    0    0 -0.00000000000E+00 -0.00000000000E+00 -0.74505805969E-08  0.93827000000E+00  0.93827000000E+00 0.  1.
     999902    2    1    2    0    0 -0.45870002120E-02  0.19199277963E-01  0.15046079269E-01  0.10191099004E+01  0.10188076127E+01 0.  0.
     999903    2    3    3    0    0 -0.41484280615E-01 -0.14075588691E-02  0.12314934034E+00  0.13148815316E+00  0.20011187765E-01 0.  0.
         14    1    1    2    0    0  0.45870002120E-02 -0.19199277963E-01 -0.15046079269E-01  0.24820099649E-01  0.00000000000E+00 0.  1.
     999901    1    3    3    0    0  0.36897280403E-01  0.20606836832E-01 -0.10810326107E+00  0.88762174719E+00  0.88000000000E+00 0.  1.
        -11    1    4    4    0    0 -0.21743596123E-01 -0.10048142935E-01  0.54482499055E-01  0.59517669419E-01  0.51100000000E-03 0. -1.
         11    1    4    4    0    0 -0.19740684492E-01  0.86405840654E-02  0.68666841286E-01  0.71970483745E-01  0.51100000000E-03 0.  1.
</event>
<event>
 8    1  0.1117354E+005  0.1043930E+01  0.7957747E-01            NaN
         13   -1    0    0    0    0  0.00000000000E+00  0.00000000000E+00  0.74505805969E-08  0.10566000000E+00  0.10566000000E+00 0.  1.
     999900   -1    0    0    0    0 -0.00000000000E+00 -0.00000000000E+00 -0.74505805969E-08  0.93827000000E+00  0.93827000000E+00 0.  1.
     999902    2    1    2    0    0 -0.21252377349E-01 -0.85716501126E-03 -0.12009188185E-01  0.10195042170E+01  0.10192115725E+01 0.  0.
     999903    2    3    3    0    0  0.14014912999E-01  0.49718122251E-01  0.11574326978E+00  0.12814439516E+00  0.18872520917E-01 0.  0.
         14    1    1    2    0    0  0.21252377349E-01  0.85716501126E-03  0.12009188185E-01  0.24425783011E-01  0.00000000000E+00 0.  1.
     999901    1    3    3    0    0 -0.35267290348E-01 -0.50575287262E-01 -0.12775245796E+00  0.89135982183E+00  0.88000000000E+00 0.  1.
        -11    1    4    4    0    0  0.11952286904E-01  0.23342565845E-01  0.75991931137E-01  0.80391338224E-01  0.51100000000E-03 0. -1.
         11    1    4    4    0    0  0.20626260945E-02  0.26375556405E-01  0.39751338643E-01  0.47753056939E-01  0.51100000000E-03 0.  1.
</event>
<event>
 8    1  0.1117354E+005  0.1043930E+01  0.7957747E-01            NaN
         13   -1    0    0    0    0  0.00000000000E+00  0.00000000000E+00  0.74505805969E-08  0.10566000000E+00  0.10566000000E+00 0. -1.
     999900   -1    0    0    0    0 -0.00000000000E+00 -0.00000000000E+00 -0.74505805969E-08  0.93827000000E+00  0.93827000000E+00 0.  1.
     999902    2    1    2    0    0  0.52316260276E-02 -0.22665288510E-01 -0.51653923690E-02  0.10201021488E+01  0.10198238218E+01 0.  0.
     999903    2    3    3    0    0  0.99728970262E-01  0.74793672827E-01 -0.27711083821E-01  0.12940786601E+00  0.20941122540E-01 0.  0.
         14    1    1    2    0    0 -0.52316260276E-02  0.22665288510E-01  0.51653923690E-02  0.23827851192E-01  0.00000000000E+00 0. -1.
     999901    1    3    3    0    0 -0.94497344234E-01 -0.97458961337E-01  0.22545691452E-01  0.89069428280E+00  0.88000000000E+00 0. -1.
        -11    1    4    4    0    0  0.16122792416E-02  0.68370217075E-02 -0.19093933855E-02  0.72973429604E-02  0.51100000000E-03 0.  1.
         11    1    4    4    0    0  0.98116691020E-01  0.67956651120E-01 -0.25801690435E-01  0.12211052305E+00  0.51100000000E-03 0. -1.
</event>
<event>
 8    1  0.1117354E+005  0.1043930E+01  0.7957747E-01            NaN
         13   -1    0    0    0    0  0.00000000000E+00  0.00000000000E+00  0.74505805969E-08  0.10566000000E+00  0.10566000000E+00 0. -1.
     999900   -1    0    0    0    0 -0.00000000000E+00 -0.00000000000E+00 -0.74505805969E-08  0.93827000000E+00  0.93827000000E+00 0.  1.
     999902    2    1    2    0    0  0.19162507144E-01  0.10362843108E-01 -0.61848599367E-02  0.10212839697E+01  0.10210328614E+01 0.  0.
     999903    2    3    3    0    0  0.79180402601E-01 -0.96211718238E-01  0.37182143787E-01  0.13176669501E+00  0.21300685793E-01 0.  0.
         14    1    1    2    0    0 -0.19162507144E-01 -0.10362843108E-01  0.61848599367E-02  0.22646030331E-01  0.00000000000E+00 0. -1.
     999901    1    3    3    0    0 -0.60017895457E-01  0.10657456135E+00 -0.43367003723E-01  0.88951727466E+00  0.88000000000E+00 0.  1.
        -11    1    4    4    0    0  0.38810146659E-01 -0.42555793454E-01  0.27833231160E-01  0.63970093934E-01  0.51100000000E-03 0.  1.
         11    1    4    4    0    0  0.40370255942E-01 -0.53655924785E-01  0.93489126266E-02  0.67796601077E-01  0.51100000000E-03 0. -1.
</event>
<event>
 8    1  0.1117354E+005  0.1043930E+01  0.7957747E-01            NaN
         13   -1    0    0    0    0  0.00000000000E+00  0.00000000000E+00  0.74505805969E-08  0.10566000000E+00  0.10566000000E+00 0.  1.
     999900   -1    0    0    0    0 -0.00000000000E+00 -0.00000000000E+00 -0.74505805969E-08  0.93827000000E+00  0.93827000000E+00 0. -1.
     999902    2    1    2    0    0  0.12111610918E-01 -0.13313245816E-01  0.15143586615E-01  0.10204084812E+01  0.10201373469E+01 0.  0.
     999903    2    3    3    0    0 -0.27032046209E-01  0.19841641935E-01  0.12620889251E+00  0.13194521537E+00  0.18879434172E-01 0.  0.
         14    1    1    2    0    0 -0.12111610918E-01  0.13313245816E-01 -0.15143586615E-01  0.23521518844E-01  0.00000000000E+00 0.  1.
     999901    1    3    3    0    0  0.39143657127E-01 -0.33154887751E-01 -0.11106530589E+00  0.88846326578E+00  0.88000000000E+00 0. -1.
        -11    1    4    4    0    0 -0.18936556840E-01  0.74214790024E-02  0.97828452968E-01  0.99921663651E-01  0.51100000000E-03 0. -1.
         11    1    4    4    0    0 -0.80954893690E-02  0.12420162933E-01  0.28380439539E-01  0.32023551721E-01  0.51100000000E-03 0.  1.
</event>
<event>
 8    1  0.1117354E+005  0.1043930E+01  0.7957747E-01            NaN
         13   -1    0    0    0    0  0.00000000000E+00  0.00000000000E+00  0.74505805969E-08  0.10566000000E+00  0.10566000000E+00 0.  1.
     999900   -1    0    0    0    0 -0.00000000000E+00 -0.00000000000E+00 -0.74505805969E-08  0.93827000000E+00  0.93827000000E+00 0.  1.
     999902    2    1    2    0    0 -0.23093344977E-02  0.22938225229E-01 -0.31374983025E-02  0.10206633050E+01  0.10203980806E+01 0.  0.
     999903    2    3    3    0    0  0.11138059512E+00 -0.64097989602E-01 -0.73201972084E-03  0.12908801980E+00  0.12206218127E-01 0.  0.
         14    1    1    2    0    0  0.23093344977E-02 -0.22938225229E-01  0.31374983025E-02  0.23266695040E-01  0.00000000000E+00 0.  1.
     999901    1    3    3    0    0 -0.11368992962E+00  0.87036214831E-01 -0.24054785817E-02  0.89157528516E+00  0.88000000000E+00 0.  1.
        -11    1    4    4    0    0  0.86489019155E-02 -0.39631075919E-02  0.30062364902E-02  0.99904106504E-02  0.51100000000E-03 0. -1.
         11    1    4    4    0    0  0.10273169321E+00 -0.60134882010E-01 -0.37382562111E-02  0.11909760915E+00  0.51100000000E-03 0.  1.
</event>
<event>
 8    1  0.1117354E+005  0.1043930E+01  0.7957747E-01            NaN
         13   -1    0    0    0    0  0.00000000000E+00  0.00000000000E+00  0.74505805969E-08  0.10566000000E+00  0.10566000000E+00 0. -1.
     999900   -1    0    0    0    0 -0.00000000000E+00 -0.00000000000E+00 -0.74505805969E-08  0.93827000000E+00  0.93827000000E+00 0. -1.
     999902    2    1    2    0    0 -0.68982375088E-02 -0.20533258051E-01  0.61536158026E-02  0.10214118439E+01  0.10211635949E+01 0.  0.
     999903    2    3    3    0    0  0.34715080383E-01  0.10310427090E+00  0.66863154368E-01  0.12972605010E+00  0.22859115861E-01 0.  0.
         14    1    1    2    0    0  0.68982375088E-02  0.20533258051E-01 -0.61536158026E-02  0.22518156104E-01  0.00000000000E+00 0.  1.
     999901    1    3    3    0    0 -0.41613317891E-01 -0.12363752895E+00 -0.60709538565E-01  0.89168579380E+00  0.88000000000E+00 0. -1.
        -11    1    4    4    0    0  0.14144860918E-01  0.22924972536E-01  0.78374250854E-02  0.28059184043E-01  0.51100000000E-03 0.  1.
         11    1    4    4    0    0  0.20570219464E-01  0.80179298363E-01  0.59025729282E-01  0.10166686605E+00  0.51100000000E-03 0. -1.
</event>
<event>
 8    1  0.1117354E+005  0.1043930E+01  0.7957747E-01            NaN
         13   -1    0    0    0    0  0.00000000000E+00  0.00000000000E+00  0.74505805969E-08  0.10566000000E+00  0.10566000000E+00 0. -1.
     999900   -1    0    0    0    0 -0.00000000000E+00 -0.00000000000E+00 -0.74505805969E-08  0.93827000000E+00  0.93827000000E+00 0. -1.
     999902    2    1    2    0    0  0.47211712333E-02 -0.93561756193E-02  0.21085921997E-01  0.10203833742E+01  0.10201116541E+01 0.  0.
     999903    2    3    3    0    0 -0.53762333393E-01  0.10663715723E+00  0.47842428502E-01  0.13044478968E+00  0.21565560435E-01 0.  0.
         14    1    1    2    0    0 -0.47211712333E-02  0.93561756193E-02 -0.21085921997E-01  0.23546625799E-01  0.00000000000E+00 0.  1.
     999901    1    3    3    0    0  0.58483504626E-01 -0.11599333284E+00 -0.26756506504E-01  0.88993858452E+00  0.88000000000E+00 0. -1.
        -11    1    4    4    0    0 -0.38599838891E-01  0.93850944170E-01  0.41150443912E-01  0.10950601554E+00  0.51100000000E-03 0.  1.
         11    1    4    4    0    0 -0.15162494502E-01  0.12786213055E-01  0.66919845901E-02  0.20938774142E-01  0.51100000000E-03 0. -1.
</event>
<event>
 7    1  0.1117354E+005  0.1043930E+01  0.7957747E-01            NaN
         13   -1    0    0    0    0  0.00000000000E+00  0.00000000000E+00  0.74505805969E-08  0.10566000000E+00  0.10566000000E+00 0.  1.
     999900   -1    0    0    0    0 -0.00000000000E+00 -0.00000000000E+00 -0.74505805969E-08  0.93827000000E+00  0.93827000000E+00 0. -1.
     999903    2    1    2    0    0 -0.70527994665E-01  0.34738223025E-01  0.27182566788E-02  0.81569583959E-01  0.21570024049E-01 0.  0.
         14    1    1    2    0    0  0.49612996816E-01  0.86360347437E-02  0.60574967618E-01  0.78774089973E-01  0.00000000000E+00 0.  1.
     999901    1    1    2    0    0  0.20914997849E-01 -0.43374257769E-01 -0.63293224297E-01  0.88358632607E+00  0.88000000000E+00 0. -1.
        -11    1    3    3    0    0 -0.35583307712E-01  0.16606235427E-01  0.12104689463E-01  0.41094080726E-01  0.51100000000E-03 0. -1.
         11    1    3    3    0    0 -0.34944686954E-01  0.18131987598E-01 -0.93864327838E-02  0.40475503233E-01  0.51100000000E-03 0.  1.
</event>
<event>
 8    1  0.1117354E+005  0.1043930E+01  0.7957747E-01            NaN
         13   -1    0    0    0    0  0.00000000000E+00  0.00000000000E+00  0.74505805969E-08  0.10566000000E+00  0.10566000000E+00 0. -1.
     999900   -1    0    0    0    0 -0.00000000000E+00 -0.00000000000E+00 -0.74505805969E-08  0.93827000000E+00  0.93827000000E+00 0. -1.
     999902    2    1    2    0    0 -0.15864289922E-01  0.69974511877E-02 -0.15319541689E-01  0.10207928356E+01  0.10205305899E+01 0.  0.
     999903    2    3    3    0    0 -0.12822389608E+00  0.30207512740E-01  0.19853521798E-02  0.13317645035E+00  0.19446438011E-01 0.  0.
         14    1    1    2    0    0  0.15864289922E-01 -0.69974511877E-02  0.15319541689E-01  0.23137164377E-01  0.00000000000E+00 0. -1.
     999901    1    3    3    0    0  0.11235960616E+00 -0.23210061553E-01 -0.17304893869E-01  0.88761638527E+00  0.88000000000E+00 0.  1.
        -11    1    4    4    0    0 -0.51194139851E-01  0.20450514088E-01  0.58101467952E-02  0.55435389494E-01  0.51100000000E-03 0. -1.
         11    1    4    4    0    0 -0.77029756233E-01  0.97569986522E-02 -0.38247946155E-02  0.77741060855E-01  0.51100000000E-03 0.  1.
</event>
<event>
 8    1  0.1117354E+005  0.1043930E+01  0.7957747E-01            NaN
         13   -1    0    0    0    0  0.00000000000E+00  0.00000000000E+00  0.74505805969E-08  0.10566000000E+00  0.10566000000E+00 0.  1.
     999900   -1    0    0    0    0 -0.00000000000E+00 -0.00000000000E+00 -0.74505805969E-08  0.93827000000E+00  0.93827000000E+00 0.  1.
     999902    2    1    2    0    0 -0.22278157458E-02 -0.11712935006E-01 -0.19516691142E-01  0.10210595553E+01  0.10208033886E+01 0.  0.
     999903    2    3    3    0    0  0.11253918080E+00 -0.61723755609E-01  0.19828651847E-01  0.13132892092E+00  0.19473592699E-01 0.  0.
         14    1    1    2    0    0  0.22278157458E-02  0.11712935006E-01  0.19516691142E-01  0.22870444740E-01  0.00000000000E+00 0.  1.
     999901    1    3    3    0    0 -0.11476699655E+00  0.50010820603E-01 -0.39345342989E-01  0.88973063434E+00  0.88000000000E+00 0.  1.
        -11    1    4    4    0    0  0.50150089071E-01 -0.37964419873E-01  0.63628173646E-02  0.63222426211E-01  0.51100000000E-03 0.  1.
         11    1    4    4    0    0  0.62389091733E-01 -0.23759335736E-01  0.13465834482E-01  0.68106494706E-01  0.51100000000E-03 0. -1.
</event>
<event>
 8    1  0.1117354E+005  0.1043930E+01  0.7957747E-01            NaN
         13   -1    0    0    0    0  0.00000000000E+00  0.00000000000E+00  0.74505805969E-08  0.10566000000E+00  0.10566000000E+00 0.  1.
     999900   -1    0    0    0    0 -0.00000000000E+00 -0.00000000000E+00 -0.74505805969E-08  0.93827000000E+00  0.93827000000E+00 0.  1.
     999902    2    1    2    0    0 -0.11210848757E-01  0.15659714640E-01  0.13533986330E-01  0.10203911262E+01  0.10201195871E+01 0.  0.
     999903    2    3    3    0    0  0.18341931802E-01 -0.12133495128E+00 -0.31216362403E-01  0.12817842791E+00  0.19916104941E-01 0.  0.
         14    1    1    2    0    0  0.11210848757E-01 -0.15659714640E-01 -0.13533986330E-01  0.23538873772E-01  0.00000000000E+00 0.  1.
     999901    1    3    3    0    0 -0.29552780559E-01  0.13699466592E+00  0.44750348733E-01  0.89221269832E+00  0.88000000000E+00 0.  1.
        -11    1    4    4    0    0  0.13365054586E-01 -0.11405472795E+00 -0.25429517145E-01  0.11761814110E+00  0.51100000000E-03 0. -1.
         11    1    4    4    0    0  0.49768772161E-02 -0.72802233259E-02 -0.57868452584E-02  0.10560286812E-01  0.51100000000E-03 0.  1.
</event>
<event>
 8    1  0.1117354E+005  0.1043930E+01  0.7957747E-01            NaN
         13   -1    0    0    0    0  0.00000000000E+00  0.00000000000E+00  0.74505805969E-08  0.10566000000E+00  0.10566000000E+00 0.  1.
     999900   -1    0    0    0    0 -0.00000000000E+00 -0.00000000000E+00 -0.74505805969E-08  0.93827000000E+00  0.93827000000E+00 0. -1.
     999902    2    1    2    0    0 -0.18220065956E-01  0.15847153571E-01  0.39146934384E-02  0.10194672139E+01  0.10191736713E+01 0.  0.
     999903    2    3    3    0    0 -0.40964779508E-01  0.10774819528E+00 -0.61150163082E-01  0.13200084325E+00  0.19927203181E-01 0.  0.
         14    1    1    2    0    0  0.18220065956E-01 -0.15847153571E-01 -0.39146934384E-02  0.24462786114E-01  0.00000000000E+00 0. -1.
     999901    1    3    3    0    0  0.22744713551E-01 -0.91901041709E-01  0.65064856520E-01  0.88746637064E+00  0.88000000000E+00 0.  1.
        -11    1    4    4    0    0 -0.31807041460E-01  0.82131107851E-01 -0.36689201259E-01  0.95412605945E-01  0.51100000000E-03 0. -1.
         11    1    4    4    0    0 -0.91577380478E-02  0.25617087429E-01 -0.24460961823E-01  0.36588237301E-01  0.51100000000E-03 0.  1.
</event>
<event>
 8    1  0.1117354E+005  0.1043930E+01  0.7957747E-01            NaN
         13   -1    0    0    0    0  0.00000000000E+00  0.00000000000E+00  0.74505805969E-08  0.10566000000E+00  0.10566000000E+00 0. -1.
     999900   -1    0    0    0    0 -0.00000000000E+00 -0.00000000000E+00 -0.74505805969E-08  0.93827000000E+00  0.93827000000E+00 0.  1.
     999902    2    1    2    0    0 -0.18872544682E-02 -0.22010663262E-01  0.94719736260E-02  0.10198935836E+01  0.10196103043E+01 0.  0.
     999903    2    3    3    0    0  0.10480129798E+00 -0.24958928029E-01  0.72511815593E-01  0.13120625890E+00  0.18731225988E-01 0.  0.
         14    1    1    2    0    0  0.18872544682E-02  0.22010663262E-01 -0.94719736260E-02  0.24036416351E-01  0.00000000000E+00 0.  1.
     999901    1    3    3    0    0 -0.10668855245E+00  0.29482647677E-02 -0.63039841967E-01  0.88868732475E+00  0.88000000000E+00 0.  1.
        -11    1    4    4    0    0  0.85039923232E-01 -0.22549692668E-01  0.50178796906E-01  0.10128400645E+00  0.51100000000E-03 0. -1.
         11    1    4    4    0    0  0.19761374753E-01 -0.24092353615E-02  0.22333018687E-01  0.29922252452E-01  0.51100000000E-03 0.  1.
</event>
<event>
 8    1  0.1117354E+005  0.1043930E+01  0.7957747E-01            NaN
         13   -1    0    0    0    0  0.00000000000E+00  0.00000000000E+00  0.74505805969E-08  0.10566000000E+00  0.10566000000E+00 0.  1.
     999900   -1    0    0    0    0 -0.00000000000E+00 -0.00000000000E+00 -0.74505805969E-08  0.93827000000E+00  0.93827000000E+00 0. -1.
     999902    2    1    2    0    0  0.17759088968E-02  0.10591347874E-02 -0.33622775997E-01  0.10102437018E+01  0.10096819155E+01 0.  0.
     999903    2    3    3    0    0 -0.12758986536E-01  0.54260538391E-01  0.10184620542E+00  0.11817111652E+00  0.22017389854E-01 0.  0.
         14    1    1    2    0    0 -0.17759088968E-02 -0.10591347874E-02  0.33622775997E-01  0.33686298174E-01  0.00000000000E+00 0.  1.
     999901    1    3    3    0    0  0.14534895433E-01 -0.53201403604E-01 -0.13546898142E+00  0.89207258531E+00  0.88000000000E+00 0. -1.
        -11    1    4    4    0    0 -0.10962987366E-01  0.46840055992E-01  0.98884194408E-01  0.10996600821E+00  0.51100000000E-03 0.  1.
         11    1    4    4    0    0 -0.17959991705E-02  0.74204823999E-02  0.29620110159E-02  0.82051083068E-02  0.51100000000E-03 0. -1.
</event>
<event>
 8    1  0.1117354E+005  0.1043930E+01  0.7957747E-01            NaN
         13   -1    0    0    0    0  0.00000000000E+00  0.00000000000E+00  0.74505805969E-08  0.10566000000E+00  0.10566000000E+00 0. -1.
     999900   -1    0    0    0    0 -0.00000000000E+00 -0.00000000000E+00 -0.74505805969E-08  0.93827000000E+00  0.93827000000E+00 0. -1.
     999902    2    1    2    0    0  0.19032608180E-01  0.96712581827E-02 -0.10093822038E-01  0.10203152027E+01  0.10200418884E+01 0.  0.
     999903    2    3    3    0    0  0.24439644584E-01  0.81744957856E-01  0.96961970935E-01  0.13088572429E+00  0.21211191688E-01 0.  0.
         14    1    1    2    0    0 -0.19032608180E-01 -0.96712581827E-02  0.10093822038E-01  0.23614797317E-01  0.00000000000E+00 0. -1.
     999901    1    3    3    0    0 -0.54070364035E-02 -0.72073699673E-01 -0.10705579297E+00  0.88942947839E+00  0.88000000000E+00 0. -1.
        -11    1    4    4    0    0  0.20227057470E-01  0.31158734757E-01  0.41354707727E-01  0.55592028005E-01  0.51100000000E-03 0.  1.
         11    1    4    4    0    0  0.42125871143E-02  0.50586223099E-01  0.55607263208E-01  0.75293696284E-01  0.51100000000E-03 0. -1.
</event>
<event>
 8    1  0.1117354E+005  0.1043930E+01  0.7957747E-01            NaN
         13   -1    0    0    0    0  0.00000000000E+00  0.00000000000E+00  0.74505805969E-08  0.10566000000E+00  0.10566000000E+00 0. -1.
     999900   -1    0    0    0    0 -0.00000000000E+00 -0.00000000000E+00 -0.74505805969E-08  0.93827000000E+00  0.93827000000E+00 0.  1.
     999902    2    1    2    0    0 -0.17552859148E-01  0.14801115629E-01 -0.16344841209E-02  0.10209115851E+01  0.10206520549E+01 0.  0.
     999903    2    3    3    0    0  0.22944427189E-01  0.51897748183E-01  0.11666262225E+00  0.13129908755E+00  0.20235116882E-01 0.  0.
         14    1    1    2    0    0  0.17552859148E-01 -0.14801115629E-01  0.16344841209E-02  0.23018414943E-01  0.00000000000E+00 0. -1.
     999901    1    3    3    0    0 -0.40497286338E-01 -0.37096632554E-01 -0.11829710637E+00  0.88961249751E+00  0.88000000000E+00 0.  1.
        -11    1    4    4    0    0  0.13362771198E-02 -0.13556694857E-02  0.94516931247E-02  0.96550038953E-02  0.51100000000E-03 0. -1.
         11    1    4    4    0    0  0.21608150070E-01  0.53253417669E-01  0.10721092913E+00  0.12164408365E+00  0.51100000000E-03 0.  1.
</event>
<event>
 8    1  0.1117354E+005  0.1043930E+01  0.7957747E-01            NaN
         13   -1    0    0    0    0  0.00000000000E+00  0.00000000000E+00  0.74505805969E-08  0.10566000000E+00  0.10566000000E+00 0.  1.
     999900   -1    0    0    0    0 -0.00000000000E+00 -0.00000000000E+00 -0.74505805969E-08  0.93827000000E+00  0.93827000000E+00 0.  1.
     999902    2    1    2    0    0 -0.10064192283E-01  0.28334068270E-01  0.65840833578E-02  0.10131492017E+01  0.10126815133E+01 0.  0.
     999903    2    3    3    0    0  0.59191214052E-01 -0.77363486054E-01 -0.68903038343E-01  0.12092356328E+00  0.19651225598E-01 0.  0.
         14    1    1    2    0    0  0.10064192283E-01 -0.28334068270E-01 -0.65840833578E-02  0.30780798311E-01  0.00000000000E+00 0.  1.
     999901    1    3    3    0    0 -0.69255406334E-01  0.10569755432E+00  0.75487121700E-01  0.89222563841E+00  0.88000000000E+00 0.  1.
        -11    1    4    4    0    0  0.27718630506E-01 -0.29486077902E-01 -0.39370089203E-01  0.56462521305E-01  0.51100000000E-03 0.  1.
         11    1    4    4    0    0  0.31472583546E-01 -0.47877408151E-01 -0.29532949139E-01  0.64461041973E-01  0.51100000000E-03 0. -1.
</event>
<event>
 8    1  0.1117354E+005  0.1043930E+01  0.7957747E-01            NaN
         13   -1    0    0    0    0  0.00000000000E+00  0.00000000000E+00  0.74505805969E-08  0.10566000000E+00  0.10566000000E+00 0.  1.
     999900   -1    0    0    0    0 -0.00000000000E+00 -0.00000000000E+00 -0.74505805969E-08  0.93827000000E+00  0.93827000000E+00 0. -1.
     999902    2    1    2    0    0  0.19082935523E-01 -0.43153906199E-02  0.13902372221E-01  0.10199288130E+01  0.10196463733E+01 0.  0.
     999903    2    3    3    0    0 -0.54798885051E-02  0.50739805328E-01  0.11952755385E+00  0.13156453753E+00  0.20440997616E-01 0.  0.
         14    1    1    2    0    0 -0.19082935523E-01  0.43153906199E-02 -0.13902372221E-01  0.24001187007E-01  0.00000000000E+00 0. -1.
     999901    1    3    3    0    0  0.24562824028E-01 -0.55055195948E-01 -0.10562518163E+00  0.88836427546E+00  0.88000000000E+00 0. -1.
        -11    1    4    4    0    0 -0.12804071636E-01  0.36392893596E-01  0.90081759927E-01  0.97996793556E-01  0.51100000000E-03 0.  1.
         11    1    4    4    0    0  0.73241831310E-02  0.14346911732E-01  0.29445793922E-01  0.33567743973E-01  0.51100000000E-03 0. -1.
</event>
<event>
 8    1  0.1117354E+005  0.1043930E+01  0.7957747E-01            NaN
         13   -1    0    0    0    0  0.00000000000E+00  0.00000000000E+00  0.74505805969E-08  0.10566000000E+00  0.10566000000E+00 0. -1.
     999900   -1    0    0    0    0 -0.00000000000E+00 -0.00000000000E+00 -0.74505805969E-08  0.93827000000E+00  0.93827000000E+00 0. -1.
     999902    2    1    2    0    0 -0.19755263342E-01  0.12687855865E-01 -0.20716717042E-02  0.10203600204E+01  0.10200877547E+01 0.  0.
     999903    2    3    3    0    0  0.81920967553E-01 -0.90412223536E-01  0.35078919263E-01  0.12775268861E+00  0.14310967145E-01 0.  0.
         14    1    1    2    0    0  0.19755263342E-01 -0.12687855865E-01  0.20716717042E-02  0.23569979631E-01  0.00000000000E+00 0. -1.
     999901    1    3    3    0    0 -0.10167623090E+00  0.10310007940E+00 -0.37150590968E-01  0.89260733176E+00  0.88000000000E+00 0. -1.
        -11    1    4    4    0    0  0.56083824305E-01 -0.52260982103E-01  0.24420973081E-01  0.80456514008E-01  0.51100000000E-03 0.  1.
         11    1    4    4    0    0  0.25837143248E-01 -0.38151241433E-01  0.10657946182E-01  0.47296174601E-01  0.51100000000E-03 0. -1.
</event>
<event>
 7    1  0.1117354E+005  0.1043930E+01  0.7957747E-01            NaN
         13   -1    0    0    0    0  0.00000000000E+00  0.00000000000E+00  0.74505805969E-08  0.10566000000E+00  0.10566000000E+00 0. -1.
     999900   -1    0    0    0    0 -0.00000000000E+00 -0.00000000000E+00 -0.74505805969E-08  0.93827000000E+00  0.93827000000E+00 0.  1.
     999903    2    1    2    0    0  0.88926825856E-01 -0.46625758951E-01  0.35344530179E-01  0.10829163322E+00  0.19897242453E-01 0.  0.
         14    1    1    2    0    0 -0.37559499531E-03  0.24840074077E-01 -0.44402351194E-01  0.50879653530E-01  0.00000000000E+00 0.  1.
     999901    1    1    2    0    0 -0.88551230860E-01  0.21785684874E-01  0.90578210148E-02  0.88475871325E+00  0.88000000000E+00 0. -1.
        -11    1    3    3    0    0  0.42611784601E-01 -0.27077228664E-01  0.81800484547E-02  0.51147969781E-01  0.51100000000E-03 0.  1.
         11    1    3    3    0    0  0.46315041254E-01 -0.19548530287E-01  0.27164481724E-01  0.57143663438E-01  0.51100000000E-03 0. -1.
</event>
<event>
 8    1  0.1117354E+005  0.1043930E+01  0.7957747E-01            NaN
         13   -1    0    0    0    0  0.00000000000E+00  0.00000000000E+00  0.74505805969E-08  0.10566000000E+00  0.10566000000E+00 0. -1.
     999900   -1    0    0    0    0 -0.00000000000E+00 -0.00000000000E+00 -0.74505805969E-08  0.93827000000E+00  0.93827000000E+00 0. -1.
     999902    2    1    2    0    0  0.20156431945E-01  0.68457172381E-02  0.37987815347E-02  0.10223064865E+01  0.10220777740E+01 0.  0.
     999903    2    3    3    0    0  0.12859154286E+00 -0.34872331604E-01  0.31710219441E-02  0.13466975737E+00  0.19339694010E-01 0.  0.
         14    1    1    2    0    0 -0.20156431945E-01 -0.68457172381E-02 -0.37987815347E-02  0.21623513461E-01  0.00000000000E+00 0.  1.
     999901    1    3    3    0    0 -0.10843511092E+00  0.41718048842E-01  0.62775959061E-03  0.88763672916E+00  0.88000000000E+00 0.  1.
        -11    1    4    4    0    0  0.47190984889E-01 -0.16443364719E-01 -0.74715493135E-02  0.50531757027E-01  0.51100000000E-03 0. -1.
         11    1    4    4    0    0  0.81400557971E-01 -0.18428966885E-01  0.10642571258E-01  0.84138000347E-01  0.51100000000E-03 0.  1.
</event>
<event>
 8    1  0.1117354E+005  0.1043930E+01  0.7957747E-01            NaN
         13   -1    0    0    0    0  0.00000000000E+00  0.00000000000E+00  0.74505805969E-08  0.10566000000E+00  0.10566000000E+00 0.  1.
     999900   -1    0    0    0    0 -0.00000000000E+00 -0.00000000000E+00 -0.74505805969E-08  0.93827000000E+00  0.93827000000E+00 0. -1.
     999902    2    1    2    0    0 -0.13102138181E-01 -0.87090756999E-02  0.17589346106E-01  0.10203312898E+01  0.10200583522E+01 0.  0.
     999903    2    3    3    0    0  0.93370763472E-01 -0.88460286231E-01  0.35504558600E-02  0.13022240617E+00  0.20048631367E-01 0.  0.
         14    1    1    2    0    0  0.13102138181E-01  0.87090756999E-02 -0.17589346106E-01  0.23598710153E-01  0.00000000000E+00 0. -1.
     999901    1    3    3    0    0 -0.10647290165E+00  0.79751210531E-01  0.14038890246E-01  0.89010888368E+00  0.88000000000E+00 0.  1.
        -11    1    4    4    0    0  0.64598162432E-01 -0.72786964936E-01  0.47069629445E-02  0.97433472048E-01  0.51100000000E-03 0.  1.
         11    1    4    4    0    0  0.28772601040E-01 -0.15673321295E-01 -0.11565070845E-02  0.32788934119E-01  0.51100000000E-03 0. -1.
</event>
<event>
 8    1  0.1117354E+005  0.1043930E+01  0.7957747E-01            NaN
         13   -1    0    0    0    0  0.00000000000E+00  0.00000000000E+00  0.74505805969E-08  0.10566000000E+00  0.10566000000E+00 0.  1.
     999900   -1    0    0    0    0 -0.00000000000E+00 -0.00000000000E+00 -0.74505805969E-08  0.93827000000E+00  0.93827000000E+00 0.  1.
     999902    2    1    2    0    0  0.18826871530E-01  0.14960235186E-01 -0.88592716403E-03  0.10198666545E+01  0.10195827325E+01 0.  0.
     999903    2    3    3    0    0  0.67986285746E-01  0.10303725251E+00  0.44409556582E-01  0.13294732909E+00  0.21540035804E-01 0.  0.
         14    1    1    2    0    0 -0.18826871530E-01 -0.14960235186E-01  0.88592716403E-03  0.24063345474E-01  0.00000000000E+00 0.  1.
     999901    1    3    3    0    0 -0.49159414216E-01 -0.88077017321E-01 -0.45295483746E-01  0.88691932544E+00  0.88000000000E+00 0. -1.
        -11    1    4    4    0    0  0.19148785571E-01  0.22542400973E-01  0.19912826958E-01  0.35659748022E-01  0.51100000000E-03 0.  1.
         11    1    4    4    0    0  0.48837500175E-01  0.80494851533E-01  0.24496729624E-01  0.97287581068E-01  0.51100000000E-03 0. -1.
</event>
<event>
 8    1  0.1117354E+005  0.1043930E+01  0.7957747E-01            NaN
         13   -1    0    0    0    0  0.00000000000E+00  0.00000000000E+00  0.74505805969E-08  0.10566000000E+00  0.10566000000E+00 0.  1.
     999900   -1    0    0    0    0 -0.00000000000E+00 -0.00000000000E+00 -0.74505805969E-08  0.93827000000E+00  0.93827000000E+00 0. -1.
     999902    2    1    2    0    0  0.33634045348E-02  0.16489176864E-01 -0.16275894331E-01  0.10205182470E+01  0.10202496666E+01 0.  0.
     999903    2    3    3    0    0 -0.35656499639E-01  0.54297034250E-02  0.11961690933E+00  0.12916437843E+00  0.32777492444E-01 0.  0.
         14    1    1    2    0    0 -0.33634045348E-02 -0.16489176864E-01  0.16275894331E-01  0.23411753031E-01  0.00000000000E+00 0. -1.
     999901    1    3    3    0    0  0.39019904174E-01  0.11059473439E-01 -0.13589280366E+00  0.89135386854E+00  0.88000000000E+00 0. -1.
        -11    1    4    4    0    0 -0.41194771353E-01  0.26288279860E-02  0.11174930971E+00  0.11913055554E+00  0.51100000000E-03 0. -1.
         11    1    4    4    0    0  0.55382717142E-02  0.28008754390E-02  0.78675996263E-02  0.10033822885E-01  0.51100000000E-03 0.  1.
</event>
<event>
 8    1  0.1117354E+005  0.1043930E+01  0.7957747E-01            NaN
         13   -1    0    0    0    0  0.00000000000E+00  0.00000000000E+00  0.74505805969E-08  0.10566000000E+00  0.10566000000E+00 0.  1.
     999900   -1    0    0    0    0 -0.00000000000E+00 -0.00000000000E+00 -0.74505805969E-08  0.93827000000E+00  0.93827000000E+00 0.  1.
     999902    2    1    2    0    0  0.29726946991E-03 -0.21849333314E-01  0.10574325896E-01  0.10196545370E+01  0.10193655266E+01 0.  0.
     999903    2    3    3    0    0  0.43910591999E-01 -0.20968877710E-01  0.12071464301E+00  0.13171659629E+00  0.20233704079E-01 0.  0.
         14    1    1    2    0    0 -0.29726946991E-03  0.21849333314E-01 -0.10574325896E-01  0.24275462994E-01  0.00000000000E+00 0. -1.
     999901    1    3    3    0    0 -0.43613322529E-01 -0.88045560432E-03 -0.11014031711E+00  0.88793794071E+00  0.88000000000E+00 0.  1.
        -11    1    4    4    0    0  0.16011898436E-01 -0.10019665414E-02  0.22179093721E-01  0.27378059605E-01  0.51100000000E-03 0.  1.
         11    1    4    4    0    0  0.27898693563E-01 -0.19966911168E-01  0.98535549286E-01  0.10433853669E+00  0.51100000000E-03 0. -1.
</event>
<event>
 8    1  0.1117354E+005  0.1043930E+01  0.7957747E-01            NaN
         13   -1    0    0    0    0  0.00000000000E+00  0.00000000000E+00  0.74505805969E-08  0.10566000000E+00  0.10566000000E+00 0.  1.
     999900   -1    0    0    0    0 -0.00000000000E+00 -0.00000000000E+00 -0.74505805969E-08  0.93827000000E+00  0.93827000000E+00 0. -1.
     999902    2    1    2    0    0  0.91604740570E-02  0.20116074928E-01 -0.81604626038E-02  0.10203680836E+01  0.10200960063E+01 0.  0.
     999903    2    3    3    0    0  0.12457034906E+00 -0.32645832297E-01 -0.15401835974E-01  0.13123609361E+00  0.20054263438E-01 0.  0.
         14    1    1    2    0    0 -0.91604740570E-02 -0.20116074928E-01  0.81604626038E-02  0.23561916419E-01  0.00000000000E+00 0.  1.
     999901    1    3    3    0    0 -0.11540987501E+00  0.52761907225E-01  0.72413733697E-02  0.88913198997E+00  0.88000000000E+00 0.  1.
        -11    1    4    4    0    0  0.28580851754E-01 -0.16440657833E-01 -0.43433524143E-02  0.33260880147E-01  0.51100000000E-03 0. -1.
         11    1    4    4    0    0  0.95989497310E-01 -0.16205174464E-01 -0.11058483559E-01  0.97975213462E-01  0.51100000000E-03 0.  1.
</event>
<event>
 8    1  0.1117354E+005  0.1043930E+01  0.7957747E-01            NaN
         13   -1    0    0    0    0  0.00000000000E+00  0.00000000000E+00  0.74505805969E-08  0.10566000000E+00  0.10566000000E+00 0. -1.
     999900   -1    0    0    0    0 -0.00000000000E+00 -0.00000000000E+00 -0.74505805969E-08  0.93827000000E+00  0.93827000000E+00 0.  1.
     999902    2    1    2    0    0  0.21779877186E-01 -0.60020766548E-02 -0.99464046561E-02  0.10192456134E+01  0.10189466628E+01 0.  0.
     999903    2    3    3    0    0  0.33023654091E-01 -0.47375747351E-01  0.11413601751E+00  0.12950708407E+00  0.20249226261E-01 0.  0.
         14    1    1    2    0    0 -0.21779877186E-01  0.60020766548E-02  0.99464046561E-02  0.24684386563E-01  0.00000000000E+00 0.  1.
     999901    1    3    3    0    0 -0.11243776905E-01  0.41373670697E-01 -0.12408242217E+00  0.88973852937E+00  0.88000000000E+00 0.  1.
        -11    1    4    4    0    0  0.33178541898E-01 -0.37796906224E-01  0.10415430983E+00  0.11566245345E+00  0.51100000000E-03 0.  1.
         11    1    4    4    0    0 -0.15488780686E-03 -0.95788411276E-02  0.99817076869E-02  0.13844630617E-01  0.51100000000E-03 0. -1.
</event>
<event>
 8    1  0.1117354E+005  0.1043930E+01  0.7957747E-01            NaN
         13   -1    0    0    0    0  0.00000000000E+00  0.00000000000E+00  0.74505805969E-08  0.10566000000E+00  0.10566000000E+00 0.  1.
     999900   -1    0    0    0    0 -0.00000000000E+00 -0.00000000000E+00 -0.74505805969E-08  0.93827000000E+00  0.93827000000E+00 0.  1.
     999902    2    1    2    0    0  0.11819567089E-01  0.17582920737E-01 -0.44302927839E-02  0.10222853988E+01  0.10220562351E+01 0.  0.
     999903    2    3    3    0    0  0.96509446663E-01  0.58283131874E-01 -0.71122096164E-01  0.13477388926E+00  0.19865847768E-01 0.  0.
         14    1    1    2    0    0 -0.11819567089E-01 -0.17582920737E-01  0.44302927839E-02  0.21644601220E-01  0.00000000000E+00 0.  1.
     999901    1    3    3    0    0 -0.84689879574E-01 -0.40700211137E-01  0.66691803381E-01  0.88751150952E+00  0.88000000000E+00 0. -1.
        -11    1    4    4    0    0  0.61636260410E-01  0.28065203007E-01 -0.35427856198E-01  0.76433489604E-01  0.51100000000E-03 0.  1.
         11    1    4    4    0    0  0.34873186253E-01  0.30217928868E-01 -0.35694239967E-01  0.58340399658E-01  0.51100000000E-03 0. -1.
</event>
<event>
 7    1  0.1117354E+005  0.1043930E+01  0.7957747E-01            NaN
         13   -1    0    0    0    0  0.00000000000E+00  0.00000000000E+00  0.74505805969E-08  0.10566000000E+00  0.10566000000E+00 0.  1.
     999900   -1    0    0    0    0 -0.00000000000E+00 -0.00000000000E+00 -0.74505805969E-08  0.93827000000E+00  0.93827000000E+00 0.  1.
     999902    2    1    2    0    0  0.16525411891E-01  0.10886439831E-01 -0.12728171604E-01  0.10204010782E+01  0.10201297712E+01 0.  0.
         14    1    1    2    0    0 -0.16525411891E-01 -0.10886439831E-01  0.12728171604E-01  0.23528921836E-01  0.00000000000E+00 0.  1.
     999901    1    3    3    0    0  0.52838270250E-01 -0.10380353937E+00  0.26815121039E-01  0.88808001233E+00  0.88000000000E+00 0. -1.
        -11    1    3    3    0    0 -0.43405580367E-01  0.89707445808E-01 -0.36658309983E-01  0.10618645418E+00  0.51100000000E-03 0.  1.
         11    1    3    3    0    0  0.70927220078E-02  0.24982533389E-01 -0.28849826604E-02  0.26134611648E-01  0.51100000000E-03 0. -1.
</event>
<event>
 8    1  0.1117354E+005  0.1043930E+01  0.7957747E-01            NaN
         13   -1    0    0    0    0  0.00000000000E+00  0.00000000000E+00  0.74505805969E-08  0.10566000000E+00  0.10566000000E+00 0. -1.
     999900   -1    0    0    0    0 -0.00000000000E+00 -0.00000000000E+00 -0.74505805969E-08  0.93827000000E+00  0.93827000000E+00 0. -1.
     999902    2    1    2    0    0 -0.12475888453E-01  0.65478306541E-02 -0.19223668933E-01  0.10200957531E+01  0.10198172749E+01 0.  0.
     999903    2    3    3    0    0 -0.12571375935E+00  0.26120069668E-01  0.20618977368E-01  0.13173021772E+00  0.21011918128E-01 0.  0.
         14    1    1    2    0    0  0.12475888453E-01 -0.65478306541E-02  0.19223668933E-01  0.23834246919E-01  0.00000000000E+00 0. -1.
     999901    1    3    3    0    0  0.11323787090E+00 -0.19572239014E-01 -0.39842646301E-01  0.88836553536E+00  0.88000000000E+00 0. -1.
        -11    1    4    4    0    0 -0.22917476187E-02  0.40956278654E-02  0.10959860064E-02  0.48465019433E-02  0.51100000000E-03 0. -1.
         11    1    4    4    0    0 -0.12342201174E+00  0.22024441803E-01  0.19522991361E-01  0.12688371578E+00  0.51100000000E-03 0.  1.
</event>
<event>
 8    1  0.1117354E+005  0.1043930E+01  0.7957747E-01            NaN
         13   -1    0    0    0    0  0.00000000000E+00  0.00000000000E+00  0.74505805969E-08  0.10566000000E+00  0.10566000000E+00 0. -1.
     999900   -1    0    0    0    0 -0.00000000000E+00 -0.00000000000E+00 -0.74505805969E-08  0.93827000000E+00  0.93827000000E+00 0. -1.
     999902    2    1    2    0    0  0.77569647268E-02  0.18035855802E-01 -0.86715231625E-02  0.10224670573E+01  0.10222417646E+01 0.  0.
     999903    2    3    3    0    0  0.61223258908E-01  0.68802133510E-01  0.94261311129E-01  0.13340517645E+00  0.20729817205E-01 0.  0.
         14    1    1    2    0    0 -0.77569647268E-02 -0.18035855802E-01  0.86715231625E-02  0.21462942721E-01  0.00000000000E+00 0.  1.
     999901    1    3    3    0    0 -0.53466294181E-01 -0.50766277707E-01 -0.10293283429E+00  0.88906188083E+00  0.88000000000E+00 0. -1.
        -11    1    4    4    0    0  0.18712971012E-01  0.35990405502E-01  0.37097952548E-01  0.54972754857E-01  0.51100000000E-03 0.  1.
         11    1    4    4    0    0  0.42510287896E-01  0.32811728007E-01  0.57163358581E-01  0.78432421594E-01  0.51100000000E-03 0. -1.
</event>
<event>
 8    1  0.1117354E+005  0.1043930E+01  0.7957747E-01            NaN
         13   -1    0    0    0    0  0.00000000000E+00  0.00000000000E+00  0.74505805969E-08  0.10566000000E+00  0.10566000000E+00 0. -1.
     999900   -1    0    0    0    0 -0.00000000000E+00 -0.00000000000E+00 -0.74505805969E-08  0.93827000000E+00  0.93827000000E+00 0. -1.
     999902    2    1    2    0    0  0.17295265640E-01 -0.19180127727E-01 -0.10420894044E-01  0.10160804301E+01  0.10156986964E+01 0.  0.
     999903    2    3    3    0    0 -0.27028616705E-01  0.98606663388E-01 -0.69497528496E-01  0.12516607758E+00  0.19565794780E-01 0.  0.
         14    1    1    2    0    0 -0.17295265640E-01  0.19180127727E-01  0.10420894044E-01  0.27849569941E-01  0.00000000000E+00 0. -1.
     999901    1    3    3    0    0  0.44323882345E-01 -0.11778679112E+00  0.59076634452E-01  0.89091435247E+00  0.88000000000E+00 0. -1.
        -11    1    4    4    0    0 -0.17565598881E-01  0.59606554966E-01 -0.53358288467E-01  0.81907629242E-01  0.51100000000E-03 0. -1.
         11    1    4    4    0    0 -0.94630178246E-02  0.39000108422E-01 -0.16139240028E-01  0.43258448342E-01  0.51100000000E-03 0.  1.
</event>
<event>
 8    1  0.1117354E+005  0.1043930E+01  0.7957747E-01            NaN
         13   -1    0    0    0    0  0.00000000000E+00  0.00000000000E+00  0.74505805969E-08  0.10566000000E+00  0.10566000000E+00 0. -1.
     999900   -1    0    0    0    0 -0.00000000000E+00 -0.00000000000E+00 -0.74505805969E-08  0.93827000000E+00  0.93827000000E+00 0. -1.
     999902    2    1    2    0    0  0.44774510430E-02  0.11058650173E-02 -0.23405332351E-01  0.10200746004E+01  0.10197956219E+01 0.  0.
     999903    2    3    3    0    0  0.10272387377E+00  0.78478810749E-01 -0.57502162310E-02  0.13105793276E+00  0.20784580164E-01 0.  0.
         14    1    1    2    0    0 -0.44774510430E-02 -0.11058650173E-02  0.23405332351E-01  0.23855399551E-01  0.00000000000E+00 0. -1.
     999901    1    3    3    0    0 -0.98246422728E-01 -0.77372945732E-01 -0.17655116120E-01  0.88901666769E+00  0.88000000000E+00 0. -1.
        -11    1    4    4    0    0  0.46120929482E-01  0.23112123838E-01 -0.54392472632E-02  0.51876362019E-01  0.51100000000E-03 0. -1.
         11    1    4    4    0    0  0.56602944289E-01  0.55366686911E-01 -0.31096896784E-03  0.79181570737E-01  0.51100000000E-03 0.  1.
</event>
<event>
 8    1  0.1117354E+005  0.1043930E+01  0.7957747E-01            NaN
         13   -1    0    0    0    0  0.00000000000E+00  0.00000000000E+00  0.74505805969E-08  0.10566000000E+00  0.10566000000E+00 0. -1.
     999900   -1    0    0    0    0 -0.00000000000E+00 -0.00000000000E+00 -0.74505805969E-08  0.93827000000E+00  0.93827000000E+00 0. -1.
     999902    2    1    2    0    0  0.28603380146E-03  0.22461331473E-01 -0.29446236719E-01  0.10068938814E+01  0.10062125095E+01 0.  0.
     999903    2    3    3    0    0 -0.71920494786E-01 -0.78857936606E-01 -0.46389719738E-01  0.11798080436E+00  0.19399287693E-01 0.  0.
         14    1    1    2    0    0 -0.28603380146E-03 -0.22461331473E-01  0.29446236719E-01  0.37036118639E-01  0.00000000000E+00 0.  1.
     999901    1    3    3    0    0  0.72206528587E-01  0.10131926808E+00  0.16943483019E-01  0.88891307701E+00  0.88000000000E+00 0.  1.
        -11    1    4    4    0    0 -0.38387986647E-01 -0.32542748798E-01 -0.29588505028E-01  0.58381579021E-01  0.51100000000E-03 0.  1.
         11    1    4    4    0    0 -0.33532508138E-01 -0.46315187808E-01 -0.16801214710E-01  0.59599225335E-01  0.51100000000E-03 0. -1.
</event>
<event>
 8    1  0.1117354E+005  0.1043930E+01  0.7957747E-01            NaN
         13   -1    0    0    0    0  0.00000000000E+00  0.00000000000E+00  0.74505805969E-08  0.10566000000E+00  0.10566000000E+00 0. -1.
     999900   -1    0    0    0    0 -0.00000000000E+00 -0.00000000000E+00 -0.74505805969E-08  0.93827000000E+00  0.93827000000E+00 0. -1.
     999902    2    1    2    0    0  0.34928822710E-02  0.10740407792E-01  0.20559452920E-01  0.10204726410E+01  0.10202030011E+01 0.  0.
     999903    2    3    3    0    0 -0.42572205302E-01  0.95059572031E-01 -0.75298065045E-01  0.13006802653E+00  0.19979440097E-01 0.  0.
         14    1    1    2    0    0 -0.34928822710E-02 -0.10740407792E-01 -0.20559452920E-01  0.23457358983E-01  0.00000000000E+00 0.  1.
     999901    1    3    3    0    0  0.46065087573E-01 -0.84319164239E-01  0.95857517965E-01  0.89040461449E+00  0.88000000000E+00 0.  1.
        -11    1    4    4    0    0 -0.11573949272E-01  0.47950538615E-01 -0.30028546610E-01  0.57751062222E-01  0.51100000000E-03 0.  1.
         11    1    4    4    0    0 -0.30998256030E-01  0.47109033416E-01 -0.45269518434E-01  0.72316964307E-01  0.51100000000E-03 0. -1.
</event>
<event>
 7    1  0.1117354E+005  0.1043930E+01  0.7957747E-01            NaN
         13   -1    0    0    0    0  0.00000000000E+00  0.00000000000E+00  0.74505805969E-08  0.10566000000E+00  0.10566000000E+00 0. -1.
     999900   -1    0    0    0    0 -0.00000000000E+00 -0.00000000000E+00 -0.74505805969E-08  0.93827000000E+00  0.93827000000E+00 0.  1.
     999902    2    1    2    0    0  0.58464400900E-02  0.17524393125E-01 -0.11565479261E-01  0.10221344609E+01  0.10219020553E+01 0.  0.
         14    1    1    2    0    0 -0.58464400900E-02 -0.17524393125E-01  0.11565479261E-01  0.21795539146E-01  0.00000000000E+00 0. -1.
     999901    1    3    3    0    0  0.38083922053E-01  0.67628926713E-01 -0.12169337236E+00  0.89175856246E+00  0.88000000000E+00 0.  1.
        -11    1    3    3    0    0 -0.29877871148E-01 -0.15511115115E-01  0.41121101981E-01  0.53145912595E-01  0.51100000000E-03 0.  1.
         11    1    3    3    0    0 -0.23596108152E-02 -0.34593418473E-01  0.69006791118E-01  0.77229985797E-01  0.51100000000E-03 0. -1.
</event>
<event>
 8    1  0.1117354E+005  0.1043930E+01  0.7957747E-01            NaN
         13   -1    0    0    0    0  0.00000000000E+00  0.00000000000E+00  0.74505805969E-08  0.10566000000E+00  0.10566000000E+00 0.  1.
     999900   -1    0    0    0    0 -0.00000000000E+00 -0.00000000000E+00 -0.74505805969E-08  0.93827000000E+00  0.93827000000E+00 0. -1.
     999902    2    1    2    0    0  0.12964012457E-01 -0.46025665480E-03  0.20721580223E-01  0.10194828868E+01  0.10191897248E+01 0.  0.
     999903    2    3    3    0    0 -0.55055922050E-01  0.10598105019E+00 -0.42366886276E-01  0.12822724567E+00  0.19599385910E-01 0.  0.
         14    1    1    2    0    0 -0.12964012457E-01  0.46025665480E-03 -0.20721580223E-01  0.24447113165E-01  0.00000000000E+00 0. -1.
     999901    1    3    3    0    0  0.68019934507E-01 -0.10644130685E+00  0.63088466499E-01  0.89125564116E+00  0.88000000000E+00 0.  1.
        -11    1    4    4    0    0 -0.54756234354E-01  0.92224353066E-01 -0.37667028772E-01  0.11367780204E+00  0.51100000000E-03 0. -1.
         11    1    4    4    0    0 -0.29968769582E-03  0.13756697126E-01 -0.46998575039E-02  0.14549443635E-01  0.51100000000E-03 0.  1.
</event>
<event>
 8    1  0.1117354E+005  0.1043930E+01  0.7957747E-01            NaN
         13   -1    0    0    0    0  0.00000000000E+00  0.00000000000E+00  0.74505805969E-08  0.10566000000E+00  0.10566000000E+00 0.  1.
     999900   -1    0    0    0    0 -0.00000000000E+00 -0.00000000000E+00 -0.74505805969E-08  0.93827000000E+00  0.93827000000E+00 0.  1.
     999902    2    1    2    0    0  0.13444671407E-02  0.87447799022E-02  0.34944997340E-01  0.10078823703E+01  0.10072375295E+01 0.  0.
     999903    2    3    3    0    0 -0.93341167103E-01  0.70292335467E-01  0.21776282700E-01  0.12056794691E+00  0.20219728769E-01 0.  0.
         14    1    1    2    0    0 -0.13444671407E-02 -0.87447799022E-02 -0.34944997340E-01  0.36047629693E-01  0.00000000000E+00 0.  1.
     999901    1    3    3    0    0  0.94685634244E-01 -0.61547555564E-01  0.13168714640E-01  0.88731442340E+00  0.88000000000E+00 0. -1.
        -11    1    4    4    0    0 -0.30297575914E-01  0.25134028490E-01  0.16964600763E-01  0.42868651652E-01  0.51100000000E-03 0.  1.
         11    1    4    4    0    0 -0.63043591189E-01  0.45158306977E-01  0.48116819374E-02  0.77699295255E-01  0.51100000000E-03 0. -1.
</event>
<event>
 8    1  0.1117354E+005  0.1043930E+01  0.7957747E-01            NaN
         13   -1    0    0    0    0  0.00000000000E+00  0.00000000000E+00  0.74505805969E-08  0.10566000000E+00  0.10566000000E+00 0. -1.
     999900   -1    0    0    0    0 -0.00000000000E+00 -0.00000000000E+00 -0.74505805969E-08  0.93827000000E+00  0.93827000000E+00 0. -1.
     999902    2    1    2    0    0 -0.13831806664E-01 -0.13714422939E-01  0.15999005494E-01  0.10187234047E+01  0.10184115095E+01 0.  0.
     999903    2    3    3    0    0  0.79480228127E-01  0.17479010305E-01 -0.94984626450E-01  0.12631232635E+00  0.17609714999E-01 0.  0.
         14    1    1    2    0    0  0.13831806664E-01  0.13714422939E-01 -0.15999005494E-01  0.25206595346E-01  0.00000000000E+00 0. -1.
     999901    1    3    3    0    0 -0.93312034791E-01 -0.31193433245E-01  0.11098363194E+00  0.89241107830E+00  0.88000000000E+00 0.  1.
        -11    1    4    4    0    0  0.36145670815E-01  0.86000152656E-02 -0.56795912439E-01  0.67871249967E-01  0.51100000000E-03 0.  1.
         11    1    4    4    0    0  0.43334557312E-01  0.88789950396E-02 -0.38188714011E-01  0.58441076386E-01  0.51100000000E-03 0. -1.
</event>
<event>
 8    1  0.1117354E+005  0.1043930E+01  0.7957747E-01            NaN
         13   -1    0    0    0    0  0.00000000000E+00  0.00000000000E+00  0.74505805969E-08  0.10566000000E+00  0.10566000000E+00 0.  1.
     999900   -1    0    0    0    0 -0.00000000000E+00 -0.00000000000E+00 -0.74505805969E-08  0.93827000000E+00  0.93827000000E+00 0. -1.
     999902    2    1    2    0    0 -0.13022309297E-01  0.17958792647E-01 -0.71461193204E-02  0.10206240824E+01  0.10203579528E+01 0.  0.
     999903    2    3    3    0    0 -0.92527404688E-01 -0.25819235029E-01  0.87109402443E-01  0.13094904103E+00  0.18211255751E-01 0.  0.
         14    1    1    2    0    0  0.13022309297E-01 -0.17958792647E-01  0.71461193204E-02  0.23305917577E-01  0.00000000000E+00 0.  1.
     999901    1    3    3    0    0  0.79505095391E-01  0.43778027676E-01 -0.94255521764E-01  0.88967504140E+00  0.88000000000E+00 0.  1.
        -11    1    4    4    0    0 -0.75892701840E-01 -0.28041717499E-01  0.74015075138E-01  0.10965642973E+00  0.51100000000E-03 0.  1.
         11    1    4    4    0    0 -0.16634702848E-01  0.22224824704E-02  0.13094327305E-01  0.21292611295E-01  0.51100000000E-03 0. -1.
</event>
<event>
 8    1  0.1117354E+005  0.1043930E+01  0.7957747E-01            NaN
         13   -1    0    0    0    0  0.00000000000E+00  0.00000000000E+00  0.74505805969E-08  0.10566000000E+00  0.10566000000E+00 0. -1.
     999900   -1    0    0    0    0 -0.00000000000E+00 -0.00000000000E+00 -0.74505805969E-08  0.93827000000E+00  0.93827000000E+00 0. -1.
     999902    2    1    2    0    0  0.19991424291E-01 -0.41614442754E-02 -0.13688835830E-01  0.10193462881E+01  0.10190498006E+01 0.  0.
     999903    2    3    3    0    0 -0.31313047844E-01 -0.12075275881E+00 -0.30570177466E-01  0.13001470587E+00  0.20187923749E-01 0.  0.
         14    1    1    2    0    0 -0.19991424291E-01  0.41614442754E-02  0.13688835830E-01  0.24583711885E-01  0.00000000000E+00 0.  1.
     999901    1    3    3    0    0  0.51304472135E-01  0.11659131454E+00  0.16881341636E-01  0.88933158225E+00  0.88000000000E+00 0. -1.
        -11    1    4    4    0    0 -0.19427412776E-01 -0.38483511951E-01 -0.13272768697E-01  0.45109118470E-01  0.51100000000E-03 0. -1.
         11    1    4    4    0    0 -0.11885635068E-01 -0.82269246862E-01 -0.17297408769E-01  0.84905587398E-01  0.51100000000E-03 0.  1.
</event>
<event>
 8    1  0.1117354E+005  0.1043930E+01  0.7957747E-01            NaN
         13   -1    0    0    0    0  0.00000000000E+00  0.00000000000E+00  0.74505805969E-08  0.10566000000E+00  0.10566000000E+00 0. -1.
     999900   -1    0    0    0    0 -0.00000000000E+00 -0.00000000000E+00 -0.74505805969E-08  0.93827000000E+00  0.93827000000E+00 0. -1.
     999902    2    1    2    0    0 -0.53735202341E-02 -0.49672259397E-02 -0.22832184236E-01  0.10199538308E+01  0.10196719866E+01 0.  0.
     999903    2    3    3    0    0  0.82834266685E-01  0.88543393397E-01 -0.43609612107E-01  0.13037159675E+00  0.19837003794E-01 0.  0.
         14    1    1    2    0    0  0.53735202341E-02  0.49672259397E-02  0.22832184236E-01  0.23976169215E-01  0.00000000000E+00 0. -1.
     999901    1    3    3    0    0 -0.88207786919E-01 -0.93510619336E-01  0.20777427870E-01  0.88958223404E+00  0.88000000000E+00 0.  1.
        -11    1    4    4    0    0  0.56404988267E-01  0.50457446714E-01 -0.19676514987E-01  0.78197845196E-01  0.51100000000E-03 0.  1.
         11    1    4    4    0    0  0.26429278418E-01  0.38085946683E-01 -0.23933097120E-01  0.52173751553E-01  0.51100000000E-03 0. -1.
</event>
<event>
 8    1  0.1117354E+005  0.1043930E+01  0.7957747E-01            NaN
         13   -1    0    0    0    0  0.00000000000E+00  0.00000000000E+00  0.74505805969E-08  0.10566000000E+00  0.10566000000E+00 0. -1.
     999900   -1    0    0    0    0 -0.00000000000E+00 -0.00000000000E+00 -0.74505805969E-08  0.93827000000E+00  0.93827000000E+00 0. -1.
     999902    2    1    2    0    0 -0.59860946505E-02  0.22252717709E-01 -0.69423304907E-02  0.10198631613E+01  0.10195791558E+01 0.  0.
     999903    2    3    3    0    0  0.34128347311E-01 -0.97546987563E-01 -0.73430836213E-01  0.12835777191E+00  0.20086588307E-01 0.  0.
         14    1    1    2    0    0  0.59860946505E-02 -0.22252717709E-01  0.69423304907E-02  0.24066838746E-01  0.00000000000E+00 0.  1.
     999901    1    3    3    0    0 -0.40114441961E-01  0.11979970527E+00  0.66488505722E-01  0.89150538934E+00  0.88000000000E+00 0. -1.
        -11    1    4    4    0    0  0.18933602395E-01 -0.76640820908E-01 -0.49847933323E-01  0.93366880138E-01  0.51100000000E-03 0. -1.
         11    1    4    4    0    0  0.15194744915E-01 -0.20906166656E-01 -0.23582902890E-01  0.34990891772E-01  0.51100000000E-03 0.  1.
</event>
<event>
 8    1  0.1117354E+005  0.1043930E+01  0.7957747E-01            NaN
         13   -1    0    0    0    0  0.00000000000E+00  0.00000000000E+00  0.74505805969E-08  0.10566000000E+00  0.10566000000E+00 0. -1.
     999900   -1    0    0    0    0 -0.00000000000E+00 -0.00000000000E+00 -0.74505805969E-08  0.93827000000E+00  0.93827000000E+00 0.  1.
     999902    2    1    2    0    0 -0.23014361169E-01 -0.73881170840E-02 -0.43951067669E-02  0.10193625000E+01  0.10190664082E+01 0.  0.
     999903    2    3    3    0    0  0.73890994352E-01 -0.10318299366E+00  0.61550279934E-02  0.12881288785E+00  0.21172304535E-01 0.  0.
         14    1    1    2    0    0  0.23014361169E-01  0.73881170840E-02  0.43951067669E-02  0.24567500027E-01  0.00000000000E+00 0. -1.
     999901    1    3    3    0    0 -0.96905355521E-01  0.95794876579E-01 -0.10550134760E-01  0.89054961212E+00  0.88000000000E+00 0.  1.
        -11    1    4    4    0    0  0.44673900330E-01 -0.54786965594E-01 -0.61315309836E-02  0.70959324707E-01  0.51100000000E-03 0.  1.
         11    1    4    4    0    0  0.29217094022E-01 -0.48396028069E-01  0.12286558977E-01  0.57853563144E-01  0.51100000000E-03 0. -1.
</event>
<event>
 8    1  0.1117354E+005  0.1043930E+01  0.7957747E-01            NaN
         13   -1    0    0    0    0  0.00000000000E+00  0.00000000000E+00  0.74505805969E-08  0.10566000000E+00  0.10566000000E+00 0.  1.
     999900   -1    0    0    0    0 -0.00000000000E+00 -0.00000000000E+00 -0.74505805969E-08  0.93827000000E+00  0.93827000000E+00 0. -1.
     999902    2    1    2    0    0 -0.15578734742E-01  0.18680172324E-01 -0.56528692173E-02  0.10189580008E+01  0.10186519556E+01 0.  0.
     999903    2    3    3    0    0  0.92410200680E-01  0.88839181236E-01  0.11121681075E-01  0.12942706696E+00  0.13986727957E-01 0.  0.
         14    1    1    2    0    0  0.15578734742E-01 -0.18680172324E-01  0.56528692173E-02  0.24971999211E-01  0.00000000000E+00 0.  1.
     999901    1    3    3    0    0 -0.10798893542E+00 -0.70159008911E-01 -0.16774550292E-01  0.88953093383E+00  0.88000000000E+00 0.  1.
        -11    1    4    4    0    0  0.36860113592E-01  0.28522322262E-01  0.85383775082E-02  0.47385186005E-01  0.51100000000E-03 0.  1.
         11    1    4    4    0    0  0.55550087088E-01  0.60316858974E-01  0.25833035665E-02  0.82041880953E-01  0.51100000000E-03 0. -1.
</event>
<event>
 8    1  0.1117354E+005  0.1043930E+01  0.7957747E-01            NaN
         13   -1    0    0    0    0  0.00000000000E+00  0.00000000000E+00  0.74505805969E-08  0.10566000000E+00  0.10566000000E+00 0. -1.
     999900   -1    0    0    0    0 -0.00000000000E+00 -0.00000000000E+00 -0.74505805969E-08  0.93827000000E+00  0.93827000000E+00 0. -1.
     999902    2    1    2    0    0  0.20560114498E-01 -0.60450818454E-02  0.10797827128E-01  0.10199330337E+01  0.10196506945E+01 0.  0.
     999903    2    3    3    0    0 -0.34950239214E-01 -0.33596062192E-01  0.12013920601E+00  0.13100334408E+00  0.19448206161E-01 0.  0.
         14    1    1    2    0    0 -0.20560114498E-01  0.60450818454E-02 -0.10797827128E-01  0.23996966337E-01  0.00000000000E+00 0.  1.
     999901    1    3    3    0    0  0.55510353712E-01  0.27550980346E-01 -0.10934137888E+00  0.88892968958E+00  0.88000000000E+00 0. -1.
        -11    1    4    4    0    0 -0.23404442392E-01 -0.24281918312E-01  0.10273021660E+00  0.10812556591E+00  0.51100000000E-03 0.  1.
         11    1    4    4    0    0 -0.11545796821E-01 -0.93141438794E-02  0.17408989415E-01  0.22877778168E-01  0.51100000000E-03 0. -1.
</event>
<event>
 8    1  0.1117354E+005  0.1043930E+01  0.7957747E-01            NaN
         13   -1    0    0    0    0  0.00000000000E+00  0.00000000000E+00  0.74505805969E-08  0.10566000000E+00  0.10566000000E+00 0. -1.
     999900   -1    0    0    0    0 -0.00000000000E+00 -0.00000000000E+00 -0.74505805969E-08  0.93827000000E+00  0.93827000000E+00 0.  1.
     999902    2    1    2    0    0 -0.18719700858E-01  0.90401977699E-02  0.10778699343E-01  0.10205134944E+01  0.10202448037E+01 0.  0.
     999903    2    3    3    0    0  0.58078635300E-01  0.11275136301E+00 -0.16173266655E-01  0.13069306379E+00  0.27075904959E-01 0.  0.
         14    1    1    2    0    0  0.18719700858E-01 -0.90401977699E-02 -0.10778699343E-01  0.23416505620E-01  0.00000000000E+00 0.  1.
     999901    1    3    3    0    0 -0.76798336157E-01 -0.10371116524E+00  0.26951965998E-01  0.88982043059E+00  0.88000000000E+00 0. -1.
        -11    1    4    4    0    0  0.39551574832E-01  0.77576047108E-01 -0.23658775392E-01  0.90235075945E-01  0.51100000000E-03 0.  1.
         11    1    4    4    0    0  0.18527060468E-01  0.35175315898E-01  0.74855087376E-02  0.40457987842E-01  0.51100000000E-03 0. -1.
</event>
<event>
 8    1  0.1117354E+005  0.1043930E+01  0.7957747E-01            NaN
         13   -1    0    0    0    0  0.00000000000E+00  0.00000000000E+00  0.74505805969E-08  0.10566000000E+00  0.10566000000E+00 0.  1.
     999900   -1    0    0    0    0 -0.00000000000E+00 -0.00000000000E+00 -0.74505805969E-08  0.93827000000E+00  0.93827000000E+00 0. -1.
     999902    2    1    2    0    0 -0.31002781565E-02  0.25878078250E-01  0.21316164176E-01  0.10102600503E+01  0.10096988183E+01 0.  0.
     999903    2    3    3    0    0 -0.97564955872E-01 -0.47487151199E-01  0.51684173813E-01  0.12164975987E+00  0.18800534821E-01 0.  0.
         14    1    1    2    0    0  0.31002781565E-02 -0.25878078250E-01 -0.21316164176E-01  0.33669949715E-01  0.00000000000E+00 0. -1.
     999901    1    3    3    0    0  0.94464677716E-01  0.73365229449E-01 -0.30368009637E-01  0.88861029042E+00  0.88000000000E+00 0. -1.
        -11    1    4    4    0    0 -0.20589256528E-01 -0.45474920017E-02  0.41158684875E-02  0.21489501210E-01  0.51100000000E-03 0.  1.
         11    1    4    4    0    0 -0.76975699345E-01 -0.42939659197E-01  0.47568305326E-01  0.10016025866E+00  0.51100000000E-03 0. -1.
</event>
<event>
 8    1  0.1222783E+005  0.1043930E+01  0.7957747E-01            NaN
         13   -1    0    0    0    0  0.00000000000E+00  0.00000000000E+00  0.74505805969E-08  0.10566000000E+00  0.10566000000E+00 0.  1.
     999900   -1    0    0    0    0 -0.00000000000E+00 -0.00000000000E+00 -0.74505805969E-08  0.93827000000E+00  0.93827000000E+00 0. -1.
     999902    2    1    2    0    0 -0.12091591677E-01 -0.17966432494E-01  0.97332305915E-02  0.10201868944E+01  0.10199105669E+01 0.  0.
     999903    2    3    3    0    0 -0.11634373737E+00 -0.35355658690E-01 -0.50085866023E-01  0.13184618308E+00  0.94304925558E-02 0.  0.
         14    1    1    2    0    0  0.12091591677E-01  0.17966432494E-01 -0.97332305915E-02  0.23743105601E-01  0.00000000000E+00 0.  1.
     999901    1    3    3    0    0  0.10425214570E+00  0.17389226196E-01  0.59819096614E-01  0.88834071132E+00  0.88000000000E+00 0.  1.
        -11    1    4    4    0    0 -0.63845955624E-01 -0.23793760329E-01 -0.25830155566E-01  0.72869109626E-01  0.51100000000E-03 0. -1.
         11    1    4    4    0    0 -0.52497781748E-01 -0.11561898362E-01 -0.24255710457E-01  0.58977073452E-01  0.51100000000E-03 0.  1.
</event>
<event>
 8    1  0.1117354E+005  0.1043930E+01  0.7957747E-01            NaN
         13   -1    0    0    0    0  0.00000000000E+00  0.00000000000E+00  0.74505805969E-08  0.10566000000E+00  0.10566000000E+00 0.  1.
     999900   -1    0    0    0    0 -0.00000000000E+00 -0.00000000000E+00 -0.74505805969E-08  0.93827000000E+00  0.93827000000E+00 0. -1.
     999902    2    1    2    0    0  0.16021788242E-01  0.14503600251E-01  0.16799880457E-02  0.10222534117E+01  0.10220235630E+01 0.  0.
     999903    2    3    3    0    0  0.94557377615E-01  0.94425309159E-01 -0.14228268379E-02  0.13514296438E+00  0.20108697486E-01 0.  0.
         14    1    1    2    0    0 -0.16021788242E-01 -0.14503600251E-01 -0.16799880457E-02  0.21676588259E-01  0.00000000000E+00 0. -1.
     999901    1    3    3    0    0 -0.78535589373E-01 -0.79921708908E-01  0.31028148836E-02  0.88711044736E+00  0.88000000000E+00 0. -1.
        -11    1    4    4    0    0  0.15254629294E-01  0.17579507903E-01  0.72250278926E-02  0.24376319699E-01  0.51100000000E-03 0.  1.
         11    1    4    4    0    0  0.79302748322E-01  0.76845801255E-01 -0.86478547305E-02  0.11076664468E+00  0.51100000000E-03 0. -1.
</event>
<event>
 8    1  0.1117354E+005  0.1043930E+01  0.7957747E-01            NaN
         13   -1    0    0    0    0  0.00000000000E+00  0.00000000000E+00  0.74505805969E-08  0.10566000000E+00  0.10566000000E+00 0.  1.
     999900   -1    0    0    0    0 -0.00000000000E+00 -0.00000000000E+00 -0.74505805969E-08  0.93827000000E+00  0.93827000000E+00 0.  1.
     999902    2    1    2    0    0 -0.19259321405E-02  0.77044726388E-02 -0.21933061263E-01  0.10206034638E+01  0.10203368577E+01 0.  0.
     999903    2    3    3    0    0 -0.22894470870E-01  0.19314578086E-01  0.12312917680E+00  0.12840532044E+00  0.20734570513E-01 0.  0.
         14    1    1    2    0    0  0.19259321405E-02 -0.77044726388E-02  0.21933061263E-01  0.23326536168E-01  0.00000000000E+00 0.  1.
     999901    1    3    3    0    0  0.20968538729E-01 -0.11610105447E-01 -0.14506223806E+00  0.89219814339E+00  0.88000000000E+00 0.  1.
        -11    1    4    4    0    0 -0.22024374044E-02  0.14614848632E-01  0.41289593227E-01  0.43858136769E-01  0.51100000000E-03 0.  1.
         11    1    4    4    0    0 -0.20692033465E-01  0.46997294540E-02  0.81839583573E-01  0.84547183668E-01  0.51100000000E-03 0. -1.
</event>
<event>
 8    1  0.1117354E+005  0.1043930E+01  0.7957747E-01            NaN
         13   -1    0    0    0    0  0.00000000000E+00  0.00000000000E+00  0.74505805969E-08  0.10566000000E+00  0.10566000000E+00 0.  1.
     999900   -1    0    0    0    0 -0.00000000000E+00 -0.00000000000E+00 -0.74505805969E-08  0.93827000000E+00  0.93827000000E+00 0. -1.
     999902    2    1    2    0    0  0.10333326155E-01  0.20515352299E-01 -0.42069702630E-02  0.10205771435E+01  0.10203099283E+01 0.  0.
     999903    2    3    3    0    0  0.64094664294E-01 -0.11123634942E-01 -0.11278504014E+00  0.13171241571E+00  0.19895575588E-01 0.  0.
         14    1    1    2    0    0 -0.10333326155E-01 -0.20515352299E-01  0.42069702630E-02  0.23352856531E-01  0.00000000000E+00 0. -1.
     999901    1    3    3    0    0 -0.53761338139E-01  0.31638987241E-01  0.10857806988E+00  0.88886472776E+00  0.88000000000E+00 0. -1.
        -11    1    4    4    0    0  0.32475064218E-01  0.44339594604E-02 -0.55008502540E-01  0.64035039354E-01  0.51100000000E-03 0. -1.
         11    1    4    4    0    0  0.31619600077E-01 -0.15557594402E-01 -0.57776537601E-01  0.67677376358E-01  0.51100000000E-03 0.  1.
</event>
<event>
 8    1  0.1117354E+005  0.1043930E+01  0.7957747E-01            NaN
         13   -1    0    0    0    0  0.00000000000E+00  0.00000000000E+00  0.74505805969E-08  0.10566000000E+00  0.10566000000E+00 0. -1.
     999900   -1    0    0    0    0 -0.00000000000E+00 -0.00000000000E+00 -0.74505805969E-08  0.93827000000E+00  0.93827000000E+00 0.  1.
     999902    2    1    2    0    0  0.15568987685E-01 -0.17378770894E-01  0.41735579361E-02  0.10202269698E+01  0.10199515852E+01 0.  0.
     999903    2    3    3    0    0 -0.11128076917E+00  0.34569072107E-01 -0.47862372069E-01  0.12809627465E+00  0.23225386661E-01 0.  0.
         14    1    1    2    0    0 -0.15568987685E-01  0.17378770894E-01 -0.41735579361E-02  0.23703030211E-01  0.00000000000E+00 0. -1.
     999901    1    3    3    0    0  0.12684975685E+00 -0.51947843000E-01  0.52035930005E-01  0.89213069514E+00  0.88000000000E+00 0. -1.
        -11    1    4    4    0    0 -0.52193636730E-01  0.16101505293E-01 -0.10008994892E-01  0.55532650644E-01  0.51100000000E-03 0. -1.
         11    1    4    4    0    0 -0.59087132437E-01  0.18467566813E-01 -0.37853377178E-01  0.72563624002E-01  0.51100000000E-03 0.  1.
</event>
<event>
 8    1  0.1117354E+005  0.1043930E+01  0.7957747E-01            NaN
         13   -1    0    0    0    0  0.00000000000E+00  0.00000000000E+00  0.74505805969E-08  0.10566000000E+00  0.10566000000E+00 0. -1.
     999900   -1    0    0    0    0 -0.00000000000E+00 -0.00000000000E+00 -0.74505805969E-08  0.93827000000E+00  0.93827000000E+00 0.  1.
     999902    2    1    2    0    0  0.11696679973E-01  0.12443179225E-01  0.20965188202E-01  0.10168895831E+01  0.10165299996E+01 0.  0.
     999903    2    3    3    0    0  0.74930882025E-01  0.79170145471E-01  0.69654365988E-01  0.13076222858E+00  0.19091377825E-01 0.  0.
         14    1    1    2    0    0 -0.11696679973E-01 -0.12443179225E-01 -0.20965188202E-01  0.27040416934E-01  0.00000000000E+00 0.  1.
     999901    1    3    3    0    0 -0.63234202052E-01 -0.66726966246E-01 -0.48689177786E-01  0.88612735449E+00  0.88000000000E+00 0.  1.
        -11    1    4    4    0    0  0.53312786135E-01  0.53647151884E-01  0.37734256882E-01  0.84524584200E-01  0.51100000000E-03 0.  1.
         11    1    4    4    0    0  0.21618095890E-01  0.25522993587E-01  0.31920109106E-01  0.46237644381E-01  0.51100000000E-03 0. -1.
</event>
<event>
 8    1  0.1117354E+005  0.1043930E+01  0.7957747E-01            NaN
         13   -1    0    0    0    0  0.00000000000E+00  0.00000000000E+00  0.74505805969E-08  0.10566000000E+00  0.10566000000E+00 0.  1.
     999900   -1    0    0    0    0 -0.00000000000E+00 -0.00000000000E+00 -0.74505805969E-08  0.93827000000E+00  0.93827000000E+00 0. -1.
     999902    2    1    2    0    0  0.18485221630E-01  0.50584302740E-02  0.66616928382E-02  0.10236403650E+01  0.10234392643E+01 0.  0.
     999903    2    3    3    0    0 -0.89451788265E-01  0.18872769972E-02 -0.94066400856E-01  0.13133626711E+00  0.19888264116E-01 0.  0.
         14    1    1    2    0    0 -0.18485221630E-01 -0.50584302740E-02 -0.66616928382E-02  0.20289634965E-01  0.00000000000E+00 0. -1.
     999901    1    3    3    0    0  0.10793700990E+00  0.31711532769E-02  0.10072809369E+00  0.89230409793E+00  0.88000000000E+00 0.  1.
        -11    1    4    4    0    0 -0.32262944535E-01  0.60577089424E-02 -0.23325966765E-01  0.40273505859E-01  0.51100000000E-03 0.  1.
         11    1    4    4    0    0 -0.57188843730E-01 -0.41704319452E-02 -0.70740434091E-01  0.91062761248E-01  0.51100000000E-03 0. -1.
</event>
<event>
 8    1  0.1117354E+005  0.1043930E+01  0.7957747E-01            NaN
         13   -1    0    0    0    0  0.00000000000E+00  0.00000000000E+00  0.74505805969E-08  0.10566000000E+00  0.10566000000E+00 0. -1.
     999900   -1    0    0    0    0 -0.00000000000E+00 -0.00000000000E+00 -0.74505805969E-08  0.93827000000E+00  0.93827000000E+00 0. -1.
     999902    2    1    2    0    0  0.10702637097E-02 -0.21585117789E-01 -0.27196842837E-02  0.10221479097E+01  0.10219157939E+01 0.  0.
     999903    2    3    3    0    0  0.66620581694E-01  0.21556172866E-01 -0.11024186675E+00  0.13213721604E+00  0.20099855325E-01 0.  0.
         14    1    1    2    0    0 -0.10702637097E-02  0.21585117789E-01  0.27196842837E-02  0.21782090281E-01  0.00000000000E+00 0. -1.
     999901    1    3    3    0    0 -0.65550317984E-01 -0.43141290655E-01  0.10752218246E+00  0.89001069368E+00  0.88000000000E+00 0.  1.
        -11    1    4    4    0    0  0.33588153549E-01  0.21357560141E-01 -0.59446086822E-01  0.71543048534E-01  0.51100000000E-03 0. -1.
         11    1    4    4    0    0  0.33032428145E-01  0.19861272483E-03 -0.50795779925E-01  0.60594167503E-01  0.51100000000E-03 0.  1.
</event>
<event>
 8    1  0.1117354E+005  0.1043930E+01  0.7957747E-01            NaN
         13   -1    0    0    0    0  0.00000000000E+00  0.00000000000E+00  0.74505805969E-08  0.10566000000E+00  0.10566000000E+00 0. -1.
     999900   -1    0    0    0    0 -0.00000000000E+00 -0.00000000000E+00 -0.74505805969E-08  0.93827000000E+00  0.93827000000E+00 0.  1.
     999902    2    1    2    0    0 -0.75884433594E-03 -0.18687969996E-01 -0.15943346198E-01  0.10193534592E+01  0.10190571468E+01 0.  0.
     999903    2    3    3    0    0 -0.89627858486E-01 -0.88988767492E-01 -0.32298113170E-01  0.13193733239E+00  0.20301177494E-01 0.  0.
         14    1    1    2    0    0  0.75884433594E-03  0.18687969996E-01  0.15943346198E-01  0.24576540752E-01  0.00000000000E+00 0. -1.
     999901    1    3    3    0    0  0.88869014150E-01  0.70300797495E-01  0.16354766971E-01  0.88741612686E+00  0.88000000000E+00 0.  1.
        -11    1    4    4    0    0 -0.52717519996E-01 -0.55749388296E-01 -0.29433237088E-01  0.82180945336E-01  0.51100000000E-03 0. -1.
         11    1    4    4    0    0 -0.36910338490E-01 -0.33239379196E-01 -0.28648760815E-02  0.49756387055E-01  0.51100000000E-03 0.  1.
</event>
<event>
 8    1  0.1117354E+005  0.1043930E+01  0.7957747E-01            NaN
         13   -1    0    0    0    0  0.00000000000E+00  0.00000000000E+00  0.74505805969E-08  0.10566000000E+00  0.10566000000E+00 0.  1.
     999900   -1    0    0    0    0 -0.00000000000E+00 -0.00000000000E+00 -0.74505805969E-08  0.93827000000E+00  0.93827000000E+00 0. -1.
     999902    2    1    2    0    0  0.93762092935E-02  0.20492693466E-01 -0.67454456225E-02  0.10204062923E+01  0.10201351070E+01 0.  0.
     999903    2    3    3    0    0 -0.37234437644E-01  0.10728080258E+00  0.64845209270E-01  0.13202014308E+00  0.18134030589E-01 0.  0.
         14    1    1    2    0    0 -0.93762092935E-02 -0.20492693466E-01  0.67454456225E-02  0.23523707677E-01  0.00000000000E+00 0.  1.
     999901    1    3    3    0    0  0.46610646937E-01 -0.86788109116E-01 -0.71590654892E-01  0.88838614924E+00  0.88000000000E+00 0.  1.
        -11    1    4    4    0    0 -0.20663602644E-01  0.35475825677E-01  0.19109653976E-01  0.45287511278E-01  0.51100000000E-03 0. -1.
         11    1    4    4    0    0 -0.16570834999E-01  0.71804976906E-01  0.45735555294E-01  0.86732631806E-01  0.51100000000E-03 0.  1.
</event>
<event>
 8    1  0.1117354E+005  0.1043930E+01  0.7957747E-01            NaN
         13   -1    0    0    0    0  0.00000000000E+00  0.00000000000E+00  0.74505805969E-08  0.10566000000E+00  0.10566000000E+00 0.  1.
     999900   -1    0    0    0    0 -0.00000000000E+00 -0.00000000000E+00 -0.74505805969E-08  0.93827000000E+00  0.93827000000E+00 0. -1.
     999902    2    1    2    0    0  0.12729811033E-01 -0.32137124938E-02  0.17150612538E-01  0.10223309364E+01  0.10221027463E+01 0.  0.
     999903    2    3    3    0    0  0.12830357181E+00 -0.15286106991E-01  0.31858671215E-01  0.13457006554E+00  0.19966371741E-01 0.  0.
         14    1    1    2    0    0 -0.12729811033E-01  0.32137124938E-02 -0.17150612538E-01  0.21599063576E-01  0.00000000000E+00 0.  1.
     999901    1    3    3    0    0 -0.11557376078E+00  0.12072394497E-01 -0.14708058676E-01  0.88776087089E+00  0.88000000000E+00 0. -1.
        -11    1    4    4    0    0  0.69609207029E-01 -0.12882180814E-02  0.24368353408E-01  0.73764347606E-01  0.51100000000E-03 0.  1.
         11    1    4    4    0    0  0.58694364782E-01 -0.13997888909E-01  0.74903178063E-02  0.60805717930E-01  0.51100000000E-03 0. -1.
</event>
<event>
 8    1  0.1117354E+005  0.1043930E+01  0.7957747E-01            NaN
         13   -1    0    0    0    0  0.00000000000E+00  0.00000000000E+00  0.74505805969E-08  0.10566000000E+00  0.10566000000E+00 0. -1.
     999900   -1    0    0    0    0 -0.00000000000E+00 -0.00000000000E+00 -0.74505805969E-08  0.93827000000E+00  0.93827000000E+00 0.  1.
     999902    2    1    2    0    0 -0.94730612869E-02  0.24981944667E-01 -0.67341273715E-02  0.10163766895E+01  0.10160031447E+01 0.  0.
     999903    2    3    3    0    0 -0.94075631175E-01  0.82717017019E-02 -0.85071411541E-01  0.12869794289E+00  0.20183409321E-01 0.  0.
         14    1    1    2    0    0  0.94730612869E-02 -0.24981944667E-01  0.67341273715E-02  0.27553310526E-01  0.00000000000E+00 0. -1.
     999901    1    3    3    0    0  0.84602569888E-01  0.16710242965E-01  0.78337284169E-01  0.88767874659E+00  0.88000000000E+00 0. -1.
        -11    1    4    4    0    0 -0.73158767836E-01 -0.13346279537E-02 -0.69384032273E-01  0.10083844306E+00  0.51100000000E-03 0. -1.
         11    1    4    4    0    0 -0.20916863338E-01  0.96063296556E-02 -0.15687379268E-01  0.27859499828E-01  0.51100000000E-03 0.  1.
</event>
<event>
 8    1  0.1117354E+005  0.1043930E+01  0.7957747E-01            NaN
         13   -1    0    0    0    0  0.00000000000E+00  0.00000000000E+00  0.74505805969E-08  0.10566000000E+00  0.10566000000E+00 0. -1.
     999900   -1    0    0    0    0 -0.00000000000E+00 -0.00000000000E+00 -0.74505805969E-08  0.93827000000E+00  0.93827000000E+00 0. -1.
     999902    2    1    2    0    0 -0.70627689310E-02 -0.20432934675E-01 -0.11618492105E-01  0.10193866326E+01  0.10190911293E+01 0.  0.
     999903    2    3    3    0    0  0.15905728728E-01  0.11937840764E+00 -0.37597838571E-01  0.12767496969E+00  0.19573042806E-01 0.  0.
         14    1    1    2    0    0  0.70627689310E-02  0.20432934675E-01  0.11618492105E-01  0.24543367397E-01  0.00000000000E+00 0. -1.
     999901    1    3    3    0    0 -0.22968497659E-01 -0.13981134231E+00  0.25979346466E-01  0.89171166291E+00  0.88000000000E+00 0. -1.
        -11    1    4    4    0    0  0.64655560196E-02  0.34383940540E-01 -0.20206978820E-01  0.40405963616E-01  0.51100000000E-03 0. -1.
         11    1    4    4    0    0  0.94401727084E-02  0.84994467098E-01 -0.17390859751E-01  0.87269006078E-01  0.51100000000E-03 0.  1.
</event>
<event>
 8    1  0.1117354E+005  0.1043930E+01  0.7957747E-01            NaN
         13   -1    0    0    0    0  0.00000000000E+00  0.00000000000E+00  0.74505805969E-08  0.10566000000E+00  0.10566000000E+00 0. -1.
     999900   -1    0    0    0    0 -0.00000000000E+00 -0.00000000000E+00 -0.74505805969E-08  0.93827000000E+00  0.93827000000E+00 0. -1.
     999902    2    1    2    0    0  0.10502362104E-01 -0.51686878826E-02  0.21324974491E-01  0.10196036875E+01  0.10193134503E+01 0.  0.
     999903    2    3    3    0    0  0.90946535124E-02  0.29600721365E-01  0.12735354145E+00  0.13255636603E+00  0.19833058973E-01 0.  0.
         14    1    1    2    0    0 -0.10502362104E-01  0.51686878826E-02 -0.21324974491E-01  0.24326312528E-01  0.00000000000E+00 0.  1.
     999901    1    3    3    0    0  0.14077085919E-02 -0.34769409247E-01 -0.10602856696E+00  0.88704732144E+00  0.88000000000E+00 0. -1.
        -11    1    4    4    0    0  0.64466415597E-02  0.74200897445E-02  0.74874011288E-01  0.75518180636E-01  0.51100000000E-03 0. -1.
         11    1    4    4    0    0  0.26480119527E-02  0.22180631620E-01  0.52479530161E-01  0.57038185396E-01  0.51100000000E-03 0.  1.
</event>
<event>
 8    1  0.1117354E+005  0.1043930E+01  0.7957747E-01            NaN
         13   -1    0    0    0    0  0.00000000000E+00  0.00000000000E+00  0.74505805969E-08  0.10566000000E+00  0.10566000000E+00 0.  1.
     999900   -1    0    0    0    0 -0.00000000000E+00 -0.00000000000E+00 -0.74505805969E-08  0.93827000000E+00  0.93827000000E+00 0.  1.
     999902    2    1    2    0    0 -0.14762400479E-01 -0.14307622154E-01 -0.11220992232E-01  0.10205089158E+01  0.10202401188E+01 0.  0.
     999903    2    3    3    0    0 -0.10918666817E+00 -0.73933078723E-01 -0.32492865323E-02  0.13341552413E+00  0.20032862523E-01 0.  0.
         14    1    1    2    0    0  0.14762400479E-01  0.14307622154E-01  0.11220992232E-01  0.23421084225E-01  0.00000000000E+00 0.  1.
     999901    1    3    3    0    0  0.94424267695E-01  0.59625456569E-01 -0.79717056993E-02  0.88709339164E+00  0.88000000000E+00 0. -1.
        -11    1    4    4    0    0 -0.61100372231E-01 -0.53158731547E-01 -0.22940886798E-02  0.81022405483E-01  0.51100000000E-03 0. -1.
         11    1    4    4    0    0 -0.48086295943E-01 -0.20774347176E-01 -0.95519785251E-03  0.52393118651E-01  0.51100000000E-03 0.  1.
</event>
<event>
 8    1  0.1117354E+005  0.1043930E+01  0.7957747E-01            NaN
         13   -1    0    0    0    0  0.00000000000E+00  0.00000000000E+00  0.74505805969E-08  0.10566000000E+00  0.10566000000E+00 0. -1.
     999900   -1    0    0    0    0 -0.00000000000E+00 -0.00000000000E+00 -0.74505805969E-08  0.93827000000E+00  0.93827000000E+00 0.  1.
     999902    2    1    2    0    0  0.17905937491E-01  0.73915853542E-02 -0.11705211298E-01  0.10212966153E+01  0.10210457905E+01 0.  0.
     999903    2    3    3    0    0 -0.83512595313E-01  0.32874937324E-01 -0.93813724652E-01  0.13130957720E+00  0.19648792602E-01 0.  0.
         14    1    1    2    0    0 -0.17905937491E-01 -0.73915853542E-02  0.11705211298E-01  0.22633384701E-01  0.00000000000E+00 0. -1.
     999901    1    3    3    0    0  0.10141853280E+00 -0.25483351970E-01  0.82108513354E-01  0.88998703810E+00  0.88000000000E+00 0. -1.
        -11    1    4    4    0    0 -0.56304428474E-01  0.30359547186E-01 -0.58758896079E-01  0.86860576562E-01  0.51100000000E-03 0. -1.
         11    1    4    4    0    0 -0.27208166839E-01  0.25153901384E-02 -0.35054828573E-01  0.44449000636E-01  0.51100000000E-03 0.  1.
</event>
<event>
 8    1  0.1117354E+005  0.1043930E+01  0.7957747E-01            NaN
         13   -1    0    0    0    0  0.00000000000E+00  0.00000000000E+00  0.74505805969E-08  0.10566000000E+00  0.10566000000E+00 0. -1.
     999900   -1    0    0    0    0 -0.00000000000E+00 -0.00000000000E+00 -0.74505805969E-08  0.93827000000E+00  0.93827000000E+00 0. -1.
     999902    2    1    2    0    0  0.64972175801E-02 -0.84263687067E-02 -0.56062562235E-02  0.10319030455E+01  0.10318329553E+01 0.  0.
     999903    2    3    3    0    0 -0.71462427520E-01 -0.92873025348E-01  0.75314614204E-01  0.14074810310E+00  0.20136038068E-01 0.  0.
         14    1    1    2    0    0 -0.64972175801E-02  0.84263687067E-02  0.56062562235E-02  0.12026954507E-01  0.00000000000E+00 0. -1.
     999901    1    3    3    0    0  0.77959645100E-01  0.84446656641E-01 -0.80920870428E-01  0.89115494239E+00  0.88000000000E+00 0. -1.
        -11    1    4    4    0    0 -0.34669782681E-01 -0.29122630983E-01  0.27656857797E-01  0.53059253394E-01  0.51100000000E-03 0. -1.
         11    1    4    4    0    0 -0.36792644839E-01 -0.63750394365E-01  0.47657756407E-01  0.87688849705E-01  0.51100000000E-03 0.  1.
</event>
<event>
 8    1  0.1117354E+005  0.1043930E+01  0.7957747E-01            NaN
         13   -1    0    0    0    0  0.00000000000E+00  0.00000000000E+00  0.74505805969E-08  0.10566000000E+00  0.10566000000E+00 0. -1.
     999900   -1    0    0    0    0 -0.00000000000E+00 -0.00000000000E+00 -0.74505805969E-08  0.93827000000E+00  0.93827000000E+00 0. -1.
     999902    2    1    2    0    0 -0.82674129747E-02  0.99695388299E-02  0.18969388721E-01  0.10209609005E+01  0.10207024938E+01 0.  0.
     999903    2    3    3    0    0  0.64074757251E-01 -0.29703762753E-01 -0.10547548813E+00  0.12838379584E+00  0.19220624334E-01 0.  0.
         14    1    1    2    0    0  0.82674129747E-02 -0.99695388299E-02 -0.18969388721E-01  0.22969099465E-01  0.00000000000E+00 0.  1.
     999901    1    3    3    0    0 -0.72342170226E-01  0.39673301583E-01  0.12444487685E+00  0.89257710469E+00  0.88000000000E+00 0.  1.
        -11    1    4    4    0    0  0.45217101509E-01 -0.10831712375E-01 -0.65955682063E-01  0.80698980038E-01  0.51100000000E-03 0.  1.
         11    1    4    4    0    0  0.18857655743E-01 -0.18872050378E-01 -0.39519806066E-01  0.47684815802E-01  0.51100000000E-03 0. -1.
</event>
<event>
 8    1  0.1117354E+005  0.1043930E+01  0.7957747E-01            NaN
         13   -1    0    0    0    0  0.00000000000E+00  0.00000000000E+00  0.74505805969E-08  0.10566000000E+00  0.10566000000E+00 0.  1.
     999900   -1    0    0    0    0 -0.00000000000E+00 -0.00000000000E+00 -0.74505805969E-08  0.93827000000E+00  0.93827000000E+00 0.  1.
     999902    2    1    2    0    0 -0.20728480527E-01 -0.51196726761E-02  0.92315657404E-02  0.10206683844E+01  0.10204032772E+01 0.  0.
     999903    2    3    3    0    0 -0.63283498963E-01 -0.11496504361E+00  0.52622623917E-02  0.13280989881E+00  0.19723471332E-01 0.  0.
         14    1    1    2    0    0  0.20728480527E-01  0.51196726761E-02 -0.92315657404E-02  0.23261615578E-01  0.00000000000E+00 0. -1.
     999901    1    3    3    0    0  0.42555018437E-01  0.10984537094E+00  0.39693033487E-02  0.88785848562E+00  0.88000000000E+00 0.  1.
        -11    1    4    4    0    0 -0.56951529421E-01 -0.88395629416E-01  0.98905309712E-03  0.10515941874E+00  0.51100000000E-03 0. -1.
         11    1    4    4    0    0 -0.63319695424E-02 -0.26569414198E-01  0.42732092946E-02  0.27650480064E-01  0.51100000000E-03 0.  1.
</event>
<event>
 8    1  0.1117354E+005  0.1043930E+01  0.7957747E-01            NaN
         13   -1    0    0    0    0  0.00000000000E+00  0.00000000000E+00  0.74505805969E-08  0.10566000000E+00  0.10566000000E+00 0. -1.
     999900   -1    0    0    0    0 -0.00000000000E+00 -0.00000000000E+00 -0.74505805969E-08  0.93827000000E+00  0.93827000000E+00 0. -1.
     999902    2    1    2    0    0  0.71276728464E-03  0.22967269955E-01 -0.32710803050E-02  0.10207200131E+01  0.10204560949E+01 0.  0.
     999903    2    3    3    0    0 -0.11957336913E+00 -0.37248018909E-01  0.26866388374E-01  0.12998834605E+00  0.22135080019E-01 0.  0.
         14    1    1    2    0    0 -0.71276728464E-03 -0.22967269955E-01  0.32710803050E-02  0.23209986919E-01  0.00000000000E+00 0.  1.
     999901    1    3    3    0    0  0.12028613642E+00  0.60215288865E-01 -0.30137468679E-01  0.89073166703E+00  0.88000000000E+00 0.  1.
        -11    1    4    4    0    0 -0.79649574703E-01 -0.33265747332E-01  0.24796816439E-01  0.89809843127E-01  0.51100000000E-03 0.  1.
         11    1    4    4    0    0 -0.39923794428E-01 -0.39822715771E-02  0.20695719353E-02  0.40178502927E-01  0.51100000000E-03 0. -1.
</event>
<event>
 8    1  0.1117354E+005  0.1043930E+01  0.7957747E-01            NaN
         13   -1    0    0    0    0  0.00000000000E+00  0.00000000000E+00  0.74505805969E-08  0.10566000000E+00  0.10566000000E+00 0. -1.
     999900   -1    0    0    0    0 -0.00000000000E+00 -0.00000000000E+00 -0.74505805969E-08  0.93827000000E+00  0.93827000000E+00 0.  1.
     999902    2    1    2    0    0 -0.14527732596E-01 -0.90529536622E-02  0.18665554500E-01  0.10186038493E+01  0.10182889511E+01 0.  0.
     999903    2    3    3    0    0 -0.63730513882E-01 -0.64370652122E-01 -0.87407641536E-01  0.12914756349E+00  0.28876254999E-01 0.  0.
         14    1    1    2    0    0  0.14527732596E-01  0.90529536622E-02 -0.18665554500E-01  0.25326150698E-01  0.00000000000E+00 0.  1.
     999901    1    3    3    0    0  0.49202781286E-01  0.55317698460E-01  0.10607319604E+00  0.88945628581E+00  0.88000000000E+00 0. -1.
        -11    1    4    4    0    0 -0.57396921022E-01 -0.52035645666E-01 -0.85095271645E-01  0.11508076008E+00  0.51100000000E-03 0. -1.
         11    1    4    4    0    0 -0.63335928596E-02 -0.12335006456E-01 -0.23123698910E-02  0.14066803414E-01  0.51100000000E-03 0.  1.
</event>
<event>
 8    1  0.1117354E+005  0.1043930E+01  0.7957747E-01            NaN
         13   -1    0    0    0    0  0.00000000000E+00  0.00000000000E+00  0.74505805969E-08  0.10566000000E+00  0.10566000000E+00 0.  1.
     999900   -1    0    0    0    0 -0.00000000000E+00 -0.00000000000E+00 -0.74505805969E-08  0.93827000000E+00  0.93827000000E+00 0.  1.
     999902    2    1    2    0    0  0.89616742665E-02 -0.13246095217E-01  0.16914775842E-01  0.10206516778E+01  0.10203861852E+01 0.  0.
     999903    2    3    3    0    0  0.72645200515E-01  0.74515149465E-01 -0.74284975074E-01  0.12931839434E+00  0.19368968337E-01 0.  0.
         14    1    1    2    0    0 -0.89616742665E-02  0.13246095217E-01 -0.16914775842E-01  0.23278322233E-01  0.00000000000E+00 0. -1.
     999901    1    3    3    0    0 -0.63683526249E-01 -0.87761244683E-01  0.91199750916E-01  0.89133328343E+00  0.88000000000E+00 0.  1.
        -11    1    4    4    0    0  0.50288012179E-01  0.49150650841E-01 -0.38852460307E-01  0.80339563354E-01  0.51100000000E-03 0. -1.
         11    1    4    4    0    0  0.22357188336E-01  0.25364498624E-01 -0.35432514766E-01  0.48978830983E-01  0.51100000000E-03 0.  1.
</event>
<event>
 8    1  0.1117354E+005  0.1043930E+01  0.7957747E-01            NaN
         13   -1    0    0    0    0  0.00000000000E+00  0.00000000000E+00  0.74505805969E-08  0.10566000000E+00  0.10566000000E+00 0.  1.
     999900   -1    0    0    0    0 -0.00000000000E+00 -0.00000000000E+00 -0.74505805969E-08  0.93827000000E+00  0.93827000000E+00 0.  1.
     999902    2    1    2    0    0  0.17397999147E-01  0.56065487578E-02 -0.15616141500E-01  0.10198886265E+01  0.10196052289E+01 0.  0.
     999903    2    3    3    0    0 -0.10871734917E+00 -0.59326706080E-01 -0.27850045481E-01  0.12844537142E+00  0.19582347696E-01 0.  0.
         14    1    1    2    0    0 -0.17397999147E-01 -0.56065487578E-02  0.15616141500E-01  0.24041373476E-01  0.00000000000E+00 0.  1.
     999901    1    3    3    0    0  0.12611534831E+00  0.64933254838E-01  0.12233903981E-01  0.89144325510E+00  0.88000000000E+00 0. -1.
        -11    1    4    4    0    0 -0.72943982171E-01 -0.33835011762E-01 -0.25874660550E-01  0.84471247981E-01  0.51100000000E-03 0.  1.
         11    1    4    4    0    0 -0.35773366997E-01 -0.25491694319E-01 -0.19753849304E-02  0.43974123439E-01  0.51100000000E-03 0. -1.
</event>
<event>
 8    1  0.1117354E+005  0.1043930E+01  0.7957747E-01            NaN
         13   -1    0    0    0    0  0.00000000000E+00  0.00000000000E+00  0.74505805969E-08  0.10566000000E+00  0.10566000000E+00 0. -1.
     999900   -1    0    0    0    0 -0.00000000000E+00 -0.00000000000E+00 -0.74505805969E-08  0.93827000000E+00  0.93827000000E+00 0.  1.
     999902    2    1    2    0    0 -0.18280099560E-03 -0.21243772598E-01 -0.86805623406E-02  0.10209804150E+01  0.10207224521E+01 0.  0.
     999903    2    3    3    0    0 -0.82823848091E-01  0.69339159497E-01 -0.70144372675E-01  0.13035557239E+00  0.20115501026E-01 0.  0.
         14    1    1    2    0    0  0.18280099560E-03  0.21243772598E-01  0.86805623406E-02  0.22949585028E-01  0.00000000000E+00 0.  1.
     999901    1    3    3    0    0  0.82641047096E-01 -0.90582932095E-01  0.61463810334E-01  0.89062484259E+00  0.88000000000E+00 0. -1.
        -11    1    4    4    0    0 -0.10315792019E-01  0.16229810545E-01 -0.18530010390E-01  0.26710386020E-01  0.51100000000E-03 0. -1.
         11    1    4    4    0    0 -0.72508056073E-01  0.53109348952E-01 -0.51614362285E-01  0.10364518636E+00  0.51100000000E-03 0.  1.
</event>
<event>
 8    1  0.1117354E+005  0.1043930E+01  0.7957747E-01            NaN
         13   -1    0    0    0    0  0.00000000000E+00  0.00000000000E+00  0.74505805969E-08  0.10566000000E+00  0.10566000000E+00 0.  1.
     999900   -1    0    0    0    0 -0.00000000000E+00 -0.00000000000E+00 -0.74505805969E-08  0.93827000000E+00  0.93827000000E+00 0. -1.
     999902    2    1    2    0    0 -0.44260897057E-02  0.14677271367E-01  0.18490124175E-01  0.10199113144E+01  0.10196284578E+01 0.  0.
     999903    2    3    3    0    0 -0.66378532061E-01  0.84670620752E-01  0.75751378818E-01  0.13311030780E+00  0.20121111091E-01 0.  0.
         14    1    1    2    0    0  0.44260897057E-02 -0.14677271367E-01 -0.18490124175E-01  0.24018685577E-01  0.00000000000E+00 0. -1.
     999901    1    3    3    0    0  0.61952442355E-01 -0.69993349385E-01 -0.57261254643E-01  0.88680100663E+00  0.88000000000E+00 0. -1.
        -11    1    4    4    0    0 -0.37548489226E-01  0.31727925424E-01  0.34765564188E-01  0.60211758562E-01  0.51100000000E-03 0. -1.
         11    1    4    4    0    0 -0.28830042835E-01  0.52942695328E-01  0.40985814630E-01  0.72898549234E-01  0.51100000000E-03 0.  1.
</event>
<event>
 8    1  0.1117354E+005  0.1043930E+01  0.7957747E-01            NaN
         13   -1    0    0    0    0  0.00000000000E+00  0.00000000000E+00  0.74505805969E-08  0.10566000000E+00  0.10566000000E+00 0.  1.
     999900   -1    0    0    0    0 -0.00000000000E+00 -0.00000000000E+00 -0.74505805969E-08  0.93827000000E+00  0.93827000000E+00 0. -1.
     999902    2    1    2    0    0  0.30856681552E-03  0.27580165780E-01  0.14430246138E-01  0.10128013514E+01  0.10123228658E+01 0.  0.
     999903    2    3    3    0    0  0.11020836912E+00  0.54137916722E-01  0.18210321673E-01  0.12555980053E+00  0.18890448456E-01 0.  0.
         14    1    1    2    0    0 -0.30856681552E-03 -0.27580165780E-01 -0.14430246138E-01  0.31128648566E-01  0.00000000000E+00 0.  1.
     999901    1    3    3    0    0 -0.10989980230E+00 -0.26557750942E-01 -0.37800755341E-02  0.88724155090E+00  0.88000000000E+00 0. -1.
        -11    1    4    4    0    0  0.61936947811E-01  0.38642580204E-01  0.50481911423E-02  0.73179094445E-01  0.51100000000E-03 0. -1.
         11    1    4    4    0    0  0.48271421307E-01  0.15495336518E-01  0.13162130530E-01  0.52380706084E-01  0.51100000000E-03 0.  1.
</event>
<event>
 8    1  0.1117354E+005  0.1043930E+01  0.7957747E-01            NaN
         13   -1    0    0    0    0  0.00000000000E+00  0.00000000000E+00  0.74505805969E-08  0.10566000000E+00  0.10566000000E+00 0. -1.
     999900   -1    0    0    0    0 -0.00000000000E+00 -0.00000000000E+00 -0.74505805969E-08  0.93827000000E+00  0.93827000000E+00 0.  1.
     999902    2    1    2    0    0 -0.71847600115E-02  0.39076024454E-02 -0.22263874255E-01  0.10202114370E+01  0.10199356872E+01 0.  0.
     999903    2    3    3    0    0  0.21615632740E-01  0.21175314094E-01 -0.12849146092E+00  0.13318723404E+00  0.17696165562E-01 0.  0.
         14    1    1    2    0    0  0.71847600115E-02 -0.39076024454E-02  0.22263874255E-01  0.23718562986E-01  0.00000000000E+00 0. -1.
     999901    1    3    3    0    0 -0.28800392751E-01 -0.17267711649E-01  0.10622758667E+00  0.88702420297E+00  0.88000000000E+00 0. -1.
        -11    1    4    4    0    0  0.17273916690E-01  0.15164157153E-01 -0.59353914460E-01  0.63651301186E-01  0.51100000000E-03 0. -1.
         11    1    4    4    0    0  0.43417160496E-02  0.60111569410E-02 -0.69137546464E-01  0.69535932856E-01  0.51100000000E-03 0.  1.
</event>
<event>
 8    1  0.1117354E+005  0.1043930E+01  0.7957747E-01            NaN
         13   -1    0    0    0    0  0.00000000000E+00  0.00000000000E+00  0.74505805969E-08  0.10566000000E+00  0.10566000000E+00 0. -1.
     999900   -1    0    0    0    0 -0.00000000000E+00 -0.00000000000E+00 -0.74505805969E-08  0.93827000000E+00  0.93827000000E+00 0. -1.
     999902    2    1    2    0    0 -0.11055486975E-01  0.11830126885E-01 -0.16593723996E-01  0.10207453635E+01  0.10204820281E+01 0.  0.
     999903    2    3    3    0    0  0.81915405470E-01 -0.21831059337E-01 -0.98473615315E-01  0.13143047049E+00  0.19753147969E-01 0.  0.
         14    1    1    2    0    0  0.11055486975E-01 -0.11830126885E-01  0.16593723996E-01  0.23184636517E-01  0.00000000000E+00 0. -1.
     999901    1    3    3    0    0 -0.92970892444E-01  0.33661186222E-01  0.81879891319E-01  0.88931489299E+00  0.88000000000E+00 0.  1.
        -11    1    4    4    0    0  0.13998806077E-01 -0.62852212367E-02 -0.82324063833E-02  0.17421372318E-01  0.51100000000E-03 0.  1.
         11    1    4    4    0    0  0.67916599392E-01 -0.15545838101E-01 -0.90241208931E-01  0.11400909817E+00  0.51100000000E-03 0. -1.
</event>
<event>
 8    1  0.1117354E+005  0.1043930E+01  0.7957747E-01            NaN
         13   -1    0    0    0    0  0.00000000000E+00  0.00000000000E+00  0.74505805969E-08  0.10566000000E+00  0.10566000000E+00 0.  1.
     999900   -1    0    0    0    0 -0.00000000000E+00 -0.00000000000E+00 -0.74505805969E-08  0.93827000000E+00  0.93827000000E+00 0. -1.
     999902    2    1    2    0    0  0.51566143343E-02  0.10576513341E-01 -0.27709411744E-01  0.10138257677E+01  0.10133787162E+01 0.  0.
     999903    2    3    3    0    0  0.64237900262E-01  0.88261093289E-01  0.56432543534E-01  0.12444094603E+00  0.19605832275E-01 0.  0.
         14    1    1    2    0    0 -0.51566143343E-02 -0.10576513341E-01  0.27709411744E-01  0.30104232344E-01  0.00000000000E+00 0.  1.
     999901    1    3    3    0    0 -0.59081285928E-01 -0.77684579949E-01 -0.84141955278E-01  0.88938482163E+00  0.88000000000E+00 0. -1.
        -11    1    4    4    0    0  0.52127386540E-02  0.16962630121E-02  0.60568700955E-02  0.81851541730E-02  0.51100000000E-03 0. -1.
         11    1    4    4    0    0  0.59025161608E-01  0.86564830277E-01  0.50375673439E-01  0.11625579185E+00  0.51100000000E-03 0.  1.
</event>
<event>
 8    1  0.1117354E+005  0.1043930E+01  0.7957747E-01            NaN
         13   -1    0    0    0    0  0.00000000000E+00  0.00000000000E+00  0.74505805969E-08  0.10566000000E+00  0.10566000000E+00 0.  1.
     999900   -1    0    0    0    0 -0.00000000000E+00 -0.00000000000E+00 -0.74505805969E-08  0.93827000000E+00  0.93827000000E+00 0. -1.
     999902    2    1    2    0    0 -0.15091437825E-01 -0.43643404652E-02 -0.16775330139E-01  0.10209471659E+01  0.10206884465E+01 0.  0.
     999903    2    3    3    0    0 -0.10791436385E+00  0.49168097705E-01 -0.57875400995E-01  0.13349517655E+00  0.20208620998E-01 0.  0.
         14    1    1    2    0    0  0.15091437825E-01  0.43643404652E-02  0.16775330139E-01  0.22982834129E-01  0.00000000000E+00 0.  1.
     999901    1    3    3    0    0  0.92822926029E-01 -0.53532438170E-01  0.41100070856E-01  0.88745198933E+00  0.88000000000E+00 0.  1.
        -11    1    4    4    0    0 -0.68731978157E-01  0.41339515869E-01 -0.35694531509E-01  0.87791805393E-01  0.51100000000E-03 0. -1.
         11    1    4    4    0    0 -0.39182385698E-01  0.78285818361E-02 -0.22180869486E-01  0.45703371152E-01  0.51100000000E-03 0.  1.
</event>
<event>
 8    1  0.1117354E+005  0.1043930E+01  0.7957747E-01            NaN
         13   -1    0    0    0    0  0.00000000000E+00  0.00000000000E+00  0.74505805969E-08  0.10566000000E+00  0.10566000000E+00 0. -1.
     999900   -1    0    0    0    0 -0.00000000000E+00 -0.00000000000E+00 -0.74505805969E-08  0.93827000000E+00  0.93827000000E+00 0.  1.
     999902    2    1    2    0    0 -0.63916147994E-02  0.20950855416E-01  0.40501937969E-02  0.10216545617E+01  0.10214116938E+01 0.  0.
     999903    2    3    3    0    0  0.22754900330E-01  0.73438950080E-01  0.10731821263E+00  0.13358429243E+00  0.20408320405E-01 0.  0.
         14    1    1    2    0    0  0.63916147994E-02 -0.20950855416E-01 -0.40501937969E-02  0.22275438317E-01  0.00000000000E+00 0.  1.
     999901    1    3    3    0    0 -0.29146515130E-01 -0.52488094664E-01 -0.10326801884E+00  0.88807026926E+00  0.88000000000E+00 0. -1.
        -11    1    4    4    0    0  0.38220351300E-02  0.36053617886E-01  0.37568472631E-01  0.52212283727E-01  0.51100000000E-03 0.  1.
         11    1    4    4    0    0  0.18932865200E-01  0.37385332194E-01  0.69749740004E-01  0.81372008698E-01  0.51100000000E-03 0. -1.
</event>
<event>
 8    1  0.1117354E+005  0.1043930E+01  0.7957747E-01            NaN
         13   -1    0    0    0    0  0.00000000000E+00  0.00000000000E+00  0.74505805969E-08  0.10566000000E+00  0.10566000000E+00 0.  1.
     999900   -1    0    0    0    0 -0.00000000000E+00 -0.00000000000E+00 -0.74505805969E-08  0.93827000000E+00  0.93827000000E+00 0. -1.
     999902    2    1    2    0    0 -0.36781516695E-02 -0.22313176154E-01  0.30078104661E-02  0.10211165488E+01  0.10208616717E+01 0.  0.
     999903    2    3    3    0    0 -0.49422018213E-01 -0.11850564618E+00 -0.32802332270E-01  0.13397064262E+00  0.19647290400E-01 0.  0.
         14    1    1    2    0    0  0.36781516695E-02  0.22313176154E-01 -0.30078104661E-02  0.22813451155E-01  0.00000000000E+00 0. -1.
     999901    1    3    3    0    0  0.45743866543E-01  0.96192470025E-01  0.35810142736E-01  0.88714590623E+00  0.88000000000E+00 0.  1.
        -11    1    4    4    0    0 -0.28748027284E-01 -0.43930767562E-01 -0.13196163754E-01  0.54136505892E-01  0.51100000000E-03 0.  1.
         11    1    4    4    0    0 -0.20673990928E-01 -0.74574878617E-01 -0.19606168516E-01  0.79834136725E-01  0.51100000000E-03 0. -1.
</event>
<event>
 8    1  0.1117354E+005  0.1043930E+01  0.7957747E-01            NaN
         13   -1    0    0    0    0  0.00000000000E+00  0.00000000000E+00  0.74505805969E-08  0.10566000000E+00  0.10566000000E+00 0.  1.
     999900   -1    0    0    0    0 -0.00000000000E+00 -0.00000000000E+00 -0.74505805969E-08  0.93827000000E+00  0.93827000000E+00 0.  1.
     999902    2    1    2    0    0 -0.15759627364E-01  0.12037438488E-01 -0.12491701201E-01  0.10204926713E+01  0.10202234969E+01 0.  0.
     999903    2    3    3    0    0 -0.34369508980E-01  0.83652951841E-01 -0.96181150133E-01  0.13343064788E+00  0.19335062793E-01 0.  0.
         14    1    1    2    0    0  0.15759627364E-01 -0.12037438488E-01  0.12491701201E-01  0.23437328749E-01  0.00000000000E+00 0. -1.
     999901    1    3    3    0    0  0.18609881617E-01 -0.71615513352E-01  0.83689448932E-01  0.88706202337E+00  0.88000000000E+00 0. -1.
        -11    1    4    4    0    0 -0.94128713692E-02  0.10590569870E-01 -0.23192869936E-01  0.27183315737E-01  0.51100000000E-03 0.  1.
         11    1    4    4    0    0 -0.24956637611E-01  0.73062381971E-01 -0.72988280197E-01  0.10624733214E+00  0.51100000000E-03 0. -1.
</event>
<event>
 8    1  0.1117354E+005  0.1043930E+01  0.7957747E-01            NaN
         13   -1    0    0    0    0  0.00000000000E+00  0.00000000000E+00  0.74505805969E-08  0.10566000000E+00  0.10566000000E+00 0. -1.
     999900   -1    0    0    0    0 -0.00000000000E+00 -0.00000000000E+00 -0.74505805969E-08  0.93827000000E+00  0.93827000000E+00 0. -1.
     999902    2    1    2    0    0 -0.31134150533E-02  0.22833497521E-01 -0.71369889987E-02  0.10198053534E+01  0.10195199656E+01 0.  0.
     999903    2    3    3    0    0  0.12104820115E+00  0.31352252168E-01  0.30445511710E-01  0.13025427532E+00  0.20090205054E-01 0.  0.
         14    1    1    2    0    0  0.31134150533E-02 -0.22833497521E-01  0.71369889987E-02  0.24124646615E-01  0.00000000000E+00 0. -1.
     999901    1    3    3    0    0 -0.12416161620E+00 -0.85187546473E-02 -0.37582500708E-01  0.88955107806E+00  0.88000000000E+00 0.  1.
        -11    1    4    4    0    0  0.29699636880E-01  0.14799760960E-01  0.13774169433E-01  0.35931743903E-01  0.51100000000E-03 0.  1.
         11    1    4    4    0    0  0.91348564271E-01  0.16552491208E-01  0.16671342276E-01  0.94322531422E-01  0.51100000000E-03 0. -1.
</event>
<event>
 8    1  0.1117354E+005  0.1043930E+01  0.7957747E-01            NaN
         13   -1    0    0    0    0  0.00000000000E+00  0.00000000000E+00  0.74505805969E-08  0.10566000000E+00  0.10566000000E+00 0.  1.
     999900   -1    0    0    0    0 -0.00000000000E+00 -0.00000000000E+00 -0.74505805969E-08  0.93827000000E+00  0.93827000000E+00 0.  1.
     999902    2    1    2    0    0 -0.57619959189E-02  0.64632063639E-02  0.22062677174E-01  0.10202290431E+01  0.10199537073E+01 0.  0.
     999903    2    3    3    0    0 -0.97462506068E-01  0.28633883013E-01  0.83725973490E-01  0.13304085305E+00  0.19261116225E-01 0.  0.
         14    1    1    2    0    0  0.57619959189E-02 -0.64632063639E-02 -0.22062677174E-01  0.23700956892E-01  0.00000000000E+00 0. -1.
     999901    1    3    3    0    0  0.91700510149E-01 -0.22170676649E-01 -0.61663296316E-01  0.88718819006E+00  0.88000000000E+00 0.  1.
        -11    1    4    4    0    0 -0.27674924349E-01 -0.21051623918E-03  0.18903360238E-01  0.33519306439E-01  0.51100000000E-03 0.  1.
         11    1    4    4    0    0 -0.69787581719E-01  0.28844399252E-01  0.64822613252E-01  0.99521546613E-01  0.51100000000E-03 0. -1.
</event>
<event>
 8    1  0.1117354E+005  0.1043930E+01  0.7957747E-01            NaN
         13   -1    0    0    0    0  0.00000000000E+00  0.00000000000E+00  0.74505805969E-08  0.10566000000E+00  0.10566000000E+00 0.  1.
     999900   -1    0    0    0    0 -0.00000000000E+00 -0.00000000000E+00 -0.74505805969E-08  0.93827000000E+00  0.93827000000E+00 0.  1.
     999902    2    1    2    0    0  0.41005573325E-02  0.23377359856E-02  0.23602848499E-01  0.10198598102E+01  0.10195757247E+01 0.  0.
     999903    2    3    3    0    0  0.40845552882E-02 -0.10435963918E+00 -0.71749221590E-01  0.12830142882E+00  0.20141696978E-01 0.  0.
         14    1    1    2    0    0 -0.41005573325E-02 -0.23377359856E-02 -0.23602848499E-01  0.24070189805E-01  0.00000000000E+00 0. -1.
     999901    1    3    3    0    0  0.16002044289E-04  0.10669737517E+00  0.95352070089E-01  0.89155838137E+00  0.88000000000E+00 0. -1.
        -11    1    4    4    0    0 -0.41397936988E-02 -0.50700575679E-01 -0.25115143590E-01  0.56733745026E-01  0.51100000000E-03 0.  1.
         11    1    4    4    0    0  0.82243489870E-02 -0.53659063504E-01 -0.46634077999E-01  0.71567683798E-01  0.51100000000E-03 0. -1.
</event>
<event>
 8    1  0.1117354E+005  0.1043930E+01  0.7957747E-01            NaN
         13   -1    0    0    0    0  0.00000000000E+00  0.00000000000E+00  0.74505805969E-08  0.10566000000E+00  0.10566000000E+00 0. -1.
     999900   -1    0    0    0    0 -0.00000000000E+00 -0.00000000000E+00 -0.74505805969E-08  0.93827000000E+00  0.93827000000E+00 0. -1.
     999902    2    1    2    0    0  0.18026688357E-01 -0.91681957288E-02 -0.10815077475E-01  0.10209956762E+01  0.10207380603E+01 0.  0.
     999903    2    3    3    0    0 -0.10016137952E+00  0.66418870069E-01  0.32885823376E-01  0.12881206696E+00  0.32669603119E-01 0.  0.
         14    1    1    2    0    0 -0.18026688357E-01  0.91681957288E-02  0.10815077475E-01  0.22934323771E-01  0.00000000000E+00 0. -1.
     999901    1    3    3    0    0  0.11818806788E+00 -0.75587065797E-01 -0.43700900851E-01  0.89218360926E+00  0.88000000000E+00 0. -1.
        -11    1    4    4    0    0 -0.39458246327E-01  0.33553100141E-01 -0.12265179627E-02  0.51812442517E-01  0.51100000000E-03 0. -1.
         11    1    4    4    0    0 -0.60703133194E-01  0.32865769928E-01  0.34112341339E-01  0.76999624448E-01  0.51100000000E-03 0.  1.
</event>
<event>
 8    1  0.1135833E+005  0.1043930E+01  0.7957747E-01            NaN
         13   -1    0    0    0    0  0.00000000000E+00  0.00000000000E+00  0.74505805969E-08  0.10566000000E+00  0.10566000000E+00 0. -1.
     999900   -1    0    0    0    0 -0.00000000000E+00 -0.00000000000E+00 -0.74505805969E-08  0.93827000000E+00  0.93827000000E+00 0.  1.
     999902    2    1    2    0    0 -0.20785720862E-01  0.97986125677E-02  0.10080899265E-01  0.10188365042E+01  0.10185274365E+01 0.  0.
     999903    2    3    3    0    0 -0.22034926814E-01 -0.12142869512E+00  0.31153664700E-01  0.12885547733E+00  0.20067815407E-01 0.  0.
         14    1    1    2    0    0  0.20785720862E-01 -0.97986125677E-02 -0.10080899265E-01  0.25093495771E-01  0.00000000000E+00 0.  1.
     999901    1    3    3    0    0  0.12492059520E-02  0.13122730769E+00 -0.21072765435E-01  0.88998102690E+00  0.88000000000E+00 0.  1.
        -11    1    4    4    0    0 -0.14087920676E-01 -0.84253786057E-01  0.30883495029E-01  0.90836233741E-01  0.51100000000E-03 0. -1.
         11    1    4    4    0    0 -0.79470061379E-02 -0.37174909063E-01  0.27016967072E-03  0.38019243589E-01  0.51100000000E-03 0.  1.
</event>
<event>
 8    1  0.1117354E+005  0.1043930E+01  0.7957747E-01            NaN
         13   -1    0    0    0    0  0.00000000000E+00  0.00000000000E+00  0.74505805969E-08  0.10566000000E+00  0.10566000000E+00 0.  1.
     999900   -1    0    0    0    0 -0.00000000000E+00 -0.00000000000E+00 -0.74505805969E-08  0.93827000000E+00  0.93827000000E+00 0.  1.
     999902    2    1    2    0    0 -0.95111535255E-02 -0.67467235376E-02 -0.20679770875E-01  0.10201890387E+01  0.10199127617E+01 0.  0.
     999903    2    3    3    0    0  0.53157474627E-01 -0.11519772448E+00  0.22980117425E-01  0.13024793818E+00  0.18444694837E-01 0.  0.
         14    1    1    2    0    0  0.95111535255E-02  0.67467235376E-02  0.20679770875E-01  0.23740961297E-01  0.00000000000E+00 0.  1.
     999901    1    3    3    0    0 -0.62668628152E-01  0.10845100095E+00 -0.43659888300E-01  0.88994110053E+00  0.88000000000E+00 0. -1.
        -11    1    4    4    0    0  0.14816806091E-01 -0.17959859538E-01  0.29895456734E-03  0.23290444225E-01  0.51100000000E-03 0.  1.
         11    1    4    4    0    0  0.38340668536E-01 -0.97237864945E-01  0.22681162858E-01  0.10695749395E+00  0.51100000000E-03 0. -1.
</event>
<event>
 8    1  0.1117354E+005  0.1043930E+01  0.7957747E-01            NaN
         13   -1    0    0    0    0  0.00000000000E+00  0.00000000000E+00  0.74505805969E-08  0.10566000000E+00  0.10566000000E+00 0.  1.
     999900   -1    0    0    0    0 -0.00000000000E+00 -0.00000000000E+00 -0.74505805969E-08  0.93827000000E+00  0.93827000000E+00 0.  1.
     999902    2    1    2    0    0 -0.41238501945E-02  0.22954265466E-01  0.30315238452E-02  0.10204120371E+01  0.10201409858E+01 0.  0.
     999903    2    3    3    0    0  0.11183962637E+00  0.31146682048E-01  0.57413850643E-01  0.13110214673E+00  0.20327439682E-01 0.  0.
         14    1    1    2    0    0  0.41238501945E-02 -0.22954265466E-01 -0.30315238452E-02  0.23517962929E-01  0.00000000000E+00 0.  1.
     999901    1    3    3    0    0 -0.11596347656E+00 -0.81924165812E-02 -0.54382326798E-01  0.88930989034E+00  0.88000000000E+00 0.  1.
        -11    1    4    4    0    0  0.45712985349E-01  0.14059481239E-01  0.12766571407E-01  0.49503459563E-01  0.51100000000E-03 0. -1.
         11    1    4    4    0    0  0.66126641017E-01  0.17087200809E-01  0.44647279235E-01  0.81598687170E-01  0.51100000000E-03 0.  1.
</event>
<event>
 8    1  0.1117354E+005  0.1043930E+01  0.7957747E-01            NaN
         13   -1    0    0    0    0  0.00000000000E+00  0.00000000000E+00  0.74505805969E-08  0.10566000000E+00  0.10566000000E+00 0. -1.
     999900   -1    0    0    0    0 -0.00000000000E+00 -0.00000000000E+00 -0.74505805969E-08  0.93827000000E+00  0.93827000000E+00 0.  1.
     999902    2    1    2    0    0 -0.13942828487E-01  0.18091906834E-01 -0.41073664904E-02  0.10207224577E+01  0.10204585958E+01 0.  0.
     999903    2    3    3    0    0 -0.82516016072E-01  0.86079029034E-01 -0.57374361684E-01  0.13383920519E+00  0.20065475828E-01 0.  0.
         14    1    1    2    0    0  0.13942828487E-01 -0.18091906834E-01  0.41073664904E-02  0.23207542278E-01  0.00000000000E+00 0. -1.
     999901    1    3    3    0    0  0.68573187585E-01 -0.67987122200E-01  0.53266995193E-01  0.88688325253E+00  0.88000000000E+00 0.  1.
        -11    1    4    4    0    0 -0.17505735380E-01  0.31314546127E-01 -0.18491569781E-01  0.40363979540E-01  0.51100000000E-03 0.  1.
         11    1    4    4    0    0 -0.65010280692E-01  0.54764482906E-01 -0.38882791903E-01  0.93475225653E-01  0.51100000000E-03 0. -1.
</event>
<event>
 8    1  0.1117354E+005  0.1043930E+01  0.7957747E-01            NaN
         13   -1    0    0    0    0  0.00000000000E+00  0.00000000000E+00  0.74505805969E-08  0.10566000000E+00  0.10566000000E+00 0.  1.
     999900   -1    0    0    0    0 -0.00000000000E+00 -0.00000000000E+00 -0.74505805969E-08  0.93827000000E+00  0.93827000000E+00 0.  1.
     999902    2    1    2    0    0  0.11775143424E-01  0.25192857416E-01  0.10161845309E-01  0.10143226163E+01  0.10138904146E+01 0.  0.
     999903    2    3    3    0    0  0.12076289177E-02 -0.49662308020E-01  0.11306041592E+00  0.12510774692E+00  0.20037152606E-01 0.  0.
         14    1    1    2    0    0 -0.11775143424E-01 -0.25192857416E-01 -0.10161845309E-01  0.29607383666E-01  0.00000000000E+00 0. -1.
     999901    1    3    3    0    0  0.10567514506E-01  0.74855165436E-01 -0.10289857062E+00  0.88921486942E+00  0.88000000000E+00 0.  1.
        -11    1    4    4    0    0 -0.30254517332E-02 -0.32453423272E-01  0.91851787147E-01  0.97464813976E-01  0.51100000000E-03 0.  1.
         11    1    4    4    0    0  0.42330806509E-02 -0.17208884747E-01  0.21208628778E-01  0.27642932943E-01  0.51100000000E-03 0. -1.
</event>
<event>
 8    1  0.1117354E+005  0.1043930E+01  0.7957747E-01            NaN
         13   -1    0    0    0    0  0.00000000000E+00  0.00000000000E+00  0.74505805969E-08  0.10566000000E+00  0.10566000000E+00 0. -1.
     999900   -1    0    0    0    0 -0.00000000000E+00 -0.00000000000E+00 -0.74505805969E-08  0.93827000000E+00  0.93827000000E+00 0.  1.
     999902    2    1    2    0    0  0.21158379354E-01  0.92292300491E-02 -0.16746747410E-02  0.10207856651E+01  0.10205232549E+01 0.  0.
     999903    2    3    3    0    0 -0.63595570397E-01  0.49349716440E-01  0.10005309679E+00  0.12997624385E+00  0.20085086527E-01 0.  0.
         14    1    1    2    0    0 -0.21158379354E-01 -0.92292300491E-02  0.16746747410E-02  0.23144334937E-01  0.00000000000E+00 0. -1.
     999901    1    3    3    0    0  0.84753949751E-01 -0.40120486391E-01 -0.10172777153E+00  0.89080942122E+00  0.88000000000E+00 0.  1.
        -11    1    4    4    0    0 -0.33143854450E-01  0.13905882525E-01  0.48901632793E-01  0.60692004971E-01  0.51100000000E-03 0. -1.
         11    1    4    4    0    0 -0.30451715946E-01  0.35443833915E-01  0.51151463996E-01  0.69284238876E-01  0.51100000000E-03 0.  1.
</event>
<event>
 8    1  0.1117354E+005  0.1043930E+01  0.7957747E-01            NaN
         13   -1    0    0    0    0  0.00000000000E+00  0.00000000000E+00  0.74505805969E-08  0.10566000000E+00  0.10566000000E+00 0. -1.
     999900   -1    0    0    0    0 -0.00000000000E+00 -0.00000000000E+00 -0.74505805969E-08  0.93827000000E+00  0.93827000000E+00 0. -1.
     999902    2    1    2    0    0 -0.52810925463E-02 -0.16196014893E-01 -0.17386476658E-01  0.10195888742E+01  0.10192982792E+01 0.  0.
     999903    2    3    3    0    0 -0.12576047486E+00  0.13389600988E-02 -0.34858387527E-01  0.13103497901E+00  0.11728968098E-01 0.  0.
         14    1    1    2    0    0  0.52810925463E-02  0.16196014893E-01  0.17386476658E-01  0.24341125846E-01  0.00000000000E+00 0. -1.
     999901    1    3    3    0    0  0.12047938231E+00 -0.17534974992E-01  0.17471910869E-01  0.88855389515E+00  0.88000000000E+00 0.  1.
        -11    1    4    4    0    0 -0.26796945199E-01  0.15674088154E-02 -0.27334226754E-02  0.26986399591E-01  0.51100000000E-03 0. -1.
         11    1    4    4    0    0 -0.98963529657E-01 -0.22844871668E-03 -0.32124964851E-01  0.10404857942E+00  0.51100000000E-03 0.  1.
</event>
<event>
 8    1  0.1117354E+005  0.1043930E+01  0.7957747E-01            NaN
         13   -1    0    0    0    0  0.00000000000E+00  0.00000000000E+00  0.74505805969E-08  0.10566000000E+00  0.10566000000E+00 0. -1.
     999900   -1    0    0    0    0 -0.00000000000E+00 -0.00000000000E+00 -0.74505805969E-08  0.93827000000E+00  0.93827000000E+00 0. -1.
     999902    2    1    2    0    0 -0.98938155055E-02 -0.16377658653E-01  0.13545945444E-01  0.10204862817E+01  0.10202169589E+01 0.  0.
     999903    2    3    3    0    0  0.99518812390E-01  0.73542594563E-01  0.30433556221E-01  0.12900326648E+00  0.20078201725E-01 0.  0.
         14    1    1    2    0    0  0.98938155055E-02  0.16377658653E-01 -0.13545945444E-01  0.23443718267E-01  0.00000000000E+00 0.  1.
     999901    1    3    3    0    0 -0.10941262790E+00 -0.89920253216E-01 -0.16887610777E-01  0.89148301525E+00  0.88000000000E+00 0. -1.
        -11    1    4    4    0    0  0.75760673726E-02  0.44917813747E-02  0.78743234709E-02  0.11825353605E-01  0.51100000000E-03 0. -1.
         11    1    4    4    0    0  0.91942745017E-01  0.69050813189E-01  0.22559232750E-01  0.11717791288E+00  0.51100000000E-03 0.  1.
</event>
<event>
 7    1  0.1117354E+005  0.1043930E+01  0.7957747E-01            NaN
         13   -1    0    0    0    0  0.00000000000E+00  0.00000000000E+00  0.74505805969E-08  0.10566000000E+00  0.10566000000E+00 0. -1.
     999900   -1    0    0    0    0 -0.00000000000E+00 -0.00000000000E+00 -0.74505805969E-08  0.93827000000E+00  0.93827000000E+00 0.  1.
     999902    2    1    2    0    0  0.24459264883E-02 -0.63706992925E-02 -0.22728821366E-01  0.10201988457E+01  0.10199227995E+01 0.  0.
         14    1    1    2    0    0 -0.24459264883E-02  0.63706992925E-02  0.22728821366E-01  0.23731154345E-01  0.00000000000E+00 0. -1.
     999901    1    3    3    0    0  0.56960235020E-01 -0.52610398257E-01 -0.11950098157E+00  0.89145544307E+00  0.88000000000E+00 0.  1.
        -11    1    3    3    0    0 -0.41695922859E-01  0.52409013250E-01  0.62392487079E-01  0.91533262904E-01  0.51100000000E-03 0. -1.
         11    1    3    3    0    0 -0.12818385672E-01 -0.61693142864E-02  0.34379673126E-01  0.37210139683E-01  0.51100000000E-03 0.  1.
</event>
<event>
 8    1  0.1117354E+005  0.1043930E+01  0.7957747E-01            NaN
         13   -1    0    0    0    0  0.00000000000E+00  0.00000000000E+00  0.74505805969E-08  0.10566000000E+00  0.10566000000E+00 0. -1.
     999900   -1    0    0    0    0 -0.00000000000E+00 -0.00000000000E+00 -0.74505805969E-08  0.93827000000E+00  0.93827000000E+00 0. -1.
     999902    2    1    2    0    0 -0.97806450698E-02  0.19323568706E-01  0.87743896348E-02  0.10205622607E+01  0.10202947009E+01 0.  0.
     999903    2    3    3    0    0  0.87659850124E-01 -0.48750949051E-01 -0.77472618345E-01  0.12839224528E+00  0.20534305370E-01 0.  0.
         14    1    1    2    0    0  0.97806450698E-02 -0.19323568706E-01 -0.87743896348E-02  0.23367739278E-01  0.00000000000E+00 0. -1.
     999901    1    3    3    0    0 -0.97440495194E-01  0.68074517757E-01  0.86247007980E-01  0.89217001544E+00  0.88000000000E+00 0.  1.
        -11    1    4    4    0    0  0.54159630416E-01 -0.34631546386E-01 -0.60459395700E-01  0.88250831278E-01  0.51100000000E-03 0. -1.
         11    1    4    4    0    0  0.33500219708E-01 -0.14119402665E-01 -0.17013222646E-01  0.40141414000E-01  0.51100000000E-03 0.  1.
</event>
<event>
 8    1  0.1117354E+005  0.1043930E+01  0.7957747E-01            NaN
         13   -1    0    0    0    0  0.00000000000E+00  0.00000000000E+00  0.74505805969E-08  0.10566000000E+00  0.10566000000E+00 0. -1.
     999900   -1    0    0    0    0 -0.00000000000E+00 -0.00000000000E+00 -0.74505805969E-08  0.93827000000E+00  0.93827000000E+00 0.  1.
     999902    2    1    2    0    0 -0.13070861125E-01 -0.16135112549E-01  0.10897027775E-01  0.10204793181E+01  0.10202098334E+01 0.  0.
     999903    2    3    3    0    0  0.10771751753E+00 -0.70062518386E-01  0.11342356923E-01  0.13059269844E+00  0.20346590864E-01 0.  0.
         14    1    1    2    0    0  0.13070861125E-01  0.16135112549E-01 -0.10897027775E-01  0.23450681905E-01  0.00000000000E+00 0.  1.
     999901    1    3    3    0    0 -0.12078837866E+00  0.53927405837E-01 -0.44532914824E-03  0.88988661965E+00  0.88000000000E+00 0. -1.
        -11    1    4    4    0    0  0.40231811896E-01 -0.33555849207E-01 -0.32359078755E-02  0.52491198550E-01  0.51100000000E-03 0. -1.
         11    1    4    4    0    0  0.67485705637E-01 -0.36506669178E-01  0.14578264798E-01  0.78101499891E-01  0.51100000000E-03 0.  1.
</event>
<event>
 8    1  0.1117354E+005  0.1043930E+01  0.7957747E-01            NaN
         13   -1    0    0    0    0  0.00000000000E+00  0.00000000000E+00  0.74505805969E-08  0.10566000000E+00  0.10566000000E+00 0. -1.
     999900   -1    0    0    0    0 -0.00000000000E+00 -0.00000000000E+00 -0.74505805969E-08  0.93827000000E+00  0.93827000000E+00 0.  1.
     999902    2    1    2    0    0 -0.11936533310E-01  0.20021098884E-01  0.45524747541E-02  0.10201802578E+01  0.10199037740E+01 0.  0.
     999903    2    3    3    0    0 -0.20309612259E-01  0.12988583803E+00 -0.74564222794E-02  0.13322784478E+00  0.20279278107E-01 0.  0.
         14    1    1    2    0    0  0.11936533310E-01 -0.20021098884E-01 -0.45524747541E-02  0.23749742195E-01  0.00000000000E+00 0.  1.
     999901    1    3    3    0    0  0.83730789497E-02 -0.10986473915E+00  0.12008897034E-01  0.88695241302E+00  0.88000000000E+00 0. -1.
        -11    1    4    4    0    0 -0.13986563394E-01  0.53096329173E-01  0.51552308049E-02  0.55151442891E-01  0.51100000000E-03 0.  1.
         11    1    4    4    0    0 -0.63230488649E-02  0.76789508859E-01 -0.12611653084E-01  0.78076401891E-01  0.51100000000E-03 0. -1.
</event>
<event>
 8    1  0.1117354E+005  0.1043930E+01  0.7957747E-01            NaN
         13   -1    0    0    0    0  0.00000000000E+00  0.00000000000E+00  0.74505805969E-08  0.10566000000E+00  0.10566000000E+00 0. -1.
     999900   -1    0    0    0    0 -0.00000000000E+00 -0.00000000000E+00 -0.74505805969E-08  0.93827000000E+00  0.93827000000E+00 0. -1.
     999902    2    1    2    0    0  0.91745654410E-02 -0.33985021082E-03 -0.22090097038E-01  0.10200080323E+01  0.10197274761E+01 0.  0.
     999903    2    3    3    0    0 -0.23415650559E-01 -0.12668734167E+00  0.31374950776E-02  0.13002924486E+00  0.17314312368E-01 0.  0.
         14    1    1    2    0    0 -0.91745654410E-02  0.33985021082E-03  0.22090097038E-01  0.23921967652E-01  0.00000000000E+00 0. -1.
     999901    1    3    3    0    0  0.32590216000E-01  0.12634749146E+00 -0.25227592115E-01  0.88997878749E+00  0.88000000000E+00 0.  1.
        -11    1    4    4    0    0 -0.13750226922E-01 -0.97124834014E-01  0.85059179690E-02  0.98462753791E-01  0.51100000000E-03 0.  1.
         11    1    4    4    0    0 -0.96654236376E-02 -0.29562507656E-01 -0.53684228914E-02  0.31566491068E-01  0.51100000000E-03 0. -1.
</event>
<event>
 8    1  0.1117354E+005  0.1043930E+01  0.7957747E-01            NaN
         13   -1    0    0    0    0  0.00000000000E+00  0.00000000000E+00  0.74505805969E-08  0.10566000000E+00  0.10566000000E+00 0. -1.
     999900   -1    0    0    0    0 -0.00000000000E+00 -0.00000000000E+00 -0.74505805969E-08  0.93827000000E+00  0.93827000000E+00 0. -1.
     999902    2    1    2    0    0  0.52899863916E-03  0.11153142480E-01 -0.20722357772E-01  0.10203909147E+01  0.10201193706E+01 0.  0.
     999903    2    3    3    0    0 -0.57866762661E-01  0.11400043876E+00  0.23106738534E-01  0.13139787703E+00  0.19667700991E-01 0.  0.
         14    1    1    2    0    0 -0.52899863916E-03 -0.11153142480E-01  0.20722357772E-01  0.23539085334E-01  0.00000000000E+00 0. -1.
     999901    1    3    3    0    0  0.58395761300E-01 -0.10284729628E+00 -0.43829096306E-01  0.88899303764E+00  0.88000000000E+00 0. -1.
        -11    1    4    4    0    0 -0.33129490278E-01  0.47275516784E-01  0.15834599922E-01  0.59862620131E-01  0.51100000000E-03 0. -1.
         11    1    4    4    0    0 -0.24737272383E-01  0.66724921978E-01  0.72721386128E-02  0.71535256894E-01  0.51100000000E-03 0.  1.
</event>
<event>
 8    1  0.1117354E+005  0.1043930E+01  0.7957747E-01            NaN
         13   -1    0    0    0    0  0.00000000000E+00  0.00000000000E+00  0.74505805969E-08  0.10566000000E+00  0.10566000000E+00 0. -1.
     999900   -1    0    0    0    0 -0.00000000000E+00 -0.00000000000E+00 -0.74505805969E-08  0.93827000000E+00  0.93827000000E+00 0.  1.
     999902    2    1    2    0    0 -0.70004863314E-02 -0.18417219790E-01 -0.13680444756E-01  0.10199434337E+01  0.10196613421E+01 0.  0.
     999903    2    3    3    0    0 -0.87120458415E-01  0.92785976293E-01  0.77020478463E-02  0.12907724189E+00  0.20059939196E-01 0.  0.
         14    1    1    2    0    0  0.70004863314E-02  0.18417219790E-01  0.13680444756E-01  0.23986566290E-01  0.00000000000E+00 0. -1.
     999901    1    3    3    0    0  0.80119972084E-01 -0.11120319608E+00 -0.21382492602E-01  0.89086619182E+00  0.88000000000E+00 0.  1.
        -11    1    4    4    0    0 -0.38172476701E-01  0.47525010100E-01  0.12530990109E-01  0.62233844463E-01  0.51100000000E-03 0. -1.
         11    1    4    4    0    0 -0.48947981714E-01  0.45260966193E-01 -0.48289422625E-02  0.66843397423E-01  0.51100000000E-03 0.  1.
</event>
<event>
 8    1  0.1117354E+005  0.1043930E+01  0.7957747E-01            NaN
         13   -1    0    0    0    0  0.00000000000E+00  0.00000000000E+00  0.74505805969E-08  0.10566000000E+00  0.10566000000E+00 0. -1.
     999900   -1    0    0    0    0 -0.00000000000E+00 -0.00000000000E+00 -0.74505805969E-08  0.93827000000E+00  0.93827000000E+00 0.  1.
     999902    2    1    2    0    0  0.21809079062E-01 -0.37019515351E-03 -0.90645367463E-02  0.10203092718E+01  0.10200358187E+01 0.  0.
     999903    2    3    3    0    0 -0.11052288282E+00 -0.55774785412E-01  0.27254440815E-01  0.12795256909E+00  0.17404628038E-01 0.  0.
         14    1    1    2    0    0 -0.21809079062E-01  0.37019515351E-03  0.90645367463E-02  0.23620728194E-01  0.00000000000E+00 0. -1.
     999901    1    3    3    0    0  0.13233196188E+00  0.55404590258E-01 -0.36318977561E-01  0.89235670272E+00  0.88000000000E+00 0.  1.
        -11    1    4    4    0    0 -0.44295880525E-01 -0.26455117924E-01  0.19299171146E-01  0.55088269384E-01  0.51100000000E-03 0.  1.
         11    1    4    4    0    0 -0.66227002295E-01 -0.29319667488E-01  0.79552696692E-02  0.72864299702E-01  0.51100000000E-03 0. -1.
</event>
<event>
 8    1  0.1117354E+005  0.1043930E+01  0.7957747E-01            NaN
         13   -1    0    0    0    0  0.00000000000E+00  0.00000000000E+00  0.74505805969E-08  0.10566000000E+00  0.10566000000E+00 0. -1.
     999900   -1    0    0    0    0 -0.00000000000E+00 -0.00000000000E+00 -0.74505805969E-08  0.93827000000E+00  0.93827000000E+00 0. -1.
     999902    2    1    2    0    0 -0.17921500770E-01  0.11282322758E-01 -0.10855427951E-01  0.10201327037E+01  0.10198550984E+01 0.  0.
     999903    2    3    3    0    0  0.11526320729E+00 -0.41134012901E-01  0.30205727767E-01  0.12762407222E+00  0.19947527362E-01 0.  0.
         14    1    1    2    0    0  0.17921500770E-01 -0.11282322758E-01  0.10855427951E-01  0.23797296331E-01  0.00000000000E+00 0. -1.
     999901    1    3    3    0    0 -0.13318470806E+00  0.52416335658E-01 -0.41061155718E-01  0.89250863145E+00  0.88000000000E+00 0. -1.
        -11    1    4    4    0    0  0.72471737229E-01 -0.34273369330E-01  0.14170101719E-01  0.81411727939E-01  0.51100000000E-03 0. -1.
         11    1    4    4    0    0  0.42791470060E-01 -0.68606435705E-02  0.16035626047E-01  0.46212344280E-01  0.51100000000E-03 0.  1.
</event>
<event>
 8    1  0.1117354E+005  0.1043930E+01  0.7957747E-01            NaN
         13   -1    0    0    0    0  0.00000000000E+00  0.00000000000E+00  0.74505805969E-08  0.10566000000E+00  0.10566000000E+00 0.  1.
     999900   -1    0    0    0    0 -0.00000000000E+00 -0.00000000000E+00 -0.74505805969E-08  0.93827000000E+00  0.93827000000E+00 0.  1.
     999902    2    1    2    0    0 -0.17315700892E-01 -0.46350442301E-02  0.12984237697E-01  0.10217961445E+01  0.10215563877E+01 0.  0.
     999903    2    3    3    0    0 -0.40057166099E-01 -0.62087527196E-02 -0.12311904773E+00  0.13104154576E+00  0.19247380002E-01 0.  0.
         14    1    1    2    0    0  0.17315700892E-01  0.46350442301E-02 -0.12984237697E-01  0.22133855538E-01  0.00000000000E+00 0. -1.
     999901    1    3    3    0    0  0.22741465207E-01  0.15737084895E-02  0.13610328542E+00  0.89075459870E+00  0.88000000000E+00 0. -1.
        -11    1    4    4    0    0 -0.21139812799E-01  0.59591582433E-02 -0.52059926936E-01  0.56505755156E-01  0.51100000000E-03 0.  1.
         11    1    4    4    0    0 -0.18917353300E-01 -0.12167910963E-01 -0.71059120790E-01  0.74535790608E-01  0.51100000000E-03 0. -1.
</event>
<event>
 8    1  0.1117354E+005  0.1043930E+01  0.7957747E-01            NaN
         13   -1    0    0    0    0  0.00000000000E+00  0.00000000000E+00  0.74505805969E-08  0.10566000000E+00  0.10566000000E+00 0.  1.
     999900   -1    0    0    0    0 -0.00000000000E+00 -0.00000000000E+00 -0.74505805969E-08  0.93827000000E+00  0.93827000000E+00 0. -1.
     999902    2    1    2    0    0 -0.20232800889E-01  0.17398746132E-02  0.11685393051E-01  0.10205004928E+01  0.10202315002E+01 0.  0.
     999903    2    3    3    0    0 -0.34807459568E-03  0.11381664540E+00  0.63018658105E-01  0.13168571517E+00  0.20382011250E-01 0.  0.
         14    1    1    2    0    0  0.20232800889E-01 -0.17398746132E-02 -0.11685393051E-01  0.23429507170E-01  0.00000000000E+00 0. -1.
     999901    1    3    3    0    0 -0.19884726293E-01 -0.11207677079E+00 -0.51333265054E-01  0.88881477766E+00  0.88000000000E+00 0. -1.
        -11    1    4    4    0    0  0.66613930059E-02  0.18798758141E-01  0.15202902238E-01  0.25082998663E-01  0.51100000000E-03 0.  1.
         11    1    4    4    0    0 -0.70094676016E-02  0.95017887263E-01  0.47815755867E-01  0.10660271650E+00  0.51100000000E-03 0. -1.
</event>
<event>
 8    1  0.1117354E+005  0.1043930E+01  0.7957747E-01            NaN
         13   -1    0    0    0    0  0.00000000000E+00  0.00000000000E+00  0.74505805969E-08  0.10566000000E+00  0.10566000000E+00 0. -1.
     999900   -1    0    0    0    0 -0.00000000000E+00 -0.00000000000E+00 -0.74505805969E-08  0.93827000000E+00  0.93827000000E+00 0.  1.
     999902    2    1    2    0    0  0.85192172892E-02 -0.12046571080E-01 -0.16872860375E-01  0.10215159340E+01  0.10212700001E+01 0.  0.
     999903    2    3    3    0    0  0.12290285584E+00 -0.38219973337E-01  0.25005458161E-01  0.13274011449E+00  0.20707165970E-01 0.  0.
         14    1    1    2    0    0 -0.85192172892E-02  0.12046571080E-01  0.16872860375E-01  0.22414066013E-01  0.00000000000E+00 0. -1.
     999901    1    3    3    0    0 -0.11438363855E+00  0.26173402257E-01 -0.41878318536E-01  0.88877581949E+00  0.88000000000E+00 0.  1.
        -11    1    4    4    0    0  0.44386057545E-01 -0.35629038855E-02  0.90884124840E-02  0.45449716731E-01  0.51100000000E-03 0. -1.
         11    1    4    4    0    0  0.78516798295E-01 -0.34657069451E-01  0.15917045677E-01  0.87290397762E-01  0.51100000000E-03 0.  1.
</event>
<event>
 8    1  0.1117354E+005  0.1043930E+01  0.7957747E-01            NaN
         13   -1    0    0    0    0  0.00000000000E+00  0.00000000000E+00  0.74505805969E-08  0.10566000000E+00  0.10566000000E+00 0.  1.
     999900   -1    0    0    0    0 -0.00000000000E+00 -0.00000000000E+00 -0.74505805969E-08  0.93827000000E+00  0.93827000000E+00 0.  1.
     999902    2    1    2    0    0 -0.12954598726E-01  0.13510044355E-01  0.13817889342E-01  0.10206646396E+01  0.10203994461E+01 0.  0.
     999903    2    3    3    0    0  0.90787709912E-01 -0.34624038725E-01  0.84555366256E-01  0.13044941443E+00  0.20644791952E-01 0.  0.
         14    1    1    2    0    0  0.12954598726E-01 -0.13510044355E-01 -0.13817889342E-01  0.23265360356E-01  0.00000000000E+00 0.  1.
     999901    1    3    3    0    0 -0.10374230864E+00  0.48134083080E-01 -0.70737476914E-01  0.89021522521E+00  0.88000000000E+00 0. -1.
        -11    1    4    4    0    0  0.10211802350E-01 -0.10244965869E-01  0.18222145648E-01  0.23271182736E-01  0.51100000000E-03 0. -1.
         11    1    4    4    0    0  0.80575907562E-01 -0.24379072856E-01  0.66333220608E-01  0.10717823170E+00  0.51100000000E-03 0.  1.
</event>
<event>
 8    1  0.1117354E+005  0.1043930E+01  0.7957747E-01            NaN
         13   -1    0    0    0    0  0.00000000000E+00  0.00000000000E+00  0.74505805969E-08  0.10566000000E+00  0.10566000000E+00 0.  1.
     999900   -1    0    0    0    0 -0.00000000000E+00 -0.00000000000E+00 -0.74505805969E-08  0.93827000000E+00  0.93827000000E+00 0. -1.
     999902    2    1    2    0    0  0.14353082938E-01 -0.15953042396E-01  0.13099437966E-01  0.10187882851E+01  0.10184780136E+01 0.  0.
     999903    2    3    3    0    0 -0.65578179951E-01  0.19787892170E-01  0.10779927390E+00  0.12938709325E+00  0.20694880630E-01 0.  0.
         14    1    1    2    0    0 -0.14353082938E-01  0.15953042396E-01 -0.13099437966E-01  0.25141714869E-01  0.00000000000E+00 0.  1.
     999901    1    3    3    0    0  0.79931262890E-01 -0.35740934566E-01 -0.94699835935E-01  0.88940119188E+00  0.88000000000E+00 0. -1.
        -11    1    4    4    0    0 -0.45118911597E-01  0.80479436862E-02  0.85040357223E-01  0.96605429759E-01  0.51100000000E-03 0. -1.
         11    1    4    4    0    0 -0.20459268354E-01  0.11739948484E-01  0.22758916677E-01  0.32781663492E-01  0.51100000000E-03 0.  1.
</event>
<event>
 8    1  0.1117354E+005  0.1043930E+01  0.7957747E-01            NaN
         13   -1    0    0    0    0  0.00000000000E+00  0.00000000000E+00  0.74505805969E-08  0.10566000000E+00  0.10566000000E+00 0.  1.
     999900   -1    0    0    0    0 -0.00000000000E+00 -0.00000000000E+00 -0.74505805969E-08  0.93827000000E+00  0.93827000000E+00 0. -1.
     999902    2    1    2    0    0  0.10052230788E-01 -0.32228745315E-01 -0.55890844802E-02  0.10097104554E+01  0.10091304309E+01 0.  0.
     999903    2    3    3    0    0 -0.90589239996E-01 -0.71211297084E-01 -0.37019261540E-01  0.12255984753E+00  0.19314017356E-01 0.  0.
         14    1    1    2    0    0 -0.10052230788E-01  0.32228745315E-01  0.55890844802E-02  0.34219544616E-01  0.00000000000E+00 0. -1.
     999901    1    3    3    0    0  0.10064147078E+00  0.38982551768E-01  0.31430177060E-01  0.88715060785E+00  0.88000000000E+00 0.  1.
        -11    1    4    4    0    0 -0.47346991871E-01 -0.39413721227E-01 -0.29678194427E-01  0.68383005239E-01  0.51100000000E-03 0.  1.
         11    1    4    4    0    0 -0.43242248125E-01 -0.31797575857E-01 -0.73410671135E-02  0.54176842291E-01  0.51100000000E-03 0. -1.
</event>
<event>
 8    1  0.1117354E+005  0.1043930E+01  0.7957747E-01            NaN
         13   -1    0    0    0    0  0.00000000000E+00  0.00000000000E+00  0.74505805969E-08  0.10566000000E+00  0.10566000000E+00 0. -1.
     999900   -1    0    0    0    0 -0.00000000000E+00 -0.00000000000E+00 -0.74505805969E-08  0.93827000000E+00  0.93827000000E+00 0.  1.
     999902    2    1    2    0    0  0.34575216733E-03 -0.13591903177E-01  0.17976137834E-01  0.10213911245E+01  0.10211424133E+01 0.  0.
     999903    2    3    3    0    0  0.42914080156E-01 -0.35447412975E-01 -0.11707868374E+00  0.12980291762E+00  0.65758553270E-02 0.  0.
         14    1    1    2    0    0 -0.34575216733E-03  0.13591903177E-01 -0.17976137834E-01  0.22538875481E-01  0.00000000000E+00 0.  1.
     999901    1    3    3    0    0 -0.42568327989E-01  0.21855509798E-01  0.13505482157E+00  0.89158820690E+00  0.88000000000E+00 0. -1.
        -11    1    4    4    0    0  0.35850784335E-01 -0.27915612814E-01 -0.99980867855E-01  0.10982256250E+00  0.51100000000E-03 0.  1.
         11    1    4    4    0    0  0.70632958209E-02 -0.75318001614E-02 -0.17097815886E-01  0.19980355117E-01  0.51100000000E-03 0. -1.
</event>
<event>
 8    1  0.1117354E+005  0.1043930E+01  0.7957747E-01            NaN
         13   -1    0    0    0    0  0.00000000000E+00  0.00000000000E+00  0.74505805969E-08  0.10566000000E+00  0.10566000000E+00 0.  1.
     999900   -1    0    0    0    0 -0.00000000000E+00 -0.00000000000E+00 -0.74505805969E-08  0.93827000000E+00  0.93827000000E+00 0.  1.
     999902    2    1    2    0    0 -0.20463237634E-01 -0.85994913549E-02  0.73490927487E-02  0.10205482868E+01  0.10202804033E+01 0.  0.
     999903    2    3    3    0    0  0.36035423295E-01  0.52764588202E-01 -0.11000594998E+00  0.12884774574E+00  0.20439644116E-01 0.  0.
         14    1    1    2    0    0  0.20463237634E-01  0.85994913549E-02 -0.73490927487E-02  0.23381713159E-01  0.00000000000E+00 0.  1.
     999901    1    3    3    0    0 -0.56498660928E-01 -0.61364079557E-01  0.11735504273E+00  0.89170054110E+00  0.88000000000E+00 0. -1.
        -11    1    4    4    0    0  0.10627622002E-01  0.21314584016E-01 -0.59890661832E-01  0.64454715397E-01  0.51100000000E-03 0. -1.
         11    1    4    4    0    0  0.25407801293E-01  0.31450004187E-01 -0.50115288145E-01  0.64393030343E-01  0.51100000000E-03 0.  1.
</event>
<event>
 8    1  0.1117354E+005  0.1043930E+01  0.7957747E-01            NaN
         13   -1    0    0    0    0  0.00000000000E+00  0.00000000000E+00  0.74505805969E-08  0.10566000000E+00  0.10566000000E+00 0.  1.
     999900   -1    0    0    0    0 -0.00000000000E+00 -0.00000000000E+00 -0.74505805969E-08  0.93827000000E+00  0.93827000000E+00 0.  1.
     999902    2    1    2    0    0 -0.17575189682E-01  0.84904061139E-02 -0.13322422098E-01  0.10202982159E+01  0.10200245037E+01 0.  0.
     999903    2    3    3    0    0 -0.12034148959E-02 -0.12556414023E+00 -0.24951041463E-01  0.12991971147E+00  0.22108266310E-01 0.  0.
         14    1    1    2    0    0  0.17575189682E-01 -0.84904061139E-02  0.13322422098E-01  0.23631784082E-01  0.00000000000E+00 0. -1.
     999901    1    3    3    0    0 -0.16371774786E-01  0.13405454634E+00  0.11628619365E-01  0.89037850445E+00  0.88000000000E+00 0. -1.
        -11    1    4    4    0    0 -0.55392559113E-02 -0.67149091972E-01 -0.32708756484E-02  0.67458458752E-01  0.51100000000E-03 0. -1.
         11    1    4    4    0    0  0.43358410154E-02 -0.58415048253E-01 -0.21680165815E-01  0.62461252713E-01  0.51100000000E-03 0.  1.
</event>
<event>
 8    1  0.1117354E+005  0.1043930E+01  0.7957747E-01            NaN
         13   -1    0    0    0    0  0.00000000000E+00  0.00000000000E+00  0.74505805969E-08  0.10566000000E+00  0.10566000000E+00 0. -1.
     999900   -1    0    0    0    0 -0.00000000000E+00 -0.00000000000E+00 -0.74505805969E-08  0.93827000000E+00  0.93827000000E+00 0. -1.
     999902    2    1    2    0    0 -0.16980248233E-01 -0.64610088344E-02  0.17910280607E-01  0.10184182063E+01  0.10180986157E+01 0.  0.
     999903    2    3    3    0    0  0.15200911609E-01  0.99692194618E-01 -0.73896362426E-01  0.12671613200E+00  0.20656823250E-01 0.  0.
         14    1    1    2    0    0  0.16980248233E-01  0.64610088344E-02 -0.17910280607E-01  0.25511793678E-01  0.00000000000E+00 0.  1.
     999901    1    3    3    0    0 -0.32181159842E-01 -0.10615320345E+00  0.91806643033E-01  0.89170207433E+00  0.88000000000E+00 0.  1.
        -11    1    4    4    0    0  0.19612031778E-01  0.78510380144E-01 -0.62546926122E-01  0.10227849563E+00  0.51100000000E-03 0. -1.
         11    1    4    4    0    0 -0.44111201689E-02  0.21181814474E-01 -0.11349436304E-01  0.24437636363E-01  0.51100000000E-03 0.  1.
</event>
<event>
 8    1  0.1117354E+005  0.1043930E+01  0.7957747E-01            NaN
         13   -1    0    0    0    0  0.00000000000E+00  0.00000000000E+00  0.74505805969E-08  0.10566000000E+00  0.10566000000E+00 0.  1.
     999900   -1    0    0    0    0 -0.00000000000E+00 -0.00000000000E+00 -0.74505805969E-08  0.93827000000E+00  0.93827000000E+00 0. -1.
     999902    2    1    2    0    0 -0.22660355058E-01 -0.78021442155E-02  0.20869010148E-02  0.10198733938E+01  0.10195896327E+01 0.  0.
     999903    2    3    3    0    0  0.28489105078E-01 -0.70815064012E-01 -0.10359611414E+00  0.12984204884E+00  0.17332062302E-01 0.  0.
         14    1    1    2    0    0  0.22660355058E-01  0.78021442155E-02 -0.20869010148E-02  0.24056606193E-01  0.00000000000E+00 0.  1.
     999901    1    3    3    0    0 -0.51149460136E-01  0.63012919796E-01  0.10568301515E+00  0.89003134497E+00  0.88000000000E+00 0.  1.
        -11    1    4    4    0    0  0.21184543983E-01 -0.35424775053E-01 -0.45613203614E-01  0.61518493612E-01  0.51100000000E-03 0.  1.
         11    1    4    4    0    0  0.73045610952E-02 -0.35390288959E-01 -0.57982910521E-01  0.68323555227E-01  0.51100000000E-03 0. -1.
</event>
<event>
 8    1  0.1117354E+005  0.1043930E+01  0.7957747E-01            NaN
         13   -1    0    0    0    0  0.00000000000E+00  0.00000000000E+00  0.74505805969E-08  0.10566000000E+00  0.10566000000E+00 0.  1.
     999900   -1    0    0    0    0 -0.00000000000E+00 -0.00000000000E+00 -0.74505805969E-08  0.93827000000E+00  0.93827000000E+00 0.  1.
     999902    2    1    2    0    0 -0.90350007802E-02  0.20229385192E-01  0.10710302648E-01  0.10193216712E+01  0.10190245824E+01 0.  0.
     999903    2    3    3    0    0  0.11193725933E+00 -0.55204607574E-01 -0.19495285920E-01  0.12733683243E+00  0.16034462781E-01 0.  0.
         14    1    1    2    0    0  0.90350007802E-02 -0.20229385192E-01 -0.10710302648E-01  0.24608328817E-01  0.00000000000E+00 0. -1.
     999901    1    3    3    0    0 -0.12097226011E+00  0.75433992766E-01  0.30205588568E-01  0.89198483875E+00  0.88000000000E+00 0.  1.
        -11    1    4    4    0    0  0.60203367229E-01 -0.31285449002E-01 -0.18516766326E-01  0.70330338412E-01  0.51100000000E-03 0. -1.
         11    1    4    4    0    0  0.51733892103E-01 -0.23919158572E-01 -0.97851959399E-03  0.57006494020E-01  0.51100000000E-03 0.  1.
</event>
<event>
 8    1  0.1117354E+005  0.1043930E+01  0.7957747E-01            NaN
         13   -1    0    0    0    0  0.00000000000E+00  0.00000000000E+00  0.74505805969E-08  0.10566000000E+00  0.10566000000E+00 0.  1.
     999900   -1    0    0    0    0 -0.00000000000E+00 -0.00000000000E+00 -0.74505805969E-08  0.93827000000E+00  0.93827000000E+00 0.  1.
     999902    2    1    2    0    0  0.11916882261E-01 -0.20525692430E-01 -0.29926565317E-03  0.10201938316E+01  0.10199176674E+01 0.  0.
     999903    2    3    3    0    0  0.34859664675E-01 -0.96018789553E-01  0.82322184738E-01  0.13280897534E+00  0.20651335591E-01 0.  0.
         14    1    1    2    0    0 -0.11916882261E-01  0.20525692430E-01  0.29926565317E-03  0.23736168446E-01  0.00000000000E+00 0.  1.
     999901    1    3    3    0    0 -0.22942782414E-01  0.75493097123E-01 -0.82621450392E-01  0.88738485622E+00  0.88000000000E+00 0.  1.
        -11    1    4    4    0    0  0.16124287942E-01 -0.67197315652E-01  0.47376652795E-01  0.83787112634E-01  0.51100000000E-03 0.  1.
         11    1    4    4    0    0  0.18735376733E-01 -0.28821473901E-01  0.34945531943E-01  0.49021862704E-01  0.51100000000E-03 0. -1.
</event>
<event>
 8    1  0.1284332E+005  0.1043930E+01  0.7957747E-01            NaN
         13   -1    0    0    0    0  0.00000000000E+00  0.00000000000E+00  0.74505805969E-08  0.10566000000E+00  0.10566000000E+00 0.  1.
     999900   -1    0    0    0    0 -0.00000000000E+00 -0.00000000000E+00 -0.74505805969E-08  0.93827000000E+00  0.93827000000E+00 0.  1.
     999902    2    1    2    0    0  0.18761287201E-01  0.13060062364E-01 -0.35488541496E-02  0.10207967881E+01  0.10205346330E+01 0.  0.
     999903    2    3    3    0    0  0.65068325143E-01 -0.17034628892E-01 -0.11220045933E+00  0.13239642594E+00  0.20391297402E-01 0.  0.
         14    1    1    2    0    0 -0.18761287201E-01 -0.13060062364E-01  0.35488541496E-02  0.23133211886E-01  0.00000000000E+00 0.  1.
     999901    1    3    3    0    0 -0.46307037942E-01  0.30094691256E-01  0.10865160518E+00  0.88840036217E+00  0.88000000000E+00 0. -1.
        -11    1    4    4    0    0  0.17485740607E-01 -0.97126813383E-02 -0.49144060166E-01  0.53061163519E-01  0.51100000000E-03 0.  1.
         11    1    4    4    0    0  0.47582584536E-01 -0.73219475539E-02 -0.63056399162E-01  0.79335262421E-01  0.51100000000E-03 0. -1.
</event>
<event>
 8    1  0.1117354E+005  0.1043930E+01  0.7957747E-01            NaN
         13   -1    0    0    0    0  0.00000000000E+00  0.00000000000E+00  0.74505805969E-08  0.10566000000E+00  0.10566000000E+00 0.  1.
     999900   -1    0    0    0    0 -0.00000000000E+00 -0.00000000000E+00 -0.74505805969E-08  0.93827000000E+00  0.93827000000E+00 0. -1.
     999902    2    1    2    0    0  0.18302905167E-01  0.20228757009E-02  0.15025662257E-01  0.10201632398E+01  0.10198863549E+01 0.  0.
     999903    2    3    3    0    0 -0.29569214528E-01 -0.12468672244E+00  0.25725553285E-03  0.12967732305E+00  0.19875229143E-01 0.  0.
         14    1    1    2    0    0 -0.18302905167E-01 -0.20228757009E-02 -0.15025662257E-01  0.23766760190E-01  0.00000000000E+00 0. -1.
     999901    1    3    3    0    0  0.47872119695E-01  0.12670959814E+00  0.14768406724E-01  0.89048591676E+00  0.88000000000E+00 0.  1.
        -11    1    4    4    0    0 -0.20922802400E-01 -0.49127676845E-01 -0.36384141432E-02  0.53523746795E-01  0.51100000000E-03 0. -1.
         11    1    4    4    0    0 -0.86464121278E-02 -0.75559045594E-01  0.38956696761E-02  0.76153576259E-01  0.51100000000E-03 0.  1.
</event>
<event>
 8    1  0.1117354E+005  0.1043930E+01  0.7957747E-01            NaN
         13   -1    0    0    0    0  0.00000000000E+00  0.00000000000E+00  0.74505805969E-08  0.10566000000E+00  0.10566000000E+00 0. -1.
     999900   -1    0    0    0    0 -0.00000000000E+00 -0.00000000000E+00 -0.74505805969E-08  0.93827000000E+00  0.93827000000E+00 0. -1.
     999902    2    1    2    0    0  0.19289741904E-01  0.10839947032E-01  0.83727157300E-02  0.10202720000E+01  0.10199976731E+01 0.  0.
     999903    2    3    3    0    0  0.30516428327E-01 -0.61315012644E-01 -0.10814774331E+00  0.12959282429E+00  0.20188673864E-01 0.  0.
         14    1    1    2    0    0 -0.19289741904E-01 -0.10839947032E-01 -0.83727157300E-02  0.23657999981E-01  0.00000000000E+00 0.  1.
     999901    1    3    3    0    0 -0.11226686423E-01  0.72154959676E-01  0.11652045904E+00  0.89067917572E+00  0.88000000000E+00 0.  1.
        -11    1    4    4    0    0  0.92328780724E-02 -0.11544430510E-01 -0.39438624243E-01  0.42121088738E-01  0.51100000000E-03 0.  1.
         11    1    4    4    0    0  0.21283550255E-01 -0.49770582134E-01 -0.68709119066E-01  0.87471735556E-01  0.51100000000E-03 0. -1.
</event>
<event>
 8    1  0.1117354E+005  0.1043930E+01  0.7957747E-01            NaN
         13   -1    0    0    0    0  0.00000000000E+00  0.00000000000E+00  0.74505805969E-08  0.10566000000E+00  0.10566000000E+00 0. -1.
     999900   -1    0    0    0    0 -0.00000000000E+00 -0.00000000000E+00 -0.74505805969E-08  0.93827000000E+00  0.93827000000E+00 0.  1.
     999902    2    1    2    0    0 -0.15985189902E-01  0.18072785568E-01 -0.89236633280E-04  0.10198020113E+01  0.10195165435E+01 0.  0.
     999903    2    3    3    0    0 -0.91478175861E-01 -0.27300521166E-01 -0.87520387900E-01  0.13109388483E+00  0.20303034888E-01 0.  0.
         14    1    1    2    0    0  0.15985189902E-01 -0.18072785568E-01  0.89236633280E-04  0.24127988676E-01  0.00000000000E+00 0.  1.
     999901    1    3    3    0    0  0.75492985958E-01  0.45373306734E-01  0.87431151267E-01  0.88870812650E+00  0.88000000000E+00 0. -1.
        -11    1    4    4    0    0 -0.48418317806E-01 -0.21927137844E-01 -0.57623793455E-01  0.78395762426E-01  0.51100000000E-03 0.  1.
         11    1    4    4    0    0 -0.43059858054E-01 -0.53733833227E-02 -0.29896594445E-01  0.52698122399E-01  0.51100000000E-03 0. -1.
</event>
<event>
 8    1  0.1117354E+005  0.1043930E+01  0.7957747E-01            NaN
         13   -1    0    0    0    0  0.00000000000E+00  0.00000000000E+00  0.74505805969E-08  0.10566000000E+00  0.10566000000E+00 0. -1.
     999900   -1    0    0    0    0 -0.00000000000E+00 -0.00000000000E+00 -0.74505805969E-08  0.93827000000E+00  0.93827000000E+00 0.  1.
     999902    2    1    2    0    0 -0.16185875747E-01  0.12582079897E-01  0.11330269743E-01  0.10205063726E+01  0.10202375166E+01 0.  0.
     999903    2    3    3    0    0 -0.54075278910E-02  0.51670938248E-01  0.12058598753E+00  0.13282347680E+00  0.20049149158E-01 0.  0.
         14    1    1    2    0    0  0.16185875747E-01 -0.12582079897E-01 -0.11330269743E-01  0.23423627402E-01  0.00000000000E+00 0. -1.
     999901    1    3    3    0    0 -0.10778347856E-01 -0.39088858351E-01 -0.10925571779E+00  0.88768289580E+00  0.88000000000E+00 0.  1.
        -11    1    4    4    0    0  0.17405020082E-02  0.46601237813E-01  0.10589580383E+00  0.11571035866E+00  0.51100000000E-03 0. -1.
         11    1    4    4    0    0 -0.71480298992E-02  0.50697004351E-02  0.14690183704E-01  0.17113118132E-01  0.51100000000E-03 0.  1.
</event>
<event>
 8    1  0.1117354E+005  0.1043930E+01  0.7957747E-01            NaN
         13   -1    0    0    0    0  0.00000000000E+00  0.00000000000E+00  0.74505805969E-08  0.10566000000E+00  0.10566000000E+00 0. -1.
     999900   -1    0    0    0    0 -0.00000000000E+00 -0.00000000000E+00 -0.74505805969E-08  0.93827000000E+00  0.93827000000E+00 0. -1.
     999902    2    1    2    0    0 -0.16706430815E-01 -0.26375133703E-02  0.16238965896E-01  0.10204829251E+01  0.10202135243E+01 0.  0.
     999903    2    3    3    0    0  0.69844665327E-01  0.10683167571E+00 -0.47571406588E-02  0.12923916940E+00  0.19719237113E-01 0.  0.
         14    1    1    2    0    0  0.16706430815E-01  0.26375133703E-02 -0.16238965896E-01  0.23447074887E-01  0.00000000000E+00 0.  1.
     999901    1    3    3    0    0 -0.86551096142E-01 -0.10946918908E+00  0.20996106555E-01  0.89124375571E+00  0.88000000000E+00 0.  1.
        -11    1    4    4    0    0  0.28714910647E-01  0.60801249726E-01  0.90594935761E-03  0.67248939969E-01  0.51100000000E-03 0.  1.
         11    1    4    4    0    0  0.41129754680E-01  0.46030425980E-01 -0.56630900164E-02  0.61990229435E-01  0.51100000000E-03 0. -1.
</event>
<event>
 8    1  0.1117354E+005  0.1043930E+01  0.7957747E-01            NaN
         13   -1    0    0    0    0  0.00000000000E+00  0.00000000000E+00  0.74505805969E-08  0.10566000000E+00  0.10566000000E+00 0.  1.
     999900   -1    0    0    0    0 -0.00000000000E+00 -0.00000000000E+00 -0.74505805969E-08  0.93827000000E+00  0.93827000000E+00 0. -1.
     999902    2    1    2    0    0 -0.12252648749E-01 -0.29388060150E-02  0.19862699177E-01  0.10204078657E+01  0.10201367171E+01 0.  0.
     999903    2    3    3    0    0  0.45666730000E-01 -0.53783600923E-02  0.12223694449E+00  0.13257843844E+00  0.22820927969E-01 0.  0.
         14    1    1    2    0    0  0.12252648749E-01  0.29388060150E-02 -0.19862699177E-01  0.23522134273E-01  0.00000000000E+00 0. -1.
     999901    1    3    3    0    0 -0.57919378749E-01  0.24395540773E-02 -0.10237424531E+00  0.88782942729E+00  0.88000000000E+00 0. -1.
        -11    1    4    4    0    0  0.12362266827E-01  0.62040571671E-02  0.19163544255E-01  0.23639342543E-01  0.51100000000E-03 0. -1.
         11    1    4    4    0    0  0.33304463173E-01 -0.11582417259E-01  0.10307340024E+00  0.10893909589E+00  0.51100000000E-03 0.  1.
</event>
<event>
 8    1  0.1117354E+005  0.1043930E+01  0.7957747E-01            NaN
         13   -1    0    0    0    0  0.00000000000E+00  0.00000000000E+00  0.74505805969E-08  0.10566000000E+00  0.10566000000E+00 0.  1.
     999900   -1    0    0    0    0 -0.00000000000E+00 -0.00000000000E+00 -0.74505805969E-08  0.93827000000E+00  0.93827000000E+00 0. -1.
     999902    2    1    2    0    0  0.10300864409E-01 -0.64026620982E-02  0.20359209061E-01  0.10202319139E+01  0.10199566456E+01 0.  0.
     999903    2    3    3    0    0  0.10948841380E+00 -0.55587902039E-01 -0.41655985776E-01  0.13112942143E+00  0.19544216680E-01 0.  0.
         14    1    1    2    0    0 -0.10300864409E-01  0.64026620982E-02 -0.20359209061E-01  0.23698086065E-01  0.00000000000E+00 0. -1.
     999901    1    3    3    0    0 -0.99187549389E-01  0.49185239941E-01  0.62015194837E-01  0.88910249250E+00  0.88000000000E+00 0.  1.
        -11    1    4    4    0    0  0.19856730130E-01 -0.81293017124E-02 -0.15242747339E-01  0.26324470464E-01  0.51100000000E-03 0. -1.
         11    1    4    4    0    0  0.89631683668E-01 -0.47458600327E-01 -0.26413238437E-01  0.10480495097E+00  0.51100000000E-03 0.  1.
</event>
<event>
 8    1  0.1117354E+005  0.1043930E+01  0.7957747E-01            NaN
         13   -1    0    0    0    0  0.00000000000E+00  0.00000000000E+00  0.74505805969E-08  0.10566000000E+00  0.10566000000E+00 0. -1.
     999900   -1    0    0    0    0 -0.00000000000E+00 -0.00000000000E+00 -0.74505805969E-08  0.93827000000E+00  0.93827000000E+00 0.  1.
     999902    2    1    2    0    0  0.10273356705E-01  0.10230907045E-01 -0.18898058558E-01  0.10201108914E+01  0.10198327710E+01 0.  0.
     999903    2    3    3    0    0  0.75182817942E-01 -0.83018879260E-01 -0.66301001977E-01  0.13154136692E+00  0.19045154770E-01 0.  0.
         14    1    1    2    0    0 -0.10273356705E-01 -0.10230907045E-01  0.18898058558E-01  0.23819108594E-01  0.00000000000E+00 0. -1.
     999901    1    3    3    0    0 -0.64909461237E-01  0.93249786304E-01  0.47402943419E-01  0.88856952449E+00  0.88000000000E+00 0. -1.
        -11    1    4    4    0    0  0.28911073039E-01 -0.33878819050E-01 -0.15870052185E-01  0.47283656815E-01  0.51100000000E-03 0. -1.
         11    1    4    4    0    0  0.46271744904E-01 -0.49140060210E-01 -0.50430949792E-01  0.84257710103E-01  0.51100000000E-03 0.  1.
</event>
<event>
 8    1  0.1117354E+005  0.1043930E+01  0.7957747E-01            NaN
         13   -1    0    0    0    0  0.00000000000E+00  0.00000000000E+00  0.74505805969E-08  0.10566000000E+00  0.10566000000E+00 0.  1.
     999900   -1    0    0    0    0 -0.00000000000E+00 -0.00000000000E+00 -0.74505805969E-08  0.93827000000E+00  0.93827000000E+00 0. -1.
     999902    2    1    2    0    0  0.23226239041E-01 -0.17920493802E-02 -0.39298270932E-02  0.10203055812E+01  0.10200320416E+01 0.  0.
     999903    2    3    3    0    0  0.11977964501E+00 -0.54873075992E-01 -0.16467190630E-02  0.13343165098E+00  0.21049369882E-01 0.  0.
         14    1    1    2    0    0 -0.23226239041E-01  0.17920493802E-02  0.39298270932E-02  0.23624418764E-01  0.00000000000E+00 0. -1.
     999901    1    3    3    0    0 -0.96553405964E-01  0.53081026611E-01 -0.22831080301E-02  0.88687393026E+00  0.88000000000E+00 0.  1.
        -11    1    4    4    0    0  0.70537940822E-02 -0.96077622818E-02 -0.73370437578E-03  0.11952595958E-01  0.51100000000E-03 0.  1.
         11    1    4    4    0    0  0.11272585092E+00 -0.45265313710E-01 -0.91301468727E-03  0.12147905502E+00  0.51100000000E-03 0. -1.
</event>
<event>
 8    1  0.1117354E+005  0.1043930E+01  0.7957747E-01            NaN
         13   -1    0    0    0    0  0.00000000000E+00  0.00000000000E+00  0.74505805969E-08  0.10566000000E+00  0.10566000000E+00 0.  1.
     999900   -1    0    0    0    0 -0.00000000000E+00 -0.00000000000E+00 -0.74505805969E-08  0.93827000000E+00  0.93827000000E+00 0. -1.
     999902    2    1    2    0    0 -0.10939084998E-01  0.19927883681E-01  0.80794185492E-02  0.10198040569E+01  0.10195186380E+01 0.  0.
     999903    2    3    3    0    0  0.32786771151E-01 -0.12141880797E+00  0.44353378926E-02  0.12744531898E+00  0.20128035614E-01 0.  0.
         14    1    1    2    0    0  0.10939084998E-01 -0.19927883681E-01 -0.80794185492E-02  0.24125943146E-01  0.00000000000E+00 0. -1.
     999901    1    3    3    0    0 -0.43725856149E-01  0.14134669165E+00  0.36440806566E-02  0.89235873787E+00  0.88000000000E+00 0. -1.
        -11    1    4    4    0    0  0.23868236111E-01 -0.51090951433E-01 -0.29998864361E-03  0.56394406882E-01  0.51100000000E-03 0. -1.
         11    1    4    4    0    0  0.89185350408E-02 -0.70327856533E-01  0.47353265362E-02  0.71050912099E-01  0.51100000000E-03 0.  1.
</event>
<event>
 8    1  0.1117354E+005  0.1043930E+01  0.7957747E-01            NaN
         13   -1    0    0    0    0  0.00000000000E+00  0.00000000000E+00  0.74505805969E-08  0.10566000000E+00  0.10566000000E+00 0. -1.
     999900   -1    0    0    0    0 -0.00000000000E+00 -0.00000000000E+00 -0.74505805969E-08  0.93827000000E+00  0.93827000000E+00 0. -1.
     999902    2    1    2    0    0  0.21755510522E-01 -0.80097190455E-02  0.83324020162E-03  0.10207318939E+01  0.10204682489E+01 0.  0.
     999903    2    3    3    0    0  0.13118070548E+00  0.15388720067E-01 -0.11791844609E-02  0.13364373025E+00  0.20348610838E-01 0.  0.
         14    1    1    2    0    0 -0.21755510522E-01  0.80097190455E-02 -0.83324020162E-03  0.23198106097E-01  0.00000000000E+00 0.  1.
     999901    1    3    3    0    0 -0.10942519496E+00 -0.23398439113E-01  0.20124246625E-02  0.88708816366E+00  0.88000000000E+00 0.  1.
        -11    1    4    4    0    0  0.25791946509E-01  0.10027644025E-01  0.41306914899E-02  0.27983957594E-01  0.51100000000E-03 0. -1.
         11    1    4    4    0    0  0.10538875897E+00  0.53610760425E-02 -0.53098759508E-02  0.10565977265E+00  0.51100000000E-03 0.  1.
</event>
<event>
 8    1  0.1117354E+005  0.1043930E+01  0.7957747E-01            NaN
         13   -1    0    0    0    0  0.00000000000E+00  0.00000000000E+00  0.74505805969E-08  0.10566000000E+00  0.10566000000E+00 0. -1.
     999900   -1    0    0    0    0 -0.00000000000E+00 -0.00000000000E+00 -0.74505805969E-08  0.93827000000E+00  0.93827000000E+00 0. -1.
     999902    2    1    2    0    0 -0.92097857196E-02 -0.20615907394E-01  0.83709031760E-02  0.10198487249E+01  0.10195643746E+01 0.  0.
     999903    2    3    3    0    0  0.27850320522E-01  0.63342327423E-01  0.10775614422E+00  0.12951178710E+00  0.19339741045E-01 0.  0.
         14    1    1    2    0    0  0.92097857196E-02  0.20615907394E-01 -0.83709031760E-02  0.24081275104E-01  0.00000000000E+00 0.  1.
     999901    1    3    3    0    0 -0.37060106242E-01 -0.83958234816E-01 -0.99385241045E-01  0.89033693780E+00  0.88000000000E+00 0. -1.
        -11    1    4    4    0    0  0.28418074631E-01  0.47348835344E-01  0.90090682556E-01  0.10566972782E+00  0.51100000000E-03 0. -1.
         11    1    4    4    0    0 -0.56775410817E-03  0.15993492079E-01  0.17665461665E-01  0.23842059275E-01  0.51100000000E-03 0.  1.
</event>
<event>
 8    1  0.1117354E+005  0.1043930E+01  0.7957747E-01            NaN
         13   -1    0    0    0    0  0.00000000000E+00  0.00000000000E+00  0.74505805969E-08  0.10566000000E+00  0.10566000000E+00 0. -1.
     999900   -1    0    0    0    0 -0.00000000000E+00 -0.00000000000E+00 -0.74505805969E-08  0.93827000000E+00  0.93827000000E+00 0. -1.
     999902    2    1    2    0    0 -0.54164645449E-02 -0.84261154097E-03  0.23779152805E-01  0.10195272094E+01  0.10192351223E+01 0.  0.
     999903    2    3    3    0    0  0.20047916077E-01  0.66059850649E-01  0.11138969425E+00  0.13228429951E+00  0.18045750301E-01 0.  0.
         14    1    1    2    0    0  0.54164645449E-02  0.84261154097E-03 -0.23779152805E-01  0.24402790629E-01  0.00000000000E+00 0.  1.
     999901    1    3    3    0    0 -0.25464380622E-01 -0.66902462190E-01 -0.87610541449E-01  0.88724290986E+00  0.88000000000E+00 0. -1.
        -11    1    4    4    0    0  0.10936186524E-01  0.30561170935E-01  0.36117929701E-01  0.48562859384E-01  0.51100000000E-03 0.  1.
         11    1    4    4    0    0  0.91117295521E-02  0.35498679714E-01  0.75271764552E-01  0.83721440125E-01  0.51100000000E-03 0. -1.
</event>
<event>
 8    1  0.1117354E+005  0.1043930E+01  0.7957747E-01            NaN
         13   -1    0    0    0    0  0.00000000000E+00  0.00000000000E+00  0.74505805969E-08  0.10566000000E+00  0.10566000000E+00 0. -1.
     999900   -1    0    0    0    0 -0.00000000000E+00 -0.00000000000E+00 -0.74505805969E-08  0.93827000000E+00  0.93827000000E+00 0.  1.
     999902    2    1    2    0    0  0.11637971691E-01 -0.15766494983E-01 -0.12930922519E-01  0.10204516375E+01  0.10201815088E+01 0.  0.
     999903    2    3    3    0    0  0.47859378111E-01  0.26154945094E-01  0.11525797737E+00  0.12943997007E+00  0.22264394822E-01 0.  0.
         14    1    1    2    0    0 -0.11637971691E-01  0.15766494983E-01  0.12930922519E-01  0.23478362513E-01  0.00000000000E+00 0. -1.
     999901    1    3    3    0    0 -0.36221406419E-01 -0.41921440077E-01 -0.12818889989E+00  0.89101166742E+00  0.88000000000E+00 0.  1.
        -11    1    4    4    0    0  0.15654533435E-01  0.16090052642E-01  0.66135624649E-01  0.69843655258E-01  0.51100000000E-03 0. -1.
         11    1    4    4    0    0  0.32204844676E-01  0.10064892453E-01  0.49122352725E-01  0.59596314810E-01  0.51100000000E-03 0.  1.
</event>
<event>
 8    1  0.1117354E+005  0.1043930E+01  0.7957747E-01            NaN
         13   -1    0    0    0    0  0.00000000000E+00  0.00000000000E+00  0.74505805969E-08  0.10566000000E+00  0.10566000000E+00 0.  1.
     999900   -1    0    0    0    0 -0.00000000000E+00 -0.00000000000E+00 -0.74505805969E-08  0.93827000000E+00  0.93827000000E+00 0.  1.
     999902    2    1    2    0    0 -0.69322952732E-02  0.90198484854E-02 -0.24093476137E-01  0.10172858641E+01  0.10169368807E+01 0.  0.
     999903    2    3    3    0    0 -0.11169888017E+00 -0.58861635238E-01  0.67951458449E-02  0.12793889015E+00  0.19515472642E-01 0.  0.
         14    1    1    2    0    0  0.69322952732E-02 -0.90198484854E-02  0.24093476137E-01  0.26644135881E-01  0.00000000000E+00 0.  1.
     999901    1    3    3    0    0  0.10476658489E+00  0.67881483723E-01 -0.30888621982E-01  0.88934697397E+00  0.88000000000E+00 0. -1.
        -11    1    4    4    0    0 -0.28784345904E-01 -0.24373281365E-01  0.55550259240E-02  0.38127612666E-01  0.51100000000E-03 0. -1.
         11    1    4    4    0    0 -0.82914534261E-01 -0.34488353873E-01  0.12401199209E-02  0.89811277482E-01  0.51100000000E-03 0.  1.
</event>
<event>
 8    1  0.1117354E+005  0.1043930E+01  0.7957747E-01            NaN
         13   -1    0    0    0    0  0.00000000000E+00  0.00000000000E+00  0.74505805969E-08  0.10566000000E+00  0.10566000000E+00 0. -1.
     999900   -1    0    0    0    0 -0.00000000000E+00 -0.00000000000E+00 -0.74505805969E-08  0.93827000000E+00  0.93827000000E+00 0.  1.
     999902    2    1    2    0    0  0.70768512307E-03 -0.44091113545E-02 -0.23397717848E-01  0.10201099605E+01  0.10198318181E+01 0.  0.
     999903    2    3    3    0    0  0.12747545984E+00 -0.14949986523E-01 -0.19022138619E-01  0.13095287402E+00  0.17700804948E-01 0.  0.
         14    1    1    2    0    0 -0.70768512307E-03  0.44091113545E-02  0.23397717848E-01  0.23820039497E-01  0.00000000000E+00 0. -1.
     999901    1    3    3    0    0 -0.12676777472E+00  0.10540875168E-01 -0.43755792282E-02  0.88915708649E+00  0.88000000000E+00 0. -1.
        -11    1    4    4    0    0  0.85141682823E-01 -0.55496090290E-02 -0.53946185188E-02  0.85494253282E-01  0.51100000000E-03 0.  1.
         11    1    4    4    0    0  0.42333777021E-01 -0.94003774935E-02 -0.13627520101E-01  0.45458620733E-01  0.51100000000E-03 0. -1.
</event>
<event>
 8    1  0.1117354E+005  0.1043930E+01  0.7957747E-01            NaN
         13   -1    0    0    0    0  0.00000000000E+00  0.00000000000E+00  0.74505805969E-08  0.10566000000E+00  0.10566000000E+00 0.  1.
     999900   -1    0    0    0    0 -0.00000000000E+00 -0.00000000000E+00 -0.74505805969E-08  0.93827000000E+00  0.93827000000E+00 0.  1.
     999902    2    1    2    0    0  0.21992944031E-01  0.56189329500E-02  0.43234971958E-02  0.10208225418E+01  0.10205609768E+01 0.  0.
     999903    2    3    3    0    0  0.10158752791E+00 -0.43391793604E-01  0.71569016711E-01  0.13332081846E+00  0.21200068499E-01 0.  0.
         14    1    1    2    0    0 -0.21992944031E-01 -0.56189329500E-02 -0.43234971958E-02  0.23107458160E-01  0.00000000000E+00 0.  1.
     999901    1    3    3    0    0 -0.79594583877E-01  0.49010726554E-01 -0.67245519515E-01  0.88750172338E+00  0.88000000000E+00 0.  1.
        -11    1    4    4    0    0  0.35721197238E-01 -0.88700404780E-02  0.33523881929E-01  0.49787481668E-01  0.51100000000E-03 0. -1.
         11    1    4    4    0    0  0.65866330669E-01 -0.34521753126E-01  0.38045134782E-01  0.83533336796E-01  0.51100000000E-03 0.  1.
</event>
<event>
 8    1  0.1117354E+005  0.1043930E+01  0.7957747E-01            NaN
         13   -1    0    0    0    0  0.00000000000E+00  0.00000000000E+00  0.74505805969E-08  0.10566000000E+00  0.10566000000E+00 0. -1.
     999900   -1    0    0    0    0 -0.00000000000E+00 -0.00000000000E+00 -0.74505805969E-08  0.93827000000E+00  0.93827000000E+00 0. -1.
     999902    2    1    2    0    0 -0.28516291096E-01  0.10829975310E-02  0.82224883562E-03  0.10153813077E+01  0.10149798875E+01 0.  0.
     999903    2    3    3    0    0 -0.67662419994E-01 -0.35824215844E-02 -0.10667390656E+00  0.12796392617E+00  0.20109879047E-01 0.  0.
         14    1    1    2    0    0  0.28516291096E-01 -0.10829975310E-02 -0.82224883562E-03  0.28548692346E-01  0.00000000000E+00 0. -1.
     999901    1    3    3    0    0  0.39146128898E-01  0.46654191154E-02  0.10749615539E+00  0.88741738149E+00  0.88000000000E+00 0.  1.
        -11    1    4    4    0    0 -0.66740321079E-02  0.45851239143E-02 -0.64841323747E-02  0.10386104156E-01  0.51100000000E-03 0. -1.
         11    1    4    4    0    0 -0.60988387886E-01 -0.81675454986E-02 -0.10018977418E+00  0.11757782201E+00  0.51100000000E-03 0.  1.
</event>
<event>
 8    1  0.1117354E+005  0.1043930E+01  0.7957747E-01            NaN
         13   -1    0    0    0    0  0.00000000000E+00  0.00000000000E+00  0.74505805969E-08  0.10566000000E+00  0.10566000000E+00 0.  1.
     999900   -1    0    0    0    0 -0.00000000000E+00 -0.00000000000E+00 -0.74505805969E-08  0.93827000000E+00  0.93827000000E+00 0. -1.
     999902    2    1    2    0    0  0.18499286193E-01  0.13275248412E-01 -0.53267275254E-02  0.10205456070E+01  0.10202776613E+01 0.  0.
     999903    2    3    3    0    0  0.11129746102E+00 -0.65675215220E-01 -0.17558054652E-01  0.13206697342E+00  0.20809648294E-01 0.  0.
         14    1    1    2    0    0 -0.18499286193E-01 -0.13275248412E-01  0.53267275254E-02  0.23384393005E-01  0.00000000000E+00 0. -1.
     999901    1    3    3    0    0 -0.92798174823E-01  0.78950463633E-01  0.12231327126E-01  0.88847863358E+00  0.88000000000E+00 0.  1.
        -11    1    4    4    0    0  0.80593563769E-01 -0.40616016928E-01 -0.19691872630E-01  0.92374316348E-01  0.51100000000E-03 0.  1.
         11    1    4    4    0    0  0.30703897247E-01 -0.25059198293E-01  0.21338179784E-02  0.39692657072E-01  0.51100000000E-03 0. -1.
</event>
