<event>
 8    1  0.1129676E+005  0.1043930E+01  0.7957747E-01            NaN
         13   -1    0    0    0    0  0.00000000000E+00  0.00000000000E+00  0.74505805969E-08  0.10566000000E+00  0.10566000000E+00 0. -1.
     999900   -1    0    0    0    0 -0.00000000000E+00 -0.00000000000E+00 -0.74505805969E-08  0.93827000000E+00  0.93827000000E+00 0. -1.
     999902    2    1    2    0    0  0.14916492057E-01  0.15262466566E-01  0.98670260622E-02  0.10204182407E+01  0.10201473341E+01 0.  0.
     999903    2    3    3    0    0 -0.10373618440E+00 -0.54835915733E-01 -0.46753631709E-01  0.12789477340E+00  0.20074794582E-01 0.  0.
         14    1    1    2    0    0 -0.14916492057E-01 -0.15262466566E-01 -0.98670260622E-02  0.23511759276E-01  0.00000000000E+00 0.  1.
     999901    1    3    3    0    0  0.11865267646E+00  0.70098382299E-01  0.56620657771E-01  0.89252346732E+00  0.88000000000E+00 0. -1.
        -11    1    4    4    0    0 -0.36468908467E-01 -0.87736536973E-02 -0.15022369072E-01  0.40409045739E-01  0.51100000000E-03 0. -1.
         11    1    4    4    0    0 -0.67267275933E-01 -0.46062262036E-01 -0.31731262637E-01  0.87485727664E-01  0.51100000000E-03 0.  1.
</event>
<event>
 8    1  0.1129676E+005  0.1043930E+01  0.7957747E-01            NaN
         13   -1    0    0    0    0  0.00000000000E+00  0.00000000000E+00  0.74505805969E-08  0.10566000000E+00  0.10566000000E+00 0. -1.
     999900   -1    0    0    0    0 -0.00000000000E+00 -0.00000000000E+00 -0.74505805969E-08  0.93827000000E+00  0.93827000000E+00 0. -1.
     999902    2    1    2    0    0  0.60328623657E-02 -0.35791328291E-02 -0.22981278192E-01  0.10199020003E+01  0.10196189217E+01 0.  0.
     999903    2    3    3    0    0  0.11977182784E+00 -0.32416791260E-01  0.33658931111E-01  0.13030867971E+00  0.21243569948E-01 0.  0.
         14    1    1    2    0    0 -0.60328623657E-02  0.35791328291E-02  0.22981278192E-01  0.24027999656E-01  0.00000000000E+00 0. -1.
     999901    1    3    3    0    0 -0.11373896547E+00  0.28837658431E-01 -0.56640209302E-01  0.88959332064E+00  0.88000000000E+00 0. -1.
        -11    1    4    4    0    0  0.72304514843E-01 -0.12665367750E-01  0.11420888652E-01  0.74290323902E-01  0.51100000000E-03 0.  1.
         11    1    4    4    0    0  0.47467312997E-01 -0.19751423510E-01  0.22238042458E-01  0.56018355806E-01  0.51100000000E-03 0. -1.
</event>
<event>
 8    1  0.1129676E+005  0.1043930E+01  0.7957747E-01            NaN
         13   -1    0    0    0    0  0.00000000000E+00  0.00000000000E+00  0.74505805969E-08  0.10566000000E+00  0.10566000000E+00 0.  1.
     999900   -1    0    0    0    0 -0.00000000000E+00 -0.00000000000E+00 -0.74505805969E-08  0.93827000000E+00  0.93827000000E+00 0.  1.
     999902    2    1    2    0    0  0.11328807511E-01  0.12336888258E-01 -0.16882739789E-01  0.10201483349E+01  0.10198710985E+01 0.  0.
     999903    2    3    3    0    0  0.33669367435E-01 -0.90062794435E-01  0.82731709965E-01  0.12834800175E+00  0.19589294886E-01 0.  0.
         14    1    1    2    0    0 -0.11328807511E-01 -0.12336888258E-01  0.16882739789E-01  0.23781665087E-01  0.00000000000E+00 0.  1.
     999901    1    3    3    0    0 -0.22340559924E-01  0.10239968269E+00 -0.99614449754E-01  0.89180033316E+00  0.88000000000E+00 0.  1.
        -11    1    4    4    0    0  0.31007062839E-01 -0.90168155773E-01  0.81139803986E-01  0.12520248869E+00  0.51100000000E-03 0. -1.
         11    1    4    4    0    0  0.26623045966E-02  0.10536133808E-03  0.15919059787E-02  0.31455130617E-02  0.51100000000E-03 0.  1.
</event>
<event>
 8    1  0.1129676E+005  0.1043930E+01  0.7957747E-01            NaN
         13   -1    0    0    0    0  0.00000000000E+00  0.00000000000E+00  0.74505805969E-08  0.10566000000E+00  0.10566000000E+00 0.  1.
     999900   -1    0    0    0    0 -0.00000000000E+00 -0.00000000000E+00 -0.74505805969E-08  0.93827000000E+00  0.93827000000E+00 0. -1.
     999902    2    1    2    0    0  0.22344887863E-01 -0.57372158532E-02  0.23428567090E-02  0.10207416702E+01  0.10204782500E+01 0.  0.
     999903    2    3    3    0    0 -0.24834763454E-01  0.14666323398E-01  0.12596123636E+00  0.13061598940E+00  0.19037780917E-01 0.  0.
         14    1    1    2    0    0 -0.22344887863E-01  0.57372158532E-02 -0.23428567090E-02  0.23188329757E-01  0.00000000000E+00 0.  1.
     999901    1    3    3    0    0  0.47179651317E-01 -0.20403539251E-01 -0.12361837965E+00  0.89012568085E+00  0.88000000000E+00 0. -1.
        -11    1    4    4    0    0 -0.29418088810E-02  0.12153727445E-01  0.46090928177E-01  0.47759837850E-01  0.51100000000E-03 0.  1.
         11    1    4    4    0    0 -0.21892954573E-01  0.25125959530E-02  0.79870308187E-01  0.82856151547E-01  0.51100000000E-03 0. -1.
</event>
<event>
 8    1  0.1144249E+005  0.1043930E+01  0.7957747E-01            NaN
         13   -1    0    0    0    0  0.00000000000E+00  0.00000000000E+00  0.74505805969E-08  0.10566000000E+00  0.10566000000E+00 0.  1.
     999900   -1    0    0    0    0 -0.00000000000E+00 -0.00000000000E+00 -0.74505805969E-08  0.93827000000E+00  0.93827000000E+00 0.  1.
     999902    2    1    2    0    0 -0.64186911799E-02  0.21286517212E-01  0.73203203107E-02  0.10205226827E+01  0.10202542053E+01 0.  0.
     999903    2    3    3    0    0 -0.12978172478E+00  0.58087440870E-02 -0.50232800360E-02  0.13169741084E+00  0.21022299684E-01 0.  0.
         14    1    1    2    0    0  0.64186911799E-02 -0.21286517212E-01 -0.73203203107E-02  0.23407317252E-01  0.00000000000E+00 0. -1.
     999901    1    3    3    0    0  0.12336303360E+00  0.15477773125E-01  0.12343600347E-01  0.88882527191E+00  0.88000000000E+00 0. -1.
        -11    1    4    4    0    0 -0.61051466145E-01  0.12368917734E-01  0.17734779492E-02  0.62319162297E-01  0.51100000000E-03 0.  1.
         11    1    4    4    0    0 -0.68730258634E-01 -0.65601736471E-02 -0.67967579852E-02  0.69378248539E-01  0.51100000000E-03 0. -1.
</event>
<event>
 8    1  0.1129676E+005  0.1043930E+01  0.7957747E-01            NaN
         13   -1    0    0    0    0  0.00000000000E+00  0.00000000000E+00  0.74505805969E-08  0.10566000000E+00  0.10566000000E+00 0.  1.
     999900   -1    0    0    0    0 -0.00000000000E+00 -0.00000000000E+00 -0.74505805969E-08  0.93827000000E+00  0.93827000000E+00 0. -1.
     999902    2    1    2    0    0  0.46732885911E-02 -0.23449348960E-01  0.69879881616E-02  0.10190192880E+01  0.10187147617E+01 0.  0.
     999903    2    3    3    0    0  0.42842552229E-01 -0.91544927503E-01 -0.81249885253E-01  0.13116804890E+00  0.19686420824E-01 0.  0.
         14    1    1    2    0    0 -0.46732885911E-02  0.23449348960E-01 -0.69879881616E-02  0.24910711982E-01  0.00000000000E+00 0. -1.
     999901    1    3    3    0    0 -0.38169263638E-01  0.68095578544E-01  0.88237873415E-01  0.88785123912E+00  0.88000000000E+00 0.  1.
        -11    1    4    4    0    0  0.31068849733E-01 -0.76959486396E-01 -0.73554845680E-01  0.11089910917E+00  0.51100000000E-03 0.  1.
         11    1    4    4    0    0  0.11773702496E-01 -0.14585441107E-01 -0.76950395733E-02  0.20268939730E-01  0.51100000000E-03 0. -1.
</event>
<event>
 8    1  0.1129676E+005  0.1043930E+01  0.7957747E-01            NaN
         13   -1    0    0    0    0  0.00000000000E+00  0.00000000000E+00  0.74505805969E-08  0.10566000000E+00  0.10566000000E+00 0.  1.
     999900   -1    0    0    0    0 -0.00000000000E+00 -0.00000000000E+00 -0.74505805969E-08  0.93827000000E+00  0.93827000000E+00 0.  1.
     999902    2    1    2    0    0 -0.24593902257E-02 -0.20083248282E-01 -0.12093744272E-01  0.10203578955E+01  0.10200855801E+01 0.  0.
     999903    2    3    3    0    0  0.78642425817E-02  0.12597366331E+00 -0.92607939765E-02  0.12825519710E+00  0.20794785849E-01 0.  0.
         14    1    1    2    0    0  0.24593902257E-02  0.20083248282E-01  0.12093744272E-01  0.23572104538E-01  0.00000000000E+00 0.  1.
     999901    1    3    3    0    0 -0.10323632807E-01 -0.14605691159E+00 -0.28329502959E-02  0.89210269836E+00  0.88000000000E+00 0. -1.
        -11    1    4    4    0    0  0.36415820019E-02  0.11293356379E+00 -0.13740778972E-01  0.11382583659E+00  0.51100000000E-03 0. -1.
         11    1    4    4    0    0  0.42226605798E-02  0.13040099525E-01  0.44799849950E-02  0.14429360504E-01  0.51100000000E-03 0.  1.
</event>
<event>
 8    1  0.1159810E+005  0.1043930E+01  0.7957747E-01            NaN
         13   -1    0    0    0    0  0.00000000000E+00  0.00000000000E+00  0.74505805969E-08  0.10566000000E+00  0.10566000000E+00 0.  1.
     999900   -1    0    0    0    0 -0.00000000000E+00 -0.00000000000E+00 -0.74505805969E-08  0.93827000000E+00  0.93827000000E+00 0. -1.
     999902    2    1    2    0    0 -0.81353818213E-02  0.22180805831E-01 -0.60850825759E-02  0.10195332622E+01  0.10192413217E+01 0.  0.
     999903    2    3    3    0    0 -0.47800552455E-01 -0.11625245940E+00 -0.55932389294E-02  0.12782852600E+00  0.22568132531E-01 0.  0.
         14    1    1    2    0    0  0.81353818213E-02 -0.22180805831E-01  0.60850825759E-02  0.24396737787E-01  0.00000000000E+00 0.  1.
     999901    1    3    3    0    0  0.39665170634E-01  0.13843326523E+00 -0.49184364654E-03  0.89170473622E+00  0.88000000000E+00 0. -1.
        -11    1    4    4    0    0 -0.14573557368E-01 -0.52252693014E-01  0.67473854097E-02  0.54667365333E-01  0.51100000000E-03 0. -1.
         11    1    4    4    0    0 -0.33226995088E-01 -0.63999766381E-01 -0.12340624339E-01  0.73161160663E-01  0.51100000000E-03 0.  1.
</event>
<event>
 8    1  0.1129676E+005  0.1043930E+01  0.7957747E-01            NaN
         13   -1    0    0    0    0  0.00000000000E+00  0.00000000000E+00  0.74505805969E-08  0.10566000000E+00  0.10566000000E+00 0.  1.
     999900   -1    0    0    0    0 -0.00000000000E+00 -0.00000000000E+00 -0.74505805969E-08  0.93827000000E+00  0.93827000000E+00 0. -1.
     999902    2    1    2    0    0 -0.61826734229E-02  0.23835803821E-01 -0.21135228359E-02  0.10192148635E+01  0.10189151584E+01 0.  0.
     999903    2    3    3    0    0  0.33093574485E-01 -0.12066726062E+00 -0.14150507328E-01  0.12648385792E+00  0.11922961033E-01 0.  0.
         14    1    1    2    0    0  0.61826734229E-02 -0.23835803821E-01  0.21135228359E-02  0.24715136521E-01  0.00000000000E+00 0. -1.
     999901    1    3    3    0    0 -0.39276247908E-01  0.14450306444E+00  0.12036984492E-01  0.89273100555E+00  0.88000000000E+00 0. -1.
        -11    1    4    4    0    0  0.66441275665E-02 -0.42661056981E-01 -0.77224308273E-02  0.43863507301E-01  0.51100000000E-03 0.  1.
         11    1    4    4    0    0  0.26449446919E-01 -0.78006203641E-01 -0.64280765006E-02  0.82620350624E-01  0.51100000000E-03 0. -1.
</event>
<event>
 8    1  0.1129676E+005  0.1043930E+01  0.7957747E-01            NaN
         13   -1    0    0    0    0  0.00000000000E+00  0.00000000000E+00  0.74505805969E-08  0.10566000000E+00  0.10566000000E+00 0.  1.
     999900   -1    0    0    0    0 -0.00000000000E+00 -0.00000000000E+00 -0.74505805969E-08  0.93827000000E+00  0.93827000000E+00 0.  1.
     999902    2    1    2    0    0  0.58067047512E-02 -0.12696331913E-01 -0.18876202906E-01  0.10204518037E+01  0.10201816789E+01 0.  0.
     999903    2    3    3    0    0 -0.92621704192E-02 -0.58672209238E-01  0.11308655186E+00  0.12929804542E+00  0.20029987526E-01 0.  0.
         14    1    1    2    0    0 -0.58067047512E-02  0.12696331913E-01  0.18876202906E-01  0.23478196273E-01  0.00000000000E+00 0. -1.
     999901    1    3    3    0    0  0.15068875170E-01  0.45975877325E-01 -0.13196275477E+00  0.89115375830E+00  0.88000000000E+00 0.  1.
        -11    1    4    4    0    0 -0.11545765670E-01 -0.23835541980E-01  0.61979767309E-01  0.67403193122E-01  0.51100000000E-03 0. -1.
         11    1    4    4    0    0  0.22835952504E-02 -0.34836667259E-01  0.51106784553E-01  0.61894852300E-01  0.51100000000E-03 0.  1.
</event>
<event>
 8    1  0.1129676E+005  0.1043930E+01  0.7957747E-01            NaN
         13   -1    0    0    0    0  0.00000000000E+00  0.00000000000E+00  0.74505805969E-08  0.10566000000E+00  0.10566000000E+00 0.  1.
     999900   -1    0    0    0    0 -0.00000000000E+00 -0.00000000000E+00 -0.74505805969E-08  0.93827000000E+00  0.93827000000E+00 0. -1.
     999902    2    1    2    0    0  0.20224241302E-01  0.91899145067E-02  0.77082516470E-02  0.10204163527E+01  0.10201454020E+01 0.  0.
     999903    2    3    3    0    0 -0.99695301616E-01  0.78723643299E-01 -0.14984633606E-01  0.12927629456E+00  0.18741822566E-01 0.  0.
         14    1    1    2    0    0 -0.20224241302E-01 -0.91899145067E-02 -0.77082516470E-02  0.23513647279E-01  0.00000000000E+00 0. -1.
     999901    1    3    3    0    0  0.11991954292E+00 -0.69533728792E-01  0.22692885253E-01  0.89114005816E+00  0.88000000000E+00 0. -1.
        -11    1    4    4    0    0 -0.14171449436E-01  0.38599237703E-02 -0.28196479017E-02  0.14964642525E-01  0.51100000000E-03 0. -1.
         11    1    4    4    0    0 -0.85523852180E-01  0.74863719528E-01 -0.12164985704E-01  0.11431165204E+00  0.51100000000E-03 0.  1.
</event>
<event>
 8    1  0.1129676E+005  0.1043930E+01  0.7957747E-01            NaN
         13   -1    0    0    0    0  0.00000000000E+00  0.00000000000E+00  0.74505805969E-08  0.10566000000E+00  0.10566000000E+00 0.  1.
     999900   -1    0    0    0    0 -0.00000000000E+00 -0.00000000000E+00 -0.74505805969E-08  0.93827000000E+00  0.93827000000E+00 0.  1.
     999902    2    1    2    0    0  0.13628969728E-01 -0.22145095543E-02  0.19159514220E-01  0.10203134835E+01  0.10200401290E+01 0.  0.
     999903    2    3    3    0    0  0.41064219457E-01  0.12220986518E+00  0.13897539774E-01  0.13112182452E+00  0.19449164157E-01 0.  0.
         14    1    1    2    0    0 -0.13628969728E-01  0.22145095543E-02 -0.19159514220E-01  0.23616516541E-01  0.00000000000E+00 0. -1.
     999901    1    3    3    0    0 -0.27435249729E-01 -0.12442437473E+00  0.52619744457E-02  0.88919165894E+00  0.88000000000E+00 0. -1.
        -11    1    4    4    0    0  0.40383607536E-02  0.77377963420E-02  0.58927668939E-02  0.10543608133E-01  0.51100000000E-03 0.  1.
         11    1    4    4    0    0  0.37025858703E-01  0.11447206884E+00  0.80047728804E-02  0.12057821638E+00  0.51100000000E-03 0. -1.
</event>
<event>
 8    1  0.1129676E+005  0.1043930E+01  0.7957747E-01            NaN
         13   -1    0    0    0    0  0.00000000000E+00  0.00000000000E+00  0.74505805969E-08  0.10566000000E+00  0.10566000000E+00 0. -1.
     999900   -1    0    0    0    0 -0.00000000000E+00 -0.00000000000E+00 -0.74505805969E-08  0.93827000000E+00  0.93827000000E+00 0.  1.
     999902    2    1    2    0    0  0.74306344734E-02 -0.21418482274E-01 -0.58619633767E-02  0.10205135885E+01  0.10202449000E+01 0.  0.
     999903    2    3    3    0    0  0.40643847255E-02  0.12050066910E+00 -0.39764370774E-01  0.12849242824E+00  0.19803243556E-01 0.  0.
         14    1    1    2    0    0 -0.74306344734E-02  0.21418482274E-01  0.58619633767E-02  0.23416411472E-01  0.00000000000E+00 0. -1.
     999901    1    3    3    0    0  0.33662497479E-02 -0.14191915138E+00  0.33902407397E-01  0.89202116028E+00  0.88000000000E+00 0.  1.
        -11    1    4    4    0    0 -0.54569698695E-02  0.21325087337E-01 -0.26752674514E-02  0.22180082214E-01  0.51100000000E-03 0.  1.
         11    1    4    4    0    0  0.95213545950E-02  0.99175581768E-01 -0.37089103323E-01  0.10631234603E+00  0.51100000000E-03 0. -1.
</event>
<event>
 8    1  0.1129676E+005  0.1043930E+01  0.7957747E-01            NaN
         13   -1    0    0    0    0  0.00000000000E+00  0.00000000000E+00  0.74505805969E-08  0.10566000000E+00  0.10566000000E+00 0.  1.
     999900   -1    0    0    0    0 -0.00000000000E+00 -0.00000000000E+00 -0.74505805969E-08  0.93827000000E+00  0.93827000000E+00 0.  1.
     999902    2    1    2    0    0 -0.10735916081E-01  0.17967498038E-01  0.10273385202E-01  0.10206140543E+01  0.10203476930E+01 0.  0.
     999903    2    3    3    0    0 -0.62740932119E-01 -0.10937024589E+00  0.29983966230E-01  0.12971118097E+00  0.52608923995E-02 0.  0.
         14    1    1    2    0    0  0.10735916081E-01 -0.17967498038E-01 -0.10273385202E-01  0.23315945689E-01  0.00000000000E+00 0. -1.
     999901    1    3    3    0    0  0.52005016038E-01  0.12733774393E+00 -0.19710581028E-01  0.89090287334E+00  0.88000000000E+00 0.  1.
        -11    1    4    4    0    0 -0.12177964916E-01 -0.21456278609E-01  0.79604074851E-02  0.25928824300E-01  0.51100000000E-03 0. -1.
         11    1    4    4    0    0 -0.50562967203E-01 -0.87913967281E-01  0.22023558745E-01  0.10378235667E+00  0.51100000000E-03 0.  1.
</event>
<event>
 8    1  0.1129676E+005  0.1043930E+01  0.7957747E-01            NaN
         13   -1    0    0    0    0  0.00000000000E+00  0.00000000000E+00  0.74505805969E-08  0.10566000000E+00  0.10566000000E+00 0.  1.
     999900   -1    0    0    0    0 -0.00000000000E+00 -0.00000000000E+00 -0.74505805969E-08  0.93827000000E+00  0.93827000000E+00 0. -1.
     999902    2    1    2    0    0 -0.74225239271E-02  0.74857099494E-02  0.19047659459E-01  0.10221597670E+01  0.10219279066E+01 0.  0.
     999903    2    3    3    0    0 -0.12394572550E+00 -0.27876553161E-01 -0.31167396860E-01  0.13235658760E+00  0.20179558193E-01 0.  0.
         14    1    1    2    0    0  0.74225239271E-02 -0.74857099494E-02 -0.19047659459E-01  0.21770233020E-01  0.00000000000E+00 0. -1.
     999901    1    3    3    0    0  0.11652320157E+00  0.35362263111E-01  0.50215056319E-01  0.88980317938E+00  0.88000000000E+00 0. -1.
        -11    1    4    4    0    0 -0.96359639263E-01 -0.13105916969E-01 -0.21435148545E-01  0.99582487680E-01  0.51100000000E-03 0.  1.
         11    1    4    4    0    0 -0.27586086233E-01 -0.14770636192E-01 -0.97322483151E-02  0.32774099918E-01  0.51100000000E-03 0. -1.
</event>
<event>
 8    1  0.1129676E+005  0.1043930E+01  0.7957747E-01            NaN
         13   -1    0    0    0    0  0.00000000000E+00  0.00000000000E+00  0.74505805969E-08  0.10566000000E+00  0.10566000000E+00 0.  1.
     999900   -1    0    0    0    0 -0.00000000000E+00 -0.00000000000E+00 -0.74505805969E-08  0.93827000000E+00  0.93827000000E+00 0.  1.
     999902    2    1    2    0    0 -0.69436827367E-02  0.29546877596E-02 -0.14467637127E-01  0.10276126033E+01  0.10274830437E+01 0.  0.
     999903    2    3    3    0    0 -0.30648151096E-01 -0.58659049027E-01 -0.12054642414E+00  0.13878705047E+00  0.18713946886E-01 0.  0.
         14    1    1    2    0    0  0.69436827367E-02 -0.29546877596E-02  0.14467637127E-01  0.16317396660E-01  0.00000000000E+00 0.  1.
     999901    1    3    3    0    0  0.23704468360E-01  0.61613736787E-01  0.10607878701E+00  0.88882555287E+00  0.88000000000E+00 0. -1.
        -11    1    4    4    0    0 -0.18246072059E-01 -0.48803786532E-01 -0.10076178424E+00  0.11343688558E+00  0.51100000000E-03 0. -1.
         11    1    4    4    0    0 -0.12402079037E-01 -0.98552624951E-02 -0.19784639899E-01  0.25350164895E-01  0.51100000000E-03 0.  1.
</event>
<event>
 8    1  0.1129676E+005  0.1043930E+01  0.7957747E-01            NaN
         13   -1    0    0    0    0  0.00000000000E+00  0.00000000000E+00  0.74505805969E-08  0.10566000000E+00  0.10566000000E+00 0. -1.
     999900   -1    0    0    0    0 -0.00000000000E+00 -0.00000000000E+00 -0.74505805969E-08  0.93827000000E+00  0.93827000000E+00 0.  1.
     999902    2    1    2    0    0 -0.13281953392E-01  0.54929658541E-03 -0.18405988935E-01  0.10212255414E+01  0.10209731211E+01 0.  0.
     999903    2    3    3    0    0 -0.10903164416E+00  0.70521328318E-01  0.17607133577E-01  0.13254053897E+00  0.19895379924E-01 0.  0.
         14    1    1    2    0    0  0.13281953392E-01 -0.54929658541E-03  0.18405988935E-01  0.22704458622E-01  0.00000000000E+00 0. -1.
     999901    1    3    3    0    0  0.95749690768E-01 -0.69972031732E-01 -0.36013122511E-01  0.88868500241E+00  0.88000000000E+00 0. -1.
        -11    1    4    4    0    0 -0.53416050433E-01  0.31746650287E-01 -0.13001066333E-02  0.62153645481E-01  0.51100000000E-03 0. -1.
         11    1    4    4    0    0 -0.55615593727E-01  0.38774678031E-01  0.18907240210E-01  0.70386893491E-01  0.51100000000E-03 0.  1.
</event>
<event>
 8    1  0.1129676E+005  0.1043930E+01  0.7957747E-01            NaN
         13   -1    0    0    0    0  0.00000000000E+00  0.00000000000E+00  0.74505805969E-08  0.10566000000E+00  0.10566000000E+00 0.  1.
     999900   -1    0    0    0    0 -0.00000000000E+00 -0.00000000000E+00 -0.74505805969E-08  0.93827000000E+00  0.93827000000E+00 0. -1.
     999902    2    1    2    0    0  0.22365106481E-01 -0.35282678568E-02  0.81177689232E-02  0.10198770410E+01  0.10195933670E+01 0.  0.
     999903    2    3    3    0    0  0.31491199230E-01 -0.11662378327E+00 -0.46275514747E-01  0.13092681157E+00  0.20189211730E-01 0.  0.
         14    1    1    2    0    0 -0.22365106481E-01  0.35282678568E-02 -0.81177689232E-02  0.24052958950E-01  0.00000000000E+00 0.  1.
     999901    1    3    3    0    0 -0.91260927485E-02  0.11309551542E+00  0.54393283670E-01  0.88895022948E+00  0.88000000000E+00 0.  1.
        -11    1    4    4    0    0  0.15978312683E-01 -0.63347734322E-01 -0.14292995104E-01  0.66878941005E-01  0.51100000000E-03 0. -1.
         11    1    4    4    0    0  0.15512886547E-01 -0.53276048950E-01 -0.31982519643E-01  0.64047870569E-01  0.51100000000E-03 0.  1.
</event>
<event>
 8    1  0.1129676E+005  0.1043930E+01  0.7957747E-01            NaN
         13   -1    0    0    0    0  0.00000000000E+00  0.00000000000E+00  0.74505805969E-08  0.10566000000E+00  0.10566000000E+00 0.  1.
     999900   -1    0    0    0    0 -0.00000000000E+00 -0.00000000000E+00 -0.74505805969E-08  0.93827000000E+00  0.93827000000E+00 0. -1.
     999902    2    1    2    0    0  0.30512883162E-02 -0.17027234595E-01  0.16729829502E-01  0.10198649990E+01  0.10195810374E+01 0.  0.
     999903    2    3    3    0    0  0.57515545718E-01  0.38951995760E-01  0.10988697729E+00  0.13150792903E+00  0.19846703690E-01 0.  0.
         14    1    1    2    0    0 -0.30512883162E-02  0.17027234595E-01 -0.16729829502E-01  0.24065001008E-01  0.00000000000E+00 0. -1.
     999901    1    3    3    0    0 -0.54464257402E-01 -0.55979230355E-01 -0.93157147788E-01  0.88835706996E+00  0.88000000000E+00 0. -1.
        -11    1    4    4    0    0  0.92355744480E-02  0.16406971060E-01  0.32148106057E-01  0.37259178450E-01  0.51100000000E-03 0.  1.
         11    1    4    4    0    0  0.48279971270E-01  0.22545024700E-01  0.77738871233E-01  0.94248750581E-01  0.51100000000E-03 0. -1.
</event>
<event>
 8    1  0.1129676E+005  0.1043930E+01  0.7957747E-01            NaN
         13   -1    0    0    0    0  0.00000000000E+00  0.00000000000E+00  0.74505805969E-08  0.10566000000E+00  0.10566000000E+00 0.  1.
     999900   -1    0    0    0    0 -0.00000000000E+00 -0.00000000000E+00 -0.74505805969E-08  0.93827000000E+00  0.93827000000E+00 0.  1.
     999902    2    1    2    0    0 -0.91745046046E-02  0.18934427293E-01 -0.60212733909E-02  0.10220453066E+01  0.10218109752E+01 0.  0.
     999903    2    3    3    0    0 -0.11702837542E+00 -0.34823969499E-01 -0.48362781940E-01  0.13282360983E+00  0.19869653895E-01 0.  0.
         14    1    1    2    0    0  0.91745046046E-02 -0.18934427293E-01  0.60212733909E-02  0.21884693393E-01  0.00000000000E+00 0.  1.
     999901    1    3    3    0    0  0.10785387082E+00  0.53758396792E-01  0.42341508549E-01  0.88922169678E+00  0.88000000000E+00 0.  1.
        -11    1    4    4    0    0 -0.36083168977E-01 -0.13127480142E-01 -0.58179949354E-02  0.38838589114E-01  0.51100000000E-03 0. -1.
         11    1    4    4    0    0 -0.80945206442E-01 -0.21696489358E-01 -0.42544787004E-01  0.93985020714E-01  0.51100000000E-03 0.  1.
</event>
<event>
 8    1  0.1129676E+005  0.1043930E+01  0.7957747E-01            NaN
         13   -1    0    0    0    0  0.00000000000E+00  0.00000000000E+00  0.74505805969E-08  0.10566000000E+00  0.10566000000E+00 0. -1.
     999900   -1    0    0    0    0 -0.00000000000E+00 -0.00000000000E+00 -0.74505805969E-08  0.93827000000E+00  0.93827000000E+00 0.  1.
     999902    2    1    2    0    0  0.35251014383E-02 -0.83305073059E-03 -0.29862809745E-01  0.10138483159E+01  0.10134019439E+01 0.  0.
     999903    2    3    3    0    0 -0.75617362089E-01  0.72503415551E-01 -0.68067633433E-01  0.12643557348E+00  0.19442757112E-01 0.  0.
         14    1    1    2    0    0 -0.35251014383E-02  0.83305073059E-03  0.29862809745E-01  0.30081684121E-01  0.00000000000E+00 0. -1.
     999901    1    3    3    0    0  0.79142463527E-01 -0.73336466282E-01  0.38204823688E-01  0.88741274240E+00  0.88000000000E+00 0.  1.
        -11    1    4    4    0    0 -0.21241966218E-01  0.31659376106E-01 -0.19195952712E-01  0.42688206167E-01  0.51100000000E-03 0. -1.
         11    1    4    4    0    0 -0.54375395871E-01  0.40844039445E-01 -0.48871680721E-01  0.83747367313E-01  0.51100000000E-03 0.  1.
</event>
<event>
 8    1  0.1129676E+005  0.1043930E+01  0.7957747E-01            NaN
         13   -1    0    0    0    0  0.00000000000E+00  0.00000000000E+00  0.74505805969E-08  0.10566000000E+00  0.10566000000E+00 0.  1.
     999900   -1    0    0    0    0 -0.00000000000E+00 -0.00000000000E+00 -0.74505805969E-08  0.93827000000E+00  0.93827000000E+00 0. -1.
     999902    2    1    2    0    0 -0.15989648004E-01 -0.70514683455E-02 -0.34038789322E-02  0.10261261116E+01  0.10259716461E+01 0.  0.
     999903    2    3    3    0    0 -0.73833220406E-01  0.79680453074E-01  0.79459808403E-01  0.13610661986E+00  0.20268985682E-01 0.  0.
         14    1    1    2    0    0  0.15989648004E-01  0.70514683455E-02  0.34038789322E-02  0.17803888365E-01  0.00000000000E+00 0.  1.
     999901    1    3    3    0    0  0.57843572402E-01 -0.86731921420E-01 -0.82863687335E-01  0.89001949178E+00  0.88000000000E+00 0.  1.
        -11    1    4    4    0    0 -0.17572064478E-01  0.25865919572E-01  0.32890156734E-01  0.45385534879E-01  0.51100000000E-03 0. -1.
         11    1    4    4    0    0 -0.56261155928E-01  0.53814533503E-01  0.46569651669E-01  0.90721084981E-01  0.51100000000E-03 0.  1.
</event>
<event>
 8    1  0.1129676E+005  0.1043930E+01  0.7957747E-01            NaN
         13   -1    0    0    0    0  0.00000000000E+00  0.00000000000E+00  0.74505805969E-08  0.10566000000E+00  0.10566000000E+00 0.  1.
     999900   -1    0    0    0    0 -0.00000000000E+00 -0.00000000000E+00 -0.74505805969E-08  0.93827000000E+00  0.93827000000E+00 0. -1.
     999902    2    1    2    0    0 -0.26209754167E-01  0.22652019685E-02 -0.48649853458E-02  0.10171764874E+01  0.10168245946E+01 0.  0.
     999903    2    3    3    0    0 -0.12144800963E+00  0.43929114368E-01 -0.96257357327E-02  0.13104507975E+00  0.20019290855E-01 0.  0.
         14    1    1    2    0    0  0.26209754167E-01 -0.22652019685E-02  0.48649853458E-02  0.26753512590E-01  0.00000000000E+00 0.  1.
     999901    1    3    3    0    0  0.95238255460E-01 -0.41663912399E-01  0.47607503868E-02  0.88613140766E+00  0.88000000000E+00 0.  1.
        -11    1    4    4    0    0 -0.22498958994E-01  0.98791752195E-02  0.58437523820E-02  0.25262854584E-01  0.51100000000E-03 0. -1.
         11    1    4    4    0    0 -0.98949050634E-01  0.34049939148E-01 -0.15469488115E-01  0.10578222516E+00  0.51100000000E-03 0.  1.
</event>
<event>
 8    1  0.1129676E+005  0.1043930E+01  0.7957747E-01            NaN
         13   -1    0    0    0    0  0.00000000000E+00  0.00000000000E+00  0.74505805969E-08  0.10566000000E+00  0.10566000000E+00 0. -1.
     999900   -1    0    0    0    0 -0.00000000000E+00 -0.00000000000E+00 -0.74505805969E-08  0.93827000000E+00  0.93827000000E+00 0. -1.
     999902    2    1    2    0    0  0.26470924902E-02  0.19306442205E-02  0.35780190802E-01  0.10080001163E+01  0.10073595575E+01 0.  0.
     999903    2    3    3    0    0 -0.99809455536E-01 -0.18845924952E-01  0.63490626598E-01  0.12137907085E+00  0.19614353750E-01 0.  0.
         14    1    1    2    0    0 -0.26470924902E-02 -0.19306442205E-02 -0.35780190802E-01  0.35929883657E-01  0.00000000000E+00 0.  1.
     999901    1    3    3    0    0  0.10245654803E+00  0.20776569173E-01 -0.27710435796E-01  0.88662104549E+00  0.88000000000E+00 0. -1.
        -11    1    4    4    0    0 -0.71424514794E-01 -0.43744622889E-02  0.42710099240E-01  0.83336732189E-01  0.51100000000E-03 0.  1.
         11    1    4    4    0    0 -0.28384940742E-01 -0.14471462663E-01  0.20780527358E-01  0.38042338661E-01  0.51100000000E-03 0. -1.
</event>
<event>
 8    1  0.1129676E+005  0.1043930E+01  0.7957747E-01            NaN
         13   -1    0    0    0    0  0.00000000000E+00  0.00000000000E+00  0.74505805969E-08  0.10566000000E+00  0.10566000000E+00 0.  1.
     999900   -1    0    0    0    0 -0.00000000000E+00 -0.00000000000E+00 -0.74505805969E-08  0.93827000000E+00  0.93827000000E+00 0.  1.
     999902    2    1    2    0    0 -0.73332334958E-02  0.21548304155E-01 -0.75481796328E-02  0.10199491589E+01  0.10196672035E+01 0.  0.
     999903    2    3    3    0    0 -0.32980397713E-01 -0.10886232615E+00 -0.55920909470E-01  0.12865536302E+00  0.22053154652E-01 0.  0.
         14    1    1    2    0    0  0.73332334958E-02 -0.21548304155E-01  0.75481796328E-02  0.23980841128E-01  0.00000000000E+00 0. -1.
     999901    1    3    3    0    0  0.25647164217E-01  0.13041063031E+00  0.48372729837E-01  0.89129379585E+00  0.88000000000E+00 0.  1.
        -11    1    4    4    0    0 -0.65874819210E-02 -0.56310940331E-01 -0.32520777732E-01  0.65361908053E-01  0.51100000000E-03 0. -1.
         11    1    4    4    0    0 -0.26392915792E-01 -0.52551385820E-01 -0.23400131738E-01  0.63293454969E-01  0.51100000000E-03 0.  1.
</event>
<event>
 8    1  0.1129676E+005  0.1043930E+01  0.7957747E-01            NaN
         13   -1    0    0    0    0  0.00000000000E+00  0.00000000000E+00  0.74505805969E-08  0.10566000000E+00  0.10566000000E+00 0. -1.
     999900   -1    0    0    0    0 -0.00000000000E+00 -0.00000000000E+00 -0.74505805969E-08  0.93827000000E+00  0.93827000000E+00 0. -1.
     999902    2    1    2    0    0 -0.11069763759E-01  0.12726472192E-01  0.11997203508E-01  0.10232313127E+01  0.10230219370E+01 0.  0.
     999903    2    3    3    0    0 -0.13766332423E-01  0.12877033219E+00  0.33786406025E-01  0.13534155700E+00  0.20112321046E-01 0.  0.
         14    1    1    2    0    0  0.11069763759E-01 -0.12726472192E-01 -0.11997203508E-01  0.20698687304E-01  0.00000000000E+00 0.  1.
     999901    1    3    3    0    0  0.26965686639E-02 -0.11604386000E+00 -0.21789202517E-01  0.88788975570E+00  0.88000000000E+00 0. -1.
        -11    1    4    4    0    0 -0.62939868488E-02  0.95345957838E-01  0.16483685930E-01  0.96966174357E-01  0.51100000000E-03 0.  1.
         11    1    4    4    0    0 -0.74723455738E-02  0.33424374352E-01  0.17302720095E-01  0.38375382642E-01  0.51100000000E-03 0. -1.
</event>
<event>
 7    1  0.1624407E+005  0.1043930E+01  0.7957747E-01            NaN
         13   -1    0    0    0    0  0.00000000000E+00  0.00000000000E+00  0.74505805969E-08  0.10566000000E+00  0.10566000000E+00 0.  1.
     999900   -1    0    0    0    0 -0.00000000000E+00 -0.00000000000E+00 -0.74505805969E-08  0.93827000000E+00  0.93827000000E+00 0. -1.
     999903    2    1    2    0    0  0.44709912676E-02  0.46698265550E-01  0.98657654307E-01  0.11103662774E+00  0.19876674241E-01 0.  0.
         14    1    1    2    0    0 -0.39270857167E-01  0.72160142829E-02 -0.25833334877E-01  0.47556621785E-01  0.00000000000E+00 0. -1.
     999901    1    1    2    0    0  0.34799865899E-01 -0.53914279833E-01 -0.72824319430E-01  0.88533675047E+00  0.88000000000E+00 0.  1.
        -11    1    3    3    0    0  0.11679523371E-01  0.21180432419E-01  0.52404950023E-01  0.57719683744E-01  0.51100000000E-03 0.  1.
         11    1    3    3    0    0 -0.72085321029E-02  0.25517833131E-01  0.46252704284E-01  0.53316943999E-01  0.51100000000E-03 0. -1.
</event>
<event>
 8    1  0.1129676E+005  0.1043930E+01  0.7957747E-01            NaN
         13   -1    0    0    0    0  0.00000000000E+00  0.00000000000E+00  0.74505805969E-08  0.10566000000E+00  0.10566000000E+00 0.  1.
     999900   -1    0    0    0    0 -0.00000000000E+00 -0.00000000000E+00 -0.74505805969E-08  0.93827000000E+00  0.93827000000E+00 0. -1.
     999902    2    1    2    0    0  0.31689392379E-02  0.20619575748E-01 -0.10996617981E-01  0.10203474919E+01  0.10200749333E+01 0.  0.
     999903    2    3    3    0    0  0.30439562916E-01 -0.54847675651E-01 -0.11358542952E+00  0.13076137625E+00  0.16188057505E-01 0.  0.
         14    1    1    2    0    0 -0.31689392379E-02 -0.20619575748E-01  0.10996617981E-01  0.23582508072E-01  0.00000000000E+00 0.  1.
     999901    1    3    3    0    0 -0.27270623678E-01  0.75467251399E-01  0.10258881154E+00  0.88958611568E+00  0.88000000000E+00 0.  1.
        -11    1    4    4    0    0  0.20129839505E-01 -0.22356860589E-01 -0.62206734269E-01  0.69101219695E-01  0.51100000000E-03 0.  1.
         11    1    4    4    0    0  0.10309723411E-01 -0.32490815062E-01 -0.51378695250E-01  0.61660156559E-01  0.51100000000E-03 0. -1.
</event>
<event>
 8    1  0.1129676E+005  0.1043930E+01  0.7957747E-01            NaN
         13   -1    0    0    0    0  0.00000000000E+00  0.00000000000E+00  0.74505805969E-08  0.10566000000E+00  0.10566000000E+00 0.  1.
     999900   -1    0    0    0    0 -0.00000000000E+00 -0.00000000000E+00 -0.74505805969E-08  0.93827000000E+00  0.93827000000E+00 0. -1.
     999902    2    1    2    0    0 -0.22082033528E-01 -0.19382234949E-02 -0.14431503369E-01  0.10174792684E+01  0.10171353992E+01 0.  0.
     999903    2    3    3    0    0  0.10191789455E+00 -0.55821471503E-01  0.42505450251E-01  0.12533510777E+00  0.19972031158E-01 0.  0.
         14    1    1    2    0    0  0.22082033528E-01  0.19382234949E-02  0.14431503369E-01  0.26450731645E-01  0.00000000000E+00 0.  1.
     999901    1    3    3    0    0 -0.12399992808E+00  0.53883248008E-01 -0.56936953620E-01  0.89214416059E+00  0.88000000000E+00 0. -1.
        -11    1    4    4    0    0  0.21262914469E-01 -0.31708518963E-02  0.95960377384E-02  0.23548055010E-01  0.51100000000E-03 0. -1.
         11    1    4    4    0    0  0.80654980080E-01 -0.52650619607E-01  0.32909412512E-01  0.10178705276E+00  0.51100000000E-03 0.  1.
</event>
<event>
 8    1  0.1129676E+005  0.1043930E+01  0.7957747E-01            NaN
         13   -1    0    0    0    0  0.00000000000E+00  0.00000000000E+00  0.74505805969E-08  0.10566000000E+00  0.10566000000E+00 0. -1.
     999900   -1    0    0    0    0 -0.00000000000E+00 -0.00000000000E+00 -0.74505805969E-08  0.93827000000E+00  0.93827000000E+00 0.  1.
     999902    2    1    2    0    0  0.22312447677E-01 -0.38699740623E-02 -0.69822819253E-02  0.10202324414E+01  0.10199571855E+01 0.  0.
     999903    2    3    3    0    0  0.92834006240E-01  0.30818633685E-01  0.86446085444E-01  0.13180380078E+00  0.18203717035E-01 0.  0.
         14    1    1    2    0    0 -0.22312447677E-01  0.38699740623E-02  0.69822819253E-02  0.23697558555E-01  0.00000000000E+00 0. -1.
     999901    1    3    3    0    0 -0.70521558563E-01 -0.34688607747E-01 -0.93428367369E-01  0.88842864067E+00  0.88000000000E+00 0.  1.
        -11    1    4    4    0    0  0.18439079340E-01  0.12729932566E-02  0.23899236683E-01  0.30216796550E-01  0.51100000000E-03 0.  1.
         11    1    4    4    0    0  0.74394926901E-01  0.29545640428E-01  0.62546848761E-01  0.10158700423E+00  0.51100000000E-03 0. -1.
</event>
<event>
 8    1  0.1129676E+005  0.1043930E+01  0.7957747E-01            NaN
         13   -1    0    0    0    0  0.00000000000E+00  0.00000000000E+00  0.74505805969E-08  0.10566000000E+00  0.10566000000E+00 0. -1.
     999900   -1    0    0    0    0 -0.00000000000E+00 -0.00000000000E+00 -0.74505805969E-08  0.93827000000E+00  0.93827000000E+00 0. -1.
     999902    2    1    2    0    0 -0.22341843752E-01  0.64841709242E-02  0.10211772470E-02  0.10206438398E+01  0.10203781664E+01 0.  0.
     999903    2    3    3    0    0  0.57909741566E-03  0.59142788855E-01  0.11547837967E+00  0.13137517915E+00  0.20639202982E-01 0.  0.
         14    1    1    2    0    0  0.22341843752E-01 -0.64841709242E-02 -0.10211772470E-02  0.23286160220E-01  0.00000000000E+00 0. -1.
     999901    1    3    3    0    0 -0.22920941168E-01 -0.52658617931E-01 -0.11445720242E+00  0.88926866063E+00  0.88000000000E+00 0. -1.
        -11    1    4    4    0    0 -0.32536045712E-02  0.26387368460E-01  0.31937059876E-01  0.41558586014E-01  0.51100000000E-03 0.  1.
         11    1    4    4    0    0  0.38327019869E-02  0.32755420395E-01  0.83541319791E-01  0.89816593139E-01  0.51100000000E-03 0. -1.
</event>
<event>
 8    1  0.1129676E+005  0.1043930E+01  0.7957747E-01            NaN
         13   -1    0    0    0    0  0.00000000000E+00  0.00000000000E+00  0.74505805969E-08  0.10566000000E+00  0.10566000000E+00 0.  1.
     999900   -1    0    0    0    0 -0.00000000000E+00 -0.00000000000E+00 -0.74505805969E-08  0.93827000000E+00  0.93827000000E+00 0.  1.
     999902    2    1    2    0    0  0.58029422368E-02 -0.21656975821E-01  0.64771216217E-02  0.10205922228E+01  0.10203253566E+01 0.  0.
     999903    2    3    3    0    0 -0.68839274597E-02 -0.13064511254E+00 -0.16073642539E-01  0.13349137871E+00  0.21119950726E-01 0.  0.
         14    1    1    2    0    0 -0.58029422368E-02  0.21656975821E-01 -0.64771216217E-02  0.23337777204E-01  0.00000000000E+00 0. -1.
     999901    1    3    3    0    0  0.12686869697E-01  0.10898813672E+00  0.22550764160E-01  0.88710084408E+00  0.88000000000E+00 0. -1.
        -11    1    4    4    0    0 -0.13049661622E-01 -0.52276258401E-01 -0.78005728639E-02  0.54444567396E-01  0.51100000000E-03 0.  1.
         11    1    4    4    0    0  0.61657341626E-02 -0.78368854138E-01 -0.82730696748E-02  0.79046811317E-01  0.51100000000E-03 0. -1.
</event>
<event>
 8    1  0.1129676E+005  0.1043930E+01  0.7957747E-01            NaN
         13   -1    0    0    0    0  0.00000000000E+00  0.00000000000E+00  0.74505805969E-08  0.10566000000E+00  0.10566000000E+00 0.  1.
     999900   -1    0    0    0    0 -0.00000000000E+00 -0.00000000000E+00 -0.74505805969E-08  0.93827000000E+00  0.93827000000E+00 0.  1.
     999902    2    1    2    0    0  0.16259961995E-01  0.14530016944E-01 -0.91600707776E-02  0.10202780518E+01  0.10200038668E+01 0.  0.
     999903    2    3    3    0    0 -0.66653281671E-01  0.11115562818E+00 -0.19374125529E-02  0.13108556336E+00  0.19530430620E-01 0.  0.
         14    1    1    2    0    0 -0.16259961995E-01 -0.14530016944E-01  0.91600707776E-02  0.23651948189E-01  0.00000000000E+00 0. -1.
     999901    1    3    3    0    0  0.82913243666E-01 -0.96625611240E-01 -0.72226582247E-02  0.88919248845E+00  0.88000000000E+00 0.  1.
        -11    1    4    4    0    0 -0.17074487451E-01  0.33451876536E-01  0.79145400883E-02  0.38385768604E-01  0.51100000000E-03 0. -1.
         11    1    4    4    0    0 -0.49578794220E-01  0.77703751647E-01 -0.98519526412E-02  0.92699794758E-01  0.51100000000E-03 0.  1.
</event>
<event>
 8    1  0.1129676E+005  0.1043930E+01  0.7957747E-01            NaN
         13   -1    0    0    0    0  0.00000000000E+00  0.00000000000E+00  0.74505805969E-08  0.10566000000E+00  0.10566000000E+00 0.  1.
     999900   -1    0    0    0    0 -0.00000000000E+00 -0.00000000000E+00 -0.74505805969E-08  0.93827000000E+00  0.93827000000E+00 0. -1.
     999902    2    1    2    0    0 -0.95108758583E-02 -0.19509360696E-01  0.39006467463E-02  0.10218780849E+01  0.10216401193E+01 0.  0.
     999903    2    3    3    0    0 -0.81993211091E-01  0.98844926172E-01 -0.16624465135E-01  0.13076490110E+00  0.18162610561E-01 0.  0.
         14    1    1    2    0    0  0.95108758583E-02  0.19509360696E-01 -0.39006467463E-02  0.22051915096E-01  0.00000000000E+00 0. -1.
     999901    1    3    3    0    0  0.72482335233E-01 -0.11835428687E+00  0.20525111881E-01  0.89111318381E+00  0.88000000000E+00 0.  1.
        -11    1    4    4    0    0 -0.48773948665E-01  0.66977910108E-01 -0.36546984638E-02  0.82937063203E-01  0.51100000000E-03 0.  1.
         11    1    4    4    0    0 -0.33219262427E-01  0.31867016063E-01 -0.12969766671E-01  0.47827837892E-01  0.51100000000E-03 0. -1.
</event>
<event>
 8    1  0.1340616E+005  0.1043930E+01  0.7957747E-01            NaN
         13   -1    0    0    0    0  0.00000000000E+00  0.00000000000E+00  0.74505805969E-08  0.10566000000E+00  0.10566000000E+00 0.  1.
     999900   -1    0    0    0    0 -0.00000000000E+00 -0.00000000000E+00 -0.74505805969E-08  0.93827000000E+00  0.93827000000E+00 0. -1.
     999902    2    1    2    0    0 -0.21838597237E-01  0.88925887878E-02  0.14195162473E-02  0.10203076062E+01  0.10200341140E+01 0.  0.
     999903    2    3    3    0    0  0.50359712786E-01 -0.11629097910E+00  0.78723036024E-02  0.12849755906E+00  0.19747329635E-01 0.  0.
         14    1    1    2    0    0  0.21838597237E-01 -0.88925887878E-02 -0.14195162473E-02  0.23622393846E-01  0.00000000000E+00 0. -1.
     999901    1    3    3    0    0 -0.72198310023E-01  0.12518356789E+00 -0.64527873551E-02  0.89181004710E+00  0.88000000000E+00 0. -1.
        -11    1    4    4    0    0  0.33645158624E-01 -0.78573950698E-01  0.14542013946E-01  0.86704058254E-01  0.51100000000E-03 0. -1.
         11    1    4    4    0    0  0.16714554161E-01 -0.37717028402E-01 -0.66697103435E-02  0.41793500803E-01  0.51100000000E-03 0.  1.
</event>
<event>
 8    1  0.1129676E+005  0.1043930E+01  0.7957747E-01            NaN
         13   -1    0    0    0    0  0.00000000000E+00  0.00000000000E+00  0.74505805969E-08  0.10566000000E+00  0.10566000000E+00 0. -1.
     999900   -1    0    0    0    0 -0.00000000000E+00 -0.00000000000E+00 -0.74505805969E-08  0.93827000000E+00  0.93827000000E+00 0. -1.
     999902    2    1    2    0    0  0.15383767027E-01  0.93456638814E-02 -0.14812542314E-01  0.10206187767E+01  0.10203525245E+01 0.  0.
     999903    2    3    3    0    0  0.10162258747E+00 -0.36784640056E-01 -0.75091879571E-01  0.13315117866E+00  0.20253048470E-01 0.  0.
         14    1    1    2    0    0 -0.15383767027E-01 -0.93456638814E-02  0.14812542314E-01  0.23311223287E-01  0.00000000000E+00 0. -1.
     999901    1    3    3    0    0 -0.86238820446E-01  0.46130303938E-01  0.60279337257E-01  0.88746759805E+00  0.88000000000E+00 0.  1.
        -11    1    4    4    0    0  0.66458761098E-01 -0.19580015262E-01 -0.37080082860E-01  0.78583316233E-01  0.51100000000E-03 0. -1.
         11    1    4    4    0    0  0.35163826375E-01 -0.17204624795E-01 -0.38011796711E-01  0.54567862427E-01  0.51100000000E-03 0.  1.
</event>
<event>
 8    1  0.1129676E+005  0.1043930E+01  0.7957747E-01            NaN
         13   -1    0    0    0    0  0.00000000000E+00  0.00000000000E+00  0.74505805969E-08  0.10566000000E+00  0.10566000000E+00 0. -1.
     999900   -1    0    0    0    0 -0.00000000000E+00 -0.00000000000E+00 -0.74505805969E-08  0.93827000000E+00  0.93827000000E+00 0. -1.
     999902    2    1    2    0    0 -0.17428719251E-02  0.16023833913E-01 -0.18626247230E-01  0.10192979489E+01  0.10190002800E+01 0.  0.
     999903    2    3    3    0    0 -0.76301118088E-01  0.68408280908E-01  0.76758684200E-01  0.12946574701E+00  0.19181515363E-01 0.  0.
         14    1    1    2    0    0  0.17428719251E-02 -0.16023833913E-01  0.18626247230E-01  0.24632051107E-01  0.00000000000E+00 0. -1.
     999901    1    3    3    0    0  0.74558246162E-01 -0.52384446994E-01 -0.95384931430E-01  0.88983220188E+00  0.88000000000E+00 0. -1.
        -11    1    4    4    0    0 -0.61760751896E-01  0.58787439537E-01  0.71412838560E-01  0.11122233658E+00  0.51100000000E-03 0.  1.
         11    1    4    4    0    0 -0.14540366192E-01  0.96208413705E-02  0.53458456404E-02  0.18243410434E-01  0.51100000000E-03 0. -1.
</event>
<event>
 8    1  0.1129676E+005  0.1043930E+01  0.7957747E-01            NaN
         13   -1    0    0    0    0  0.00000000000E+00  0.00000000000E+00  0.74505805969E-08  0.10566000000E+00  0.10566000000E+00 0. -1.
     999900   -1    0    0    0    0 -0.00000000000E+00 -0.00000000000E+00 -0.74505805969E-08  0.93827000000E+00  0.93827000000E+00 0.  1.
     999902    2    1    2    0    0  0.32372912696E-02 -0.20661639570E-01 -0.74802224113E-02  0.10217188062E+01  0.10214773525E+01 0.  0.
     999903    2    3    3    0    0 -0.81564192014E-01  0.95473845591E-01  0.22675713120E-01  0.12953714140E+00  0.22309424614E-01 0.  0.
         14    1    1    2    0    0 -0.32372912696E-02  0.20661639570E-01  0.74802224113E-02  0.22211193840E-01  0.00000000000E+00 0.  1.
     999901    1    3    3    0    0  0.84801483284E-01 -0.11613548516E+00 -0.30155935531E-01  0.89218166476E+00  0.88000000000E+00 0. -1.
        -11    1    4    4    0    0 -0.18429053446E-01  0.27490503216E-01  0.15299184338E-01  0.36464831556E-01  0.51100000000E-03 0. -1.
         11    1    4    4    0    0 -0.63135138568E-01  0.67983342374E-01  0.73765287814E-02  0.93072309847E-01  0.51100000000E-03 0.  1.
</event>
<event>
 8    1  0.1129676E+005  0.1043930E+01  0.7957747E-01            NaN
         13   -1    0    0    0    0  0.00000000000E+00  0.00000000000E+00  0.74505805969E-08  0.10566000000E+00  0.10566000000E+00 0. -1.
     999900   -1    0    0    0    0 -0.00000000000E+00 -0.00000000000E+00 -0.74505805969E-08  0.93827000000E+00  0.93827000000E+00 0. -1.
     999902    2    1    2    0    0 -0.93362499225E-02 -0.16535131365E-01 -0.11232818543E-01  0.10218675354E+01  0.10216293396E+01 0.  0.
     999903    2    3    3    0    0 -0.10215827533E+00 -0.12027522248E-01 -0.83522458377E-01  0.13402631144E+00  0.20151342229E-01 0.  0.
         14    1    1    2    0    0  0.93362499225E-02  0.16535131365E-01  0.11232818543E-01  0.22062464602E-01  0.00000000000E+00 0. -1.
     999901    1    3    3    0    0  0.92822025408E-01 -0.45076091169E-02  0.72289639834E-01  0.88784122396E+00  0.88000000000E+00 0.  1.
        -11    1    4    4    0    0 -0.10163213541E+00 -0.96527991865E-02 -0.82773474153E-01  0.13143050112E+00  0.51100000000E-03 0. -1.
         11    1    4    4    0    0 -0.52613992353E-03 -0.23747230618E-02 -0.74898422410E-03  0.25958103181E-02  0.51100000000E-03 0.  1.
</event>
<event>
 8    1  0.1129676E+005  0.1043930E+01  0.7957747E-01            NaN
         13   -1    0    0    0    0  0.00000000000E+00  0.00000000000E+00  0.74505805969E-08  0.10566000000E+00  0.10566000000E+00 0.  1.
     999900   -1    0    0    0    0 -0.00000000000E+00 -0.00000000000E+00 -0.74505805969E-08  0.93827000000E+00  0.93827000000E+00 0. -1.
     999902    2    1    2    0    0 -0.19806763181E-01  0.27843637122E-02 -0.13581854205E-01  0.10197530003E+01  0.10194663577E+01 0.  0.
     999903    2    3    3    0    0 -0.52409588389E-01 -0.26311359120E-01 -0.11687794276E+00  0.13263430072E+00  0.22188998395E-01 0.  0.
         14    1    1    2    0    0  0.19806763181E-01 -0.27843637122E-02  0.13581854205E-01  0.24176999661E-01  0.00000000000E+00 0.  1.
     999901    1    3    3    0    0  0.32602825209E-01  0.29095722832E-01  0.10329608856E+00  0.88711869962E+00  0.88000000000E+00 0.  1.
        -11    1    4    4    0    0 -0.25984147840E-01 -0.23284841752E-01 -0.53201528467E-01  0.63624079927E-01  0.51100000000E-03 0. -1.
         11    1    4    4    0    0 -0.26425440549E-01 -0.30265173681E-02 -0.63676414295E-01  0.69010220794E-01  0.51100000000E-03 0.  1.
</event>
<event>
 8    1  0.1129676E+005  0.1043930E+01  0.7957747E-01            NaN
         13   -1    0    0    0    0  0.00000000000E+00  0.00000000000E+00  0.74505805969E-08  0.10566000000E+00  0.10566000000E+00 0. -1.
     999900   -1    0    0    0    0 -0.00000000000E+00 -0.00000000000E+00 -0.74505805969E-08  0.93827000000E+00  0.93827000000E+00 0. -1.
     999902    2    1    2    0    0 -0.51436007794E-02  0.35757538580E-03  0.23081774356E-01  0.10202793595E+01  0.10200052052E+01 0.  0.
     999903    2    3    3    0    0  0.11581968037E-02 -0.21778017324E-01  0.13030122408E+00  0.13347289384E+00  0.18999498270E-01 0.  0.
         14    1    1    2    0    0  0.51436007794E-02 -0.35757538580E-03 -0.23081774356E-01  0.23650640510E-01  0.00000000000E+00 0.  1.
     999901    1    3    3    0    0 -0.63017975831E-02  0.22135592710E-01 -0.10721944973E+00  0.88680646565E+00  0.88000000000E+00 0. -1.
        -11    1    4    4    0    0 -0.69427804384E-02 -0.18393583827E-01  0.78230086949E-01  0.80664327625E-01  0.51100000000E-03 0.  1.
         11    1    4    4    0    0  0.81009772421E-02 -0.33844334973E-02  0.52071137134E-01  0.52808566216E-01  0.51100000000E-03 0. -1.
</event>
<event>
 8    1  0.1129676E+005  0.1043930E+01  0.7957747E-01            NaN
         13   -1    0    0    0    0  0.00000000000E+00  0.00000000000E+00  0.74505805969E-08  0.10566000000E+00  0.10566000000E+00 0.  1.
     999900   -1    0    0    0    0 -0.00000000000E+00 -0.00000000000E+00 -0.74505805969E-08  0.93827000000E+00  0.93827000000E+00 0. -1.
     999902    2    1    2    0    0 -0.64409057627E-02  0.79038098693E-02 -0.21364301990E-01  0.10202574658E+01  0.10199827977E+01 0.  0.
     999903    2    3    3    0    0 -0.20490183249E-01 -0.10822278586E+00 -0.68425041145E-01  0.13127069331E+00  0.20444795882E-01 0.  0.
         14    1    1    2    0    0  0.64409057627E-02 -0.79038098693E-02  0.21364301990E-01  0.23672534233E-01  0.00000000000E+00 0.  1.
     999901    1    3    3    0    0  0.14049277486E-01  0.11612659573E+00  0.47060739155E-01  0.88898677246E+00  0.88000000000E+00 0.  1.
        -11    1    4    4    0    0 -0.11076105885E-01 -0.19845868318E-01 -0.18643570861E-01  0.29400382078E-01  0.51100000000E-03 0.  1.
         11    1    4    4    0    0 -0.94140773635E-02 -0.88376917537E-01 -0.49781470284E-01  0.10187031123E+00  0.51100000000E-03 0. -1.
</event>
<event>
 8    1  0.1129676E+005  0.1043930E+01  0.7957747E-01            NaN
         13   -1    0    0    0    0  0.00000000000E+00  0.00000000000E+00  0.74505805969E-08  0.10566000000E+00  0.10566000000E+00 0. -1.
     999900   -1    0    0    0    0 -0.00000000000E+00 -0.00000000000E+00 -0.74505805969E-08  0.93827000000E+00  0.93827000000E+00 0.  1.
     999902    2    1    2    0    0 -0.10795261921E-01 -0.19700184764E-01 -0.77884489032E-02  0.10201540690E+01  0.10198769679E+01 0.  0.
     999903    2    3    3    0    0 -0.29573127756E-01 -0.49598983406E-01 -0.11755223606E+00  0.13263244368E+00  0.20933415218E-01 0.  0.
         14    1    1    2    0    0  0.10795261921E-01  0.19700184764E-01  0.77884489032E-02  0.23775931022E-01  0.00000000000E+00 0.  1.
     999901    1    3    3    0    0  0.18777865835E-01  0.29898798643E-01  0.10976378716E+00  0.88752162530E+00  0.88000000000E+00 0. -1.
        -11    1    4    4    0    0  0.32342942480E-02 -0.52976220700E-02 -0.10165066995E-01  0.11921206604E-01  0.51100000000E-03 0. -1.
         11    1    4    4    0    0 -0.32807422004E-01 -0.44301361336E-01 -0.10738716906E+00  0.12071123707E+00  0.51100000000E-03 0.  1.
</event>
<event>
 8    1  0.1129676E+005  0.1043930E+01  0.7957747E-01            NaN
         13   -1    0    0    0    0  0.00000000000E+00  0.00000000000E+00  0.74505805969E-08  0.10566000000E+00  0.10566000000E+00 0.  1.
     999900   -1    0    0    0    0 -0.00000000000E+00 -0.00000000000E+00 -0.74505805969E-08  0.93827000000E+00  0.93827000000E+00 0.  1.
     999902    2    1    2    0    0 -0.15052032064E-01 -0.74190500760E-02  0.14643693198E-01  0.10216579609E+01  0.10214151680E+01 0.  0.
     999903    2    3    3    0    0 -0.93299243242E-01 -0.13562985226E-01  0.93914803428E-01  0.13461552514E+00  0.20313688694E-01 0.  0.
         14    1    1    2    0    0  0.15052032064E-01  0.74190500760E-02 -0.14643693198E-01  0.22272039057E-01  0.00000000000E+00 0. -1.
     999901    1    3    3    0    0  0.78247211177E-01  0.61439351498E-02 -0.79271110230E-01  0.88704243580E+00  0.88000000000E+00 0.  1.
        -11    1    4    4    0    0 -0.88406773399E-01 -0.16574581413E-01  0.83609198252E-01  0.12280567367E+00  0.51100000000E-03 0. -1.
         11    1    4    4    0    0 -0.48924698428E-02  0.30115961876E-02  0.10305605175E-01  0.11809851472E-01  0.51100000000E-03 0.  1.
</event>
<event>
 8    1  0.1129676E+005  0.1043930E+01  0.7957747E-01            NaN
         13   -1    0    0    0    0  0.00000000000E+00  0.00000000000E+00  0.74505805969E-08  0.10566000000E+00  0.10566000000E+00 0.  1.
     999900   -1    0    0    0    0 -0.00000000000E+00 -0.00000000000E+00 -0.74505805969E-08  0.93827000000E+00  0.93827000000E+00 0. -1.
     999902    2    1    2    0    0 -0.19302748671E-01  0.13015748651E-01  0.42612838803E-02  0.10202622084E+01  0.10199876516E+01 0.  0.
     999903    2    3    3    0    0  0.93692402407E-01 -0.46468070354E-01 -0.70771212788E-01  0.12788554776E+00  0.20213879755E-01 0.  0.
         14    1    1    2    0    0  0.19302748671E-01 -0.13015748651E-01 -0.42612838803E-02  0.23667791606E-01  0.00000000000E+00 0. -1.
     999901    1    3    3    0    0 -0.11299515108E+00  0.59483819005E-01  0.75032496669E-01  0.89237666064E+00  0.88000000000E+00 0.  1.
        -11    1    4    4    0    0  0.50594682364E-01 -0.20887441112E-01 -0.48126643197E-01  0.72887186708E-01  0.51100000000E-03 0.  1.
         11    1    4    4    0    0  0.43097720043E-01 -0.25580629242E-01 -0.22644569591E-01  0.54998361051E-01  0.51100000000E-03 0. -1.
</event>
<event>
 8    1  0.1129676E+005  0.1043930E+01  0.7957747E-01            NaN
         13   -1    0    0    0    0  0.00000000000E+00  0.00000000000E+00  0.74505805969E-08  0.10566000000E+00  0.10566000000E+00 0.  1.
     999900   -1    0    0    0    0 -0.00000000000E+00 -0.00000000000E+00 -0.74505805969E-08  0.93827000000E+00  0.93827000000E+00 0.  1.
     999902    2    1    2    0    0  0.19086751947E-01  0.13304241302E-01  0.53546506359E-02  0.10200557624E+01  0.10197763378E+01 0.  0.
     999903    2    3    3    0    0 -0.79792079595E-02  0.58120307603E-01 -0.11477188055E+00  0.13035276171E+00  0.19432447208E-01 0.  0.
         14    1    1    2    0    0 -0.19086751947E-01 -0.13304241302E-01 -0.53546506359E-02  0.23874237579E-01  0.00000000000E+00 0.  1.
     999901    1    3    3    0    0  0.27065959907E-01 -0.44816066300E-01  0.12012653119E+00  0.88970300071E+00  0.88000000000E+00 0. -1.
        -11    1    4    4    0    0 -0.98753016445E-02  0.20981343351E-01 -0.58191519566E-01  0.62643853823E-01  0.51100000000E-03 0.  1.
         11    1    4    4    0    0  0.18960936850E-02  0.37138964252E-01 -0.56580360984E-01  0.67708907885E-01  0.51100000000E-03 0. -1.
</event>
<event>
 8    1  0.1129676E+005  0.1043930E+01  0.7957747E-01            NaN
         13   -1    0    0    0    0  0.00000000000E+00  0.00000000000E+00  0.74505805969E-08  0.10566000000E+00  0.10566000000E+00 0.  1.
     999900   -1    0    0    0    0 -0.00000000000E+00 -0.00000000000E+00 -0.74505805969E-08  0.93827000000E+00  0.93827000000E+00 0.  1.
     999902    2    1    2    0    0 -0.19420433764E-01 -0.69919253207E-02  0.13140736134E-01  0.10194612605E+01  0.10191675733E+01 0.  0.
     999903    2    3    3    0    0 -0.53354203268E-01 -0.10116560057E+00  0.63437260910E-01  0.13235928088E+00  0.20335766955E-01 0.  0.
         14    1    1    2    0    0  0.19420433764E-01  0.69919253207E-02 -0.13140736134E-01  0.24468739514E-01  0.00000000000E+00 0. -1.
     999901    1    3    3    0    0  0.33933769504E-01  0.94173675248E-01 -0.50296524776E-01  0.88710197961E+00  0.88000000000E+00 0.  1.
        -11    1    4    4    0    0 -0.37426795969E-01 -0.87100731505E-01  0.54001841659E-01  0.10910436521E+00  0.51100000000E-03 0. -1.
         11    1    4    4    0    0 -0.15927407298E-01 -0.14064869064E-01  0.94354192511E-02  0.23254915663E-01  0.51100000000E-03 0.  1.
</event>
<event>
 8    1  0.1129676E+005  0.1043930E+01  0.7957747E-01            NaN
         13   -1    0    0    0    0  0.00000000000E+00  0.00000000000E+00  0.74505805969E-08  0.10566000000E+00  0.10566000000E+00 0. -1.
     999900   -1    0    0    0    0 -0.00000000000E+00 -0.00000000000E+00 -0.74505805969E-08  0.93827000000E+00  0.93827000000E+00 0. -1.
     999902    2    1    2    0    0  0.14890259823E-01 -0.14896467029E-01 -0.14817405601E-01  0.10181777171E+01  0.10178519949E+01 0.  0.
     999903    2    3    3    0    0 -0.78260006417E-01  0.96608644725E-01  0.44966524481E-02  0.12605474635E+00  0.20290893357E-01 0.  0.
         14    1    1    2    0    0 -0.14890259823E-01  0.14896467029E-01  0.14817405601E-01  0.25752282934E-01  0.00000000000E+00 0.  1.
     999901    1    3    3    0    0  0.93150266241E-01 -0.11150511175E+00 -0.19314058049E-01  0.89212297072E+00  0.88000000000E+00 0. -1.
        -11    1    4    4    0    0 -0.59590671367E-01  0.76043686102E-01 -0.48786730000E-02  0.96735478916E-01  0.51100000000E-03 0. -1.
         11    1    4    4    0    0 -0.18669335050E-01  0.20564958623E-01  0.93753254481E-02  0.29319267430E-01  0.51100000000E-03 0.  1.
</event>
<event>
 8    1  0.1129676E+005  0.1043930E+01  0.7957747E-01            NaN
         13   -1    0    0    0    0  0.00000000000E+00  0.00000000000E+00  0.74505805969E-08  0.10566000000E+00  0.10566000000E+00 0.  1.
     999900   -1    0    0    0    0 -0.00000000000E+00 -0.00000000000E+00 -0.74505805969E-08  0.93827000000E+00  0.93827000000E+00 0. -1.
     999902    2    1    2    0    0 -0.16817053838E-01  0.20933157944E-02 -0.16432848466E-01  0.10203242003E+01  0.10200510967E+01 0.  0.
     999903    2    3    3    0    0  0.10580315012E+00  0.20591247032E-01 -0.69904155231E-01  0.13002252753E+00  0.20024003546E-01 0.  0.
         14    1    1    2    0    0  0.16817053838E-01 -0.20933157944E-02  0.16432848466E-01  0.23605799701E-01  0.00000000000E+00 0.  1.
     999901    1    3    3    0    0 -0.12262020396E+00 -0.18497931238E-01  0.53471306765E-01  0.89030167276E+00  0.88000000000E+00 0.  1.
        -11    1    4    4    0    0  0.30888419459E-01  0.47844908214E-03 -0.11671245528E-01  0.33027298760E-01  0.51100000000E-03 0. -1.
         11    1    4    4    0    0  0.74914730663E-01  0.20112797950E-01 -0.58232909703E-01  0.96995228775E-01  0.51100000000E-03 0.  1.
</event>
<event>
 8    1  0.1129676E+005  0.1043930E+01  0.7957747E-01            NaN
         13   -1    0    0    0    0  0.00000000000E+00  0.00000000000E+00  0.74505805969E-08  0.10566000000E+00  0.10566000000E+00 0.  1.
     999900   -1    0    0    0    0 -0.00000000000E+00 -0.00000000000E+00 -0.74505805969E-08  0.93827000000E+00  0.93827000000E+00 0.  1.
     999902    2    1    2    0    0 -0.16784934118E-01  0.93159225933E-02 -0.14365777719E-01  0.10199530111E+01  0.10196711474E+01 0.  0.
     999903    2    3    3    0    0 -0.57456619483E-01 -0.11012923703E+00  0.33362382790E-01  0.12967254437E+00  0.16498733446E-01 0.  0.
         14    1    1    2    0    0  0.16784934118E-01 -0.93159225933E-02  0.14365777719E-01  0.23976988897E-01  0.00000000000E+00 0. -1.
     999901    1    3    3    0    0  0.40671685365E-01  0.11944515963E+00 -0.47728160508E-01  0.89028046674E+00  0.88000000000E+00 0. -1.
        -11    1    4    4    0    0 -0.35504698424E-01 -0.64805951989E-01  0.28010293297E-01  0.79026784542E-01  0.51100000000E-03 0.  1.
         11    1    4    4    0    0 -0.21951921059E-01 -0.45323285043E-01  0.53520894921E-02  0.50645759824E-01  0.51100000000E-03 0. -1.
</event>
<event>
 8    1  0.1129676E+005  0.1043930E+01  0.7957747E-01            NaN
         13   -1    0    0    0    0  0.00000000000E+00  0.00000000000E+00  0.74505805969E-08  0.10566000000E+00  0.10566000000E+00 0.  1.
     999900   -1    0    0    0    0 -0.00000000000E+00 -0.00000000000E+00 -0.74505805969E-08  0.93827000000E+00  0.93827000000E+00 0.  1.
     999902    2    1    2    0    0  0.54598238903E-02  0.12362607653E-01 -0.17217754113E-01  0.10220417657E+01  0.10218073576E+01 0.  0.
     999903    2    3    3    0    0 -0.49781984028E-01  0.11135474303E-01 -0.12229405790E+00  0.13406981071E+00  0.20411585565E-01 0.  0.
         14    1    1    2    0    0 -0.54598238903E-02 -0.12362607653E-01  0.17217754113E-01  0.21888234319E-01  0.00000000000E+00 0.  1.
     999901    1    3    3    0    0  0.55241807918E-01  0.12271333501E-02  0.10507630378E+00  0.88797195497E+00  0.88000000000E+00 0. -1.
        -11    1    4    4    0    0 -0.33077567361E-01  0.10316539180E-01 -0.57362020978E-01  0.67016557766E-01  0.51100000000E-03 0. -1.
         11    1    4    4    0    0 -0.16704416667E-01  0.81893512312E-03 -0.64932036919E-01  0.67053252944E-01  0.51100000000E-03 0.  1.
</event>
<event>
 8    1  0.1129676E+005  0.1043930E+01  0.7957747E-01            NaN
         13   -1    0    0    0    0  0.00000000000E+00  0.00000000000E+00  0.74505805969E-08  0.10566000000E+00  0.10566000000E+00 0.  1.
     999900   -1    0    0    0    0 -0.00000000000E+00 -0.00000000000E+00 -0.74505805969E-08  0.93827000000E+00  0.93827000000E+00 0. -1.
     999902    2    1    2    0    0  0.11462744230E-01  0.24903699961E-01  0.86248647370E-02  0.10151901832E+01  0.10147832926E+01 0.  0.
     999903    2    3    3    0    0  0.18378480577E-01  0.12587159811E+00 -0.91729984943E-02  0.12921100299E+00  0.20734310537E-01 0.  0.
         14    1    1    2    0    0 -0.11462744230E-01 -0.24903699961E-01 -0.86248647370E-02  0.28739816783E-01  0.00000000000E+00 0. -1.
     999901    1    3    3    0    0 -0.69157363476E-02 -0.10096789815E+00  0.17797863231E-01  0.88597918023E+00  0.88000000000E+00 0.  1.
        -11    1    4    4    0    0  0.11579042532E-01  0.23493853906E-01 -0.37379594146E-02  0.26462593578E-01  0.51100000000E-03 0. -1.
         11    1    4    4    0    0  0.67994380457E-02  0.10237774420E+00 -0.54350390797E-02  0.10274840941E+00  0.51100000000E-03 0.  1.
</event>
<event>
 8    1  0.1129676E+005  0.1043930E+01  0.7957747E-01            NaN
         13   -1    0    0    0    0  0.00000000000E+00  0.00000000000E+00  0.74505805969E-08  0.10566000000E+00  0.10566000000E+00 0.  1.
     999900   -1    0    0    0    0 -0.00000000000E+00 -0.00000000000E+00 -0.74505805969E-08  0.93827000000E+00  0.93827000000E+00 0. -1.
     999902    2    1    2    0    0 -0.30590816383E-02 -0.22258192452E-01  0.49422617524E-02  0.10209254121E+01  0.10206661972E+01 0.  0.
     999903    2    3    3    0    0  0.99824861956E-01  0.35605419820E-01 -0.72024000159E-01  0.12971437711E+00  0.20139862088E-01 0.  0.
         14    1    1    2    0    0  0.30590816383E-02  0.22258192452E-01 -0.49422617524E-02  0.23004587867E-01  0.00000000000E+00 0.  1.
     999901    1    3    3    0    0 -0.10288394359E+00 -0.57863612272E-01  0.76966261911E-01  0.89121103502E+00  0.88000000000E+00 0.  1.
        -11    1    4    4    0    0  0.35142104684E-01  0.18232617862E-01 -0.36730452885E-01  0.54007251049E-01  0.51100000000E-03 0. -1.
         11    1    4    4    0    0  0.64682757272E-01  0.17372801957E-01 -0.35293547274E-01  0.75707126060E-01  0.51100000000E-03 0.  1.
</event>
<event>
 8    1  0.1129676E+005  0.1043930E+01  0.7957747E-01            NaN
         13   -1    0    0    0    0  0.00000000000E+00  0.00000000000E+00  0.74505805969E-08  0.10566000000E+00  0.10566000000E+00 0.  1.
     999900   -1    0    0    0    0 -0.00000000000E+00 -0.00000000000E+00 -0.74505805969E-08  0.93827000000E+00  0.93827000000E+00 0.  1.
     999902    2    1    2    0    0 -0.41786011245E-02 -0.22508511499E-01  0.48019313683E-02  0.10205387123E+01  0.10202706067E+01 0.  0.
     999903    2    3    3    0    0 -0.42995083880E-01  0.49223609817E-01  0.11115318016E+00  0.13039108142E+00  0.19371723070E-01 0.  0.
         14    1    1    2    0    0  0.41786011245E-02  0.22508511499E-01 -0.48019313683E-02  0.23391287740E-01  0.00000000000E+00 0. -1.
     999901    1    3    3    0    0  0.38816482755E-01 -0.71732121317E-01 -0.10635124879E+00  0.89014763083E+00  0.88000000000E+00 0.  1.
        -11    1    4    4    0    0 -0.25035957120E-01  0.16782684802E-01  0.39270819156E-01  0.49506726979E-01  0.51100000000E-03 0. -1.
         11    1    4    4    0    0 -0.17959126760E-01  0.32440925016E-01  0.71882361002E-01  0.80884354446E-01  0.51100000000E-03 0.  1.
</event>
<event>
 8    1  0.1129676E+005  0.1043930E+01  0.7957747E-01            NaN
         13   -1    0    0    0    0  0.00000000000E+00  0.00000000000E+00  0.74505805969E-08  0.10566000000E+00  0.10566000000E+00 0. -1.
     999900   -1    0    0    0    0 -0.00000000000E+00 -0.00000000000E+00 -0.74505805969E-08  0.93827000000E+00  0.93827000000E+00 0. -1.
     999902    2    1    2    0    0  0.20960285962E-01  0.64879051771E-02 -0.59295698429E-03  0.10219805558E+01  0.10217448206E+01 0.  0.
     999903    2    3    3    0    0  0.84180285592E-01 -0.99943853554E-01 -0.14050124152E-01  0.13321422942E+00  0.21760757930E-01 0.  0.
         14    1    1    2    0    0 -0.20960285962E-01 -0.64879051771E-02  0.59295698429E-03  0.21949444166E-01  0.00000000000E+00 0. -1.
     999901    1    3    3    0    0 -0.63219999630E-01  0.10643175873E+00  0.13457167167E-01  0.88876632641E+00  0.88000000000E+00 0.  1.
        -11    1    4    4    0    0  0.21205471791E-01 -0.23481837597E-01 -0.12837327935E-01  0.34148599390E-01  0.51100000000E-03 0. -1.
         11    1    4    4    0    0  0.62974813802E-01 -0.76462015957E-01 -0.12127962164E-02  0.99065630030E-01  0.51100000000E-03 0.  1.
</event>
<event>
 8    1  0.1129676E+005  0.1043930E+01  0.7957747E-01            NaN
         13   -1    0    0    0    0  0.00000000000E+00  0.00000000000E+00  0.74505805969E-08  0.10566000000E+00  0.10566000000E+00 0.  1.
     999900   -1    0    0    0    0 -0.00000000000E+00 -0.00000000000E+00 -0.74505805969E-08  0.93827000000E+00  0.93827000000E+00 0. -1.
     999902    2    1    2    0    0  0.21487609202E-01 -0.52070339895E-03  0.15227617346E-01  0.10175886103E+01  0.10172476154E+01 0.  0.
     999903    2    3    3    0    0  0.15232192689E-01 -0.25960452141E-01  0.12531182509E+00  0.13034296007E+00  0.19500486255E-01 0.  0.
         14    1    1    2    0    0 -0.21487609202E-01  0.52070339895E-03 -0.15227617346E-01  0.26341389699E-01  0.00000000000E+00 0. -1.
     999901    1    3    3    0    0  0.62554165130E-02  0.25439748742E-01 -0.11008420774E+00  0.88724565023E+00  0.88000000000E+00 0. -1.
        -11    1    4    4    0    0 -0.11781622536E-02 -0.10393710089E-01  0.19448563109E-01  0.22089024508E-01  0.51100000000E-03 0. -1.
         11    1    4    4    0    0  0.16410354942E-01 -0.15566742052E-01  0.10586326198E+00  0.10825393557E+00  0.51100000000E-03 0.  1.
</event>
<event>
 8    1  0.1129676E+005  0.1043930E+01  0.7957747E-01            NaN
         13   -1    0    0    0    0  0.00000000000E+00  0.00000000000E+00  0.74505805969E-08  0.10566000000E+00  0.10566000000E+00 0.  1.
     999900   -1    0    0    0    0 -0.00000000000E+00 -0.00000000000E+00 -0.74505805969E-08  0.93827000000E+00  0.93827000000E+00 0.  1.
     999902    2    1    2    0    0 -0.47508925899E-02  0.23485243066E-01 -0.32058538050E-02  0.10197555275E+01  0.10194689454E+01 0.  0.
     999903    2    3    3    0    0 -0.30329060732E-01  0.58539431175E-02 -0.12542170849E+00  0.13076631465E+00  0.20374089218E-01 0.  0.
         14    1    1    2    0    0  0.47508925899E-02 -0.23485243066E-01  0.32058538050E-02  0.24174472505E-01  0.00000000000E+00 0. -1.
     999901    1    3    3    0    0  0.25578168142E-01  0.17631299949E-01  0.12221585468E+00  0.88898921285E+00  0.88000000000E+00 0. -1.
        -11    1    4    4    0    0  0.20041497762E-02  0.32888550829E-02 -0.23138049270E-01  0.23461961322E-01  0.51100000000E-03 0.  1.
         11    1    4    4    0    0 -0.32333210508E-01  0.25650880346E-02 -0.10228365922E+00  0.10730435333E+00  0.51100000000E-03 0. -1.
</event>
<event>
 8    1  0.1129676E+005  0.1043930E+01  0.7957747E-01            NaN
         13   -1    0    0    0    0  0.00000000000E+00  0.00000000000E+00  0.74505805969E-08  0.10566000000E+00  0.10566000000E+00 0.  1.
     999900   -1    0    0    0    0 -0.00000000000E+00 -0.00000000000E+00 -0.74505805969E-08  0.93827000000E+00  0.93827000000E+00 0.  1.
     999902    2    1    2    0    0 -0.20126549958E-01 -0.12253028232E-02  0.48277596712E-03  0.10237604077E+01  0.10235617031E+01 0.  0.
     999903    2    3    3    0    0 -0.11833020144E+00 -0.63333331004E-01  0.10422091032E-01  0.13606667995E+00  0.19808433127E-01 0.  0.
         14    1    1    2    0    0  0.20126549958E-01  0.12253028232E-02 -0.48277596712E-03  0.20169592283E-01  0.00000000000E+00 0.  1.
     999901    1    3    3    0    0  0.98203651482E-01  0.62108028181E-01 -0.99393150653E-02  0.88769372776E+00  0.88000000000E+00 0. -1.
        -11    1    4    4    0    0 -0.83984056305E-01 -0.34411135573E-01  0.71699778659E-02  0.91044591649E-01  0.51100000000E-03 0.  1.
         11    1    4    4    0    0 -0.34346145134E-01 -0.28922195432E-01  0.32521131665E-02  0.45022088304E-01  0.51100000000E-03 0. -1.
</event>
<event>
 8    1  0.1129676E+005  0.1043930E+01  0.7957747E-01            NaN
         13   -1    0    0    0    0  0.00000000000E+00  0.00000000000E+00  0.74505805969E-08  0.10566000000E+00  0.10566000000E+00 0.  1.
     999900   -1    0    0    0    0 -0.00000000000E+00 -0.00000000000E+00 -0.74505805969E-08  0.93827000000E+00  0.93827000000E+00 0. -1.
     999902    2    1    2    0    0 -0.15611176161E-01 -0.18142264499E-01 -0.78169072004E-03  0.10199829413E+01  0.10197017892E+01 0.  0.
     999903    2    3    3    0    0  0.81447463714E-01  0.93442012660E-01  0.21002884577E-01  0.12737664607E+00  0.20459465468E-01 0.  0.
         14    1    1    2    0    0  0.15611176161E-01  0.18142264499E-01  0.78169072004E-03  0.23947058747E-01  0.00000000000E+00 0. -1.
     999901    1    3    3    0    0 -0.97058639875E-01 -0.11158427716E+00 -0.21784575297E-01  0.89260629519E+00  0.88000000000E+00 0. -1.
        -11    1    4    4    0    0  0.68969396056E-01  0.66439928646E-01  0.13686468977E-01  0.96739972425E-01  0.51100000000E-03 0.  1.
         11    1    4    4    0    0  0.12478067659E-01  0.27002084014E-01  0.73164156005E-02  0.30636673642E-01  0.51100000000E-03 0. -1.
</event>
<event>
 8    1  0.1129676E+005  0.1043930E+01  0.7957747E-01            NaN
         13   -1    0    0    0    0  0.00000000000E+00  0.00000000000E+00  0.74505805969E-08  0.10566000000E+00  0.10566000000E+00 0. -1.
     999900   -1    0    0    0    0 -0.00000000000E+00 -0.00000000000E+00 -0.74505805969E-08  0.93827000000E+00  0.93827000000E+00 0. -1.
     999902    2    1    2    0    0 -0.14282248321E-01  0.61803352818E-02  0.17629422404E-01  0.10204145647E+01  0.10201435724E+01 0.  0.
     999903    2    3    3    0    0  0.63734821038E-02  0.12161907747E+00  0.48289251603E-01  0.13210561650E+00  0.16977067169E-01 0.  0.
         14    1    1    2    0    0  0.14282248321E-01 -0.61803352818E-02 -0.17629422404E-01  0.23515435263E-01  0.00000000000E+00 0.  1.
     999901    1    3    3    0    0 -0.20655730424E-01 -0.11543874219E+00 -0.30659829199E-01  0.88830894824E+00  0.88000000000E+00 0. -1.
        -11    1    4    4    0    0  0.85366744028E-02  0.11721276405E+00  0.48563489479E-01  0.12716281098E+00  0.51100000000E-03 0.  1.
         11    1    4    4    0    0 -0.21631922991E-02  0.44063134271E-02 -0.27423787583E-03  0.49428055144E-02  0.51100000000E-03 0. -1.
</event>
<event>
 8    1  0.1129676E+005  0.1043930E+01  0.7957747E-01            NaN
         13   -1    0    0    0    0  0.00000000000E+00  0.00000000000E+00  0.74505805969E-08  0.10566000000E+00  0.10566000000E+00 0.  1.
     999900   -1    0    0    0    0 -0.00000000000E+00 -0.00000000000E+00 -0.74505805969E-08  0.93827000000E+00  0.93827000000E+00 0.  1.
     999902    2    1    2    0    0 -0.18724696391E-01  0.10462719603E-01 -0.10489925981E-01  0.10200527869E+01  0.10197732919E+01 0.  0.
     999903    2    3    3    0    0  0.85044095852E-01 -0.19160711098E-01  0.91099850218E-01  0.12765938013E+00  0.19952532084E-01 0.  0.
         14    1    1    2    0    0  0.18724696391E-01 -0.10462719603E-01  0.10489925981E-01  0.23877213060E-01  0.00000000000E+00 0.  1.
     999901    1    3    3    0    0 -0.10376879224E+00  0.29623430702E-01 -0.10158977620E+00  0.89239340681E+00  0.88000000000E+00 0.  1.
        -11    1    4    4    0    0  0.41971103799E-01 -0.16025215256E-01  0.57309098643E-01  0.72821528317E-01  0.51100000000E-03 0.  1.
         11    1    4    4    0    0  0.43072992052E-01 -0.31354958422E-02  0.33790751575E-01  0.54837851813E-01  0.51100000000E-03 0. -1.
</event>
<event>
 8    1  0.1129676E+005  0.1043930E+01  0.7957747E-01            NaN
         13   -1    0    0    0    0  0.00000000000E+00  0.00000000000E+00  0.74505805969E-08  0.10566000000E+00  0.10566000000E+00 0. -1.
     999900   -1    0    0    0    0 -0.00000000000E+00 -0.00000000000E+00 -0.74505805969E-08  0.93827000000E+00  0.93827000000E+00 0.  1.
     999902    2    1    2    0    0  0.13482866335E-01  0.19068035898E-01  0.55753435804E-03  0.10205700231E+01  0.10203026431E+01 0.  0.
     999903    2    3    3    0    0 -0.79044405771E-01 -0.66486724633E-01 -0.73597648983E-01  0.12850505663E+00  0.20698623325E-01 0.  0.
         14    1    1    2    0    0 -0.13482866335E-01 -0.19068035898E-01 -0.55753435804E-03  0.23359976930E-01  0.00000000000E+00 0.  1.
     999901    1    3    3    0    0  0.92527272106E-01  0.85554760531E-01  0.74155183341E-01  0.89206496644E+00  0.88000000000E+00 0.  1.
        -11    1    4    4    0    0 -0.10802117268E-01 -0.55771630231E-02 -0.19720139157E-02  0.12326412485E-01  0.51100000000E-03 0. -1.
         11    1    4    4    0    0 -0.68242288503E-01 -0.60909561610E-01 -0.71625635068E-01  0.11617864415E+00  0.51100000000E-03 0.  1.
</event>
<event>
 8    1  0.1129676E+005  0.1043930E+01  0.7957747E-01            NaN
         13   -1    0    0    0    0  0.00000000000E+00  0.00000000000E+00  0.74505805969E-08  0.10566000000E+00  0.10566000000E+00 0.  1.
     999900   -1    0    0    0    0 -0.00000000000E+00 -0.00000000000E+00 -0.74505805969E-08  0.93827000000E+00  0.93827000000E+00 0.  1.
     999902    2    1    2    0    0  0.40562097523E-02  0.70335903392E-02  0.22424379803E-01  0.10200809531E+01  0.10198021248E+01 0.  0.
     999903    2    3    3    0    0 -0.11532058124E+00  0.56461665444E-01  0.13345355842E-01  0.13059999120E+00  0.19786436168E-01 0.  0.
         14    1    1    2    0    0 -0.40562097523E-02 -0.70335903392E-02 -0.22424379803E-01  0.23849046945E-01  0.00000000000E+00 0. -1.
     999901    1    3    3    0    0  0.11937679099E+00 -0.49428075104E-01  0.90790239617E-02  0.88948096186E+00  0.88000000000E+00 0.  1.
        -11    1    4    4    0    0 -0.10136582577E+00  0.42808856484E-01  0.14750672857E-01  0.11102014366E+00  0.51100000000E-03 0. -1.
         11    1    4    4    0    0 -0.13954755469E-01  0.13652808959E-01 -0.14053170154E-02  0.19579847537E-01  0.51100000000E-03 0.  1.
</event>
<event>
 8    1  0.1129676E+005  0.1043930E+01  0.7957747E-01            NaN
         13   -1    0    0    0    0  0.00000000000E+00  0.00000000000E+00  0.74505805969E-08  0.10566000000E+00  0.10566000000E+00 0. -1.
     999900   -1    0    0    0    0 -0.00000000000E+00 -0.00000000000E+00 -0.74505805969E-08  0.93827000000E+00  0.93827000000E+00 0.  1.
     999902    2    1    2    0    0 -0.18332339256E-02  0.13121121145E-01 -0.19217462594E-01  0.10205882898E+01  0.10203213326E+01 0.  0.
     999903    2    3    3    0    0  0.86660248284E-01  0.61048566571E-01 -0.78076196734E-01  0.13289888071E+00  0.18146456522E-01 0.  0.
         14    1    1    2    0    0  0.18332339256E-02 -0.13121121145E-01  0.19217462594E-01  0.23341710205E-01  0.00000000000E+00 0. -1.
     999901    1    3    3    0    0 -0.88493482210E-01 -0.47927445426E-01  0.58858734140E-01  0.88768940909E+00  0.88000000000E+00 0. -1.
        -11    1    4    4    0    0  0.53148553999E-01  0.36558451701E-01 -0.58166445982E-01  0.86861301753E-01  0.51100000000E-03 0.  1.
         11    1    4    4    0    0  0.33511694285E-01  0.24490114869E-01 -0.19909750752E-01  0.46037578957E-01  0.51100000000E-03 0. -1.
</event>
<event>
 8    1  0.1129676E+005  0.1043930E+01  0.7957747E-01            NaN
         13   -1    0    0    0    0  0.00000000000E+00  0.00000000000E+00  0.74505805969E-08  0.10566000000E+00  0.10566000000E+00 0. -1.
     999900   -1    0    0    0    0 -0.00000000000E+00 -0.00000000000E+00 -0.74505805969E-08  0.93827000000E+00  0.93827000000E+00 0. -1.
     999902    2    1    2    0    0 -0.23195964663E-01  0.32848124671E-02 -0.72729661148E-02  0.10193996350E+01  0.10191044486E+01 0.  0.
     999903    2    3    3    0    0  0.34266939243E-01 -0.92634033432E-01 -0.80821147329E-01  0.12928068495E+00  0.20643409872E-01 0.  0.
         14    1    1    2    0    0  0.23195964663E-01 -0.32848124671E-02  0.72729661148E-02  0.24530364972E-01  0.00000000000E+00 0. -1.
     999901    1    3    3    0    0 -0.57462903906E-01  0.95918845899E-01  0.73548181214E-01  0.89011895008E+00  0.88000000000E+00 0.  1.
        -11    1    4    4    0    0  0.15154923865E-01 -0.63424760754E-01 -0.44796691608E-01  0.79116222699E-01  0.51100000000E-03 0.  1.
         11    1    4    4    0    0  0.19112015378E-01 -0.29209272677E-01 -0.36024455721E-01  0.50164462253E-01  0.51100000000E-03 0. -1.
</event>
<event>
 8    1  0.1129676E+005  0.1043930E+01  0.7957747E-01            NaN
         13   -1    0    0    0    0  0.00000000000E+00  0.00000000000E+00  0.74505805969E-08  0.10566000000E+00  0.10566000000E+00 0. -1.
     999900   -1    0    0    0    0 -0.00000000000E+00 -0.00000000000E+00 -0.74505805969E-08  0.93827000000E+00  0.93827000000E+00 0.  1.
     999902    2    1    2    0    0 -0.21382326501E-02 -0.14132069114E-01  0.19769542522E-01  0.10195348729E+01  0.10192429714E+01 0.  0.
     999903    2    3    3    0    0 -0.90186571194E-01 -0.68939267763E-01  0.64888370811E-01  0.13229643388E+00  0.20139649657E-01 0.  0.
         14    1    1    2    0    0  0.21382326501E-02  0.14132069114E-01 -0.19769542522E-01  0.24395127133E-01  0.00000000000E+00 0.  1.
     999901    1    3    3    0    0  0.88048338544E-01  0.54807198650E-01 -0.45118828289E-01  0.88723843898E+00  0.88000000000E+00 0.  1.
        -11    1    4    4    0    0 -0.53148394721E-01 -0.51941451000E-01  0.45763595477E-01  0.87276766584E-01  0.51100000000E-03 0. -1.
         11    1    4    4    0    0 -0.37038176473E-01 -0.16997816763E-01  0.19124775334E-01  0.45019667300E-01  0.51100000000E-03 0.  1.
</event>
<event>
 8    1  0.1129676E+005  0.1043930E+01  0.7957747E-01            NaN
         13   -1    0    0    0    0  0.00000000000E+00  0.00000000000E+00  0.74505805969E-08  0.10566000000E+00  0.10566000000E+00 0. -1.
     999900   -1    0    0    0    0 -0.00000000000E+00 -0.00000000000E+00 -0.74505805969E-08  0.93827000000E+00  0.93827000000E+00 0. -1.
     999902    2    1    2    0    0  0.63975491657E-02 -0.22689830912E-01 -0.67571677506E-02  0.10194062079E+01  0.10191111816E+01 0.  0.
     999903    2    3    3    0    0  0.85840366424E-02  0.11114713773E-01  0.12643452942E+00  0.12873929141E+00  0.19770998305E-01 0.  0.
         14    1    1    2    0    0 -0.63975491657E-02  0.22689830912E-01  0.67571677506E-02  0.24523792084E-01  0.00000000000E+00 0. -1.
     999901    1    3    3    0    0 -0.21864874767E-02 -0.33804544685E-01 -0.13319169717E+00  0.89066691651E+00  0.88000000000E+00 0. -1.
        -11    1    4    4    0    0  0.10231739631E-01 -0.10624009474E-02  0.81639008761E-01  0.82286123156E-01  0.51100000000E-03 0. -1.
         11    1    4    4    0    0 -0.16477029887E-02  0.12177114720E-01  0.44795520663E-01  0.46453168251E-01  0.51100000000E-03 0.  1.
</event>
<event>
 8    1  0.1129676E+005  0.1043930E+01  0.7957747E-01            NaN
         13   -1    0    0    0    0  0.00000000000E+00  0.00000000000E+00  0.74505805969E-08  0.10566000000E+00  0.10566000000E+00 0.  1.
     999900   -1    0    0    0    0 -0.00000000000E+00 -0.00000000000E+00 -0.74505805969E-08  0.93827000000E+00  0.93827000000E+00 0.  1.
     999902    2    1    2    0    0 -0.11811783622E-01 -0.57132965137E-02 -0.19723181502E-01  0.10202411022E+01  0.10199660498E+01 0.  0.
     999903    2    3    3    0    0 -0.47038657465E-02  0.18851451480E-01 -0.12944741045E+00  0.13305828242E+00  0.23882438549E-01 0.  0.
         14    1    1    2    0    0  0.11811783622E-01  0.57132965137E-02  0.19723181502E-01  0.23688897778E-01  0.00000000000E+00 0.  1.
     999901    1    3    3    0    0 -0.71079178755E-02 -0.24564747994E-01  0.10972422895E+00  0.88718281981E+00  0.88000000000E+00 0. -1.
        -11    1    4    4    0    0  0.89128591027E-02  0.84396871978E-02 -0.35684606718E-01  0.37740159711E-01  0.51100000000E-03 0. -1.
         11    1    4    4    0    0 -0.13616724849E-01  0.10411764283E-01 -0.93762803733E-01  0.95318122705E-01  0.51100000000E-03 0.  1.
</event>
<event>
 8    1  0.1129676E+005  0.1043930E+01  0.7957747E-01            NaN
         13   -1    0    0    0    0  0.00000000000E+00  0.00000000000E+00  0.74505805969E-08  0.10566000000E+00  0.10566000000E+00 0. -1.
     999900   -1    0    0    0    0 -0.00000000000E+00 -0.00000000000E+00 -0.74505805969E-08  0.93827000000E+00  0.93827000000E+00 0.  1.
     999902    2    1    2    0    0  0.18143324142E-01  0.10877077548E-01 -0.95115596879E-02  0.10207360181E+01  0.10204724680E+01 0.  0.
     999903    2    3    3    0    0  0.45894212931E-02 -0.41164458049E-01  0.12103872146E+00  0.12948105708E+00  0.19984910704E-01 0.  0.
         14    1    1    2    0    0 -0.18143324142E-01 -0.10877077548E-01  0.95115596879E-02  0.23193981861E-01  0.00000000000E+00 0. -1.
     999901    1    3    3    0    0  0.13553902848E-01  0.52041535598E-01 -0.13055028114E+00  0.89125496106E+00  0.88000000000E+00 0.  1.
        -11    1    4    4    0    0 -0.12941124866E-02 -0.19255153174E-01  0.82762414690E-01  0.84984198868E-01  0.51100000000E-03 0. -1.
         11    1    4    4    0    0  0.58835337797E-02 -0.21909304876E-01  0.38276306766E-01  0.44496858209E-01  0.51100000000E-03 0.  1.
</event>
<event>
 8    1  0.1129676E+005  0.1043930E+01  0.7957747E-01            NaN
         13   -1    0    0    0    0  0.00000000000E+00  0.00000000000E+00  0.74505805969E-08  0.10566000000E+00  0.10566000000E+00 0. -1.
     999900   -1    0    0    0    0 -0.00000000000E+00 -0.00000000000E+00 -0.74505805969E-08  0.93827000000E+00  0.93827000000E+00 0. -1.
     999902    2    1    2    0    0  0.17322808901E-01  0.90935470592E-02 -0.12091113250E-01  0.10209307103E+01  0.10206716161E+01 0.  0.
     999903    2    3    3    0    0  0.33687109126E-01 -0.80404219237E-01 -0.98261367217E-01  0.13205335479E+00  0.13532643202E-01 0.  0.
         14    1    1    2    0    0 -0.17322808901E-01 -0.90935470592E-02  0.12091113250E-01  0.22999289684E-01  0.00000000000E+00 0.  1.
     999901    1    3    3    0    0 -0.16364300225E-01  0.89497766296E-01  0.86170253967E-01  0.88887735552E+00  0.88000000000E+00 0.  1.
        -11    1    4    4    0    0  0.26053073409E-01 -0.72013680879E-01 -0.81791226895E-01  0.11204819849E+00  0.51100000000E-03 0. -1.
         11    1    4    4    0    0  0.76340357177E-02 -0.83905383584E-02 -0.16470140322E-01  0.20005156298E-01  0.51100000000E-03 0.  1.
</event>
<event>
 8    1  0.1129676E+005  0.1043930E+01  0.7957747E-01            NaN
         13   -1    0    0    0    0  0.00000000000E+00  0.00000000000E+00  0.74505805969E-08  0.10566000000E+00  0.10566000000E+00 0.  1.
     999900   -1    0    0    0    0 -0.00000000000E+00 -0.00000000000E+00 -0.74505805969E-08  0.93827000000E+00  0.93827000000E+00 0.  1.
     999902    2    1    2    0    0 -0.23214082133E-02  0.21685838151E-01  0.89292353983E-02  0.10203631640E+01  0.10200909718E+01 0.  0.
     999903    2    3    3    0    0  0.12055617653E+00 -0.42422864967E-01 -0.32357441188E-02  0.12943285623E+00  0.20221351624E-01 0.  0.
         14    1    1    2    0    0  0.23214082133E-02 -0.21685838151E-01 -0.89292353983E-02  0.23566835961E-01  0.00000000000E+00 0. -1.
     999901    1    3    3    0    0 -0.12287758474E+00  0.64108703118E-01  0.12164979517E-01  0.89093030781E+00  0.88000000000E+00 0.  1.
        -11    1    4    4    0    0  0.36672057759E-01 -0.16068466536E-01  0.78663782210E-02  0.40806573789E-01  0.51100000000E-03 0. -1.
         11    1    4    4    0    0  0.83884118766E-01 -0.26354398431E-01 -0.11102122340E-01  0.88626282441E-01  0.51100000000E-03 0.  1.
</event>
<event>
 8    1  0.1129676E+005  0.1043930E+01  0.7957747E-01            NaN
         13   -1    0    0    0    0  0.00000000000E+00  0.00000000000E+00  0.74505805969E-08  0.10566000000E+00  0.10566000000E+00 0.  1.
     999900   -1    0    0    0    0 -0.00000000000E+00 -0.00000000000E+00 -0.74505805969E-08  0.93827000000E+00  0.93827000000E+00 0. -1.
     999902    2    1    2    0    0  0.42208108682E-02 -0.33000132278E-02  0.23044476474E-01  0.10202708955E+01  0.10199965426E+01 0.  0.
     999903    2    3    3    0    0  0.12288820861E+00  0.35077274443E-01 -0.17839151325E-01  0.13053709340E+00  0.19742604586E-01 0.  0.
         14    1    1    2    0    0 -0.42208108682E-02  0.33000132278E-02 -0.23044476474E-01  0.23659104541E-01  0.00000000000E+00 0. -1.
     999901    1    3    3    0    0 -0.11866739775E+00 -0.38377287670E-01  0.40883627799E-01  0.88973380205E+00  0.88000000000E+00 0.  1.
        -11    1    4    4    0    0  0.77300949392E-01  0.31843309625E-01 -0.11085870321E-01  0.84336177211E-01  0.51100000000E-03 0. -1.
         11    1    4    4    0    0  0.45587259222E-01  0.32339648176E-02 -0.67532810040E-02  0.46200916194E-01  0.51100000000E-03 0.  1.
</event>
<event>
 8    1  0.1129676E+005  0.1043930E+01  0.7957747E-01            NaN
         13   -1    0    0    0    0  0.00000000000E+00  0.00000000000E+00  0.74505805969E-08  0.10566000000E+00  0.10566000000E+00 0. -1.
     999900   -1    0    0    0    0 -0.00000000000E+00 -0.00000000000E+00 -0.74505805969E-08  0.93827000000E+00  0.93827000000E+00 0. -1.
     999902    2    1    2    0    0 -0.17254855830E-01  0.15484370502E-01  0.57183508766E-02  0.10200512371E+01  0.10197717054E+01 0.  0.
     999903    2    3    3    0    0  0.10161038664E+00 -0.72119473899E-01  0.15328828234E-01  0.12769719265E+00  0.23360454753E-01 0.  0.
         14    1    1    2    0    0  0.17254855830E-01 -0.15484370502E-01 -0.57183508766E-02  0.23878762872E-01  0.00000000000E+00 0.  1.
     999901    1    3    3    0    0 -0.11886524247E+00  0.87603844401E-01 -0.96104773572E-02  0.89235404448E+00  0.88000000000E+00 0.  1.
        -11    1    4    4    0    0  0.32147255653E-01 -0.26130931224E-01 -0.55789665554E-02  0.41804994934E-01  0.51100000000E-03 0. -1.
         11    1    4    4    0    0  0.69463130990E-01 -0.45988542675E-01  0.20907794789E-01  0.85892197715E-01  0.51100000000E-03 0.  1.
</event>
<event>
 8    1  0.1129676E+005  0.1043930E+01  0.7957747E-01            NaN
         13   -1    0    0    0    0  0.00000000000E+00  0.00000000000E+00  0.74505805969E-08  0.10566000000E+00  0.10566000000E+00 0. -1.
     999900   -1    0    0    0    0 -0.00000000000E+00 -0.00000000000E+00 -0.74505805969E-08  0.93827000000E+00  0.93827000000E+00 0.  1.
     999902    2    1    2    0    0  0.23761853532E-01  0.12003436334E-03 -0.49205716952E-02  0.10196637247E+01  0.10193749356E+01 0.  0.
     999903    2    3    3    0    0  0.27705435938E-01  0.78158245170E-01 -0.99622384080E-01  0.13114025992E+00  0.19920991257E-01 0.  0.
         14    1    1    2    0    0 -0.23761853532E-01 -0.12003436334E-03  0.49205716952E-02  0.24266275308E-01  0.00000000000E+00 0. -1.
     999901    1    3    3    0    0 -0.39435824057E-02 -0.78038210807E-01  0.94701812384E-01  0.88852346478E+00  0.88000000000E+00 0. -1.
        -11    1    4    4    0    0  0.27345909568E-01  0.49784909228E-01 -0.69376757004E-01  0.89664549797E-01  0.51100000000E-03 0. -1.
         11    1    4    4    0    0  0.35952636954E-03  0.28373335942E-01 -0.30245627076E-01  0.41475710119E-01  0.51100000000E-03 0.  1.
</event>
<event>
 8    1  0.1129676E+005  0.1043930E+01  0.7957747E-01            NaN
         13   -1    0    0    0    0  0.00000000000E+00  0.00000000000E+00  0.74505805969E-08  0.10566000000E+00  0.10566000000E+00 0.  1.
     999900   -1    0    0    0    0 -0.00000000000E+00 -0.00000000000E+00 -0.74505805969E-08  0.93827000000E+00  0.93827000000E+00 0.  1.
     999902    2    1    2    0    0  0.90154625728E-02 -0.20867718756E-01 -0.63492354262E-02  0.10203280289E+01  0.10200550149E+01 0.  0.
     999903    2    3    3    0    0 -0.87765913550E-02  0.10734814719E+00 -0.66292572748E-01  0.12884102998E+00  0.24589683699E-01 0.  0.
         14    1    1    2    0    0 -0.90154625728E-02  0.20867718756E-01  0.63492354262E-02  0.23601971146E-01  0.00000000000E+00 0. -1.
     999901    1    3    3    0    0  0.17792053928E-01 -0.12821586595E+00  0.59943337322E-01  0.89148699887E+00  0.88000000000E+00 0. -1.
        -11    1    4    4    0    0  0.23145916187E-02  0.86065879763E-01 -0.56097838146E-01  0.10276147897E+00  0.51100000000E-03 0.  1.
         11    1    4    4    0    0 -0.11091182974E-01  0.21282267429E-01 -0.10194734603E-01  0.26079551018E-01  0.51100000000E-03 0. -1.
</event>
<event>
 8    1  0.1129676E+005  0.1043930E+01  0.7957747E-01            NaN
         13   -1    0    0    0    0  0.00000000000E+00  0.00000000000E+00  0.74505805969E-08  0.10566000000E+00  0.10566000000E+00 0. -1.
     999900   -1    0    0    0    0 -0.00000000000E+00 -0.00000000000E+00 -0.74505805969E-08  0.93827000000E+00  0.93827000000E+00 0. -1.
     999902    2    1    2    0    0  0.15188333017E-01  0.11988783590E-01 -0.13454106295E-01  0.10203624510E+01  0.10200902421E+01 0.  0.
     999903    2    3    3    0    0  0.42941969642E-01 -0.10349959461E+00 -0.64703581246E-01  0.13090512285E+00  0.19834790675E-01 0.  0.
         14    1    1    2    0    0 -0.15188333017E-01 -0.11988783590E-01  0.13454106295E-01  0.23567549045E-01  0.00000000000E+00 0.  1.
     999901    1    3    3    0    0 -0.27753636626E-01  0.11548837820E+00  0.51249474951E-01  0.88945732811E+00  0.88000000000E+00 0.  1.
        -11    1    4    4    0    0  0.95729345453E-02 -0.46178406678E-01 -0.31636614679E-01  0.56791045320E-01  0.51100000000E-03 0.  1.
         11    1    4    4    0    0  0.33369035097E-01 -0.57321187927E-01 -0.33066966567E-01  0.74114077526E-01  0.51100000000E-03 0. -1.
</event>
<event>
 8    1  0.1129676E+005  0.1043930E+01  0.7957747E-01            NaN
         13   -1    0    0    0    0  0.00000000000E+00  0.00000000000E+00  0.74505805969E-08  0.10566000000E+00  0.10566000000E+00 0. -1.
     999900   -1    0    0    0    0 -0.00000000000E+00 -0.00000000000E+00 -0.74505805969E-08  0.93827000000E+00  0.93827000000E+00 0. -1.
     999902    2    1    2    0    0  0.18483197505E-01 -0.89461100431E-02 -0.10332166689E-01  0.10209427178E+01  0.10206838971E+01 0.  0.
     999903    2    3    3    0    0  0.12369064361E+00 -0.19273308005E-01 -0.44750351465E-01  0.13394786483E+00  0.16389045708E-01 0.  0.
         14    1    1    2    0    0 -0.18483197505E-01  0.89461100431E-02  0.10332166689E-01  0.22987282210E-01  0.00000000000E+00 0. -1.
     999901    1    3    3    0    0 -0.10520744610E+00  0.10327197962E-01  0.34418184776E-01  0.88699485296E+00  0.88000000000E+00 0.  1.
        -11    1    4    4    0    0  0.35485904831E-01 -0.10921798994E-01 -0.18828586260E-01  0.41633062781E-01  0.51100000000E-03 0.  1.
         11    1    4    4    0    0  0.88204738775E-01 -0.83515090113E-02 -0.25921765205E-01  0.92314802050E-01  0.51100000000E-03 0. -1.
</event>
<event>
 8    1  0.1129676E+005  0.1043930E+01  0.7957747E-01            NaN
         13   -1    0    0    0    0  0.00000000000E+00  0.00000000000E+00  0.74505805969E-08  0.10566000000E+00  0.10566000000E+00 0.  1.
     999900   -1    0    0    0    0 -0.00000000000E+00 -0.00000000000E+00 -0.74505805969E-08  0.93827000000E+00  0.93827000000E+00 0.  1.
     999902    2    1    2    0    0 -0.58976868367E-02 -0.20576047689E-01  0.10468797590E-01  0.10201024493E+01  0.10198241294E+01 0.  0.
     999903    2    3    3    0    0  0.56836269957E-01 -0.97669198040E-02 -0.11264194823E+00  0.12925530063E+00  0.26324322138E-01 0.  0.
         14    1    1    2    0    0  0.58976868367E-02  0.20576047689E-01 -0.10468797590E-01  0.23827550682E-01  0.00000000000E+00 0. -1.
     999901    1    3    3    0    0 -0.62733956793E-01 -0.10809127885E-01  0.12311074582E+00  0.89084714868E+00  0.88000000000E+00 0. -1.
        -11    1    4    4    0    0  0.33265662865E-01 -0.18313502224E-01 -0.74255006657E-01  0.83402972514E-01  0.51100000000E-03 0.  1.
         11    1    4    4    0    0  0.23570607092E-01  0.85465824201E-02 -0.38386941573E-01  0.45852328121E-01  0.51100000000E-03 0. -1.
</event>
<event>
 8    1  0.1129676E+005  0.1043930E+01  0.7957747E-01            NaN
         13   -1    0    0    0    0  0.00000000000E+00  0.00000000000E+00  0.74505805969E-08  0.10566000000E+00  0.10566000000E+00 0.  1.
     999900   -1    0    0    0    0 -0.00000000000E+00 -0.00000000000E+00 -0.74505805969E-08  0.93827000000E+00  0.93827000000E+00 0. -1.
     999902    2    1    2    0    0 -0.19725176216E-01 -0.45642769921E-02  0.85580654422E-02  0.10219491973E+01  0.10217127807E+01 0.  0.
     999903    2    3    3    0    0  0.12798173517E+00 -0.11552259264E-01  0.31571894109E-02  0.12959538129E+00  0.16498962866E-01 0.  0.
         14    1    1    2    0    0  0.19725176216E-01  0.45642769921E-02 -0.85580654422E-02  0.21980802654E-01  0.00000000000E+00 0. -1.
     999901    1    3    3    0    0 -0.14770691139E+00  0.69879822722E-02  0.54008760313E-02  0.89235381606E+00  0.88000000000E+00 0.  1.
        -11    1    4    4    0    0  0.20124745292E-01  0.40994672095E-02  0.14238027874E-02  0.20593672326E-01  0.51100000000E-03 0. -1.
         11    1    4    4    0    0  0.10785698988E+00 -0.15651726474E-01  0.17333866234E-02  0.10900170896E+00  0.51100000000E-03 0.  1.
</event>
<event>
 8    1  0.1129676E+005  0.1043930E+01  0.7957747E-01            NaN
         13   -1    0    0    0    0  0.00000000000E+00  0.00000000000E+00  0.74505805969E-08  0.10566000000E+00  0.10566000000E+00 0. -1.
     999900   -1    0    0    0    0 -0.00000000000E+00 -0.00000000000E+00 -0.74505805969E-08  0.93827000000E+00  0.93827000000E+00 0.  1.
     999902    2    1    2    0    0 -0.14734688342E-01 -0.10471501777E-01 -0.14873440311E-01  0.10205209715E+01  0.10202524543E+01 0.  0.
     999903    2    3    3    0    0  0.88763201948E-01 -0.60091960835E-02 -0.93960858083E-01  0.13092187912E+00  0.19921825272E-01 0.  0.
         14    1    1    2    0    0  0.14734688342E-01  0.10471501777E-01  0.14873440311E-01  0.23409028530E-01  0.00000000000E+00 0. -1.
     999901    1    3    3    0    0 -0.10349789029E+00 -0.44623056937E-02  0.79087417772E-01  0.88959909235E+00  0.88000000000E+00 0.  1.
        -11    1    4    4    0    0  0.22387329671E-01  0.66403074061E-02 -0.20102581946E-01  0.30816572394E-01  0.51100000000E-03 0. -1.
         11    1    4    4    0    0  0.66375872277E-01 -0.12649503490E-01 -0.73858276137E-01  0.10010530672E+00  0.51100000000E-03 0.  1.
</event>
<event>
 8    1  0.1129676E+005  0.1043930E+01  0.7957747E-01            NaN
         13   -1    0    0    0    0  0.00000000000E+00  0.00000000000E+00  0.74505805969E-08  0.10566000000E+00  0.10566000000E+00 0.  1.
     999900   -1    0    0    0    0 -0.00000000000E+00 -0.00000000000E+00 -0.74505805969E-08  0.93827000000E+00  0.93827000000E+00 0. -1.
     999902    2    1    2    0    0  0.81859225409E-02  0.10361270551E-01 -0.20973855416E-01  0.10191455721E+01  0.10188441634E+01 0.  0.
     999903    2    3    3    0    0  0.39565512989E-01 -0.11577505471E+00  0.31922380096E-01  0.12802657725E+00  0.20061730268E-01 0.  0.
         14    1    1    2    0    0 -0.81859225409E-02 -0.10361270551E-01  0.20973855416E-01  0.24784427899E-01  0.00000000000E+00 0.  1.
     999901    1    3    3    0    0 -0.31379590448E-01  0.12613632526E+00 -0.52896235512E-01  0.89111899485E+00  0.88000000000E+00 0. -1.
        -11    1    4    4    0    0  0.24472806578E-02 -0.34923693634E-01  0.85666300899E-02  0.36045829603E-01  0.51100000000E-03 0.  1.
         11    1    4    4    0    0  0.37118232331E-01 -0.80851361075E-01  0.23355750006E-01  0.91980747651E-01  0.51100000000E-03 0. -1.
</event>
<event>
 8    1  0.1129676E+005  0.1043930E+01  0.7957747E-01            NaN
         13   -1    0    0    0    0  0.00000000000E+00  0.00000000000E+00  0.74505805969E-08  0.10566000000E+00  0.10566000000E+00 0. -1.
     999900   -1    0    0    0    0 -0.00000000000E+00 -0.00000000000E+00 -0.74505805969E-08  0.93827000000E+00  0.93827000000E+00 0.  1.
     999902    2    1    2    0    0 -0.87701778571E-02 -0.22378005751E-01 -0.73578223038E-02  0.10187937968E+01  0.10184836630E+01 0.  0.
     999903    2    3    3    0    0 -0.63801637138E-01  0.84720814465E-01  0.67658785970E-01  0.12743185557E+00  0.20319970216E-01 0.  0.
         14    1    1    2    0    0  0.87701778571E-02  0.22378005751E-01  0.73578223038E-02  0.25136203176E-01  0.00000000000E+00 0.  1.
     999901    1    3    3    0    0  0.55031459281E-01 -0.10709882022E+00 -0.75016608274E-01  0.89136194126E+00  0.88000000000E+00 0.  1.
        -11    1    4    4    0    0 -0.34187400840E-01  0.33612858710E-01  0.38852493966E-01  0.61712073820E-01  0.51100000000E-03 0. -1.
         11    1    4    4    0    0 -0.29614236298E-01  0.51107955756E-01  0.28806292004E-01  0.65719781748E-01  0.51100000000E-03 0.  1.
</event>
<event>
 8    1  0.1129676E+005  0.1043930E+01  0.7957747E-01            NaN
         13   -1    0    0    0    0  0.00000000000E+00  0.00000000000E+00  0.74505805969E-08  0.10566000000E+00  0.10566000000E+00 0. -1.
     999900   -1    0    0    0    0 -0.00000000000E+00 -0.00000000000E+00 -0.74505805969E-08  0.93827000000E+00  0.93827000000E+00 0. -1.
     999902    2    1    2    0    0 -0.18285421485E-01  0.15341203468E-01  0.19312569601E-02  0.10199834154E+01  0.10197022745E+01 0.  0.
     999903    2    3    3    0    0  0.38364725234E-01  0.24690621226E-01 -0.11980232249E+00  0.12974989818E+00  0.20024002691E-01 0.  0.
         14    1    1    2    0    0  0.18285421485E-01 -0.15341203468E-01 -0.19312569601E-02  0.23946584645E-01  0.00000000000E+00 0. -1.
     999901    1    3    3    0    0 -0.56650146718E-01 -0.93494177583E-02  0.12173357945E+00  0.89023351718E+00  0.88000000000E+00 0.  1.
        -11    1    4    4    0    0  0.29045006480E-01  0.27466043229E-01 -0.92782007082E-01  0.10102850039E+00  0.51100000000E-03 0. -1.
         11    1    4    4    0    0  0.93197187535E-02 -0.27754220029E-02 -0.27020315412E-01  0.28721397789E-01  0.51100000000E-03 0.  1.
</event>
<event>
 8    1  0.1129676E+005  0.1043930E+01  0.7957747E-01            NaN
         13   -1    0    0    0    0  0.00000000000E+00  0.00000000000E+00  0.74505805969E-08  0.10566000000E+00  0.10566000000E+00 0. -1.
     999900   -1    0    0    0    0 -0.00000000000E+00 -0.00000000000E+00 -0.74505805969E-08  0.93827000000E+00  0.93827000000E+00 0.  1.
     999902    2    1    2    0    0 -0.18726022271E-01 -0.49940227217E-02  0.12049640641E-01  0.10211090006E+01  0.10208539529E+01 0.  0.
     999903    2    3    3    0    0 -0.38627317021E-01  0.11868179943E+00  0.37739286143E-01  0.13186677918E+00  0.19676244451E-01 0.  0.
         14    1    1    2    0    0  0.18726022271E-01  0.49940227217E-02 -0.12049640641E-01  0.22820999378E-01  0.00000000000E+00 0.  1.
     999901    1    3    3    0    0  0.19901294751E-01 -0.12367582215E+00 -0.25689645501E-01  0.88924222145E+00  0.88000000000E+00 0.  1.
        -11    1    4    4    0    0 -0.20388645798E-01  0.52473539897E-01  0.26702041041E-01  0.62309143660E-01  0.51100000000E-03 0. -1.
         11    1    4    4    0    0 -0.18238671223E-01  0.66208259531E-01  0.11037245102E-01  0.69557635516E-01  0.51100000000E-03 0.  1.
</event>
<event>
 8    1  0.1129676E+005  0.1043930E+01  0.7957747E-01            NaN
         13   -1    0    0    0    0  0.00000000000E+00  0.00000000000E+00  0.74505805969E-08  0.10566000000E+00  0.10566000000E+00 0. -1.
     999900   -1    0    0    0    0 -0.00000000000E+00 -0.00000000000E+00 -0.74505805969E-08  0.93827000000E+00  0.93827000000E+00 0. -1.
     999902    2    1    2    0    0 -0.12551837786E-01  0.20246230736E-02  0.19437629496E-01  0.10207035244E+01  0.10204392267E+01 0.  0.
     999903    2    3    3    0    0  0.88563745427E-01  0.36740352108E-01  0.88179566217E-01  0.13157192731E+00  0.18497180310E-01 0.  0.
         14    1    1    2    0    0  0.12551837786E-01 -0.20246230736E-02 -0.19437629496E-01  0.23226475644E-01  0.00000000000E+00 0.  1.
     999901    1    3    3    0    0 -0.10111558321E+00 -0.34715729035E-01 -0.68741936721E-01  0.88913159705E+00  0.88000000000E+00 0. -1.
        -11    1    4    4    0    0  0.52809942768E-01  0.29630947322E-01  0.62162898888E-01  0.86783467398E-01  0.51100000000E-03 0.  1.
         11    1    4    4    0    0  0.35753802658E-01  0.71094047864E-02  0.26016667329E-01  0.44788459907E-01  0.51100000000E-03 0. -1.
</event>
<event>
 8    1  0.1129676E+005  0.1043930E+01  0.7957747E-01            NaN
         13   -1    0    0    0    0  0.00000000000E+00  0.00000000000E+00  0.74505805969E-08  0.10566000000E+00  0.10566000000E+00 0. -1.
     999900   -1    0    0    0    0 -0.00000000000E+00 -0.00000000000E+00 -0.74505805969E-08  0.93827000000E+00  0.93827000000E+00 0. -1.
     999902    2    1    2    0    0  0.17927027437E-01  0.37884441924E-02  0.13241311855E-01  0.10213232983E+01  0.10210730712E+01 0.  0.
     999903    2    3    3    0    0 -0.42955802512E-01  0.75746082552E-01 -0.94174049896E-01  0.12979501460E+00  0.19882760100E-01 0.  0.
         14    1    1    2    0    0 -0.17927027437E-01 -0.37884441924E-02 -0.13241311855E-01  0.22606701700E-01  0.00000000000E+00 0.  1.
     999901    1    3    3    0    0  0.60882829949E-01 -0.71957638360E-01  0.10741536175E+00  0.89152828370E+00  0.88000000000E+00 0.  1.
        -11    1    4    4    0    0 -0.36957072982E-01  0.48276658228E-01 -0.58546181225E-01  0.84406027214E-01  0.51100000000E-03 0. -1.
         11    1    4    4    0    0 -0.59987295300E-02  0.27469424324E-01 -0.35627868671E-01  0.45388987383E-01  0.51100000000E-03 0.  1.
</event>
<event>
 8    1  0.1129676E+005  0.1043930E+01  0.7957747E-01            NaN
         13   -1    0    0    0    0  0.00000000000E+00  0.00000000000E+00  0.74505805969E-08  0.10566000000E+00  0.10566000000E+00 0.  1.
     999900   -1    0    0    0    0 -0.00000000000E+00 -0.00000000000E+00 -0.74505805969E-08  0.93827000000E+00  0.93827000000E+00 0.  1.
     999902    2    1    2    0    0  0.14529902641E-01  0.95653703041E-02  0.16678763955E-01  0.10198302999E+01  0.10195455090E+01 0.  0.
     999903    2    3    3    0    0  0.83458068457E-01  0.78122112513E-01  0.65568786121E-01  0.13312778311E+00  0.18852778781E-01 0.  0.
         14    1    1    2    0    0 -0.14529902641E-01 -0.95653703041E-02 -0.16678763955E-01  0.24099700141E-01  0.00000000000E+00 0. -1.
     999901    1    3    3    0    0 -0.68928165816E-01 -0.68556742209E-01 -0.48890022166E-01  0.88670251675E+00  0.88000000000E+00 0.  1.
        -11    1    4    4    0    0  0.53442070809E-01  0.38401602942E-01  0.41735081513E-01  0.77928275939E-01  0.51100000000E-03 0. -1.
         11    1    4    4    0    0  0.30015997648E-01  0.39720509571E-01  0.23833704609E-01  0.55199507169E-01  0.51100000000E-03 0.  1.
</event>
<event>
 8    1  0.1129676E+005  0.1043930E+01  0.7957747E-01            NaN
         13   -1    0    0    0    0  0.00000000000E+00  0.00000000000E+00  0.74505805969E-08  0.10566000000E+00  0.10566000000E+00 0.  1.
     999900   -1    0    0    0    0 -0.00000000000E+00 -0.00000000000E+00 -0.74505805969E-08  0.93827000000E+00  0.93827000000E+00 0.  1.
     999902    2    1    2    0    0 -0.18080173228E-01 -0.81346778562E-02 -0.12013571274E-01  0.10207482929E+01  0.10204850249E+01 0.  0.
     999903    2    3    3    0    0  0.40884326857E-01 -0.11076199201E+00  0.52805658011E-01  0.13046142323E+00  0.17087959974E-01 0.  0.
         14    1    1    2    0    0  0.18080173228E-01  0.81346778562E-02  0.12013571274E-01  0.23181707066E-01  0.00000000000E+00 0.  1.
     999901    1    3    3    0    0 -0.58964500084E-01  0.10262731416E+00 -0.64819229285E-01  0.89028686970E+00  0.88000000000E+00 0. -1.
        -11    1    4    4    0    0  0.26838434256E-01 -0.81915363415E-01  0.30741040893E-01  0.91518856160E-01  0.51100000000E-03 0. -1.
         11    1    4    4    0    0  0.14045892601E-01 -0.28846628598E-01  0.22064617118E-01  0.38942567070E-01  0.51100000000E-03 0.  1.
</event>
<event>
 8    1  0.1129676E+005  0.1043930E+01  0.7957747E-01            NaN
         13   -1    0    0    0    0  0.00000000000E+00  0.00000000000E+00  0.74505805969E-08  0.10566000000E+00  0.10566000000E+00 0. -1.
     999900   -1    0    0    0    0 -0.00000000000E+00 -0.00000000000E+00 -0.74505805969E-08  0.93827000000E+00  0.93827000000E+00 0. -1.
     999902    2    1    2    0    0  0.11722528522E-01  0.98936571024E-02 -0.17170338027E-01  0.10209056079E+01  0.10206459413E+01 0.  0.
     999903    2    3    3    0    0  0.11423224010E+00 -0.52181678152E-02 -0.67162414516E-01  0.13341712008E+00  0.14598083906E-01 0.  0.
         14    1    1    2    0    0 -0.11722528522E-01 -0.98936571024E-02  0.17170338027E-01  0.23024392148E-01  0.00000000000E+00 0. -1.
     999901    1    3    3    0    0 -0.10250971157E+00  0.15111824918E-01  0.49992076489E-01  0.88748848777E+00  0.88000000000E+00 0. -1.
        -11    1    4    4    0    0  0.25700095360E-01 -0.18889236075E-02 -0.84162182571E-02  0.27113774814E-01  0.51100000000E-03 0.  1.
         11    1    4    4    0    0  0.88532144735E-01 -0.33292442077E-02 -0.58746196259E-01  0.10630334526E+00  0.51100000000E-03 0. -1.
</event>
<event>
 8    1  0.1129676E+005  0.1043930E+01  0.7957747E-01            NaN
         13   -1    0    0    0    0  0.00000000000E+00  0.00000000000E+00  0.74505805969E-08  0.10566000000E+00  0.10566000000E+00 0.  1.
     999900   -1    0    0    0    0 -0.00000000000E+00 -0.00000000000E+00 -0.74505805969E-08  0.93827000000E+00  0.93827000000E+00 0. -1.
     999902    2    1    2    0    0  0.16088988273E-01  0.15958554700E-01  0.77077118895E-02  0.10199938384E+01  0.10197129451E+01 0.  0.
     999903    2    3    3    0    0 -0.12523327355E+00 -0.48950405620E-03 -0.18447515151E-01  0.12818297487E+00  0.20173046680E-01 0.  0.
         14    1    1    2    0    0 -0.16088988273E-01 -0.15958554700E-01 -0.77077118895E-02  0.23936161646E-01  0.00000000000E+00 0. -1.
     999901    1    3    3    0    0  0.14132226183E+00  0.16448058757E-01  0.26155227041E-01  0.89181086348E+00  0.88000000000E+00 0.  1.
        -11    1    4    4    0    0 -0.26431565282E-01  0.45459401888E-02 -0.10932250070E-01  0.28966677891E-01  0.51100000000E-03 0. -1.
         11    1    4    4    0    0 -0.98801708272E-01 -0.50354442450E-02 -0.75152650809E-02  0.99216296980E-01  0.51100000000E-03 0.  1.
</event>
<event>
 8    1  0.1129676E+005  0.1043930E+01  0.7957747E-01            NaN
         13   -1    0    0    0    0  0.00000000000E+00  0.00000000000E+00  0.74505805969E-08  0.10566000000E+00  0.10566000000E+00 0. -1.
     999900   -1    0    0    0    0 -0.00000000000E+00 -0.00000000000E+00 -0.74505805969E-08  0.93827000000E+00  0.93827000000E+00 0.  1.
     999902    2    1    2    0    0  0.14541860578E-01 -0.13894428382E-01 -0.81571044001E-02  0.10222261017E+01  0.10219956672E+01 0.  0.
     999903    2    3    3    0    0 -0.78152857425E-01 -0.85821452635E-01  0.58379475500E-01  0.13194922116E+00  0.23005280892E-01 0.  0.
         14    1    1    2    0    0 -0.14541860578E-01  0.13894428382E-01  0.81571044001E-02  0.21703898298E-01  0.00000000000E+00 0. -1.
     999901    1    3    3    0    0  0.92694718004E-01  0.71927024253E-01 -0.66536579900E-01  0.89027688054E+00  0.88000000000E+00 0.  1.
        -11    1    4    4    0    0 -0.45732292320E-01 -0.59406247882E-01  0.27084867515E-01  0.79714465548E-01  0.51100000000E-03 0. -1.
         11    1    4    4    0    0 -0.32420565105E-01 -0.26415204752E-01  0.31294607985E-01  0.52234755612E-01  0.51100000000E-03 0.  1.
</event>
<event>
 8    1  0.1295727E+005  0.1043930E+01  0.7957747E-01            NaN
         13   -1    0    0    0    0  0.00000000000E+00  0.00000000000E+00  0.74505805969E-08  0.10566000000E+00  0.10566000000E+00 0.  1.
     999900   -1    0    0    0    0 -0.00000000000E+00 -0.00000000000E+00 -0.74505805969E-08  0.93827000000E+00  0.93827000000E+00 0. -1.
     999902    2    1    2    0    0 -0.47884222798E-02  0.13588264679E-01 -0.17348790304E-01  0.10213789368E+01  0.10211299536E+01 0.  0.
     999903    2    3    3    0    0 -0.18969319200E-01 -0.41979516689E-01  0.11893279902E+00  0.12904405141E+00  0.19627573161E-01 0.  0.
         14    1    1    2    0    0  0.47884222798E-02 -0.13588264679E-01  0.17348790304E-01  0.22551063166E-01  0.00000000000E+00 0.  1.
     999901    1    3    3    0    0  0.14180896920E-01  0.55567781367E-01 -0.13628158932E+00  0.89233488543E+00  0.88000000000E+00 0. -1.
        -11    1    4    4    0    0 -0.11797042861E-01 -0.19137462042E-01  0.81996740620E-01  0.85024345143E-01  0.51100000000E-03 0.  1.
         11    1    4    4    0    0 -0.71722763395E-02 -0.22842054646E-01  0.36936058400E-01  0.44019706263E-01  0.51100000000E-03 0. -1.
</event>
<event>
 8    1  0.1129676E+005  0.1043930E+01  0.7957747E-01            NaN
         13   -1    0    0    0    0  0.00000000000E+00  0.00000000000E+00  0.74505805969E-08  0.10566000000E+00  0.10566000000E+00 0. -1.
     999900   -1    0    0    0    0 -0.00000000000E+00 -0.00000000000E+00 -0.74505805969E-08  0.93827000000E+00  0.93827000000E+00 0. -1.
     999902    2    1    2    0    0 -0.45868650484E-03  0.27036311676E-01 -0.30821225657E-02  0.10167147098E+01  0.10163503968E+01 0.  0.
     999903    2    3    3    0    0 -0.89216985708E-01  0.85183722237E-01 -0.34444234347E-01  0.12978588564E+00  0.21024598893E-01 0.  0.
         14    1    1    2    0    0  0.45868650484E-03 -0.27036311676E-01  0.30821225657E-02  0.27215290222E-01  0.00000000000E+00 0.  1.
     999901    1    3    3    0    0  0.88758299203E-01 -0.58147410561E-01  0.31362111781E-01  0.88692882414E+00  0.88000000000E+00 0.  1.
        -11    1    4    4    0    0 -0.44374461487E-01  0.45436120366E-01 -0.70692853636E-02  0.63904379997E-01  0.51100000000E-03 0. -1.
         11    1    4    4    0    0 -0.44842524221E-01  0.39747601870E-01 -0.27374948983E-01  0.65881505643E-01  0.51100000000E-03 0.  1.
</event>
<event>
 8    1  0.1129676E+005  0.1043930E+01  0.7957747E-01            NaN
         13   -1    0    0    0    0  0.00000000000E+00  0.00000000000E+00  0.74505805969E-08  0.10566000000E+00  0.10566000000E+00 0. -1.
     999900   -1    0    0    0    0 -0.00000000000E+00 -0.00000000000E+00 -0.74505805969E-08  0.93827000000E+00  0.93827000000E+00 0. -1.
     999902    2    1    2    0    0  0.25027625903E-01  0.83215050343E-02 -0.52984178960E-02  0.10170282763E+01  0.10166724212E+01 0.  0.
     999903    2    3    3    0    0  0.10563920374E+00  0.69277248104E-01 -0.27098646482E-01  0.13097575020E+00  0.21478641188E-01 0.  0.
         14    1    1    2    0    0 -0.25027625903E-01 -0.83215050343E-02  0.52984178960E-02  0.26901723673E-01  0.00000000000E+00 0.  1.
     999901    1    3    3    0    0 -0.80611577836E-01 -0.60955743070E-01  0.21800228586E-01  0.88605252613E+00  0.88000000000E+00 0. -1.
        -11    1    4    4    0    0  0.39280911608E-01  0.25089568422E-01 -0.20672839357E-01  0.50991213639E-01  0.51100000000E-03 0. -1.
         11    1    4    4    0    0  0.66358292131E-01  0.44187679682E-01 -0.64258071244E-02  0.79984536558E-01  0.51100000000E-03 0.  1.
</event>
<event>
 8    1  0.1129676E+005  0.1043930E+01  0.7957747E-01            NaN
         13   -1    0    0    0    0  0.00000000000E+00  0.00000000000E+00  0.74505805969E-08  0.10566000000E+00  0.10566000000E+00 0. -1.
     999900   -1    0    0    0    0 -0.00000000000E+00 -0.00000000000E+00 -0.74505805969E-08  0.93827000000E+00  0.93827000000E+00 0. -1.
     999902    2    1    2    0    0 -0.24235053313E-01 -0.15297944779E-01  0.98180934096E-02  0.10136354480E+01  0.10131826398E+01 0.  0.
     999903    2    3    3    0    0  0.11557113716E+00  0.25412324506E-01  0.15849723646E-01  0.12164919390E+00  0.23341779153E-01 0.  0.
         14    1    1    2    0    0  0.24235053313E-01  0.15297944779E-01 -0.98180934096E-02  0.30294552014E-01  0.00000000000E+00 0.  1.
     999901    1    3    3    0    0 -0.13980619048E+00 -0.40710269286E-01 -0.60316302364E-02  0.89198625409E+00  0.88000000000E+00 0.  1.
        -11    1    4    4    0    0  0.63222000841E-01  0.10365637767E-01 -0.26484219596E-02  0.64122874987E-01  0.51100000000E-03 0. -1.
         11    1    4    4    0    0  0.52349136322E-01  0.15046686739E-01  0.18498145606E-01  0.57526318910E-01  0.51100000000E-03 0.  1.
</event>
<event>
 8    1  0.1129676E+005  0.1043930E+01  0.7957747E-01            NaN
         13   -1    0    0    0    0  0.00000000000E+00  0.00000000000E+00  0.74505805969E-08  0.10566000000E+00  0.10566000000E+00 0. -1.
     999900   -1    0    0    0    0 -0.00000000000E+00 -0.00000000000E+00 -0.74505805969E-08  0.93827000000E+00  0.93827000000E+00 0. -1.
     999902    2    1    2    0    0 -0.14598608949E-01  0.83799105985E-02  0.18001741553E-01  0.10192844125E+01  0.10189864124E+01 0.  0.
     999903    2    3    3    0    0 -0.79570408243E-01  0.10296122040E+00  0.40792643930E-02  0.13172551628E+00  0.20062613672E-01 0.  0.
         14    1    1    2    0    0  0.14598608949E-01 -0.83799105985E-02 -0.18001741553E-01  0.24645587512E-01  0.00000000000E+00 0.  1.
     999901    1    3    3    0    0  0.64971799294E-01 -0.94581309801E-01  0.13922477160E-01  0.88755889621E+00  0.88000000000E+00 0.  1.
        -11    1    4    4    0    0 -0.65408635837E-01  0.92358051408E-01 -0.14468401524E-02  0.11318415865E+00  0.51100000000E-03 0.  1.
         11    1    4    4    0    0 -0.14161772406E-01  0.10603168992E-01  0.55261045455E-02  0.18541357631E-01  0.51100000000E-03 0. -1.
</event>
<event>
 8    1  0.1129676E+005  0.1043930E+01  0.7957747E-01            NaN
         13   -1    0    0    0    0  0.00000000000E+00  0.00000000000E+00  0.74505805969E-08  0.10566000000E+00  0.10566000000E+00 0.  1.
     999900   -1    0    0    0    0 -0.00000000000E+00 -0.00000000000E+00 -0.74505805969E-08  0.93827000000E+00  0.93827000000E+00 0.  1.
     999902    2    1    2    0    0 -0.15461051974E-01 -0.66647151391E-02  0.16669816831E-01  0.10202372722E+01  0.10199621298E+01 0.  0.
     999903    2    3    3    0    0  0.11567820375E+00 -0.60248673456E-02  0.54641695588E-01  0.12970946392E+00  0.20520338321E-01 0.  0.
         14    1    1    2    0    0  0.15461051974E-01  0.66647151391E-02 -0.16669816831E-01  0.23692727770E-01  0.00000000000E+00 0. -1.
     999901    1    3    3    0    0 -0.13113925572E+00 -0.63984779344E-03 -0.37971878756E-01  0.89052780831E+00  0.88000000000E+00 0. -1.
        -11    1    4    4    0    0  0.21115758124E-01 -0.79743234733E-02  0.15281866664E-01  0.27262825344E-01  0.51100000000E-03 0.  1.
         11    1    4    4    0    0  0.94562445624E-01  0.19494561276E-02  0.39359828924E-01  0.10244663858E+00  0.51100000000E-03 0. -1.
</event>
<event>
 8    1  0.1129676E+005  0.1043930E+01  0.7957747E-01            NaN
         13   -1    0    0    0    0  0.00000000000E+00  0.00000000000E+00  0.74505805969E-08  0.10566000000E+00  0.10566000000E+00 0. -1.
     999900   -1    0    0    0    0 -0.00000000000E+00 -0.00000000000E+00 -0.74505805969E-08  0.93827000000E+00  0.93827000000E+00 0. -1.
     999902    2    1    2    0    0  0.15806965346E-01 -0.17103805719E-01 -0.58846402697E-02  0.10199085655E+01  0.10196256434E+01 0.  0.
     999903    2    3    3    0    0 -0.56841869960E-01  0.41039824434E-02  0.11359196635E+00  0.12861608654E+00  0.19776805773E-01 0.  0.
         14    1    1    2    0    0 -0.15806965346E-01  0.17103805719E-01  0.58846402697E-02  0.24021434483E-01  0.00000000000E+00 0.  1.
     999901    1    3    3    0    0  0.72648835306E-01 -0.21207788162E-01 -0.11947660662E+00  0.89129247898E+00  0.88000000000E+00 0. -1.
        -11    1    4    4    0    0 -0.38079197328E-01  0.56777028346E-02  0.55511214398E-01  0.67557513451E-01  0.51100000000E-03 0. -1.
         11    1    4    4    0    0 -0.18762672632E-01 -0.15737203912E-02  0.58080751947E-01  0.61058573091E-01  0.51100000000E-03 0.  1.
</event>
<event>
 8    1  0.1129676E+005  0.1043930E+01  0.7957747E-01            NaN
         13   -1    0    0    0    0  0.00000000000E+00  0.00000000000E+00  0.74505805969E-08  0.10566000000E+00  0.10566000000E+00 0. -1.
     999900   -1    0    0    0    0 -0.00000000000E+00 -0.00000000000E+00 -0.74505805969E-08  0.93827000000E+00  0.93827000000E+00 0.  1.
     999902    2    1    2    0    0 -0.14403398932E-01  0.15160608420E-01 -0.11045828479E-01  0.10202802162E+01  0.10200060820E+01 0.  0.
     999903    2    3    3    0    0  0.50785997736E-01 -0.11079150429E+00  0.23752275283E-01  0.12824630417E+00  0.32077546072E-01 0.  0.
         14    1    1    2    0    0  0.14403398932E-01 -0.15160608420E-01  0.11045828479E-01  0.23649783831E-01  0.00000000000E+00 0. -1.
     999901    1    3    3    0    0 -0.65189396668E-01  0.12595211271E+00 -0.34798103762E-01  0.89203391200E+00  0.88000000000E+00 0.  1.
        -11    1    4    4    0    0  0.22241024293E-01 -0.39092897593E-01  0.24189137396E-01  0.51071452817E-01  0.51100000000E-03 0. -1.
         11    1    4    4    0    0  0.28544973442E-01 -0.71698606700E-01 -0.43686211322E-03  0.77174851351E-01  0.51100000000E-03 0.  1.
</event>
<event>
 8    1  0.1129676E+005  0.1043930E+01  0.7957747E-01            NaN
         13   -1    0    0    0    0  0.00000000000E+00  0.00000000000E+00  0.74505805969E-08  0.10566000000E+00  0.10566000000E+00 0. -1.
     999900   -1    0    0    0    0 -0.00000000000E+00 -0.00000000000E+00 -0.74505805969E-08  0.93827000000E+00  0.93827000000E+00 0. -1.
     999902    2    1    2    0    0  0.14537868325E-01  0.16118779106E-01  0.82762887566E-02  0.10206993820E+01  0.10204349891E+01 0.  0.
     999903    2    3    3    0    0  0.49030812007E-02 -0.94957917899E-01  0.86793906832E-01  0.13019622197E+00  0.19412047178E-01 0.  0.
         14    1    1    2    0    0 -0.14537868325E-01 -0.16118779106E-01 -0.82762887566E-02  0.23230617962E-01  0.00000000000E+00 0. -1.
     999901    1    3    3    0    0  0.96347871245E-02  0.11107669700E+00 -0.78517618075E-01  0.89050316007E+00  0.88000000000E+00 0. -1.
        -11    1    4    4    0    0 -0.74470647033E-02 -0.35716266219E-01  0.34473965319E-01  0.50197866998E-01  0.51100000000E-03 0.  1.
         11    1    4    4    0    0  0.12350145904E-01 -0.59241651680E-01  0.52319941513E-01  0.79998354974E-01  0.51100000000E-03 0. -1.
</event>
<event>
 8    1  0.1129676E+005  0.1043930E+01  0.7957747E-01            NaN
         13   -1    0    0    0    0  0.00000000000E+00  0.00000000000E+00  0.74505805969E-08  0.10566000000E+00  0.10566000000E+00 0.  1.
     999900   -1    0    0    0    0 -0.00000000000E+00 -0.00000000000E+00 -0.74505805969E-08  0.93827000000E+00  0.93827000000E+00 0. -1.
     999902    2    1    2    0    0 -0.13976298766E-01  0.12958168516E-02 -0.19047972868E-01  0.10202690334E+01  0.10199946369E+01 0.  0.
     999903    2    3    3    0    0 -0.49347333266E-01  0.44630001631E-01 -0.11375535893E+00  0.13342155465E+00  0.20833463758E-01 0.  0.
         14    1    1    2    0    0  0.13976298766E-01 -0.12958168516E-02  0.19047972868E-01  0.23660966567E-01  0.00000000000E+00 0.  1.
     999901    1    3    3    0    0  0.35371034500E-01 -0.43334184779E-01  0.94707386067E-01  0.88684747879E+00  0.88000000000E+00 0.  1.
        -11    1    4    4    0    0 -0.39464716370E-01  0.39724016500E-01 -0.78142300513E-01  0.96135017426E-01  0.51100000000E-03 0. -1.
         11    1    4    4    0    0 -0.98826168965E-02  0.49059851308E-02 -0.35613058422E-01  0.37286537222E-01  0.51100000000E-03 0.  1.
</event>
<event>
 8    1  0.1129676E+005  0.1043930E+01  0.7957747E-01            NaN
         13   -1    0    0    0    0  0.00000000000E+00  0.00000000000E+00  0.74505805969E-08  0.10566000000E+00  0.10566000000E+00 0.  1.
     999900   -1    0    0    0    0 -0.00000000000E+00 -0.00000000000E+00 -0.74505805969E-08  0.93827000000E+00  0.93827000000E+00 0. -1.
     999902    2    1    2    0    0  0.49509839746E-02 -0.54313219287E-02 -0.22280395503E-01  0.10204688081E+01  0.10201990790E+01 0.  0.
     999903    2    3    3    0    0  0.64631824868E-01 -0.67116039465E-01  0.87715159359E-01  0.12947732151E+00  0.19712738616E-01 0.  0.
         14    1    1    2    0    0 -0.49509839746E-02  0.54313219287E-02  0.22280395503E-01  0.23461191870E-01  0.00000000000E+00 0.  1.
     999901    1    3    3    0    0 -0.59680840893E-01  0.61684717536E-01 -0.10999555486E+00  0.89099148662E+00  0.88000000000E+00 0.  1.
        -11    1    4    4    0    0  0.56836618295E-01 -0.50460266144E-01  0.63337829740E-01  0.98937260098E-01  0.51100000000E-03 0. -1.
         11    1    4    4    0    0  0.77952065726E-02 -0.16655773320E-01  0.24377329619E-01  0.30540061408E-01  0.51100000000E-03 0.  1.
</event>
<event>
 8    1  0.1129676E+005  0.1043930E+01  0.7957747E-01            NaN
         13   -1    0    0    0    0  0.00000000000E+00  0.00000000000E+00  0.74505805969E-08  0.10566000000E+00  0.10566000000E+00 0.  1.
     999900   -1    0    0    0    0 -0.00000000000E+00 -0.00000000000E+00 -0.74505805969E-08  0.93827000000E+00  0.93827000000E+00 0. -1.
     999902    2    1    2    0    0 -0.13093750549E-01  0.19916889618E-01  0.29505082416E-02  0.10199126252E+01  0.10196297998E+01 0.  0.
     999903    2    3    3    0    0  0.58312577551E-01 -0.11195705397E+00  0.22081908366E-02  0.12722558497E+00  0.15707792005E-01 0.  0.
         14    1    1    2    0    0  0.13093750549E-01 -0.19916889618E-01 -0.29505082416E-02  0.24017374844E-01  0.00000000000E+00 0. -1.
     999901    1    3    3    0    0 -0.71406328100E-01  0.13187394358E+00  0.74231740497E-03  0.89268704019E+00  0.88000000000E+00 0. -1.
        -11    1    4    4    0    0  0.26855680285E-01 -0.39750093602E-01 -0.44553854341E-02  0.48181003366E-01  0.51100000000E-03 0. -1.
         11    1    4    4    0    0  0.31456897266E-01 -0.72206960364E-01  0.66635762707E-02  0.79044581600E-01  0.51100000000E-03 0.  1.
</event>
<event>
 8    1  0.1144595E+005  0.1043930E+01  0.7957747E-01            NaN
         13   -1    0    0    0    0  0.00000000000E+00  0.00000000000E+00  0.74505805969E-08  0.10566000000E+00  0.10566000000E+00 0.  1.
     999900   -1    0    0    0    0 -0.00000000000E+00 -0.00000000000E+00 -0.74505805969E-08  0.93827000000E+00  0.93827000000E+00 0.  1.
     999902    2    1    2    0    0  0.17704871030E-01 -0.18904770415E-02 -0.16448231094E-01  0.10196899367E+01  0.10194017787E+01 0.  0.
     999903    2    3    3    0    0  0.19774640625E-01  0.18380383324E-01  0.12399758088E+00  0.12832008204E+00  0.19020212655E-01 0.  0.
         14    1    1    2    0    0 -0.17704871030E-01  0.18904770415E-02  0.16448231094E-01  0.24240063279E-01  0.00000000000E+00 0.  1.
     999901    1    3    3    0    0 -0.20697695952E-02 -0.20270860366E-01 -0.14044581197E+00  0.89136985468E+00  0.88000000000E+00 0.  1.
        -11    1    4    4    0    0  0.23180690873E-01  0.12975306497E-01  0.97120820027E-01  0.10068971056E+00  0.51100000000E-03 0.  1.
         11    1    4    4    0    0 -0.34060502479E-02  0.54050768269E-02  0.26876760851E-01  0.27630371489E-01  0.51100000000E-03 0. -1.
</event>
<event>
 8    1  0.1129676E+005  0.1043930E+01  0.7957747E-01            NaN
         13   -1    0    0    0    0  0.00000000000E+00  0.00000000000E+00  0.74505805969E-08  0.10566000000E+00  0.10566000000E+00 0. -1.
     999900   -1    0    0    0    0 -0.00000000000E+00 -0.00000000000E+00 -0.74505805969E-08  0.93827000000E+00  0.93827000000E+00 0.  1.
     999902    2    1    2    0    0 -0.75559509479E-02 -0.21736703873E-01 -0.57341907078E-02  0.10202138107E+01  0.10199381167E+01 0.  0.
     999903    2    3    3    0    0  0.10180563613E+00  0.61115874159E-01  0.43957172369E-01  0.12819714162E+00  0.20068295786E-01 0.  0.
         14    1    1    2    0    0  0.75559509479E-02  0.21736703873E-01  0.57341907078E-02  0.23716189261E-01  0.00000000000E+00 0. -1.
     999901    1    3    3    0    0 -0.10936158708E+00 -0.82852578032E-01 -0.49691363076E-01  0.89201666912E+00  0.88000000000E+00 0.  1.
        -11    1    4    4    0    0  0.17850651016E-01  0.15640941316E-01  0.17513181292E-02  0.23803634663E-01  0.51100000000E-03 0. -1.
         11    1    4    4    0    0  0.83954985114E-01  0.45474932842E-01  0.42205854239E-01  0.10439350696E+00  0.51100000000E-03 0.  1.
</event>
<event>
 8    1  0.1129676E+005  0.1043930E+01  0.7957747E-01            NaN
         13   -1    0    0    0    0  0.00000000000E+00  0.00000000000E+00  0.74505805969E-08  0.10566000000E+00  0.10566000000E+00 0.  1.
     999900   -1    0    0    0    0 -0.00000000000E+00 -0.00000000000E+00 -0.74505805969E-08  0.93827000000E+00  0.93827000000E+00 0. -1.
     999902    2    1    2    0    0 -0.14778753987E-01 -0.58231766928E-02 -0.14754807521E-01  0.10222499331E+01  0.10220200098E+01 0.  0.
     999903    2    3    3    0    0 -0.57477573517E-01 -0.10968020943E+00 -0.48340344474E-01  0.13447886985E+00  0.20355778899E-01 0.  0.
         14    1    1    2    0    0  0.14778753987E-01  0.58231766928E-02  0.14754807521E-01  0.21680066909E-01  0.00000000000E+00 0.  1.
     999901    1    3    3    0    0  0.42698819530E-01  0.10385703273E+00  0.33585536953E-01  0.88777106324E+00  0.88000000000E+00 0.  1.
        -11    1    4    4    0    0 -0.26995540913E-01 -0.58270828212E-01 -0.14663274417E-01  0.65875043737E-01  0.51100000000E-03 0. -1.
         11    1    4    4    0    0 -0.30482032604E-01 -0.51409381214E-01 -0.33677070057E-01  0.68603826111E-01  0.51100000000E-03 0.  1.
</event>
<event>
 8    1  0.1129676E+005  0.1043930E+01  0.7957747E-01            NaN
         13   -1    0    0    0    0  0.00000000000E+00  0.00000000000E+00  0.74505805969E-08  0.10566000000E+00  0.10566000000E+00 0. -1.
     999900   -1    0    0    0    0 -0.00000000000E+00 -0.00000000000E+00 -0.74505805969E-08  0.93827000000E+00  0.93827000000E+00 0.  1.
     999902    2    1    2    0    0  0.32494385853E-03  0.21641663912E-01  0.77792951118E-02  0.10209303340E+01  0.10206712312E+01 0.  0.
     999903    2    3    3    0    0  0.39707280398E-01 -0.31894985303E-01  0.11908919674E+00  0.13143214091E+00  0.22320678321E-01 0.  0.
         14    1    1    2    0    0 -0.32494385853E-03 -0.21641663912E-01 -0.77792951118E-02  0.22999666038E-01  0.00000000000E+00 0.  1.
     999901    1    3    3    0    0 -0.39382336540E-01  0.53536649215E-01 -0.11130990163E+00  0.88949819305E+00  0.88000000000E+00 0.  1.
        -11    1    4    4    0    0  0.18880201506E-01 -0.47735253624E-02  0.60867877976E-01  0.63909375240E-01  0.51100000000E-03 0.  1.
         11    1    4    4    0    0  0.20827078892E-01 -0.27121459940E-01  0.58221318763E-01  0.67522765671E-01  0.51100000000E-03 0. -1.
</event>
<event>
 8    1  0.1129676E+005  0.1043930E+01  0.7957747E-01            NaN
         13   -1    0    0    0    0  0.00000000000E+00  0.00000000000E+00  0.74505805969E-08  0.10566000000E+00  0.10566000000E+00 0.  1.
     999900   -1    0    0    0    0 -0.00000000000E+00 -0.00000000000E+00 -0.74505805969E-08  0.93827000000E+00  0.93827000000E+00 0.  1.
     999902    2    1    2    0    0 -0.10146321195E-01  0.14400474268E-01 -0.14463634843E-01  0.10211370575E+01  0.10208826436E+01 0.  0.
     999903    2    3    3    0    0 -0.90292353244E-01 -0.91840380295E-01  0.10860008815E-01  0.13077095725E+00  0.19893188797E-01 0.  0.
         14    1    1    2    0    0  0.10146321195E-01 -0.14400474268E-01  0.14463634843E-01  0.22792942456E-01  0.00000000000E+00 0.  1.
     999901    1    3    3    0    0  0.80146032050E-01  0.10624085456E+00 -0.25323643657E-01  0.89036610030E+00  0.88000000000E+00 0. -1.
        -11    1    4    4    0    0 -0.81844947122E-01 -0.82493808593E-01  0.36887512961E-02  0.11626560899E+00  0.51100000000E-03 0. -1.
         11    1    4    4    0    0 -0.84474061220E-02 -0.93465717016E-02  0.71712575185E-02  0.14505348261E-01  0.51100000000E-03 0.  1.
</event>
<event>
 8    1  0.1129676E+005  0.1043930E+01  0.7957747E-01            NaN
         13   -1    0    0    0    0  0.00000000000E+00  0.00000000000E+00  0.74505805969E-08  0.10566000000E+00  0.10566000000E+00 0.  1.
     999900   -1    0    0    0    0 -0.00000000000E+00 -0.00000000000E+00 -0.74505805969E-08  0.93827000000E+00  0.93827000000E+00 0.  1.
     999902    2    1    2    0    0  0.17691074992E-01 -0.86709754551E-02  0.12984619297E-01  0.10203342316E+01  0.10200613628E+01 0.  0.
     999903    2    3    3    0    0 -0.67751506611E-01 -0.73913129297E-01  0.82052601143E-01  0.13110571228E+00  0.20066417432E-01 0.  0.
         14    1    1    2    0    0 -0.17691074992E-01  0.86709754551E-02 -0.12984619297E-01  0.23595768434E-01  0.00000000000E+00 0. -1.
     999901    1    3    3    0    0  0.85442581603E-01  0.65242153841E-01 -0.69067981846E-01  0.88922851928E+00  0.88000000000E+00 0.  1.
        -11    1    4    4    0    0 -0.37644270613E-01 -0.40406127372E-01  0.32260234411E-01  0.63958815533E-01  0.51100000000E-03 0.  1.
         11    1    4    4    0    0 -0.30107235998E-01 -0.33507001925E-01  0.49792366731E-01  0.67146896750E-01  0.51100000000E-03 0. -1.
</event>
<event>
 8    1  0.1129676E+005  0.1043930E+01  0.7957747E-01            NaN
         13   -1    0    0    0    0  0.00000000000E+00  0.00000000000E+00  0.74505805969E-08  0.10566000000E+00  0.10566000000E+00 0. -1.
     999900   -1    0    0    0    0 -0.00000000000E+00 -0.00000000000E+00 -0.74505805969E-08  0.93827000000E+00  0.93827000000E+00 0.  1.
     999902    2    1    2    0    0  0.13570226661E-01 -0.14259633741E-01 -0.11831908646E-01  0.10209630179E+01  0.10207046593E+01 0.  0.
     999903    2    3    3    0    0 -0.34331264835E-01  0.11445274895E+00 -0.46187752026E-01  0.12964839647E+00  0.19933157874E-01 0.  0.
         14    1    1    2    0    0 -0.13570226661E-01  0.14259633741E-01  0.11831908646E-01  0.22966982132E-01  0.00000000000E+00 0.  1.
     999901    1    3    3    0    0  0.47901491496E-01 -0.12871238269E+00  0.34355843380E-01  0.89131462140E+00  0.88000000000E+00 0. -1.
        -11    1    4    4    0    0 -0.24838309714E-01  0.67431612586E-01 -0.36909015816E-01  0.80786759898E-01  0.51100000000E-03 0. -1.
         11    1    4    4    0    0 -0.94929551218E-02  0.47021136362E-01 -0.92787362103E-02  0.48861636571E-01  0.51100000000E-03 0.  1.
</event>
<event>
 8    1  0.1129676E+005  0.1043930E+01  0.7957747E-01            NaN
         13   -1    0    0    0    0  0.00000000000E+00  0.00000000000E+00  0.74505805969E-08  0.10566000000E+00  0.10566000000E+00 0.  1.
     999900   -1    0    0    0    0 -0.00000000000E+00 -0.00000000000E+00 -0.74505805969E-08  0.93827000000E+00  0.93827000000E+00 0.  1.
     999902    2    1    2    0    0 -0.17672665475E-02 -0.13578451615E-01 -0.19612824322E-01  0.10200101242E+01  0.10197296176E+01 0.  0.
     999903    2    3    3    0    0  0.10702022788E+00 -0.25725826246E-01 -0.69822224756E-01  0.13180786035E+00  0.19570939422E-01 0.  0.
         14    1    1    2    0    0  0.17672665475E-02  0.13578451615E-01  0.19612824322E-01  0.23919875778E-01  0.00000000000E+00 0.  1.
     999901    1    3    3    0    0 -0.10878749442E+00  0.12147374631E-01  0.50209400433E-01  0.88820226387E+00  0.88000000000E+00 0. -1.
        -11    1    4    4    0    0  0.63230320800E-01 -0.67580383040E-02 -0.33815446814E-01  0.72024232827E-01  0.51100000000E-03 0.  1.
         11    1    4    4    0    0  0.43789907077E-01 -0.18967787942E-01 -0.36006777942E-01  0.59783627524E-01  0.51100000000E-03 0. -1.
</event>
<event>
 8    1  0.1129676E+005  0.1043930E+01  0.7957747E-01            NaN
         13   -1    0    0    0    0  0.00000000000E+00  0.00000000000E+00  0.74505805969E-08  0.10566000000E+00  0.10566000000E+00 0.  1.
     999900   -1    0    0    0    0 -0.00000000000E+00 -0.00000000000E+00 -0.74505805969E-08  0.93827000000E+00  0.93827000000E+00 0.  1.
     999902    2    1    2    0    0 -0.64877348090E-04 -0.22601986744E-01  0.80607484158E-02  0.10199335486E+01  0.10196512217E+01 0.  0.
     999903    2    3    3    0    0  0.11526041806E+00  0.54309945390E-01 -0.30824029997E-02  0.12901293549E+00  0.20007552984E-01 0.  0.
         14    1    1    2    0    0  0.64877348090E-04  0.22601986744E-01 -0.80607484158E-02  0.23996451381E-01  0.00000000000E+00 0. -1.
     999901    1    3    3    0    0 -0.11532529541E+00 -0.76911932134E-01  0.11143151416E-01  0.89092061312E+00  0.88000000000E+00 0.  1.
        -11    1    4    4    0    0  0.56250921535E-01  0.21370989591E-01  0.73758144859E-02  0.60626307243E-01  0.51100000000E-03 0.  1.
         11    1    4    4    0    0  0.59009496528E-01  0.32938955799E-01 -0.10458217486E-01  0.68386628251E-01  0.51100000000E-03 0. -1.
</event>
<event>
 8    1  0.1129676E+005  0.1043930E+01  0.7957747E-01            NaN
         13   -1    0    0    0    0  0.00000000000E+00  0.00000000000E+00  0.74505805969E-08  0.10566000000E+00  0.10566000000E+00 0. -1.
     999900   -1    0    0    0    0 -0.00000000000E+00 -0.00000000000E+00 -0.74505805969E-08  0.93827000000E+00  0.93827000000E+00 0.  1.
     999902    2    1    2    0    0 -0.69040662513E-02  0.96016544148E-02 -0.17975650358E-01  0.10224129857E+01  0.10221865443E+01 0.  0.
     999903    2    3    3    0    0 -0.49373174274E-01 -0.54719974866E-01  0.10578465907E+00  0.13041662287E+00  0.19649820297E-01 0.  0.
         14    1    1    2    0    0  0.69040662513E-02 -0.96016544148E-02  0.17975650358E-01  0.21517014294E-01  0.00000000000E+00 0. -1.
     999901    1    3    3    0    0  0.42469108022E-01  0.64321629281E-01 -0.12376030943E+00  0.89199636284E+00  0.88000000000E+00 0.  1.
        -11    1    4    4    0    0 -0.38869781797E-01 -0.44448622068E-01  0.96170693179E-01  0.11285213019E+00  0.51100000000E-03 0. -1.
         11    1    4    4    0    0 -0.10503392476E-01 -0.10271352798E-01  0.96139658929E-02  0.17564492677E-01  0.51100000000E-03 0.  1.
</event>
<event>
 8    1  0.1129676E+005  0.1043930E+01  0.7957747E-01            NaN
         13   -1    0    0    0    0  0.00000000000E+00  0.00000000000E+00  0.74505805969E-08  0.10566000000E+00  0.10566000000E+00 0. -1.
     999900   -1    0    0    0    0 -0.00000000000E+00 -0.00000000000E+00 -0.74505805969E-08  0.93827000000E+00  0.93827000000E+00 0. -1.
     999902    2    1    2    0    0 -0.45318790477E-03  0.11448920658E-01 -0.20558938271E-01  0.10203937916E+01  0.10201223146E+01 0.  0.
     999903    2    3    3    0    0  0.50552609271E-02 -0.11894824391E+00  0.43700992741E-01  0.12845035041E+00  0.20383212701E-01 0.  0.
         14    1    1    2    0    0  0.45318790477E-03 -0.11448920658E-01  0.20558938271E-01  0.23536208411E-01  0.00000000000E+00 0.  1.
     999901    1    3    3    0    0 -0.55084488318E-02  0.13039716457E+00 -0.64259931012E-01  0.89194344118E+00  0.88000000000E+00 0. -1.
        -11    1    4    4    0    0  0.26700668505E-02 -0.43456814654E-01  0.57456810716E-02  0.43919220950E-01  0.51100000000E-03 0.  1.
         11    1    4    4    0    0  0.23851940765E-02 -0.75491429259E-01  0.37955311669E-01  0.84531129456E-01  0.51100000000E-03 0. -1.
</event>
<event>
 8    1  0.1129676E+005  0.1043930E+01  0.7957747E-01            NaN
         13   -1    0    0    0    0  0.00000000000E+00  0.00000000000E+00  0.74505805969E-08  0.10566000000E+00  0.10566000000E+00 0.  1.
     999900   -1    0    0    0    0 -0.00000000000E+00 -0.00000000000E+00 -0.74505805969E-08  0.93827000000E+00  0.93827000000E+00 0.  1.
     999902    2    1    2    0    0 -0.16194180096E-01 -0.16428150953E-01 -0.56890744844E-02  0.10201707664E+01  0.10198940589E+01 0.  0.
     999903    2    3    3    0    0  0.93915465047E-01  0.59282807657E-01  0.59051607874E-01  0.12773161488E+00  0.22219522721E-01 0.  0.
         14    1    1    2    0    0  0.16194180096E-01  0.16428150953E-01  0.56890744844E-02  0.23759233599E-01  0.00000000000E+00 0. -1.
     999901    1    3    3    0    0 -0.11010964514E+00 -0.75710958610E-01 -0.64740682358E-01  0.89243915152E+00  0.88000000000E+00 0.  1.
        -11    1    4    4    0    0  0.39972274847E-01  0.19340816173E-01  0.34590602027E-01  0.56290503606E-01  0.51100000000E-03 0. -1.
         11    1    4    4    0    0  0.53943190200E-01  0.39941991484E-01  0.24461005847E-01  0.71441111279E-01  0.51100000000E-03 0.  1.
</event>
<event>
 8    1  0.1129676E+005  0.1043930E+01  0.7957747E-01            NaN
         13   -1    0    0    0    0  0.00000000000E+00  0.00000000000E+00  0.74505805969E-08  0.10566000000E+00  0.10566000000E+00 0.  1.
     999900   -1    0    0    0    0 -0.00000000000E+00 -0.00000000000E+00 -0.74505805969E-08  0.93827000000E+00  0.93827000000E+00 0.  1.
     999902    2    1    2    0    0 -0.15627534304E-01 -0.13447654728E-01  0.10999180518E-01  0.10205624751E+01  0.10202949203E+01 0.  0.
     999903    2    3    3    0    0  0.13892151983E-01 -0.12928102896E+00  0.23673643471E-01  0.13239051855E+00  0.77609065159E-02 0.  0.
         14    1    1    2    0    0  0.15627534304E-01  0.13447654728E-01 -0.10999180518E-01  0.23367524862E-01  0.00000000000E+00 0. -1.
     999901    1    3    3    0    0 -0.29519686288E-01  0.11583337423E+00 -0.12674462953E-01  0.88817195659E+00  0.88000000000E+00 0. -1.
        -11    1    4    4    0    0  0.39787617377E-02 -0.20268023947E-01  0.15997048335E-02  0.20723018995E-01  0.51100000000E-03 0. -1.
         11    1    4    4    0    0  0.99133902457E-02 -0.10901300501E+00  0.22073938637E-01  0.11166749955E+00  0.51100000000E-03 0.  1.
</event>
<event>
 8    1  0.1129676E+005  0.1043930E+01  0.7957747E-01            NaN
         13   -1    0    0    0    0  0.00000000000E+00  0.00000000000E+00  0.74505805969E-08  0.10566000000E+00  0.10566000000E+00 0. -1.
     999900   -1    0    0    0    0 -0.00000000000E+00 -0.00000000000E+00 -0.74505805969E-08  0.93827000000E+00  0.93827000000E+00 0.  1.
     999902    2    1    2    0    0 -0.22892617901E-01  0.10039710668E-02  0.61233431471E-02  0.10202113313E+01  0.10199355790E+01 0.  0.
     999903    2    3    3    0    0 -0.60390498833E-01  0.97658975730E-01 -0.60982612184E-01  0.13158796328E+00  0.20303329811E-01 0.  0.
         14    1    1    2    0    0  0.22892617901E-01 -0.10039710668E-02 -0.61233431471E-02  0.23718668672E-01  0.00000000000E+00 0.  1.
     999901    1    3    3    0    0  0.37497880932E-01 -0.96655004663E-01  0.67105955331E-01  0.88862336805E+00  0.88000000000E+00 0. -1.
        -11    1    4    4    0    0 -0.17930339570E-01  0.24255935718E-01 -0.26106816774E-01  0.39895795489E-01  0.51100000000E-03 0.  1.
         11    1    4    4    0    0 -0.42460159263E-01  0.73403040012E-01 -0.34875795410E-01  0.91692167791E-01  0.51100000000E-03 0. -1.
</event>
<event>
 8    1  0.1129676E+005  0.1043930E+01  0.7957747E-01            NaN
         13   -1    0    0    0    0  0.00000000000E+00  0.00000000000E+00  0.74505805969E-08  0.10566000000E+00  0.10566000000E+00 0.  1.
     999900   -1    0    0    0    0 -0.00000000000E+00 -0.00000000000E+00 -0.74505805969E-08  0.93827000000E+00  0.93827000000E+00 0.  1.
     999902    2    1    2    0    0 -0.21718782589E-01 -0.41448469551E-02 -0.75663454811E-02  0.10205604716E+01  0.10202928704E+01 0.  0.
     999903    2    3    3    0    0 -0.12598636361E+00  0.23859234523E-01 -0.32058456082E-01  0.13362427293E+00  0.19643696748E-01 0.  0.
         14    1    1    2    0    0  0.21718782589E-01  0.41448469551E-02  0.75663454811E-02  0.23369528394E-01  0.00000000000E+00 0. -1.
     999901    1    3    3    0    0  0.10426758103E+00 -0.28004081478E-01  0.24492110600E-01  0.88693619867E+00  0.88000000000E+00 0.  1.
        -11    1    4    4    0    0 -0.10289761243E+00  0.18550604713E-01 -0.33743422524E-01  0.10986775352E+00  0.51100000000E-03 0.  1.
         11    1    4    4    0    0 -0.23088751187E-01  0.53086298098E-02  0.16849664425E-02  0.23756519416E-01  0.51100000000E-03 0. -1.
</event>
<event>
 8    1  0.1129676E+005  0.1043930E+01  0.7957747E-01            NaN
         13   -1    0    0    0    0  0.00000000000E+00  0.00000000000E+00  0.74505805969E-08  0.10566000000E+00  0.10566000000E+00 0.  1.
     999900   -1    0    0    0    0 -0.00000000000E+00 -0.00000000000E+00 -0.74505805969E-08  0.93827000000E+00  0.93827000000E+00 0. -1.
     999902    2    1    2    0    0 -0.39418250171E-02  0.18389234256E-01  0.34420188258E-02  0.10248106534E+01  0.10246322881E+01 0.  0.
     999903    2    3    3    0    0 -0.10789504829E+00  0.50077619192E-01 -0.62495829599E-01  0.13567724033E+00  0.18800942471E-01 0.  0.
         14    1    1    2    0    0  0.39418250171E-02 -0.18389234256E-01 -0.34420188258E-02  0.19119346605E-01  0.00000000000E+00 0. -1.
     999901    1    3    3    0    0  0.10395322327E+00 -0.31688384936E-01  0.65937848425E-01  0.88913341306E+00  0.88000000000E+00 0.  1.
        -11    1    4    4    0    0 -0.18316060679E-01  0.77894589433E-02 -0.18885630470E-01  0.27442337887E-01  0.51100000000E-03 0. -1.
         11    1    4    4    0    0 -0.89578987610E-01  0.42288160249E-01 -0.43610199129E-01  0.10823490245E+00  0.51100000000E-03 0.  1.
</event>
<event>
 8    1  0.1129676E+005  0.1043930E+01  0.7957747E-01            NaN
         13   -1    0    0    0    0  0.00000000000E+00  0.00000000000E+00  0.74505805969E-08  0.10566000000E+00  0.10566000000E+00 0.  1.
     999900   -1    0    0    0    0 -0.00000000000E+00 -0.00000000000E+00 -0.74505805969E-08  0.93827000000E+00  0.93827000000E+00 0. -1.
     999902    2    1    2    0    0  0.15352821725E-01  0.20986036345E-02  0.17596750436E-01  0.10204830621E+01  0.10202136644E+01 0.  0.
     999903    2    3    3    0    0 -0.93215863242E-01 -0.64738313648E-03  0.89711431131E-01  0.13087909009E+00  0.19788357251E-01 0.  0.
         14    1    1    2    0    0 -0.15352821725E-01 -0.20986036345E-02 -0.17596750436E-01  0.23446937924E-01  0.00000000000E+00 0. -1.
     999901    1    3    3    0    0  0.10856868497E+00  0.27459867710E-02 -0.72114680695E-01  0.88960397198E+00  0.88000000000E+00 0. -1.
        -11    1    4    4    0    0 -0.30461319599E-01  0.81671170507E-02  0.24419913022E-01  0.39889686206E-01  0.51100000000E-03 0.  1.
         11    1    4    4    0    0 -0.62754543643E-01 -0.88145001872E-02  0.65291518109E-01  0.90989403885E-01  0.51100000000E-03 0. -1.
</event>
<event>
 8    1  0.1129676E+005  0.1043930E+01  0.7957747E-01            NaN
         13   -1    0    0    0    0  0.00000000000E+00  0.00000000000E+00  0.74505805969E-08  0.10566000000E+00  0.10566000000E+00 0.  1.
     999900   -1    0    0    0    0 -0.00000000000E+00 -0.00000000000E+00 -0.74505805969E-08  0.93827000000E+00  0.93827000000E+00 0. -1.
     999902    2    1    2    0    0 -0.13938171215E-01  0.84137668274E-02  0.16423887439E-01  0.10208040802E+01  0.10205420922E+01 0.  0.
     999903    2    3    3    0    0  0.46179883964E-01  0.12056194266E+00  0.16602191850E-01  0.13165199774E+00  0.19719331472E-01 0.  0.
         14    1    1    2    0    0  0.13938171215E-01 -0.84137668274E-02 -0.16423887439E-01  0.23125919823E-01  0.00000000000E+00 0. -1.
     999901    1    3    3    0    0 -0.60118055180E-01 -0.11214817584E+00 -0.17830441157E-03  0.88915208243E+00  0.88000000000E+00 0.  1.
        -11    1    4    4    0    0  0.14328905679E-01  0.45806959167E-01 -0.28975992948E-02  0.48085884090E-01  0.51100000000E-03 0. -1.
         11    1    4    4    0    0  0.31850978285E-01  0.74754983498E-01  0.19499791145E-01  0.83566113654E-01  0.51100000000E-03 0.  1.
</event>
<event>
 8    1  0.1925854E+005  0.1043930E+01  0.7957747E-01            NaN
         13   -1    0    0    0    0  0.00000000000E+00  0.00000000000E+00  0.74505805969E-08  0.10566000000E+00  0.10566000000E+00 0. -1.
     999900   -1    0    0    0    0 -0.00000000000E+00 -0.00000000000E+00 -0.74505805969E-08  0.93827000000E+00  0.93827000000E+00 0.  1.
     999902    2    1    2    0    0 -0.24949634129E-02  0.12596578652E-01  0.20561529032E-01  0.10196879887E+01  0.10193997838E+01 0.  0.
     999903    2    3    3    0    0  0.12746178661E+00  0.46750753829E-02 -0.10715894968E-01  0.12955890572E+00  0.20057823176E-01 0.  0.
         14    1    1    2    0    0  0.24949634129E-02 -0.12596578652E-01 -0.20561529032E-01  0.24242011309E-01  0.00000000000E+00 0.  1.
     999901    1    3    3    0    0 -0.12995675003E+00  0.79215032694E-02  0.31277424000E-01  0.89012908297E+00  0.88000000000E+00 0. -1.
        -11    1    4    4    0    0  0.46400962391E-01 -0.46582645521E-02  0.33512373990E-02  0.46757252406E-01  0.51100000000E-03 0.  1.
         11    1    4    4    0    0  0.81060824223E-01  0.93333399349E-02 -0.14067132367E-01  0.82801653318E-01  0.51100000000E-03 0. -1.
</event>
<event>
 8    1  0.1129676E+005  0.1043930E+01  0.7957747E-01            NaN
         13   -1    0    0    0    0  0.00000000000E+00  0.00000000000E+00  0.74505805969E-08  0.10566000000E+00  0.10566000000E+00 0. -1.
     999900   -1    0    0    0    0 -0.00000000000E+00 -0.00000000000E+00 -0.74505805969E-08  0.93827000000E+00  0.93827000000E+00 0.  1.
     999902    2    1    2    0    0 -0.14445660862E-01 -0.11736516231E-01 -0.15444866069E-01  0.10197439127E+01  0.10194570519E+01 0.  0.
     999903    2    3    3    0    0 -0.12772308798E+00 -0.25960907507E-01 -0.10218496938E-01  0.13235368076E+00  0.20637907087E-01 0.  0.
         14    1    1    2    0    0  0.14445660862E-01  0.11736516231E-01  0.15444866069E-01  0.24186087300E-01  0.00000000000E+00 0. -1.
     999901    1    3    3    0    0  0.11327742712E+00  0.14224391276E-01 -0.52263691313E-02  0.88739023194E+00  0.88000000000E+00 0. -1.
        -11    1    4    4    0    0 -0.10283384645E+00 -0.12653484073E-01 -0.57103972195E-02  0.10376791601E+00  0.51100000000E-03 0. -1.
         11    1    4    4    0    0 -0.24889241530E-01 -0.13307423434E-01 -0.45080997183E-02  0.28585764752E-01  0.51100000000E-03 0.  1.
</event>
<event>
 8    1  0.1129676E+005  0.1043930E+01  0.7957747E-01            NaN
         13   -1    0    0    0    0  0.00000000000E+00  0.00000000000E+00  0.74505805969E-08  0.10566000000E+00  0.10566000000E+00 0. -1.
     999900   -1    0    0    0    0 -0.00000000000E+00 -0.00000000000E+00 -0.74505805969E-08  0.93827000000E+00  0.93827000000E+00 0.  1.
     999902    2    1    2    0    0  0.16749567646E-01  0.41507316382E-02  0.17581015047E-01  0.10192952952E+01  0.10189975614E+01 0.  0.
     999903    2    3    3    0    0 -0.23737132963E-01 -0.10808081430E+00 -0.60562918883E-01  0.12781250389E+00  0.20573164704E-01 0.  0.
         14    1    1    2    0    0 -0.16749567646E-01 -0.41507316382E-02 -0.17581015047E-01  0.24634704778E-01  0.00000000000E+00 0.  1.
     999901    1    3    3    0    0  0.40486700609E-01  0.11223154594E+00  0.78143933929E-01  0.89148279133E+00  0.88000000000E+00 0. -1.
        -11    1    4    4    0    0 -0.16084144597E-01 -0.65201292753E-01 -0.47764133751E-01  0.82411054344E-01  0.51100000000E-03 0.  1.
         11    1    4    4    0    0 -0.76529883664E-02 -0.42879521548E-01 -0.12798785132E-01  0.45401449547E-01  0.51100000000E-03 0. -1.
</event>
<event>
 8    1  0.1129676E+005  0.1043930E+01  0.7957747E-01            NaN
         13   -1    0    0    0    0  0.00000000000E+00  0.00000000000E+00  0.74505805969E-08  0.10566000000E+00  0.10566000000E+00 0. -1.
     999900   -1    0    0    0    0 -0.00000000000E+00 -0.00000000000E+00 -0.74505805969E-08  0.93827000000E+00  0.93827000000E+00 0. -1.
     999902    2    1    2    0    0 -0.64111307032E-03 -0.68972689549E-03  0.23952843212E-01  0.10199586536E+01  0.10196769242E+01 0.  0.
     999903    2    3    3    0    0  0.47585493104E-01  0.11510105664E+00  0.35950715134E-01  0.13098325462E+00  0.18749044771E-01 0.  0.
         14    1    1    2    0    0  0.64111307032E-03  0.68972689549E-03 -0.23952843212E-01  0.23971346376E-01  0.00000000000E+00 0.  1.
     999901    1    3    3    0    0 -0.48226606174E-01 -0.11579078354E+00 -0.11997871923E-01  0.88897539900E+00  0.88000000000E+00 0. -1.
        -11    1    4    4    0    0  0.32574569912E-01  0.83383803430E-01  0.34243418445E-01  0.95847973933E-01  0.51100000000E-03 0. -1.
         11    1    4    4    0    0  0.15010923192E-01  0.31717253210E-01  0.17072966896E-02  0.35135280691E-01  0.51100000000E-03 0.  1.
</event>
<event>
 8    1  0.1129676E+005  0.1043930E+01  0.7957747E-01            NaN
         13   -1    0    0    0    0  0.00000000000E+00  0.00000000000E+00  0.74505805969E-08  0.10566000000E+00  0.10566000000E+00 0.  1.
     999900   -1    0    0    0    0 -0.00000000000E+00 -0.00000000000E+00 -0.74505805969E-08  0.93827000000E+00  0.93827000000E+00 0. -1.
     999902    2    1    2    0    0  0.10135703655E-01  0.14408637695E-01 -0.20222559744E-01  0.10171103570E+01  0.10167566990E+01 0.  0.
     999903    2    3    3    0    0 -0.19232980993E-01  0.12403854681E+00  0.21471435151E-01  0.12884259003E+00  0.19593923158E-01 0.  0.
         14    1    1    2    0    0 -0.10135703655E-01 -0.14408637695E-01  0.20222559744E-01  0.26819643014E-01  0.00000000000E+00 0.  1.
     999901    1    3    3    0    0  0.29368684649E-01 -0.10962990911E+00 -0.41693994895E-01  0.88826776696E+00  0.88000000000E+00 0.  1.
        -11    1    4    4    0    0 -0.23227397394E-01  0.10123982328E+00  0.16722663090E-01  0.10520894634E+00  0.51100000000E-03 0. -1.
         11    1    4    4    0    0  0.39944164007E-02  0.22798723528E-01  0.47487720604E-02  0.23633643688E-01  0.51100000000E-03 0.  1.
</event>
<event>
 8    1  0.1129676E+005  0.1043930E+01  0.7957747E-01            NaN
         13   -1    0    0    0    0  0.00000000000E+00  0.00000000000E+00  0.74505805969E-08  0.10566000000E+00  0.10566000000E+00 0.  1.
     999900   -1    0    0    0    0 -0.00000000000E+00 -0.00000000000E+00 -0.74505805969E-08  0.93827000000E+00  0.93827000000E+00 0.  1.
     999902    2    1    2    0    0 -0.13907366052E-02 -0.21745576154E-01  0.13577403371E-02  0.10220977374E+01  0.10218645395E+01 0.  0.
     999903    2    3    3    0    0  0.37002231559E-01 -0.12092910622E+00 -0.40688124598E-01  0.13469746280E+00  0.22245654135E-01 0.  0.
         14    1    1    2    0    0  0.13907366052E-02  0.21745576154E-01 -0.13577403371E-02  0.21832262581E-01  0.00000000000E+00 0. -1.
     999901    1    3    3    0    0 -0.38392968164E-01  0.99183530070E-01  0.42045864935E-01  0.88740027462E+00  0.88000000000E+00 0. -1.
        -11    1    4    4    0    0  0.98994414973E-02 -0.21469273561E-01 -0.16428039342E-01  0.28793579958E-01  0.51100000000E-03 0.  1.
         11    1    4    4    0    0  0.27102790061E-01 -0.99459832664E-01 -0.24260085256E-01  0.10590388284E+00  0.51100000000E-03 0. -1.
</event>
<event>
 8    1  0.1129676E+005  0.1043930E+01  0.7957747E-01            NaN
         13   -1    0    0    0    0  0.00000000000E+00  0.00000000000E+00  0.74505805969E-08  0.10566000000E+00  0.10566000000E+00 0. -1.
     999900   -1    0    0    0    0 -0.00000000000E+00 -0.00000000000E+00 -0.74505805969E-08  0.93827000000E+00  0.93827000000E+00 0. -1.
     999902    2    1    2    0    0  0.16758337636E-01 -0.13208052983E-01  0.12490194049E-01  0.10192055285E+01  0.10189055942E+01 0.  0.
     999903    2    3    3    0    0 -0.73537769993E-01  0.42469442087E-01  0.94998386430E-01  0.12900275815E+00  0.20138546622E-01 0.  0.
         14    1    1    2    0    0 -0.16758337636E-01  0.13208052983E-01 -0.12490194049E-01  0.24724471507E-01  0.00000000000E+00 0.  1.
     999901    1    3    3    0    0  0.90296107629E-01 -0.55677495070E-01 -0.82508192381E-01  0.89020277034E+00  0.88000000000E+00 0. -1.
        -11    1    4    4    0    0 -0.10111389895E-01  0.94412274112E-02  0.67049409926E-02  0.15381623300E-01  0.51100000000E-03 0.  1.
         11    1    4    4    0    0 -0.63426380098E-01  0.33028214676E-01  0.88293445437E-01  0.11362113485E+00  0.51100000000E-03 0. -1.
</event>
<event>
 8    1  0.1129676E+005  0.1043930E+01  0.7957747E-01            NaN
         13   -1    0    0    0    0  0.00000000000E+00  0.00000000000E+00  0.74505805969E-08  0.10566000000E+00  0.10566000000E+00 0.  1.
     999900   -1    0    0    0    0 -0.00000000000E+00 -0.00000000000E+00 -0.74505805969E-08  0.93827000000E+00  0.93827000000E+00 0.  1.
     999902    2    1    2    0    0 -0.12000569867E-01 -0.13986841937E-01 -0.18482965609E-02  0.10254080772E+01  0.10252407830E+01 0.  0.
     999903    2    3    3    0    0 -0.38465417387E-01 -0.12203537474E+00  0.45224082205E-01  0.13715660241E+00  0.19861896959E-01 0.  0.
         14    1    1    2    0    0  0.12000569867E-01  0.13986841937E-01  0.18482965609E-02  0.18521922813E-01  0.00000000000E+00 0.  1.
     999901    1    3    3    0    0  0.26464847520E-01  0.10804853281E+00 -0.47072378766E-01  0.88825147477E+00  0.88000000000E+00 0.  1.
        -11    1    4    4    0    0 -0.33960357100E-01 -0.81094433182E-01  0.25881792773E-01  0.91650102377E-01  0.51100000000E-03 0.  1.
         11    1    4    4    0    0 -0.45050602861E-02 -0.40940941561E-01  0.19342289432E-01  0.45506500036E-01  0.51100000000E-03 0. -1.
</event>
<event>
 8    1  0.1129676E+005  0.1043930E+01  0.7957747E-01            NaN
         13   -1    0    0    0    0  0.00000000000E+00  0.00000000000E+00  0.74505805969E-08  0.10566000000E+00  0.10566000000E+00 0.  1.
     999900   -1    0    0    0    0 -0.00000000000E+00 -0.00000000000E+00 -0.74505805969E-08  0.93827000000E+00  0.93827000000E+00 0.  1.
     999902    2    1    2    0    0 -0.27879231715E-02 -0.24504361623E-01  0.56452694696E-03  0.10192610936E+01  0.10189625223E+01 0.  0.
     999903    2    3    3    0    0  0.29199738957E-01 -0.98158341857E-01  0.81147190211E-01  0.13193833101E+00  0.18307699971E-01 0.  0.
         14    1    1    2    0    0  0.27879231715E-02  0.24504361623E-01 -0.56452694696E-03  0.24668906437E-01  0.00000000000E+00 0. -1.
     999901    1    3    3    0    0 -0.31987662129E-01  0.73653980234E-01 -0.80582663264E-01  0.88732276256E+00  0.88000000000E+00 0. -1.
        -11    1    4    4    0    0  0.11709982556E-01 -0.19774994340E-01  0.24896147402E-01  0.33885887461E-01  0.51100000000E-03 0.  1.
         11    1    4    4    0    0  0.17489756402E-01 -0.78383347517E-01  0.56251042809E-01  0.98052443544E-01  0.51100000000E-03 0. -1.
</event>
<event>
 8    1  0.1129676E+005  0.1043930E+01  0.7957747E-01            NaN
         13   -1    0    0    0    0  0.00000000000E+00  0.00000000000E+00  0.74505805969E-08  0.10566000000E+00  0.10566000000E+00 0. -1.
     999900   -1    0    0    0    0 -0.00000000000E+00 -0.00000000000E+00 -0.74505805969E-08  0.93827000000E+00  0.93827000000E+00 0.  1.
     999902    2    1    2    0    0 -0.52319763560E-02 -0.95359137431E-02 -0.20300632181E-01  0.10208990883E+01  0.10206392730E+01 0.  0.
     999903    2    3    3    0    0 -0.12861525664E+00 -0.18375364438E-02  0.18132799547E-01  0.13142743188E+00  0.19977753942E-01 0.  0.
         14    1    1    2    0    0  0.52319763560E-02  0.95359137431E-02  0.20300632181E-01  0.23030911716E-01  0.00000000000E+00 0. -1.
     999901    1    3    3    0    0  0.12338328028E+00 -0.76983772993E-02 -0.38433431728E-01  0.88947165640E+00  0.88000000000E+00 0. -1.
        -11    1    4    4    0    0 -0.32493648007E-01  0.71030008865E-02  0.35767467596E-03  0.33266782751E-01  0.51100000000E-03 0.  1.
         11    1    4    4    0    0 -0.96121608629E-01 -0.89405373303E-02  0.17775124871E-01  0.98160649133E-01  0.51100000000E-03 0. -1.
</event>
<event>
 8    1  0.1129676E+005  0.1043930E+01  0.7957747E-01            NaN
         13   -1    0    0    0    0  0.00000000000E+00  0.00000000000E+00  0.74505805969E-08  0.10566000000E+00  0.10566000000E+00 0. -1.
     999900   -1    0    0    0    0 -0.00000000000E+00 -0.00000000000E+00 -0.74505805969E-08  0.93827000000E+00  0.93827000000E+00 0.  1.
     999902    2    1    2    0    0  0.22393307093E-01 -0.62040481709E-02 -0.82216713089E-02  0.10192815458E+01  0.10189834755E+01 0.  0.
     999903    2    3    3    0    0 -0.84961794173E-03  0.64448738044E-01 -0.11141620087E+00  0.13013523572E+00  0.19163717615E-01 0.  0.
         14    1    1    2    0    0 -0.22393307093E-01  0.62040481709E-02  0.82216713089E-02  0.24648454219E-01  0.00000000000E+00 0.  1.
     999901    1    3    3    0    0  0.23242925035E-01 -0.70652786215E-01  0.10319452956E+00  0.88914631006E+00  0.88000000000E+00 0. -1.
        -11    1    4    4    0    0  0.86831085324E-02  0.35254144225E-01 -0.65519925207E-01  0.74909096770E-01  0.51100000000E-03 0.  1.
         11    1    4    4    0    0 -0.95327264741E-02  0.29194593819E-01 -0.45896275665E-01  0.55226138949E-01  0.51100000000E-03 0. -1.
</event>
<event>
 8    1  0.1129676E+005  0.1043930E+01  0.7957747E-01            NaN
         13   -1    0    0    0    0  0.00000000000E+00  0.00000000000E+00  0.74505805969E-08  0.10566000000E+00  0.10566000000E+00 0.  1.
     999900   -1    0    0    0    0 -0.00000000000E+00 -0.00000000000E+00 -0.74505805969E-08  0.93827000000E+00  0.93827000000E+00 0. -1.
     999902    2    1    2    0    0 -0.13701347712E-01  0.14197236088E-01 -0.14155026932E-01  0.10196472236E+01  0.10193580369E+01 0.  0.
     999903    2    3    3    0    0 -0.33869828830E-01  0.11842169084E+00 -0.45081376689E-01  0.13272786780E+00  0.20334556849E-01 0.  0.
         14    1    1    2    0    0  0.13701347712E-01 -0.14197236088E-01  0.14155026932E-01  0.24282776388E-01  0.00000000000E+00 0.  1.
     999901    1    3    3    0    0  0.20168481119E-01 -0.10422445475E+00  0.30926349757E-01  0.88691935581E+00  0.88000000000E+00 0.  1.
        -11    1    4    4    0    0 -0.23546439104E-01  0.53031577193E-01 -0.27605407289E-01  0.64258093705E-01  0.51100000000E-03 0.  1.
         11    1    4    4    0    0 -0.10323389726E-01  0.65390113643E-01 -0.17475969400E-01  0.68469774099E-01  0.51100000000E-03 0. -1.
</event>
<event>
 8    1  0.1129676E+005  0.1043930E+01  0.7957747E-01            NaN
         13   -1    0    0    0    0  0.00000000000E+00  0.00000000000E+00  0.74505805969E-08  0.10566000000E+00  0.10566000000E+00 0.  1.
     999900   -1    0    0    0    0 -0.00000000000E+00 -0.00000000000E+00 -0.74505805969E-08  0.93827000000E+00  0.93827000000E+00 0. -1.
     999902    2    1    2    0    0 -0.78478617993E-02 -0.19659083547E-01 -0.11178707548E-01  0.10199919131E+01  0.10197109742E+01 0.  0.
     999903    2    3    3    0    0  0.25300756613E-01  0.12345067300E+00 -0.13187151745E-01  0.12781296966E+00  0.16794561371E-01 0.  0.
         14    1    1    2    0    0  0.78478617993E-02  0.19659083547E-01  0.11178707548E-01  0.23938086874E-01  0.00000000000E+00 0.  1.
     999901    1    3    3    0    0 -0.33148618413E-01 -0.14310975655E+00  0.20084441972E-02  0.89217894347E+00  0.88000000000E+00 0. -1.
        -11    1    4    4    0    0  0.13924782099E-01  0.81711341320E-01 -0.11265781365E-02  0.82898571496E-01  0.51100000000E-03 0.  1.
         11    1    4    4    0    0  0.11375974514E-01  0.41739331681E-01 -0.12060573609E-01  0.44914398160E-01  0.51100000000E-03 0. -1.
</event>
<event>
 8    1  0.1354684E+005  0.1043930E+01  0.7957747E-01            NaN
         13   -1    0    0    0    0  0.00000000000E+00  0.00000000000E+00  0.74505805969E-08  0.10566000000E+00  0.10566000000E+00 0. -1.
     999900   -1    0    0    0    0 -0.00000000000E+00 -0.00000000000E+00 -0.74505805969E-08  0.93827000000E+00  0.93827000000E+00 0.  1.
     999902    2    1    2    0    0 -0.51752102632E-03 -0.33864378160E-03  0.24240949290E-01  0.10196811623E+01  0.10193927931E+01 0.  0.
     999903    2    3    3    0    0  0.11172615081E+00  0.50354244947E-01 -0.33818446664E-01  0.12920976787E+00  0.23090994287E-01 0.  0.
         14    1    1    2    0    0  0.51752102632E-03  0.33864378160E-03 -0.24240949290E-01  0.24248837707E-01  0.00000000000E+00 0.  1.
     999901    1    3    3    0    0 -0.11224367184E+00 -0.50692888729E-01  0.58059395954E-01  0.89047139443E+00  0.88000000000E+00 0.  1.
        -11    1    4    4    0    0  0.61687810091E-01  0.15518828800E-01 -0.20116794565E-01  0.66717063078E-01  0.51100000000E-03 0.  1.
         11    1    4    4    0    0  0.50038340723E-01  0.34835416147E-01 -0.13701652099E-01  0.62492704788E-01  0.51100000000E-03 0. -1.
</event>
<event>
 8    1  0.1129676E+005  0.1043930E+01  0.7957747E-01            NaN
         13   -1    0    0    0    0  0.00000000000E+00  0.00000000000E+00  0.74505805969E-08  0.10566000000E+00  0.10566000000E+00 0. -1.
     999900   -1    0    0    0    0 -0.00000000000E+00 -0.00000000000E+00 -0.74505805969E-08  0.93827000000E+00  0.93827000000E+00 0. -1.
     999902    2    1    2    0    0  0.10831035844E-01 -0.18644219080E-01 -0.90741615802E-02  0.10205364400E+01  0.10202682817E+01 0.  0.
     999903    2    3    3    0    0  0.10709500244E+00  0.53332191023E-01  0.48083957349E-01  0.13052834706E+00  0.20295819445E-01 0.  0.
         14    1    1    2    0    0 -0.10831035844E-01  0.18644219080E-01  0.90741615802E-02  0.23393560032E-01  0.00000000000E+00 0. -1.
     999901    1    3    3    0    0 -0.96263966592E-01 -0.71976410103E-01 -0.57158118929E-01  0.89000809290E+00  0.88000000000E+00 0. -1.
        -11    1    4    4    0    0  0.26479208505E-01  0.65264778168E-02  0.17552377530E-01  0.32435944162E-01  0.51100000000E-03 0.  1.
         11    1    4    4    0    0  0.80615793931E-01  0.46805713206E-01  0.30531579819E-01  0.98092402902E-01  0.51100000000E-03 0. -1.
</event>
<event>
 8    1  0.1129676E+005  0.1043930E+01  0.7957747E-01            NaN
         13   -1    0    0    0    0  0.00000000000E+00  0.00000000000E+00  0.74505805969E-08  0.10566000000E+00  0.10566000000E+00 0. -1.
     999900   -1    0    0    0    0 -0.00000000000E+00 -0.00000000000E+00 -0.74505805969E-08  0.93827000000E+00  0.93827000000E+00 0.  1.
     999902    2    1    2    0    0 -0.37486034493E-02 -0.17413603313E-01 -0.15492125037E-01  0.10203229768E+01  0.10200498445E+01 0.  0.
     999903    2    3    3    0    0 -0.76717470738E-01 -0.73584819987E-01 -0.77966596482E-01  0.13331524243E+00  0.19846099070E-01 0.  0.
         14    1    1    2    0    0  0.37486034493E-02  0.17413603313E-01  0.15492125037E-01  0.23607023242E-01  0.00000000000E+00 0. -1.
     999901    1    3    3    0    0  0.72968867289E-01  0.56171216673E-01  0.62474471444E-01  0.88700773433E+00  0.88000000000E+00 0. -1.
        -11    1    4    4    0    0 -0.47582016635E-01 -0.58223106531E-01 -0.53703872496E-01  0.92403168145E-01  0.51100000000E-03 0.  1.
         11    1    4    4    0    0 -0.29135454103E-01 -0.15361713456E-01 -0.24262723986E-01  0.40912074285E-01  0.51100000000E-03 0. -1.
</event>
<event>
 8    1  0.1129676E+005  0.1043930E+01  0.7957747E-01            NaN
         13   -1    0    0    0    0  0.00000000000E+00  0.00000000000E+00  0.74505805969E-08  0.10566000000E+00  0.10566000000E+00 0. -1.
     999900   -1    0    0    0    0 -0.00000000000E+00 -0.00000000000E+00 -0.74505805969E-08  0.93827000000E+00  0.93827000000E+00 0. -1.
     999902    2    1    2    0    0  0.67615226290E-02 -0.21648204441E-01  0.45362210398E-02  0.10208012247E+01  0.10205391713E+01 0.  0.
     999903    2    3    3    0    0 -0.16826251035E-01 -0.63750846596E-01  0.11345294701E+00  0.13277427203E+00  0.20251986600E-01 0.  0.
         14    1    1    2    0    0 -0.67615226290E-02  0.21648204441E-01 -0.45362210398E-02  0.23128775262E-01  0.00000000000E+00 0. -1.
     999901    1    3    3    0    0  0.23587773664E-01  0.42102642154E-01 -0.10891672597E+00  0.88802695271E+00  0.88000000000E+00 0. -1.
        -11    1    4    4    0    0 -0.13190492040E-02 -0.42760368033E-01  0.67174910725E-01  0.79642442937E-01  0.51100000000E-03 0.  1.
         11    1    4    4    0    0 -0.15507201831E-01 -0.20990478563E-01  0.46278036287E-01  0.53131829091E-01  0.51100000000E-03 0. -1.
</event>
<event>
 8    1  0.1129676E+005  0.1043930E+01  0.7957747E-01            NaN
         13   -1    0    0    0    0  0.00000000000E+00  0.00000000000E+00  0.74505805969E-08  0.10566000000E+00  0.10566000000E+00 0.  1.
     999900   -1    0    0    0    0 -0.00000000000E+00 -0.00000000000E+00 -0.74505805969E-08  0.93827000000E+00  0.93827000000E+00 0. -1.
     999902    2    1    2    0    0 -0.23152650739E-01 -0.49683636575E-02 -0.39908244070E-02  0.10199163257E+01  0.10196335885E+01 0.  0.
     999903    2    3    3    0    0 -0.66848700020E-01  0.10823469965E+00 -0.25511916161E-01  0.13132899986E+00  0.20321157334E-01 0.  0.
         14    1    1    2    0    0  0.23152650739E-01  0.49683636575E-02  0.39908244070E-02  0.24013674295E-01  0.00000000000E+00 0.  1.
     999901    1    3    3    0    0  0.43696049280E-01 -0.11320306331E+00  0.21521091754E-01  0.88858732585E+00  0.88000000000E+00 0.  1.
        -11    1    4    4    0    0 -0.26016498660E-01  0.29846183463E-01 -0.10148864102E-02  0.39609897567E-01  0.51100000000E-03 0.  1.
         11    1    4    4    0    0 -0.40832201360E-01  0.78388516185E-01 -0.24497029750E-01  0.91719102292E-01  0.51100000000E-03 0. -1.
</event>
<event>
 8    1  0.1129676E+005  0.1043930E+01  0.7957747E-01            NaN
         13   -1    0    0    0    0  0.00000000000E+00  0.00000000000E+00  0.74505805969E-08  0.10566000000E+00  0.10566000000E+00 0. -1.
     999900   -1    0    0    0    0 -0.00000000000E+00 -0.00000000000E+00 -0.74505805969E-08  0.93827000000E+00  0.93827000000E+00 0.  1.
     999902    2    1    2    0    0  0.28650905284E-01 -0.96306078217E-02  0.99547022714E-02  0.10121067526E+01  0.10116063263E+01 0.  0.
     999903    2    3    3    0    0  0.62421315136E-01 -0.92933334059E-01  0.54753006916E-01  0.12639422985E+00  0.21085170382E-01 0.  0.
         14    1    1    2    0    0 -0.28650905284E-01  0.96306078217E-02 -0.99547022714E-02  0.31823247445E-01  0.00000000000E+00 0.  1.
     999901    1    3    3    0    0 -0.33770409852E-01  0.83302726237E-01 -0.44798304645E-01  0.88571252271E+00  0.88000000000E+00 0. -1.
        -11    1    4    4    0    0  0.49424582087E-01 -0.83411731446E-01  0.52067228707E-01  0.11005254965E+00  0.51100000000E-03 0.  1.
         11    1    4    4    0    0  0.12996733049E-01 -0.95216026135E-02  0.26857782089E-02  0.16341680203E-01  0.51100000000E-03 0. -1.
</event>
<event>
 8    1  0.1129676E+005  0.1043930E+01  0.7957747E-01            NaN
         13   -1    0    0    0    0  0.00000000000E+00  0.00000000000E+00  0.74505805969E-08  0.10566000000E+00  0.10566000000E+00 0. -1.
     999900   -1    0    0    0    0 -0.00000000000E+00 -0.00000000000E+00 -0.74505805969E-08  0.93827000000E+00  0.93827000000E+00 0. -1.
     999902    2    1    2    0    0 -0.18055684487E-01  0.13987645390E-02  0.15136390416E-01  0.10203275722E+01  0.10200545475E+01 0.  0.
     999903    2    3    3    0    0  0.88038028430E-01  0.68295871307E-01 -0.60208712837E-01  0.12824686764E+00  0.20177945156E-01 0.  0.
         14    1    1    2    0    0  0.18055684487E-01 -0.13987645390E-02 -0.15136390416E-01  0.23602427827E-01  0.00000000000E+00 0.  1.
     999901    1    3    3    0    0 -0.10609371292E+00 -0.66897106768E-01  0.75345103253E-01  0.89208070453E+00  0.88000000000E+00 0. -1.
        -11    1    4    4    0    0  0.67535973398E-01  0.62248106711E-01 -0.48380367421E-01  0.10381163502E+00  0.51100000000E-03 0. -1.
         11    1    4    4    0    0  0.20502055031E-01  0.60477645963E-02 -0.11828345416E-01  0.24435232624E-01  0.51100000000E-03 0.  1.
</event>
<event>
 8    1  0.1129676E+005  0.1043930E+01  0.7957747E-01            NaN
         13   -1    0    0    0    0  0.00000000000E+00  0.00000000000E+00  0.74505805969E-08  0.10566000000E+00  0.10566000000E+00 0.  1.
     999900   -1    0    0    0    0 -0.00000000000E+00 -0.00000000000E+00 -0.74505805969E-08  0.93827000000E+00  0.93827000000E+00 0. -1.
     999902    2    1    2    0    0  0.23274025383E-01  0.26442733707E-02  0.27433376931E-02  0.10203461424E+01  0.10200735522E+01 0.  0.
     999903    2    3    3    0    0 -0.25950735537E-01 -0.64163986762E-01 -0.10783957739E+00  0.12955155223E+00  0.19072817367E-01 0.  0.
         14    1    1    2    0    0 -0.23274025383E-01 -0.26442733707E-02 -0.27433376931E-02  0.23583857634E-01  0.00000000000E+00 0.  1.
     999901    1    3    3    0    0  0.49224760920E-01  0.66808260133E-01  0.11058291508E+00  0.89079459014E+00  0.88000000000E+00 0.  1.
        -11    1    4    4    0    0 -0.24128520358E-01 -0.44486099746E-01 -0.88177352488E-01  0.10166958827E+00  0.51100000000E-03 0.  1.
         11    1    4    4    0    0 -0.18222151795E-02 -0.19677887016E-01 -0.19662224897E-01  0.27881963964E-01  0.51100000000E-03 0. -1.
</event>
<event>
 8    1  0.1129676E+005  0.1043930E+01  0.7957747E-01            NaN
         13   -1    0    0    0    0  0.00000000000E+00  0.00000000000E+00  0.74505805969E-08  0.10566000000E+00  0.10566000000E+00 0.  1.
     999900   -1    0    0    0    0 -0.00000000000E+00 -0.00000000000E+00 -0.74505805969E-08  0.93827000000E+00  0.93827000000E+00 0.  1.
     999902    2    1    2    0    0 -0.98285196587E-02 -0.18205249890E-01 -0.12251742475E-01  0.10198855388E+01  0.10196020675E+01 0.  0.
     999903    2    3    3    0    0 -0.12420513854E+00 -0.82001261162E-02  0.36091121968E-01  0.13111158213E+00  0.19837322835E-01 0.  0.
         14    1    1    2    0    0  0.98285196587E-02  0.18205249890E-01  0.12251742475E-01  0.24044461231E-01  0.00000000000E+00 0.  1.
     999901    1    3    3    0    0  0.11437661888E+00 -0.10005123773E-01 -0.48342864443E-01  0.88877395663E+00  0.88000000000E+00 0.  1.
        -11    1    4    4    0    0 -0.52147641883E-01 -0.69366254829E-02  0.24801048814E-01  0.58162242652E-01  0.51100000000E-03 0. -1.
         11    1    4    4    0    0 -0.72057496656E-01 -0.12635006333E-02  0.11290073154E-01  0.72949339483E-01  0.51100000000E-03 0.  1.
</event>
<event>
 8    1  0.1129676E+005  0.1043930E+01  0.7957747E-01            NaN
         13   -1    0    0    0    0  0.00000000000E+00  0.00000000000E+00  0.74505805969E-08  0.10566000000E+00  0.10566000000E+00 0.  1.
     999900   -1    0    0    0    0 -0.00000000000E+00 -0.00000000000E+00 -0.74505805969E-08  0.93827000000E+00  0.93827000000E+00 0. -1.
     999902    2    1    2    0    0  0.12431693493E-01 -0.66787349014E-02 -0.19609616493E-01  0.10197703319E+01  0.10194841050E+01 0.  0.
     999903    2    3    3    0    0  0.64189945007E-02  0.84177572139E-01  0.93890085218E-01  0.12782122834E+00  0.19896008910E-01 0.  0.
         14    1    1    2    0    0 -0.12431693493E-01  0.66787349014E-02  0.19609616493E-01  0.24159668085E-01  0.00000000000E+00 0.  1.
     999901    1    3    3    0    0  0.60126989922E-02 -0.90856307040E-01 -0.11349970171E+00  0.89194910357E+00  0.88000000000E+00 0. -1.
        -11    1    4    4    0    0 -0.16855724195E-02  0.48731859866E-01  0.41412074426E-01  0.63975435518E-01  0.51100000000E-03 0. -1.
         11    1    4    4    0    0  0.81045669202E-02  0.35445712273E-01  0.52478010792E-01  0.63845792823E-01  0.51100000000E-03 0.  1.
</event>
<event>
 8    1  0.1129676E+005  0.1043930E+01  0.7957747E-01            NaN
         13   -1    0    0    0    0  0.00000000000E+00  0.00000000000E+00  0.74505805969E-08  0.10566000000E+00  0.10566000000E+00 0. -1.
     999900   -1    0    0    0    0 -0.00000000000E+00 -0.00000000000E+00 -0.74505805969E-08  0.93827000000E+00  0.93827000000E+00 0.  1.
     999902    2    1    2    0    0  0.97617918963E-02  0.14565427331E-01 -0.15579215175E-01  0.10204745912E+01  0.10202049966E+01 0.  0.
     999903    2    3    3    0    0  0.19429384160E-01  0.10644344582E+00  0.70630582927E-01  0.13144862880E+00  0.24132025222E-01 0.  0.
         14    1    1    2    0    0 -0.97617918963E-02 -0.14565427331E-01  0.15579215175E-01  0.23455408754E-01  0.00000000000E+00 0. -1.
     999901    1    3    3    0    0 -0.96675922639E-02 -0.91878018487E-01 -0.86209798102E-01  0.88902596245E+00  0.88000000000E+00 0.  1.
        -11    1    4    4    0    0  0.18547298309E-01  0.10109388208E+00  0.72400744532E-01  0.12572232975E+00  0.51100000000E-03 0.  1.
         11    1    4    4    0    0  0.88208585078E-03  0.53495637357E-02 -0.17701616049E-02  0.57262990420E-02  0.51100000000E-03 0. -1.
</event>
<event>
 8    1  0.1129676E+005  0.1043930E+01  0.7957747E-01            NaN
         13   -1    0    0    0    0  0.00000000000E+00  0.00000000000E+00  0.74505805969E-08  0.10566000000E+00  0.10566000000E+00 0.  1.
     999900   -1    0    0    0    0 -0.00000000000E+00 -0.00000000000E+00 -0.74505805969E-08  0.93827000000E+00  0.93827000000E+00 0.  1.
     999902    2    1    2    0    0  0.48510639013E-02 -0.17521164552E-01 -0.14422816510E-01  0.10207234995E+01  0.10204596615E+01 0.  0.
     999903    2    3    3    0    0  0.89123318977E-01 -0.68298792554E-01 -0.70111562439E-01  0.13349105146E+00  0.17220295637E-01 0.  0.
         14    1    1    2    0    0 -0.48510639013E-02  0.17521164552E-01  0.14422816510E-01  0.23206500475E-01  0.00000000000E+00 0.  1.
     999901    1    3    3    0    0 -0.84272255075E-01  0.50777628002E-01  0.55688745929E-01  0.88723244807E+00  0.88000000000E+00 0.  1.
        -11    1    4    4    0    0  0.27484520810E-01 -0.23624202046E-01 -0.32027785274E-01  0.48368811822E-01  0.51100000000E-03 0.  1.
         11    1    4    4    0    0  0.61638798166E-01 -0.44674590508E-01 -0.38083777165E-01  0.85122239636E-01  0.51100000000E-03 0. -1.
</event>
<event>
 8    1  0.1129676E+005  0.1043930E+01  0.7957747E-01            NaN
         13   -1    0    0    0    0  0.00000000000E+00  0.00000000000E+00  0.74505805969E-08  0.10566000000E+00  0.10566000000E+00 0.  1.
     999900   -1    0    0    0    0 -0.00000000000E+00 -0.00000000000E+00 -0.74505805969E-08  0.93827000000E+00  0.93827000000E+00 0.  1.
     999902    2    1    2    0    0  0.19047036257E-01  0.66070541000E-02 -0.10106106804E-01  0.10213783670E+01  0.10211293711E+01 0.  0.
     999903    2    3    3    0    0 -0.91837412572E-01  0.67362504381E-01 -0.61029733759E-01  0.13088423371E+00  0.20838351333E-01 0.  0.
         14    1    1    2    0    0 -0.19047036257E-01 -0.66070541000E-02  0.10106106804E-01  0.22551632952E-01  0.00000000000E+00 0. -1.
     999901    1    3    3    0    0  0.11088444883E+00 -0.60755450281E-01  0.50923626955E-01  0.89049413334E+00  0.88000000000E+00 0. -1.
        -11    1    4    4    0    0 -0.16079388026E-01  0.22557226048E-01 -0.16440300617E-01  0.32216762278E-01  0.51100000000E-03 0.  1.
         11    1    4    4    0    0 -0.75758024546E-01  0.44805278333E-01 -0.44589433142E-01  0.98667471430E-01  0.51100000000E-03 0. -1.
</event>
<event>
 8    1  0.1129676E+005  0.1043930E+01  0.7957747E-01            NaN
         13   -1    0    0    0    0  0.00000000000E+00  0.00000000000E+00  0.74505805969E-08  0.10566000000E+00  0.10566000000E+00 0. -1.
     999900   -1    0    0    0    0 -0.00000000000E+00 -0.00000000000E+00 -0.74505805969E-08  0.93827000000E+00  0.93827000000E+00 0. -1.
     999902    2    1    2    0    0 -0.19498709913E-01  0.12736620343E-01  0.28503307398E-02  0.10204662925E+01  0.10201965048E+01 0.  0.
     999903    2    3    3    0    0 -0.75325374755E-01 -0.91918250817E-01 -0.50554714235E-01  0.13090383968E+00  0.21381281475E-01 0.  0.
         14    1    1    2    0    0  0.19498709913E-01 -0.12736620343E-01 -0.28503307398E-02  0.23463707536E-01  0.00000000000E+00 0.  1.
     999901    1    3    3    0    0  0.55826664843E-01  0.10465487116E+00  0.53405044975E-01  0.88956245278E+00  0.88000000000E+00 0. -1.
        -11    1    4    4    0    0 -0.31705826402E-01 -0.32834361635E-01 -0.30058829542E-01  0.54654817594E-01  0.51100000000E-03 0. -1.
         11    1    4    4    0    0 -0.43619548354E-01 -0.59083889182E-01 -0.20495884693E-01  0.76249022091E-01  0.51100000000E-03 0.  1.
</event>
<event>
 8    1  0.1154772E+005  0.1043930E+01  0.7957747E-01            NaN
         13   -1    0    0    0    0  0.00000000000E+00  0.00000000000E+00  0.74505805969E-08  0.10566000000E+00  0.10566000000E+00 0. -1.
     999900   -1    0    0    0    0 -0.00000000000E+00 -0.00000000000E+00 -0.74505805969E-08  0.93827000000E+00  0.93827000000E+00 0. -1.
     999902    2    1    2    0    0 -0.29388602300E-02  0.45617476312E-02  0.23235832821E-01  0.10200689362E+01  0.10197898235E+01 0.  0.
     999903    2    3    3    0    0  0.74151715405E-01  0.24022040643E-01  0.10564813811E+00  0.13264939168E+00  0.18941929491E-01 0.  0.
         14    1    1    2    0    0  0.29388602300E-02 -0.45617476312E-02 -0.23235832821E-01  0.23861063845E-01  0.00000000000E+00 0.  1.
     999901    1    3    3    0    0 -0.77090575635E-01 -0.19460293012E-01 -0.82412305287E-01  0.88741954448E+00  0.88000000000E+00 0. -1.
        -11    1    4    4    0    0  0.52769568282E-01  0.81304072270E-02  0.66287598743E-01  0.85117787368E-01  0.51100000000E-03 0. -1.
         11    1    4    4    0    0  0.21382147124E-01  0.15891633416E-01  0.39360539365E-01  0.47531604311E-01  0.51100000000E-03 0.  1.
</event>
<event>
 8    1  0.1129676E+005  0.1043930E+01  0.7957747E-01            NaN
         13   -1    0    0    0    0  0.00000000000E+00  0.00000000000E+00  0.74505805969E-08  0.10566000000E+00  0.10566000000E+00 0. -1.
     999900   -1    0    0    0    0 -0.00000000000E+00 -0.00000000000E+00 -0.74505805969E-08  0.93827000000E+00  0.93827000000E+00 0.  1.
     999902    2    1    2    0    0 -0.11814098550E-02  0.20930783090E-01 -0.86272731108E-02  0.10212601246E+01  0.10210084813E+01 0.  0.
     999903    2    3    3    0    0 -0.12204031110E+00  0.38635309824E-01  0.26216067231E-01  0.13214011995E+00  0.19677510518E-01 0.  0.
         14    1    1    2    0    0  0.11814098550E-02 -0.20930783090E-01  0.86272731108E-02  0.22669875415E-01  0.00000000000E+00 0. -1.
     999901    1    3    3    0    0  0.12085890125E+00 -0.17704526734E-01 -0.34843340341E-01  0.88912000464E+00  0.88000000000E+00 0.  1.
        -11    1    4    4    0    0 -0.29274320962E-01  0.24657896840E-02  0.86889140936E-03  0.29395273086E-01  0.51100000000E-03 0.  1.
         11    1    4    4    0    0 -0.92765990140E-01  0.36169520140E-01  0.25347175821E-01  0.10274484686E+00  0.51100000000E-03 0. -1.
</event>
<event>
 8    1  0.1129676E+005  0.1043930E+01  0.7957747E-01            NaN
         13   -1    0    0    0    0  0.00000000000E+00  0.00000000000E+00  0.74505805969E-08  0.10566000000E+00  0.10566000000E+00 0.  1.
     999900   -1    0    0    0    0 -0.00000000000E+00 -0.00000000000E+00 -0.74505805969E-08  0.93827000000E+00  0.93827000000E+00 0. -1.
     999902    2    1    2    0    0  0.10745517341E-01 -0.18771415663E-01 -0.90637191063E-02  0.10204782795E+01  0.10202087707E+01 0.  0.
     999903    2    3    3    0    0 -0.98617981360E-01  0.77120710750E-01  0.18253362883E-01  0.12812078518E+00  0.20214847627E-01 0.  0.
         14    1    1    2    0    0 -0.10745517341E-01  0.18771415663E-01  0.90637191063E-02  0.23451720469E-01  0.00000000000E+00 0.  1.
     999901    1    3    3    0    0  0.10936349870E+00 -0.95892126413E-01 -0.27317081989E-01  0.89235749435E+00  0.88000000000E+00 0. -1.
        -11    1    4    4    0    0 -0.46931044656E-01  0.30916829403E-01 -0.84723642030E-03  0.56208115281E-01  0.51100000000E-03 0. -1.
         11    1    4    4    0    0 -0.51686936704E-01  0.46203881347E-01  0.19100599303E-01  0.71912669899E-01  0.51100000000E-03 0.  1.
</event>
<event>
 8    1  0.1129676E+005  0.1043930E+01  0.7957747E-01            NaN
         13   -1    0    0    0    0  0.00000000000E+00  0.00000000000E+00  0.74505805969E-08  0.10566000000E+00  0.10566000000E+00 0.  1.
     999900   -1    0    0    0    0 -0.00000000000E+00 -0.00000000000E+00 -0.74505805969E-08  0.93827000000E+00  0.93827000000E+00 0.  1.
     999902    2    1    2    0    0 -0.10993272111E-01 -0.16149677854E-01 -0.11233928607E-01  0.10213941335E+01  0.10211454895E+01 0.  0.
     999903    2    3    3    0    0  0.80502883697E-01  0.56267686041E-01 -0.83943159416E-01  0.13071885409E+00  0.19854420836E-01 0.  0.
         14    1    1    2    0    0  0.10993272111E-01  0.16149677854E-01  0.11233928607E-01  0.22535866490E-01  0.00000000000E+00 0.  1.
     999901    1    3    3    0    0 -0.91496155807E-01 -0.72417363895E-01  0.72709230809E-01  0.89067527942E+00  0.88000000000E+00 0.  1.
        -11    1    4    4    0    0  0.14411945549E-01  0.18803575966E-02 -0.13929244278E-01  0.20137648481E-01  0.51100000000E-03 0. -1.
         11    1    4    4    0    0  0.66090938148E-01  0.54387328444E-01 -0.70013915138E-01  0.11058120561E+00  0.51100000000E-03 0.  1.
</event>
<event>
 8    1  0.1129676E+005  0.1043930E+01  0.7957747E-01            NaN
         13   -1    0    0    0    0  0.00000000000E+00  0.00000000000E+00  0.74505805969E-08  0.10566000000E+00  0.10566000000E+00 0. -1.
     999900   -1    0    0    0    0 -0.00000000000E+00 -0.00000000000E+00 -0.74505805969E-08  0.93827000000E+00  0.93827000000E+00 0. -1.
     999902    2    1    2    0    0  0.15369923951E-01  0.41165961090E-02 -0.17327923869E-01  0.10204047397E+01  0.10201335182E+01 0.  0.
     999903    2    3    3    0    0 -0.71527358836E-01 -0.48818818520E-01 -0.96255496655E-01  0.13103256924E+00  0.20123952419E-01 0.  0.
         14    1    1    2    0    0 -0.15369923951E-01 -0.41165961090E-02  0.17327923869E-01  0.23525260283E-01  0.00000000000E+00 0. -1.
     999901    1    3    3    0    0  0.86897282787E-01  0.52935414629E-01  0.78927572786E-01  0.88937217048E+00  0.88000000000E+00 0.  1.
        -11    1    4    4    0    0 -0.54956314634E-02 -0.93168838131E-02 -0.19754527300E-01  0.22527955056E-01  0.51100000000E-03 0. -1.
         11    1    4    4    0    0 -0.66031727373E-01 -0.39501934707E-01 -0.76500969355E-01  0.10850461418E+00  0.51100000000E-03 0.  1.
</event>
<event>
 8    1  0.1129676E+005  0.1043930E+01  0.7957747E-01            NaN
         13   -1    0    0    0    0  0.00000000000E+00  0.00000000000E+00  0.74505805969E-08  0.10566000000E+00  0.10566000000E+00 0.  1.
     999900   -1    0    0    0    0 -0.00000000000E+00 -0.00000000000E+00 -0.74505805969E-08  0.93827000000E+00  0.93827000000E+00 0.  1.
     999902    2    1    2    0    0 -0.12724281537E-01  0.25314484290E-02 -0.14600413171E-01  0.10243982915E+01  0.10242120737E+01 0.  0.
     999903    2    3    3    0    0  0.38336555161E-01  0.84283907930E-01 -0.96659173946E-01  0.13534018660E+00  0.20012536183E-01 0.  0.
         14    1    1    2    0    0  0.12724281537E-01 -0.25314484290E-02  0.14600413171E-01  0.19531708490E-01  0.00000000000E+00 0.  1.
     999901    1    3    3    0    0 -0.51060836698E-01 -0.81752459501E-01  0.82058760775E-01  0.88905810491E+00  0.88000000000E+00 0. -1.
        -11    1    4    4    0    0  0.23174001760E-01  0.57601834978E-01 -0.51142042205E-01  0.80441129731E-01  0.51100000000E-03 0. -1.
         11    1    4    4    0    0  0.15162553401E-01  0.26682072951E-01 -0.45517131741E-01  0.54899056873E-01  0.51100000000E-03 0.  1.
</event>
<event>
 8    1  0.1142470E+005  0.1043930E+01  0.7957747E-01            NaN
         13   -1    0    0    0    0  0.00000000000E+00  0.00000000000E+00  0.74505805969E-08  0.10566000000E+00  0.10566000000E+00 0.  1.
     999900   -1    0    0    0    0 -0.00000000000E+00 -0.00000000000E+00 -0.74505805969E-08  0.93827000000E+00  0.93827000000E+00 0. -1.
     999902    2    1    2    0    0  0.26515702861E-03 -0.11853594136E-01 -0.20575165181E-01  0.10201830965E+01  0.10199066796E+01 0.  0.
     999903    2    3    3    0    0  0.41880263504E-01  0.98928530413E-01  0.66539619598E-01  0.12799842846E+00  0.20378079204E-01 0.  0.
         14    1    1    2    0    0 -0.26515702861E-03  0.11853594136E-01  0.20575165181E-01  0.23746903470E-01  0.00000000000E+00 0.  1.
     999901    1    3    3    0    0 -0.41615106475E-01 -0.11078212455E+00 -0.87114784778E-01  0.89218466807E+00  0.88000000000E+00 0. -1.
        -11    1    4    4    0    0  0.22797163601E-01  0.63344768479E-01  0.52042989292E-01  0.85094090379E-01  0.51100000000E-03 0.  1.
         11    1    4    4    0    0  0.19083099903E-01  0.35583761934E-01  0.14496630306E-01  0.42904338085E-01  0.51100000000E-03 0. -1.
</event>
<event>
 8    1  0.1129676E+005  0.1043930E+01  0.7957747E-01            NaN
         13   -1    0    0    0    0  0.00000000000E+00  0.00000000000E+00  0.74505805969E-08  0.10566000000E+00  0.10566000000E+00 0.  1.
     999900   -1    0    0    0    0 -0.00000000000E+00 -0.00000000000E+00 -0.74505805969E-08  0.93827000000E+00  0.93827000000E+00 0. -1.
     999902    2    1    2    0    0  0.86754783545E-02 -0.20007730105E-02 -0.22837890974E-01  0.10194180380E+01  0.10191232997E+01 0.  0.
     999903    2    3    3    0    0  0.10725625637E-01  0.65119387690E-01  0.10679785230E+00  0.12738959393E+00  0.21604483069E-01 0.  0.
         14    1    1    2    0    0 -0.86754783545E-02  0.20007730105E-02  0.22837890974E-01  0.24511962008E-01  0.00000000000E+00 0. -1.
     999901    1    3    3    0    0 -0.20501472825E-02 -0.67120160701E-01 -0.12963574327E+00  0.89202844406E+00  0.88000000000E+00 0. -1.
        -11    1    4    4    0    0  0.16294521724E-01  0.41223851223E-01  0.60674376967E-01  0.75143585815E-01  0.51100000000E-03 0.  1.
         11    1    4    4    0    0 -0.55688960873E-02  0.23895536468E-01  0.46123475330E-01  0.52246008118E-01  0.51100000000E-03 0. -1.
</event>
<event>
 8    1  0.1229893E+005  0.1043930E+01  0.7957747E-01            NaN
         13   -1    0    0    0    0  0.00000000000E+00  0.00000000000E+00  0.74505805969E-08  0.10566000000E+00  0.10566000000E+00 0.  1.
     999900   -1    0    0    0    0 -0.00000000000E+00 -0.00000000000E+00 -0.74505805969E-08  0.93827000000E+00  0.93827000000E+00 0. -1.
     999902    2    1    2    0    0 -0.14321969874E-01 -0.11511083238E-01  0.15358427993E-01  0.10199820321E+01  0.10197008584E+01 0.  0.
     999903    2    3    3    0    0  0.12361982055E+00 -0.30884122715E-01  0.12909906029E-02  0.12891461317E+00  0.19535141739E-01 0.  0.
         14    1    1    2    0    0  0.14321969874E-01  0.11511083238E-01 -0.15358427993E-01  0.23947967948E-01  0.00000000000E+00 0. -1.
     999901    1    3    3    0    0 -0.13794179042E+00  0.19373039477E-01  0.14067437390E-01  0.89106741889E+00  0.88000000000E+00 0.  1.
        -11    1    4    4    0    0  0.31260663129E-01 -0.16608254517E-01  0.19331487071E-02  0.35455061167E-01  0.51100000000E-03 0.  1.
         11    1    4    4    0    0  0.92359157420E-01 -0.14275868198E-01 -0.64215810423E-03  0.93459552000E-01  0.51100000000E-03 0. -1.
</event>
<event>
 8    1  0.1129676E+005  0.1043930E+01  0.7957747E-01            NaN
         13   -1    0    0    0    0  0.00000000000E+00  0.00000000000E+00  0.74505805969E-08  0.10566000000E+00  0.10566000000E+00 0. -1.
     999900   -1    0    0    0    0 -0.00000000000E+00 -0.00000000000E+00 -0.74505805969E-08  0.93827000000E+00  0.93827000000E+00 0.  1.
     999902    2    1    2    0    0 -0.22648560801E-01 -0.27877566886E-02  0.10898067702E-01  0.10186417266E+01  0.10183277814E+01 0.  0.
     999903    2    3    3    0    0 -0.85238929806E-01 -0.74673683731E-01  0.64467120870E-01  0.13187524983E+00  0.19830220592E-01 0.  0.
         14    1    1    2    0    0  0.22648560801E-01  0.27877566886E-02 -0.10898067702E-01  0.25288273435E-01  0.00000000000E+00 0.  1.
     999901    1    3    3    0    0  0.62590369005E-01  0.71885927043E-01 -0.53569053168E-01  0.88676647673E+00  0.88000000000E+00 0. -1.
        -11    1    4    4    0    0 -0.15886910567E-01 -0.20946236933E-01  0.22576223370E-01  0.34656684083E-01  0.51100000000E-03 0.  1.
         11    1    4    4    0    0 -0.69352019239E-01 -0.53727446799E-01  0.41890897500E-01  0.97218565750E-01  0.51100000000E-03 0. -1.
</event>
<event>
 8    1  0.1129676E+005  0.1043930E+01  0.7957747E-01            NaN
         13   -1    0    0    0    0  0.00000000000E+00  0.00000000000E+00  0.74505805969E-08  0.10566000000E+00  0.10566000000E+00 0.  1.
     999900   -1    0    0    0    0 -0.00000000000E+00 -0.00000000000E+00 -0.74505805969E-08  0.93827000000E+00  0.93827000000E+00 0.  1.
     999902    2    1    2    0    0 -0.57135758018E-02 -0.24162295864E-01  0.37259144457E-02  0.10188233489E+01  0.10185139530E+01 0.  0.
     999903    2    3    3    0    0 -0.43137718382E-01 -0.12092818443E+00  0.24598440417E-01  0.13248263228E+00  0.21495954252E-01 0.  0.
         14    1    1    2    0    0  0.57135758018E-02  0.24162295864E-01 -0.37259144457E-02  0.25106651077E-01  0.00000000000E+00 0.  1.
     999901    1    3    3    0    0  0.37424142580E-01  0.96765888563E-01 -0.20872525972E-01  0.88634071664E+00  0.88000000000E+00 0. -1.
        -11    1    4    4    0    0 -0.17647744263E-01 -0.48487055717E-01  0.20664790569E-01  0.55585359043E-01  0.51100000000E-03 0. -1.
         11    1    4    4    0    0 -0.25489974119E-01 -0.72441128710E-01  0.39336498482E-02  0.76897273238E-01  0.51100000000E-03 0.  1.
</event>
<event>
 8    1  0.1129676E+005  0.1043930E+01  0.7957747E-01            NaN
         13   -1    0    0    0    0  0.00000000000E+00  0.00000000000E+00  0.74505805969E-08  0.10566000000E+00  0.10566000000E+00 0. -1.
     999900   -1    0    0    0    0 -0.00000000000E+00 -0.00000000000E+00 -0.74505805969E-08  0.93827000000E+00  0.93827000000E+00 0. -1.
     999902    2    1    2    0    0  0.21922374510E-01  0.41970431249E-02  0.40915200285E-02  0.10212375737E+01  0.10209854239E+01 0.  0.
     999903    2    3    3    0    0 -0.98768363748E-01  0.81253215697E-01 -0.73026247092E-02  0.12959093149E+00  0.19575659847E-01 0.  0.
         14    1    1    2    0    0 -0.21922374510E-01 -0.41970431249E-02 -0.40915200285E-02  0.22692426298E-01  0.00000000000E+00 0. -1.
     999901    1    3    3    0    0  0.12069073826E+00 -0.77056172572E-01  0.11394144738E-01  0.89164664221E+00  0.88000000000E+00 0.  1.
        -11    1    4    4    0    0 -0.49074639795E-01  0.46547986527E-01 -0.12376595951E-01  0.68763919093E-01  0.51100000000E-03 0. -1.
         11    1    4    4    0    0 -0.49693723953E-01  0.34705229169E-01  0.50739712415E-02  0.60827012397E-01  0.51100000000E-03 0.  1.
</event>
<event>
 8    1  0.1129676E+005  0.1043930E+01  0.7957747E-01            NaN
         13   -1    0    0    0    0  0.00000000000E+00  0.00000000000E+00  0.74505805969E-08  0.10566000000E+00  0.10566000000E+00 0. -1.
     999900   -1    0    0    0    0 -0.00000000000E+00 -0.00000000000E+00 -0.74505805969E-08  0.93827000000E+00  0.93827000000E+00 0. -1.
     999902    2    1    2    0    0 -0.84002033239E-02 -0.14012908891E-01  0.17103643020E-01  0.10202771009E+01  0.10200028936E+01 0.  0.
     999903    2    3    3    0    0 -0.70389053852E-01 -0.83247283120E-01  0.74588779283E-01  0.13351864615E+00  0.19468277452E-01 0.  0.
         14    1    1    2    0    0  0.84002033239E-02  0.14012908891E-01 -0.17103643020E-01  0.23652899104E-01  0.00000000000E+00 0.  1.
     999901    1    3    3    0    0  0.61988850528E-01  0.69234374229E-01 -0.57485136263E-01  0.88675845474E+00  0.88000000000E+00 0.  1.
        -11    1    4    4    0    0 -0.47827595130E-01 -0.62282486029E-01  0.43580664755E-01  0.89811593813E-01  0.51100000000E-03 0. -1.
         11    1    4    4    0    0 -0.22561458722E-01 -0.20964797091E-01  0.31008114528E-01  0.43707052341E-01  0.51100000000E-03 0.  1.
</event>
<event>
 8    1  0.1129676E+005  0.1043930E+01  0.7957747E-01            NaN
         13   -1    0    0    0    0  0.00000000000E+00  0.00000000000E+00  0.74505805969E-08  0.10566000000E+00  0.10566000000E+00 0. -1.
     999900   -1    0    0    0    0 -0.00000000000E+00 -0.00000000000E+00 -0.74505805969E-08  0.93827000000E+00  0.93827000000E+00 0. -1.
     999902    2    1    2    0    0 -0.87500610955E-02 -0.19456294614E-01 -0.97417740534E-02  0.10204776412E+01  0.10202081176E+01 0.  0.
     999903    2    3    3    0    0  0.59333353193E-01  0.32553803070E-01  0.10752746324E+00  0.12857379241E+00  0.19719732457E-01 0.  0.
         14    1    1    2    0    0  0.87500610955E-02  0.19456294614E-01  0.97417740534E-02  0.23452358751E-01  0.00000000000E+00 0. -1.
     999901    1    3    3    0    0 -0.68083414288E-01 -0.52010097684E-01 -0.11726923729E+00  0.89190384884E+00  0.88000000000E+00 0. -1.
        -11    1    4    4    0    0  0.50067464176E-01  0.20846848085E-01  0.93441404485E-01  0.10804119232E+00  0.51100000000E-03 0. -1.
         11    1    4    4    0    0  0.92658890171E-02  0.11706954985E-01  0.14086058754E-01  0.20532600092E-01  0.51100000000E-03 0.  1.
</event>
<event>
 8    1  0.1129676E+005  0.1043930E+01  0.7957747E-01            NaN
         13   -1    0    0    0    0  0.00000000000E+00  0.00000000000E+00  0.74505805969E-08  0.10566000000E+00  0.10566000000E+00 0. -1.
     999900   -1    0    0    0    0 -0.00000000000E+00 -0.00000000000E+00 -0.74505805969E-08  0.93827000000E+00  0.93827000000E+00 0. -1.
     999902    2    1    2    0    0  0.12776216383E-01 -0.10916362711E-01  0.17838434501E-01  0.10194226863E+01  0.10191280611E+01 0.  0.
     999903    2    3    3    0    0 -0.33870316499E-01  0.80917408029E-01 -0.89477874050E-01  0.12693956008E+00  0.20310999683E-01 0.  0.
         14    1    1    2    0    0 -0.12776216383E-01  0.10916362711E-01 -0.17838434501E-01  0.24507313711E-01  0.00000000000E+00 0.  1.
     999901    1    3    3    0    0  0.46646532882E-01 -0.91833770740E-01  0.10731630855E+00  0.89248312620E+00  0.88000000000E+00 0.  1.
        -11    1    4    4    0    0 -0.17195501930E-01  0.26929264204E-01 -0.44138949983E-01  0.54492004770E-01  0.51100000000E-03 0.  1.
         11    1    4    4    0    0 -0.16674814568E-01  0.53988143825E-01 -0.45338924066E-01  0.72447555315E-01  0.51100000000E-03 0. -1.
</event>
<event>
 8    1  0.1129676E+005  0.1043930E+01  0.7957747E-01            NaN
         13   -1    0    0    0    0  0.00000000000E+00  0.00000000000E+00  0.74505805969E-08  0.10566000000E+00  0.10566000000E+00 0. -1.
     999900   -1    0    0    0    0 -0.00000000000E+00 -0.00000000000E+00 -0.74505805969E-08  0.93827000000E+00  0.93827000000E+00 0. -1.
     999902    2    1    2    0    0  0.21734443885E-01 -0.53965756996E-02  0.42816745348E-02  0.10211299602E+01  0.10208753860E+01 0.  0.
     999903    2    3    3    0    0 -0.63878788207E-01 -0.76631382263E-01  0.81983370311E-01  0.13071344149E+00  0.20294394516E-01 0.  0.
         14    1    1    2    0    0 -0.21734443885E-01  0.53965756996E-02 -0.42816745348E-02  0.22800039849E-01  0.00000000000E+00 0.  1.
     999901    1    3    3    0    0  0.85613232092E-01  0.71234806563E-01 -0.77701695776E-01  0.89041651866E+00  0.88000000000E+00 0.  1.
        -11    1    4    4    0    0 -0.30637534873E-01 -0.41396716345E-01  0.29768262031E-01  0.59487454245E-01  0.51100000000E-03 0.  1.
         11    1    4    4    0    0 -0.33241253334E-01 -0.35234665918E-01  0.52215108280E-01  0.71225987246E-01  0.51100000000E-03 0. -1.
</event>
<event>
 8    1  0.1129676E+005  0.1043930E+01  0.7957747E-01            NaN
         13   -1    0    0    0    0  0.00000000000E+00  0.00000000000E+00  0.74505805969E-08  0.10566000000E+00  0.10566000000E+00 0. -1.
     999900   -1    0    0    0    0 -0.00000000000E+00 -0.00000000000E+00 -0.74505805969E-08  0.93827000000E+00  0.93827000000E+00 0.  1.
     999902    2    1    2    0    0 -0.20202170805E-01  0.12049107692E-01 -0.17514832446E-02  0.10203423678E+01  0.10200696893E+01 0.  0.
     999903    2    3    3    0    0  0.52851691579E-01 -0.10575684942E+00  0.45306924643E-01  0.12824954518E+00  0.20430759059E-01 0.  0.
         14    1    1    2    0    0  0.20202170805E-01 -0.12049107692E-01  0.17514832446E-02  0.23587632246E-01  0.00000000000E+00 0.  1.
     999901    1    3    3    0    0 -0.73053862384E-01  0.11780595711E+00 -0.47058407888E-01  0.89209282258E+00  0.88000000000E+00 0.  1.
        -11    1    4    4    0    0  0.26192821485E-01 -0.54460862656E-01  0.12282285790E-01  0.61669807231E-01  0.51100000000E-03 0. -1.
         11    1    4    4    0    0  0.26658870094E-01 -0.51295986762E-01  0.33024638854E-01  0.66579737947E-01  0.51100000000E-03 0.  1.
</event>
<event>
 8    1  0.1129676E+005  0.1043930E+01  0.7957747E-01            NaN
         13   -1    0    0    0    0  0.00000000000E+00  0.00000000000E+00  0.74505805969E-08  0.10566000000E+00  0.10566000000E+00 0. -1.
     999900   -1    0    0    0    0 -0.00000000000E+00 -0.00000000000E+00 -0.74505805969E-08  0.93827000000E+00  0.93827000000E+00 0. -1.
     999902    2    1    2    0    0  0.10134701128E-03 -0.22644098902E-01 -0.10957651402E-01  0.10187737759E+01  0.10184631416E+01 0.  0.
     999903    2    3    3    0    0 -0.86572789188E-04  0.12260503952E+00 -0.25063912532E-01  0.12675565158E+00  0.20169092329E-01 0.  0.
         14    1    1    2    0    0 -0.10134701128E-03  0.22644098902E-01  0.10957651402E-01  0.25156224092E-01  0.00000000000E+00 0.  1.
     999901    1    3    3    0    0  0.18791980047E-03 -0.14524913842E+00  0.14106261130E-01  0.89201812433E+00  0.88000000000E+00 0. -1.
        -11    1    4    4    0    0  0.95902095062E-02  0.46026172967E-01 -0.78180368426E-02  0.47663020649E-01  0.51100000000E-03 0. -1.
         11    1    4    4    0    0 -0.96767822954E-02  0.76578866554E-01 -0.17245875689E-01  0.79092630931E-01  0.51100000000E-03 0.  1.
</event>
<event>
 8    1  0.1129676E+005  0.1043930E+01  0.7957747E-01            NaN
         13   -1    0    0    0    0  0.00000000000E+00  0.00000000000E+00  0.74505805969E-08  0.10566000000E+00  0.10566000000E+00 0.  1.
     999900   -1    0    0    0    0 -0.00000000000E+00 -0.00000000000E+00 -0.74505805969E-08  0.93827000000E+00  0.93827000000E+00 0. -1.
     999902    2    1    2    0    0  0.17098571399E-01  0.16293657473E-01 -0.13122802058E-02  0.10202748421E+01  0.10200005818E+01 0.  0.
     999903    2    3    3    0    0 -0.11051274280E+00  0.49420420536E-01  0.41340010229E-01  0.12943184365E+00  0.19701812553E-01 0.  0.
         14    1    1    2    0    0 -0.17098571399E-01 -0.16293657473E-01  0.13122802058E-02  0.23655157938E-01  0.00000000000E+00 0. -1.
     999901    1    3    3    0    0  0.12761131420E+00 -0.33126763064E-01 -0.42652290435E-01  0.89084299841E+00  0.88000000000E+00 0. -1.
        -11    1    4    4    0    0 -0.83840325407E-01  0.28362089898E-01  0.26923850179E-01  0.92513583528E-01  0.51100000000E-03 0.  1.
         11    1    4    4    0    0 -0.26672417392E-01  0.21058330639E-01  0.14416160050E-01  0.36918260122E-01  0.51100000000E-03 0. -1.
</event>
<event>
 8    1  0.1129676E+005  0.1043930E+01  0.7957747E-01            NaN
         13   -1    0    0    0    0  0.00000000000E+00  0.00000000000E+00  0.74505805969E-08  0.10566000000E+00  0.10566000000E+00 0.  1.
     999900   -1    0    0    0    0 -0.00000000000E+00 -0.00000000000E+00 -0.74505805969E-08  0.93827000000E+00  0.93827000000E+00 0.  1.
     999902    2    1    2    0    0  0.59143141977E-02  0.11006836732E-01 -0.17157983900E-01  0.10227044027E+01  0.10224841170E+01 0.  0.
     999903    2    3    3    0    0 -0.16434850483E-01 -0.10928006479E+00  0.66211466607E-01  0.13033738794E+00  0.19789884091E-01 0.  0.
         14    1    1    2    0    0 -0.59143141977E-02 -0.11006836732E-01  0.17157983900E-01  0.21225597254E-01  0.00000000000E+00 0.  1.
     999901    1    3    3    0    0  0.22349164681E-01  0.12028690153E+00 -0.83369450508E-01  0.89236701481E+00  0.88000000000E+00 0.  1.
        -11    1    4    4    0    0 -0.13917814160E-01 -0.84500270967E-01  0.41198386744E-01  0.95034570214E-01  0.51100000000E-03 0.  1.
         11    1    4    4    0    0 -0.25170363231E-02 -0.24779793826E-01  0.25013079863E-01  0.35302817723E-01  0.51100000000E-03 0. -1.
</event>
<event>
 8    1  0.1129676E+005  0.1043930E+01  0.7957747E-01            NaN
         13   -1    0    0    0    0  0.00000000000E+00  0.00000000000E+00  0.74505805969E-08  0.10566000000E+00  0.10566000000E+00 0. -1.
     999900   -1    0    0    0    0 -0.00000000000E+00 -0.00000000000E+00 -0.74505805969E-08  0.93827000000E+00  0.93827000000E+00 0. -1.
     999902    2    1    2    0    0 -0.44428797997E-02  0.70728350105E-02 -0.22187606887E-01  0.10202223203E+01  0.10199468265E+01 0.  0.
     999903    2    3    3    0    0  0.67453280708E-01  0.43365852541E-01  0.97964643502E-01  0.12841359404E+00  0.21504360301E-01 0.  0.
         14    1    1    2    0    0  0.44428797997E-02 -0.70728350105E-02  0.22187606887E-01  0.23707679671E-01  0.00000000000E+00 0. -1.
     999901    1    3    3    0    0 -0.71896160508E-01 -0.36293017530E-01 -0.12015225039E+00  0.89180872629E+00  0.88000000000E+00 0. -1.
        -11    1    4    4    0    0  0.46338061485E-01  0.39474421635E-01  0.64858518581E-01  0.88951303864E-01  0.51100000000E-03 0.  1.
         11    1    4    4    0    0  0.21115219223E-01  0.38914309056E-02  0.33106124922E-01  0.39462290173E-01  0.51100000000E-03 0. -1.
</event>
<event>
 8    1  0.1129676E+005  0.1043930E+01  0.7957747E-01            NaN
         13   -1    0    0    0    0  0.00000000000E+00  0.00000000000E+00  0.74505805969E-08  0.10566000000E+00  0.10566000000E+00 0. -1.
     999900   -1    0    0    0    0 -0.00000000000E+00 -0.00000000000E+00 -0.74505805969E-08  0.93827000000E+00  0.93827000000E+00 0. -1.
     999902    2    1    2    0    0  0.47605484032E-02 -0.17373727791E-01  0.15605706751E-01  0.10200962567E+01  0.10198177904E+01 0.  0.
     999903    2    3    3    0    0  0.97512904574E-02 -0.12923173461E+00 -0.18558727630E-01  0.13234385324E+00  0.19353041735E-01 0.  0.
         14    1    1    2    0    0 -0.47605484032E-02  0.17373727791E-01 -0.15605706751E-01  0.23833743341E-01  0.00000000000E+00 0. -1.
     999901    1    3    3    0    0 -0.49907420542E-02  0.11185800682E+00  0.34164434381E-01  0.88775240342E+00  0.88000000000E+00 0.  1.
        -11    1    4    4    0    0 -0.56263590479E-02 -0.42063045857E-01 -0.81721253482E-02  0.43220371315E-01  0.51100000000E-03 0.  1.
         11    1    4    4    0    0  0.15377649505E-01 -0.87168688751E-01 -0.10386602282E-01  0.89123481928E-01  0.51100000000E-03 0. -1.
</event>
<event>
 8    1  0.1129676E+005  0.1043930E+01  0.7957747E-01            NaN
         13   -1    0    0    0    0  0.00000000000E+00  0.00000000000E+00  0.74505805969E-08  0.10566000000E+00  0.10566000000E+00 0. -1.
     999900   -1    0    0    0    0 -0.00000000000E+00 -0.00000000000E+00 -0.74505805969E-08  0.93827000000E+00  0.93827000000E+00 0.  1.
     999902    2    1    2    0    0  0.27649465455E-02 -0.19636741830E-01  0.12838965134E-01  0.10203061649E+01  0.10200326390E+01 0.  0.
     999903    2    3    3    0    0  0.89949026081E-01 -0.78290963035E-01  0.55621873548E-01  0.13302280619E+00  0.19518503125E-01 0.  0.
         14    1    1    2    0    0 -0.27649465455E-02  0.19636741830E-01 -0.12838965134E-01  0.23623835100E-01  0.00000000000E+00 0. -1.
     999901    1    3    3    0    0 -0.87184079536E-01  0.58654221205E-01 -0.42782908413E-01  0.88728335871E+00  0.88000000000E+00 0.  1.
        -11    1    4    4    0    0  0.54050888011E-01 -0.59213807613E-01  0.36326527302E-01  0.88020743088E-01  0.51100000000E-03 0.  1.
         11    1    4    4    0    0  0.35898138070E-01 -0.19077155421E-01  0.19295346245E-01  0.45002063104E-01  0.51100000000E-03 0. -1.
</event>
<event>
 8    1  0.1129676E+005  0.1043930E+01  0.7957747E-01            NaN
         13   -1    0    0    0    0  0.00000000000E+00  0.00000000000E+00  0.74505805969E-08  0.10566000000E+00  0.10566000000E+00 0.  1.
     999900   -1    0    0    0    0 -0.00000000000E+00 -0.00000000000E+00 -0.74505805969E-08  0.93827000000E+00  0.93827000000E+00 0.  1.
     999902    2    1    2    0    0 -0.20156360541E-01 -0.10983937180E-01 -0.62823027693E-02  0.10201309859E+01  0.10198533401E+01 0.  0.
     999903    2    3    3    0    0 -0.22936645142E-01  0.12557166545E+00 -0.97583515817E-02  0.12958775529E+00  0.20085518200E-01 0.  0.
         14    1    1    2    0    0  0.20156360541E-01  0.10983937180E-01  0.62823027693E-02  0.23799014146E-01  0.00000000000E+00 0. -1.
     999901    1    3    3    0    0  0.27802846009E-02 -0.13655560263E+00  0.34760488124E-02  0.89054323057E+00  0.88000000000E+00 0.  1.
        -11    1    4    4    0    0 -0.31877490249E-02  0.64152471791E-01 -0.10377781027E-01  0.65066587745E-01  0.51100000000E-03 0.  1.
         11    1    4    4    0    0 -0.19748896117E-01  0.61419193657E-01  0.61942944526E-03  0.64521167543E-01  0.51100000000E-03 0. -1.
</event>
<event>
 7    1  0.1236194E+005  0.1043930E+01  0.7957747E-01            NaN
         13   -1    0    0    0    0  0.00000000000E+00  0.00000000000E+00  0.74505805969E-08  0.10566000000E+00  0.10566000000E+00 0.  1.
     999900   -1    0    0    0    0 -0.00000000000E+00 -0.00000000000E+00 -0.74505805969E-08  0.93827000000E+00  0.93827000000E+00 0. -1.
     999903    2    1    2    0    0 -0.78881631882E-01 -0.52247749036E-02  0.59969088305E-01  0.10116413626E+00  0.19704841814E-01 0.  0.
         14    1    1    2    0    0 -0.14846031303E-01  0.44395268040E-01  0.24622240770E-01  0.52892336027E-01  0.00000000000E+00 0.  1.
     999901    1    1    2    0    0  0.93727663185E-01 -0.39170493136E-01 -0.84591329076E-01  0.88987352772E+00  0.88000000000E+00 0.  1.
        -11    1    3    3    0    0 -0.50669935809E-01 -0.11758304280E-01  0.33097595808E-01  0.61655592477E-01  0.51100000000E-03 0.  1.
         11    1    3    3    0    0 -0.28211696073E-01  0.65335293765E-02  0.26871492498E-01  0.39508543778E-01  0.51100000000E-03 0. -1.
</event>
<event>
 8    1  0.1164318E+005  0.1043930E+01  0.7957747E-01            NaN
         13   -1    0    0    0    0  0.00000000000E+00  0.00000000000E+00  0.74505805969E-08  0.10566000000E+00  0.10566000000E+00 0. -1.
     999900   -1    0    0    0    0 -0.00000000000E+00 -0.00000000000E+00 -0.74505805969E-08  0.93827000000E+00  0.93827000000E+00 0. -1.
     999902    2    1    2    0    0 -0.18377935218E-01  0.13824691486E-01  0.93542375444E-02  0.10191031525E+01  0.10188006984E+01 0.  0.
     999903    2    3    3    0    0  0.10082677289E+00  0.54840929077E-02 -0.74553690133E-01  0.12707183670E+00  0.19821341106E-01 0.  0.
         14    1    1    2    0    0  0.18377935218E-01 -0.13824691486E-01 -0.93542375444E-02  0.24826847516E-01  0.00000000000E+00 0.  1.
     999901    1    3    3    0    0 -0.11920470810E+00  0.83405985785E-02  0.83907927677E-01  0.89203131579E+00  0.88000000000E+00 0.  1.
        -11    1    4    4    0    0  0.40150787172E-01  0.11260959544E-01 -0.25997175363E-01  0.49142742783E-01  0.51100000000E-03 0.  1.
         11    1    4    4    0    0  0.60675985715E-01 -0.57768666362E-02 -0.48556514770E-01  0.77929093914E-01  0.51100000000E-03 0. -1.
</event>
<event>
 8    1  0.1129676E+005  0.1043930E+01  0.7957747E-01            NaN
         13   -1    0    0    0    0  0.00000000000E+00  0.00000000000E+00  0.74505805969E-08  0.10566000000E+00  0.10566000000E+00 0. -1.
     999900   -1    0    0    0    0 -0.00000000000E+00 -0.00000000000E+00 -0.74505805969E-08  0.93827000000E+00  0.93827000000E+00 0. -1.
     999902    2    1    2    0    0  0.23787675143E-01  0.83661834705E-03  0.18539942169E-02  0.10200555217E+01  0.10197760914E+01 0.  0.
     999903    2    3    3    0    0  0.13044750396E+00  0.16800661171E-01 -0.88398603330E-02  0.13340704104E+00  0.20505656912E-01 0.  0.
         14    1    1    2    0    0 -0.23787675143E-01 -0.83661834705E-03 -0.18539942169E-02  0.23874478288E-01  0.00000000000E+00 0. -1.
     999901    1    3    3    0    0 -0.10665982881E+00 -0.15964042824E-01  0.10693854550E-01  0.88664848067E+00  0.88000000000E+00 0.  1.
        -11    1    4    4    0    0  0.15606959513E-01  0.43714320771E-02 -0.75508784442E-02  0.17887523303E-01  0.51100000000E-03 0.  1.
         11    1    4    4    0    0  0.11484054444E+00  0.12429229094E-01 -0.12889818888E-02  0.11551951774E+00  0.51100000000E-03 0. -1.
</event>
<event>
 8    1  0.1129676E+005  0.1043930E+01  0.7957747E-01            NaN
         13   -1    0    0    0    0  0.00000000000E+00  0.00000000000E+00  0.74505805969E-08  0.10566000000E+00  0.10566000000E+00 0.  1.
     999900   -1    0    0    0    0 -0.00000000000E+00 -0.00000000000E+00 -0.74505805969E-08  0.93827000000E+00  0.93827000000E+00 0. -1.
     999902    2    1    2    0    0  0.97908194597E-02  0.18680041947E-01 -0.11379713003E-01  0.10199654015E+01  0.10196838325E+01 0.  0.
     999903    2    3    3    0    0  0.21246895258E-01  0.80231921340E-01 -0.10213778792E+00  0.13308496780E+00  0.19770917386E-01 0.  0.
         14    1    1    2    0    0 -0.97908194597E-02 -0.18680041947E-01  0.11379713003E-01  0.23964598491E-01  0.00000000000E+00 0.  1.
     999901    1    3    3    0    0 -0.11456075798E-01 -0.61551879393E-01  0.90758074915E-01  0.88688043371E+00  0.88000000000E+00 0. -1.
        -11    1    4    4    0    0  0.37820493282E-02  0.35203633299E-01 -0.56220159502E-01  0.66442209100E-01  0.51100000000E-03 0. -1.
         11    1    4    4    0    0  0.17464845929E-01  0.45028288040E-01 -0.45917628415E-01  0.66642758702E-01  0.51100000000E-03 0.  1.
</event>
<event>
 8    1  0.1129676E+005  0.1043930E+01  0.7957747E-01            NaN
         13   -1    0    0    0    0  0.00000000000E+00  0.00000000000E+00  0.74505805969E-08  0.10566000000E+00  0.10566000000E+00 0. -1.
     999900   -1    0    0    0    0 -0.00000000000E+00 -0.00000000000E+00 -0.74505805969E-08  0.93827000000E+00  0.93827000000E+00 0.  1.
     999902    2    1    2    0    0  0.42864730656E-02 -0.17865478519E-01 -0.11595036191E-01  0.10222045762E+01  0.10219736795E+01 0.  0.
     999903    2    3    3    0    0 -0.12447544232E+00  0.37441698675E-01 -0.17271293361E-02  0.13106155163E+00  0.16677253919E-01 0.  0.
         14    1    1    2    0    0 -0.42864730656E-02  0.17865478519E-01  0.11595036191E-01  0.21725423778E-01  0.00000000000E+00 0.  1.
     999901    1    3    3    0    0  0.12876191539E+00 -0.55307177194E-01 -0.98679068546E-02  0.89114302460E+00  0.88000000000E+00 0.  1.
        -11    1    4    4    0    0 -0.92958462063E-01  0.23021660815E-01  0.43640348888E-02  0.95867504700E-01  0.51100000000E-03 0.  1.
         11    1    4    4    0    0 -0.31516980256E-01  0.14420037860E-01 -0.60911642249E-02  0.35194046925E-01  0.51100000000E-03 0. -1.
</event>
<event>
 8    1  0.1129676E+005  0.1043930E+01  0.7957747E-01            NaN
         13   -1    0    0    0    0  0.00000000000E+00  0.00000000000E+00  0.74505805969E-08  0.10566000000E+00  0.10566000000E+00 0.  1.
     999900   -1    0    0    0    0 -0.00000000000E+00 -0.00000000000E+00 -0.74505805969E-08  0.93827000000E+00  0.93827000000E+00 0. -1.
     999902    2    1    2    0    0  0.21027418838E-01 -0.17718788460E-01  0.14881080373E-02  0.10163923481E+01  0.10160192336E+01 0.  0.
     999903    2    3    3    0    0  0.27176212117E-01  0.52202417506E-02  0.12308795176E+00  0.12771325597E+00  0.19855338125E-01 0.  0.
         14    1    1    2    0    0 -0.21027418838E-01  0.17718788460E-01 -0.14881080373E-02  0.27537651915E-01  0.00000000000E+00 0.  1.
     999901    1    3    3    0    0 -0.61487932794E-02 -0.22939030211E-01 -0.12159984373E+00  0.88867909211E+00  0.88000000000E+00 0. -1.
        -11    1    4    4    0    0 -0.16844574203E-02  0.23256330055E-02  0.31640710784E-01  0.31774859017E-01  0.51100000000E-03 0.  1.
         11    1    4    4    0    0  0.28860669538E-01  0.28946087451E-02  0.91447240981E-01  0.95938396954E-01  0.51100000000E-03 0. -1.
</event>
<event>
 8    1  0.1129676E+005  0.1043930E+01  0.7957747E-01            NaN
         13   -1    0    0    0    0  0.00000000000E+00  0.00000000000E+00  0.74505805969E-08  0.10566000000E+00  0.10566000000E+00 0.  1.
     999900   -1    0    0    0    0 -0.00000000000E+00 -0.00000000000E+00 -0.74505805969E-08  0.93827000000E+00  0.93827000000E+00 0. -1.
     999902    2    1    2    0    0 -0.45891266434E-02  0.22280661248E-01 -0.68165681137E-02  0.10201822938E+01  0.10199058579E+01 0.  0.
     999903    2    3    3    0    0  0.28428116965E-01 -0.72473339497E-01  0.99745603121E-01  0.12809263722E+00  0.19949826980E-01 0.  0.
         14    1    1    2    0    0  0.45891266434E-02 -0.22280661248E-01  0.68165681137E-02  0.23747706202E-01  0.00000000000E+00 0.  1.
     999901    1    3    3    0    0 -0.33017243608E-01  0.94754000745E-01 -0.10656217123E+00  0.89208965658E+00  0.88000000000E+00 0. -1.
        -11    1    4    4    0    0  0.10975349073E-01 -0.14108869551E-01  0.13070068713E-01  0.22149634408E-01  0.51100000000E-03 0. -1.
         11    1    4    4    0    0  0.17452767892E-01 -0.58364469947E-01  0.86675534408E-01  0.10594300281E+00  0.51100000000E-03 0.  1.
</event>
<event>
 8    1  0.1129676E+005  0.1043930E+01  0.7957747E-01            NaN
         13   -1    0    0    0    0  0.00000000000E+00  0.00000000000E+00  0.74505805969E-08  0.10566000000E+00  0.10566000000E+00 0.  1.
     999900   -1    0    0    0    0 -0.00000000000E+00 -0.00000000000E+00 -0.74505805969E-08  0.93827000000E+00  0.93827000000E+00 0. -1.
     999902    2    1    2    0    0  0.36516023667E-02 -0.16482589316E-02 -0.23353844147E-01  0.10202350007E+01  0.10199598049E+01 0.  0.
     999903    2    3    3    0    0 -0.12239157427E+00 -0.14344394629E-01 -0.39828148890E-01  0.13101091363E+00  0.19801993248E-01 0.  0.
         14    1    1    2    0    0 -0.36516023667E-02  0.16482589316E-02  0.23353844147E-01  0.23694999341E-01  0.00000000000E+00 0.  1.
     999901    1    3    3    0    0  0.12604317664E+00  0.12696135698E-01  0.16474304743E-01  0.88922408703E+00  0.88000000000E+00 0.  1.
        -11    1    4    4    0    0 -0.59997168217E-01 -0.94408703199E-02 -0.29691573884E-01  0.67606515272E-01  0.51100000000E-03 0. -1.
         11    1    4    4    0    0 -0.62394406051E-01 -0.49035243095E-02 -0.10136575006E-01  0.63404398357E-01  0.51100000000E-03 0.  1.
</event>
<event>
 8    1  0.1291353E+005  0.1043930E+01  0.7957747E-01            NaN
         13   -1    0    0    0    0  0.00000000000E+00  0.00000000000E+00  0.74505805969E-08  0.10566000000E+00  0.10566000000E+00 0. -1.
     999900   -1    0    0    0    0 -0.00000000000E+00 -0.00000000000E+00 -0.74505805969E-08  0.93827000000E+00  0.93827000000E+00 0.  1.
     999902    2    1    2    0    0  0.19816353418E-02 -0.20957592646E-01  0.13581005797E-01  0.10188782279E+01  0.10185701998E+01 0.  0.
     999903    2    3    3    0    0  0.96411767812E-02  0.31619522199E-02 -0.12553099239E+00  0.12759119832E+00  0.20458093894E-01 0.  0.
         14    1    1    2    0    0 -0.19816353418E-02  0.20957592646E-01 -0.13581005797E-01  0.25051772125E-01  0.00000000000E+00 0.  1.
     999901    1    3    3    0    0 -0.76595414394E-02 -0.24119544866E-01  0.13911199819E+00  0.89128702956E+00  0.88000000000E+00 0. -1.
        -11    1    4    4    0    0  0.60395153123E-02  0.11836254927E-01 -0.80147632041E-01  0.81243317994E-01  0.51100000000E-03 0.  1.
         11    1    4    4    0    0  0.36016614690E-02 -0.86743027070E-02 -0.45383360349E-01  0.46347880322E-01  0.51100000000E-03 0. -1.
</event>
<event>
 8    1  0.1129676E+005  0.1043930E+01  0.7957747E-01            NaN
         13   -1    0    0    0    0  0.00000000000E+00  0.00000000000E+00  0.74505805969E-08  0.10566000000E+00  0.10566000000E+00 0.  1.
     999900   -1    0    0    0    0 -0.00000000000E+00 -0.00000000000E+00 -0.74505805969E-08  0.93827000000E+00  0.93827000000E+00 0.  1.
     999902    2    1    2    0    0 -0.18223371425E-01 -0.65624439271E-02  0.12242601540E-01  0.10210162873E+01  0.10207591394E+01 0.  0.
     999903    2    3    3    0    0 -0.34158566300E-01 -0.10622741155E+00 -0.66932370573E-01  0.13171560003E+00  0.20444716775E-01 0.  0.
         14    1    1    2    0    0  0.18223371425E-01  0.65624439271E-02 -0.12242601540E-01  0.22913712682E-01  0.00000000000E+00 0. -1.
     999901    1    3    3    0    0  0.15935194875E-01  0.99664967622E-01  0.79174972113E-01  0.88930068729E+00  0.88000000000E+00 0.  1.
        -11    1    4    4    0    0 -0.16589475601E-01 -0.65405892551E-01 -0.50685513744E-01  0.84394454235E-01  0.51100000000E-03 0.  1.
         11    1    4    4    0    0 -0.17569090699E-01 -0.40821518998E-01 -0.16246856829E-01  0.47321145792E-01  0.51100000000E-03 0. -1.
</event>
<event>
 8    1  0.1129676E+005  0.1043930E+01  0.7957747E-01            NaN
         13   -1    0    0    0    0  0.00000000000E+00  0.00000000000E+00  0.74505805969E-08  0.10566000000E+00  0.10566000000E+00 0.  1.
     999900   -1    0    0    0    0 -0.00000000000E+00 -0.00000000000E+00 -0.74505805969E-08  0.93827000000E+00  0.93827000000E+00 0.  1.
     999902    2    1    2    0    0 -0.24532452889E-01 -0.71533061596E-02  0.42443226198E-03  0.10183723949E+01  0.10180516409E+01 0.  0.
     999903    2    3    3    0    0 -0.10190319641E+00 -0.56578466294E-01 -0.57699645258E-01  0.13168897522E+00  0.20672514290E-01 0.  0.
         14    1    1    2    0    0  0.24532452889E-01  0.71533061596E-02 -0.42443226198E-03  0.25557605062E-01  0.00000000000E+00 0. -1.
     999901    1    3    3    0    0  0.77370743516E-01  0.49425160134E-01  0.58124077520E-01  0.88668341971E+00  0.88000000000E+00 0. -1.
        -11    1    4    4    0    0 -0.77281281329E-01 -0.33724212699E-01 -0.35942246086E-01  0.91661470318E-01  0.51100000000E-03 0. -1.
         11    1    4    4    0    0 -0.24621915076E-01 -0.22854253594E-01 -0.21757399171E-01  0.40027504907E-01  0.51100000000E-03 0.  1.
</event>
<event>
 8    1  0.1129676E+005  0.1043930E+01  0.7957747E-01            NaN
         13   -1    0    0    0    0  0.00000000000E+00  0.00000000000E+00  0.74505805969E-08  0.10566000000E+00  0.10566000000E+00 0.  1.
     999900   -1    0    0    0    0 -0.00000000000E+00 -0.00000000000E+00 -0.74505805969E-08  0.93827000000E+00  0.93827000000E+00 0.  1.
     999902    2    1    2    0    0  0.60440415933E-02  0.21471875598E-01  0.93001551579E-02  0.10197625681E+01  0.10194761549E+01 0.  0.
     999903    2    3    3    0    0  0.96365101529E-01  0.17707830238E-02 -0.84392752040E-01  0.12997361119E+00  0.21946173774E-01 0.  0.
         14    1    1    2    0    0 -0.60440415933E-02 -0.21471875598E-01 -0.93001551579E-02  0.24167431937E-01  0.00000000000E+00 0. -1.
     999901    1    3    3    0    0 -0.90321059935E-01  0.19701092574E-01  0.93692907198E-01  0.88978895687E+00  0.88000000000E+00 0. -1.
        -11    1    4    4    0    0  0.21022427420E-01  0.38797404155E-02 -0.30773866935E-01  0.37473815491E-01  0.51100000000E-03 0.  1.
         11    1    4    4    0    0  0.75342674109E-01 -0.21089573917E-02 -0.53618885105E-01  0.92499795697E-01  0.51100000000E-03 0. -1.
</event>
<event>
 8    1  0.1129676E+005  0.1043930E+01  0.7957747E-01            NaN
         13   -1    0    0    0    0  0.00000000000E+00  0.00000000000E+00  0.74505805969E-08  0.10566000000E+00  0.10566000000E+00 0. -1.
     999900   -1    0    0    0    0 -0.00000000000E+00 -0.00000000000E+00 -0.74505805969E-08  0.93827000000E+00  0.93827000000E+00 0.  1.
     999902    2    1    2    0    0 -0.63755328895E-02 -0.93294061417E-02 -0.20433961234E-01  0.10205797964E+01  0.10203126426E+01 0.  0.
     999903    2    3    3    0    0 -0.10251585855E+00  0.57059263209E-01  0.50062133398E-01  0.13006302672E+00  0.25395136281E-01 0.  0.
         14    1    1    2    0    0  0.63755328895E-02  0.93294061417E-02  0.20433961234E-01  0.23350203646E-01  0.00000000000E+00 0. -1.
     999901    1    3    3    0    0  0.96140325665E-01 -0.66388669351E-01 -0.70496094632E-01  0.89051676963E+00  0.88000000000E+00 0.  1.
        -11    1    4    4    0    0 -0.54909466047E-01  0.23356860227E-01  0.13372625332E-01  0.61152928061E-01  0.51100000000E-03 0. -1.
         11    1    4    4    0    0 -0.47606392508E-01  0.33702402982E-01  0.36689508066E-01  0.68910098661E-01  0.51100000000E-03 0.  1.
</event>
<event>
 7    1  0.1129676E+005  0.1043930E+01  0.7957747E-01            NaN
         13   -1    0    0    0    0  0.00000000000E+00  0.00000000000E+00  0.74505805969E-08  0.10566000000E+00  0.10566000000E+00 0. -1.
     999900   -1    0    0    0    0 -0.00000000000E+00 -0.00000000000E+00 -0.74505805969E-08  0.93827000000E+00  0.93827000000E+00 0. -1.
     999903    2    1    2    0    0  0.51742044410E-01 -0.29764904825E-01  0.96955892529E-01  0.11552622869E+00  0.19562098596E-01 0.  0.
         14    1    1    2    0    0  0.74790682549E-02 -0.35945753268E-01 -0.16699742866E-01  0.40335035041E-01  0.00000000000E+00 0.  1.
     999901    1    1    2    0    0 -0.59221112665E-01  0.65710658092E-01 -0.80256149663E-01  0.88806873626E+00  0.88000000000E+00 0. -1.
        -11    1    3    3    0    0  0.52153868829E-02  0.23612518270E-02  0.13992210545E-01  0.15126759318E-01  0.51100000000E-03 0. -1.
         11    1    3    3    0    0  0.46526657527E-01 -0.32126156652E-01  0.82963681983E-01  0.10039946938E+00  0.51100000000E-03 0.  1.
</event>
<event>
 8    1  0.1129676E+005  0.1043930E+01  0.7957747E-01            NaN
         13   -1    0    0    0    0  0.00000000000E+00  0.00000000000E+00  0.74505805969E-08  0.10566000000E+00  0.10566000000E+00 0. -1.
     999900   -1    0    0    0    0 -0.00000000000E+00 -0.00000000000E+00 -0.74505805969E-08  0.93827000000E+00  0.93827000000E+00 0. -1.
     999902    2    1    2    0    0 -0.21583913529E-01  0.12971978726E-01 -0.16429696143E-02  0.10186943723E+01  0.10183817493E+01 0.  0.
     999903    2    3    3    0    0 -0.43974586287E-01  0.95840365773E-01  0.76198002883E-01  0.13109776980E+00  0.16166312299E-01 0.  0.
         14    1    1    2    0    0  0.21583913529E-01 -0.12971978726E-01  0.16429696143E-02  0.25235627681E-01  0.00000000000E+00 0.  1.
     999901    1    3    3    0    0  0.22390672757E-01 -0.82868387047E-01 -0.77840972497E-01  0.88759660252E+00  0.88000000000E+00 0. -1.
        -11    1    4    4    0    0 -0.23854126767E-01  0.41823403521E-01  0.26348865000E-01  0.54888434608E-01  0.51100000000E-03 0. -1.
         11    1    4    4    0    0 -0.20120459520E-01  0.54016962252E-01  0.49849137883E-01  0.76209335195E-01  0.51100000000E-03 0.  1.
</event>
<event>
 8    1  0.1129676E+005  0.1043930E+01  0.7957747E-01            NaN
         13   -1    0    0    0    0  0.00000000000E+00  0.00000000000E+00  0.74505805969E-08  0.10566000000E+00  0.10566000000E+00 0. -1.
     999900   -1    0    0    0    0 -0.00000000000E+00 -0.00000000000E+00 -0.74505805969E-08  0.93827000000E+00  0.93827000000E+00 0.  1.
     999902    2    1    2    0    0  0.19522327909E-01  0.11332501890E-01  0.23485720854E-02  0.10212350077E+01  0.10209828002E+01 0.  0.
     999903    2    3    3    0    0  0.46309972020E-01 -0.10342179993E+00 -0.62529892488E-01  0.13101293266E+00  0.20340080169E-01 0.  0.
         14    1    1    2    0    0 -0.19522327909E-01 -0.11332501890E-01 -0.23485720854E-02  0.22694992331E-01  0.00000000000E+00 0.  1.
     999901    1    3    3    0    0 -0.26787644112E-01  0.11475430182E+00  0.64878464573E-01  0.89022207501E+00  0.88000000000E+00 0. -1.
        -11    1    4    4    0    0  0.47134412331E-01 -0.10199632302E+00 -0.63470268985E-01  0.12904897869E+00  0.51100000000E-03 0.  1.
         11    1    4    4    0    0 -0.82444031098E-03 -0.14254769107E-02  0.94037649692E-03  0.19639539723E-02  0.51100000000E-03 0. -1.
</event>
<event>
 8    1  0.1129676E+005  0.1043930E+01  0.7957747E-01            NaN
         13   -1    0    0    0    0  0.00000000000E+00  0.00000000000E+00  0.74505805969E-08  0.10566000000E+00  0.10566000000E+00 0. -1.
     999900   -1    0    0    0    0 -0.00000000000E+00 -0.00000000000E+00 -0.74505805969E-08  0.93827000000E+00  0.93827000000E+00 0.  1.
     999902    2    1    2    0    0 -0.64120991016E-02 -0.22542273622E-01 -0.46615756013E-02  0.10200344062E+01  0.10197544756E+01 0.  0.
     999903    2    3    3    0    0  0.28460514991E-01  0.75018748556E-01  0.97770470106E-01  0.12805538391E+00  0.20032547872E-01 0.  0.
         14    1    1    2    0    0  0.64120991016E-02  0.22542273622E-01  0.46615756013E-02  0.23895593778E-01  0.00000000000E+00 0.  1.
     999901    1    3    3    0    0 -0.34872614092E-01 -0.97561022178E-01 -0.10243204571E+00  0.89197902231E+00  0.88000000000E+00 0.  1.
        -11    1    4    4    0    0  0.18368075720E-01  0.65173634159E-01  0.87315475796E-01  0.11049543986E+00  0.51100000000E-03 0. -1.
         11    1    4    4    0    0  0.10092439271E-01  0.98451143967E-02  0.10454994310E-01  0.17559944048E-01  0.51100000000E-03 0.  1.
</event>
<event>
 8    1  0.1129676E+005  0.1043930E+01  0.7957747E-01            NaN
         13   -1    0    0    0    0  0.00000000000E+00  0.00000000000E+00  0.74505805969E-08  0.10566000000E+00  0.10566000000E+00 0. -1.
     999900   -1    0    0    0    0 -0.00000000000E+00 -0.00000000000E+00 -0.74505805969E-08  0.93827000000E+00  0.93827000000E+00 0. -1.
     999902    2    1    2    0    0  0.22612510075E-01 -0.44094829501E-02 -0.59377979256E-02  0.10201386865E+01  0.10198612225E+01 0.  0.
     999903    2    3    3    0    0 -0.99577822048E-01 -0.11857655883E-01 -0.78224401692E-01  0.12872895717E+00  0.19893233679E-01 0.  0.
         14    1    1    2    0    0 -0.22612510075E-01  0.44094829501E-02  0.59377979256E-02  0.23791313457E-01  0.00000000000E+00 0. -1.
     999901    1    3    3    0    0  0.12219033212E+00  0.74481729325E-02  0.72286603766E-01  0.89140972938E+00  0.88000000000E+00 0. -1.
        -11    1    4    4    0    0 -0.94744345671E-02 -0.61618003538E-02 -0.13645686525E-01  0.17725647399E-01  0.51100000000E-03 0.  1.
         11    1    4    4    0    0 -0.90103387481E-01 -0.56958555288E-02 -0.64578715167E-01  0.11100330977E+00  0.51100000000E-03 0. -1.
</event>
<event>
 8    1  0.1129676E+005  0.1043930E+01  0.7957747E-01            NaN
         13   -1    0    0    0    0  0.00000000000E+00  0.00000000000E+00  0.74505805969E-08  0.10566000000E+00  0.10566000000E+00 0.  1.
     999900   -1    0    0    0    0 -0.00000000000E+00 -0.00000000000E+00 -0.74505805969E-08  0.93827000000E+00  0.93827000000E+00 0. -1.
     999902    2    1    2    0    0 -0.75388699409E-02  0.17783277023E-01  0.11445886239E-01  0.10214781000E+01  0.10212313259E+01 0.  0.
     999903    2    3    3    0    0 -0.19081727425E-01 -0.10205660187E+00 -0.74115203798E-01  0.12916899758E+00  0.20295423045E-01 0.  0.
         14    1    1    2    0    0  0.75388699409E-02 -0.17783277023E-01 -0.11445886239E-01  0.22451899996E-01  0.00000000000E+00 0. -1.
     999901    1    3    3    0    0  0.11542857484E-01  0.11983987889E+00  0.85561090037E-01  0.89230910242E+00  0.88000000000E+00 0. -1.
        -11    1    4    4    0    0 -0.22618302156E-01 -0.71281520055E-01 -0.51182208013E-01  0.90622967463E-01  0.51100000000E-03 0. -1.
         11    1    4    4    0    0  0.35365747308E-02 -0.30775081813E-01 -0.22932995786E-01  0.38546030121E-01  0.51100000000E-03 0.  1.
</event>
<event>
 8    1  0.1129676E+005  0.1043930E+01  0.7957747E-01            NaN
         13   -1    0    0    0    0  0.00000000000E+00  0.00000000000E+00  0.74505805969E-08  0.10566000000E+00  0.10566000000E+00 0. -1.
     999900   -1    0    0    0    0 -0.00000000000E+00 -0.00000000000E+00 -0.74505805969E-08  0.93827000000E+00  0.93827000000E+00 0.  1.
     999902    2    1    2    0    0 -0.95828590684E-02 -0.20970986196E-01  0.42207175447E-02  0.10204901214E+01  0.10202208879E+01 0.  0.
     999903    2    3    3    0    0  0.39480174155E-01  0.29243491664E-01  0.11901064070E+00  0.13026239695E+00  0.19771026841E-01 0.  0.
         14    1    1    2    0    0  0.95828590684E-02  0.20970986196E-01 -0.42207175447E-02  0.23439878552E-01  0.00000000000E+00 0. -1.
     999901    1    3    3    0    0 -0.49063033223E-01 -0.50214477859E-01 -0.11478992315E+00  0.89022772450E+00  0.88000000000E+00 0.  1.
        -11    1    4    4    0    0  0.26369394978E-01  0.12942952788E-01  0.48422309181E-01  0.56637850999E-01  0.51100000000E-03 0.  1.
         11    1    4    4    0    0  0.13110779176E-01  0.16300538876E-01  0.70588331518E-01  0.73624545946E-01  0.51100000000E-03 0. -1.
</event>
<event>
 8    1  0.1166627E+005  0.1043930E+01  0.7957747E-01            NaN
         13   -1    0    0    0    0  0.00000000000E+00  0.00000000000E+00  0.74505805969E-08  0.10566000000E+00  0.10566000000E+00 0.  1.
     999900   -1    0    0    0    0 -0.00000000000E+00 -0.00000000000E+00 -0.74505805969E-08  0.93827000000E+00  0.93827000000E+00 0. -1.
     999902    2    1    2    0    0 -0.14357120169E-01  0.17809698375E-01  0.80993808424E-02  0.10196624862E+01  0.10193736673E+01 0.  0.
     999903    2    3    3    0    0 -0.52747261434E-01  0.11956493249E+00  0.13873514921E-01  0.13294873801E+00  0.20120781597E-01 0.  0.
         14    1    1    2    0    0  0.14357120169E-01 -0.17809698375E-01 -0.80993808424E-02  0.24267513795E-01  0.00000000000E+00 0.  1.
     999901    1    3    3    0    0  0.38390141265E-01 -0.10175523411E+00 -0.57741340784E-02  0.88671374820E+00  0.88000000000E+00 0.  1.
        -11    1    4    4    0    0 -0.23073861166E-01  0.50314461762E-01  0.15853804611E-01  0.57580833383E-01  0.51100000000E-03 0.  1.
         11    1    4    4    0    0 -0.29673400269E-01  0.69250470727E-01 -0.19802896903E-02  0.75367904626E-01  0.51100000000E-03 0. -1.
</event>
<event>
 8    1  0.1129676E+005  0.1043930E+01  0.7957747E-01            NaN
         13   -1    0    0    0    0  0.00000000000E+00  0.00000000000E+00  0.74505805969E-08  0.10566000000E+00  0.10566000000E+00 0.  1.
     999900   -1    0    0    0    0 -0.00000000000E+00 -0.00000000000E+00 -0.74505805969E-08  0.93827000000E+00  0.93827000000E+00 0. -1.
     999902    2    1    2    0    0 -0.14929076449E-01  0.15624262241E-01 -0.76379968229E-02  0.10210098366E+01  0.10207525423E+01 0.  0.
     999903    2    3    3    0    0 -0.10685141172E+00 -0.42029196088E-01  0.60636924188E-01  0.13172073749E+00  0.22132297653E-01 0.  0.
         14    1    1    2    0    0  0.14929076449E-01 -0.15624262241E-01  0.76379968229E-02  0.22920163386E-01  0.00000000000E+00 0.  1.
     999901    1    3    3    0    0  0.91922335273E-01  0.57653458329E-01 -0.68274921011E-01  0.88928909912E+00  0.88000000000E+00 0.  1.
        -11    1    4    4    0    0 -0.71621338222E-01 -0.16713732045E-01  0.38399516168E-01  0.82968360780E-01  0.51100000000E-03 0. -1.
         11    1    4    4    0    0 -0.35230073500E-01 -0.25315464043E-01  0.22237408020E-01  0.48752376711E-01  0.51100000000E-03 0.  1.
</event>
<event>
 8    1  0.1129676E+005  0.1043930E+01  0.7957747E-01            NaN
         13   -1    0    0    0    0  0.00000000000E+00  0.00000000000E+00  0.74505805969E-08  0.10566000000E+00  0.10566000000E+00 0. -1.
     999900   -1    0    0    0    0 -0.00000000000E+00 -0.00000000000E+00 -0.74505805969E-08  0.93827000000E+00  0.93827000000E+00 0.  1.
     999902    2    1    2    0    0 -0.28170090582E-01 -0.18296913511E-01 -0.10407515001E-01  0.10087640020E+01  0.10081508639E+01 0.  0.
     999903    2    3    3    0    0 -0.34649603975E-01  0.11122930335E+00 -0.15368186049E-01  0.11924523704E+00  0.20265547954E-01 0.  0.
         14    1    1    2    0    0  0.28170090582E-01  0.18296913511E-01  0.10407515001E-01  0.35165998008E-01  0.00000000000E+00 0. -1.
     999901    1    3    3    0    0  0.64795133933E-02 -0.12952621686E+00  0.49606710488E-02  0.88951876495E+00  0.88000000000E+00 0. -1.
        -11    1    4    4    0    0 -0.18364598718E-01  0.28637129687E-01 -0.58864340622E-02  0.34529044438E-01  0.51100000000E-03 0. -1.
         11    1    4    4    0    0 -0.16285005257E-01  0.82592173664E-01 -0.94817519872E-02  0.84716192599E-01  0.51100000000E-03 0.  1.
</event>
<event>
 8    1  0.1129676E+005  0.1043930E+01  0.7957747E-01            NaN
         13   -1    0    0    0    0  0.00000000000E+00  0.00000000000E+00  0.74505805969E-08  0.10566000000E+00  0.10566000000E+00 0.  1.
     999900   -1    0    0    0    0 -0.00000000000E+00 -0.00000000000E+00 -0.74505805969E-08  0.93827000000E+00  0.93827000000E+00 0.  1.
     999902    2    1    2    0    0 -0.18169371707E-01 -0.74830011501E-02  0.64982897752E-02  0.10232334026E+01  0.10230240696E+01 0.  0.
     999903    2    3    3    0    0 -0.81452370225E-01 -0.10023354873E-01  0.10642804613E+00  0.13531609365E+00  0.15765783894E-01 0.  0.
         14    1    1    2    0    0  0.18169371707E-01  0.74830011501E-02 -0.64982897752E-02  0.20696597412E-01  0.00000000000E+00 0. -1.
     999901    1    3    3    0    0  0.63282998518E-01  0.25403537225E-02 -0.99929756350E-01  0.88791730893E+00  0.88000000000E+00 0.  1.
        -11    1    4    4    0    0 -0.32508175622E-01  0.37287039367E-02  0.41764669614E-01  0.53058773679E-01  0.51100000000E-03 0.  1.
         11    1    4    4    0    0 -0.48944194603E-01 -0.13752058809E-01  0.64663376511E-01  0.82257319976E-01  0.51100000000E-03 0. -1.
</event>
<event>
 8    1  0.1129676E+005  0.1043930E+01  0.7957747E-01            NaN
         13   -1    0    0    0    0  0.00000000000E+00  0.00000000000E+00  0.74505805969E-08  0.10566000000E+00  0.10566000000E+00 0.  1.
     999900   -1    0    0    0    0 -0.00000000000E+00 -0.00000000000E+00 -0.74505805969E-08  0.93827000000E+00  0.93827000000E+00 0.  1.
     999902    2    1    2    0    0 -0.60641644132E-02 -0.16722570890E-01 -0.15623233362E-01  0.10202550367E+01  0.10199803116E+01 0.  0.
     999903    2    3    3    0    0 -0.44039712599E-01 -0.12278072560E+00 -0.18379167262E-01  0.13306956024E+00  0.18844394616E-01 0.  0.
         14    1    1    2    0    0  0.60641644132E-02  0.16722570890E-01  0.15623233362E-01  0.23674963313E-01  0.00000000000E+00 0. -1.
     999901    1    3    3    0    0  0.37975548186E-01  0.10605815471E+00  0.27559339006E-02  0.88718547644E+00  0.88000000000E+00 0. -1.
        -11    1    4    4    0    0 -0.31968361204E-01 -0.87963220178E-01 -0.45436136838E-02  0.93703840735E-01  0.51100000000E-03 0. -1.
         11    1    4    4    0    0 -0.12071351395E-01 -0.34817505425E-01 -0.13835553579E-01  0.39365719508E-01  0.51100000000E-03 0.  1.
</event>
<event>
 8    1  0.1129676E+005  0.1043930E+01  0.7957747E-01            NaN
         13   -1    0    0    0    0  0.00000000000E+00  0.00000000000E+00  0.74505805969E-08  0.10566000000E+00  0.10566000000E+00 0. -1.
     999900   -1    0    0    0    0 -0.00000000000E+00 -0.00000000000E+00 -0.74505805969E-08  0.93827000000E+00  0.93827000000E+00 0.  1.
     999902    2    1    2    0    0 -0.67512060712E-02 -0.21479467523E-01  0.65999799597E-02  0.10204671348E+01  0.10201973668E+01 0.  0.
     999903    2    3    3    0    0  0.12806385677E+00  0.43135133443E-02 -0.15109875161E-03  0.12980111652E+00  0.20720743532E-01 0.  0.
         14    1    1    2    0    0  0.67512060712E-02  0.21479467523E-01 -0.65999799597E-02  0.23462865212E-01  0.00000000000E+00 0.  1.
     999901    1    3    3    0    0 -0.13481506284E+00 -0.25792980867E-01  0.67510787113E-02  0.89066601827E+00  0.88000000000E+00 0.  1.
        -11    1    4    4    0    0  0.51816880538E-01 -0.80017259319E-02  0.27963467964E-02  0.52508069884E-01  0.51100000000E-03 0.  1.
         11    1    4    4    0    0  0.76246976228E-01  0.12315239276E-01 -0.29474455480E-02  0.77293046638E-01  0.51100000000E-03 0. -1.
</event>
<event>
 8    1  0.1129676E+005  0.1043930E+01  0.7957747E-01            NaN
         13   -1    0    0    0    0  0.00000000000E+00  0.00000000000E+00  0.74505805969E-08  0.10566000000E+00  0.10566000000E+00 0.  1.
     999900   -1    0    0    0    0 -0.00000000000E+00 -0.00000000000E+00 -0.74505805969E-08  0.93827000000E+00  0.93827000000E+00 0.  1.
     999902    2    1    2    0    0 -0.41842497795E-02 -0.26921473089E-01 -0.43670019279E-02  0.10163375306E+01  0.10159629087E+01 0.  0.
     999903    2    3    3    0    0  0.54529874764E-01 -0.45258281331E-01 -0.10521027912E+00  0.12844510838E+00  0.20177308133E-01 0.  0.
         14    1    1    2    0    0  0.41842497795E-02  0.26921473089E-01  0.43670019279E-02  0.27592469359E-01  0.00000000000E+00 0.  1.
     999901    1    3    3    0    0 -0.58714124543E-01  0.18336808242E-01  0.10084327719E+00  0.88789242226E+00  0.88000000000E+00 0. -1.
        -11    1    4    4    0    0  0.45020828522E-01 -0.25525115432E-01 -0.72733416040E-01  0.89268233143E-01  0.51100000000E-03 0. -1.
         11    1    4    4    0    0  0.95090462417E-02 -0.19733165899E-01 -0.32476863077E-01  0.39176875235E-01  0.51100000000E-03 0.  1.
</event>
<event>
 8    1  0.1129676E+005  0.1043930E+01  0.7957747E-01            NaN
         13   -1    0    0    0    0  0.00000000000E+00  0.00000000000E+00  0.74505805969E-08  0.10566000000E+00  0.10566000000E+00 0. -1.
     999900   -1    0    0    0    0 -0.00000000000E+00 -0.00000000000E+00 -0.74505805969E-08  0.93827000000E+00  0.93827000000E+00 0. -1.
     999902    2    1    2    0    0 -0.12254843212E-02 -0.17228737451E-01 -0.16384051568E-01  0.10201231029E+01  0.10198452709E+01 0.  0.
     999903    2    3    3    0    0 -0.48445087033E-01 -0.77758773549E-01 -0.95041460379E-01  0.13328570845E+00  0.18407812597E-01 0.  0.
         14    1    1    2    0    0  0.12254843212E-02  0.17228737451E-01  0.16384051568E-01  0.23806897147E-01  0.00000000000E+00 0.  1.
     999901    1    3    3    0    0  0.47219602712E-01  0.60530036098E-01  0.78657408811E-01  0.88683739440E+00  0.88000000000E+00 0. -1.
        -11    1    4    4    0    0 -0.49138233517E-01 -0.70545402571E-01 -0.85063019234E-01  0.12094295424E+00  0.51100000000E-03 0. -1.
         11    1    4    4    0    0  0.69314648367E-03 -0.72133709774E-02 -0.99784411454E-02  0.12342754214E-01  0.51100000000E-03 0.  1.
</event>
<event>
 8    1  0.1129676E+005  0.1043930E+01  0.7957747E-01            NaN
         13   -1    0    0    0    0  0.00000000000E+00  0.00000000000E+00  0.74505805969E-08  0.10566000000E+00  0.10566000000E+00 0.  1.
     999900   -1    0    0    0    0 -0.00000000000E+00 -0.00000000000E+00 -0.74505805969E-08  0.93827000000E+00  0.93827000000E+00 0. -1.
     999902    2    1    2    0    0  0.16668374270E-01  0.20570260750E-02 -0.23520763204E-01  0.10150285751E+01  0.10146170292E+01 0.  0.
     999903    2    3    3    0    0 -0.47344677864E-01 -0.11217334020E+00  0.15060591284E-01  0.12450357923E+00  0.21211861273E-01 0.  0.
         14    1    1    2    0    0 -0.16668374270E-01 -0.20570260750E-02  0.23520763204E-01  0.28901424857E-01  0.00000000000E+00 0.  1.
     999901    1    3    3    0    0  0.64013052135E-01  0.11423036628E+00 -0.38581354487E-01  0.89052499591E+00  0.88000000000E+00 0. -1.
        -11    1    4    4    0    0 -0.24889512422E-01 -0.82415353091E-01  0.71431656036E-02  0.86389028179E-01  0.51100000000E-03 0. -1.
         11    1    4    4    0    0 -0.22455165442E-01 -0.29757987109E-01  0.79174256800E-02  0.38114551056E-01  0.51100000000E-03 0.  1.
</event>
<event>
 8    1  0.1129676E+005  0.1043930E+01  0.7957747E-01            NaN
         13   -1    0    0    0    0  0.00000000000E+00  0.00000000000E+00  0.74505805969E-08  0.10566000000E+00  0.10566000000E+00 0. -1.
     999900   -1    0    0    0    0 -0.00000000000E+00 -0.00000000000E+00 -0.74505805969E-08  0.93827000000E+00  0.93827000000E+00 0.  1.
     999902    2    1    2    0    0 -0.67902401303E-02  0.13829350284E-01  0.23633274557E-01  0.10157184783E+01  0.10153266160E+01 0.  0.
     999903    2    3    3    0    0  0.10598394477E+00 -0.46124942369E-01 -0.41033143628E-01  0.12415004031E+00  0.19219957716E-01 0.  0.
         14    1    1    2    0    0  0.67902401303E-02 -0.13829350284E-01 -0.23633274557E-01  0.28211521700E-01  0.00000000000E+00 0.  1.
     999901    1    3    3    0    0 -0.11277418490E+00  0.59954292653E-01  0.64666418185E-01  0.89156843799E+00  0.88000000000E+00 0. -1.
        -11    1    4    4    0    0  0.16583332548E-01 -0.31920065912E-03 -0.78531080443E-02  0.18358682807E-01  0.51100000000E-03 0. -1.
         11    1    4    4    0    0  0.89400612221E-01 -0.45805741709E-01 -0.33180035584E-01  0.10579135750E+00  0.51100000000E-03 0.  1.
</event>
<event>
 8    1  0.1129676E+005  0.1043930E+01  0.7957747E-01            NaN
         13   -1    0    0    0    0  0.00000000000E+00  0.00000000000E+00  0.74505805969E-08  0.10566000000E+00  0.10566000000E+00 0.  1.
     999900   -1    0    0    0    0 -0.00000000000E+00 -0.00000000000E+00 -0.74505805969E-08  0.93827000000E+00  0.93827000000E+00 0. -1.
     999902    2    1    2    0    0  0.17638305857E-01  0.22053880302E-02 -0.15638873491E-01  0.10202541065E+01  0.10199793595E+01 0.  0.
     999903    2    3    3    0    0 -0.35708314338E-01  0.80114566392E-01 -0.96232632020E-01  0.13154096048E+00  0.18678258956E-01 0.  0.
         14    1    1    2    0    0 -0.17638305857E-01 -0.22053880302E-02  0.15638873491E-01  0.23675893519E-01  0.00000000000E+00 0. -1.
     999901    1    3    3    0    0  0.53346620195E-01 -0.77909178361E-01  0.80593758529E-01  0.88871314600E+00  0.88000000000E+00 0. -1.
        -11    1    4    4    0    0 -0.25575711612E-01  0.65008450617E-01 -0.85511892386E-01  0.11042083380E+00  0.51100000000E-03 0. -1.
         11    1    4    4    0    0 -0.10132602726E-01  0.15106115774E-01 -0.10720739634E-01  0.21120126683E-01  0.51100000000E-03 0.  1.
</event>
<event>
 8    1  0.1129676E+005  0.1043930E+01  0.7957747E-01            NaN
         13   -1    0    0    0    0  0.00000000000E+00  0.00000000000E+00  0.74505805969E-08  0.10566000000E+00  0.10566000000E+00 0. -1.
     999900   -1    0    0    0    0 -0.00000000000E+00 -0.00000000000E+00 -0.74505805969E-08  0.93827000000E+00  0.93827000000E+00 0.  1.
     999902    2    1    2    0    0 -0.10327767769E-01  0.20236431239E-01  0.15153950000E-02  0.10211600119E+01  0.10209061159E+01 0.  0.
     999903    2    3    3    0    0  0.12560172400E+00  0.28964621415E-02  0.27911884828E-01  0.13016378523E+00  0.19477040485E-01 0.  0.
         14    1    1    2    0    0  0.10327767769E-01 -0.20236431239E-01 -0.15153950000E-02  0.22769988107E-01  0.00000000000E+00 0. -1.
     999901    1    3    3    0    0 -0.13592949176E+00  0.17339969098E-01 -0.26396489828E-01  0.89099622667E+00  0.88000000000E+00 0.  1.
        -11    1    4    4    0    0  0.97521186556E-01  0.41513462179E-04  0.13451719243E-01  0.98445890835E-01  0.51100000000E-03 0. -1.
         11    1    4    4    0    0  0.28080537440E-01  0.28549486793E-02  0.14460165585E-01  0.31717894391E-01  0.51100000000E-03 0.  1.
</event>
<event>
 8    1  0.1129676E+005  0.1043930E+01  0.7957747E-01            NaN
         13   -1    0    0    0    0  0.00000000000E+00  0.00000000000E+00  0.74505805969E-08  0.10566000000E+00  0.10566000000E+00 0.  1.
     999900   -1    0    0    0    0 -0.00000000000E+00 -0.00000000000E+00 -0.74505805969E-08  0.93827000000E+00  0.93827000000E+00 0. -1.
     999902    2    1    2    0    0  0.53502523238E-02 -0.23623937732E-01  0.20457270312E-02  0.10196215522E+01  0.10193317464E+01 0.  0.
     999903    2    3    3    0    0 -0.45179148173E-02  0.31533713900E-01  0.12407289920E+00  0.12943596596E+00  0.18568745295E-01 0.  0.
         14    1    1    2    0    0 -0.53502523238E-02  0.23623937732E-01 -0.20457270312E-02  0.24308447770E-01  0.00000000000E+00 0. -1.
     999901    1    3    3    0    0  0.98681671410E-02 -0.55157651632E-01 -0.12202717217E+00  0.89018558627E+00  0.88000000000E+00 0. -1.
        -11    1    4    4    0    0 -0.47995187931E-02  0.16770455286E-01  0.97339101574E-01  0.98891078300E-01  0.51100000000E-03 0. -1.
         11    1    4    4    0    0  0.28160397580E-03  0.14763258614E-01  0.26733797624E-01  0.30544887659E-01  0.51100000000E-03 0.  1.
</event>
<event>
 8    1  0.1129676E+005  0.1043930E+01  0.7957747E-01            NaN
         13   -1    0    0    0    0  0.00000000000E+00  0.00000000000E+00  0.74505805969E-08  0.10566000000E+00  0.10566000000E+00 0.  1.
     999900   -1    0    0    0    0 -0.00000000000E+00 -0.00000000000E+00 -0.74505805969E-08  0.93827000000E+00  0.93827000000E+00 0.  1.
     999902    2    1    2    0    0  0.19752559599E-02 -0.17127977971E-01  0.15254383377E-01  0.10209090209E+01  0.10206494322E+01 0.  0.
     999903    2    3    3    0    0  0.53669351889E-01  0.10862376259E+00  0.43091577248E-01  0.13003266072E+00  0.19289574709E-01 0.  0.
         14    1    1    2    0    0 -0.19752559599E-02  0.17127977971E-01 -0.15254383377E-01  0.23020979078E-01  0.00000000000E+00 0.  1.
     999901    1    3    3    0    0 -0.51694095929E-01 -0.12575174056E+00 -0.27837193871E-01  0.89087636020E+00  0.88000000000E+00 0.  1.
        -11    1    4    4    0    0  0.24138020713E-01  0.28856517780E-01  0.13018322880E-01  0.39813069637E-01  0.51100000000E-03 0.  1.
         11    1    4    4    0    0  0.29531331175E-01  0.79767244810E-01  0.30073254368E-01  0.90219591081E-01  0.51100000000E-03 0. -1.
</event>
<event>
 8    1  0.1129676E+005  0.1043930E+01  0.7957747E-01            NaN
         13   -1    0    0    0    0  0.00000000000E+00  0.00000000000E+00  0.74505805969E-08  0.10566000000E+00  0.10566000000E+00 0.  1.
     999900   -1    0    0    0    0 -0.00000000000E+00 -0.00000000000E+00 -0.74505805969E-08  0.93827000000E+00  0.93827000000E+00 0.  1.
     999902    2    1    2    0    0  0.59448708268E-02 -0.20452186466E-01 -0.11490845238E-01  0.10197293193E+01  0.10194421081E+01 0.  0.
     999903    2    3    3    0    0  0.95866277788E-02 -0.12789296723E+00 -0.29619921580E-01  0.13300193892E+00  0.19069910924E-01 0.  0.
         14    1    1    2    0    0 -0.59448708268E-02  0.20452186466E-01  0.11490845238E-01  0.24200680665E-01  0.00000000000E+00 0.  1.
     999901    1    3    3    0    0 -0.36417569520E-02  0.10744078077E+00  0.18129076341E-01  0.88672738041E+00  0.88000000000E+00 0.  1.
        -11    1    4    4    0    0 -0.50888687963E-02 -0.15917188238E-01 -0.33086021795E-02  0.17042929221E-01  0.51100000000E-03 0.  1.
         11    1    4    4    0    0  0.14675496575E-01 -0.11197577899E+00 -0.26311319400E-01  0.11595900970E+00  0.51100000000E-03 0. -1.
</event>
<event>
 8    1  0.1129676E+005  0.1043930E+01  0.7957747E-01            NaN
         13   -1    0    0    0    0  0.00000000000E+00  0.00000000000E+00  0.74505805969E-08  0.10566000000E+00  0.10566000000E+00 0.  1.
     999900   -1    0    0    0    0 -0.00000000000E+00 -0.00000000000E+00 -0.74505805969E-08  0.93827000000E+00  0.93827000000E+00 0.  1.
     999902    2    1    2    0    0 -0.15397521574E-01 -0.16245850922E-01 -0.32875931355E-02  0.10213065694E+01  0.10210559677E+01 0.  0.
     999903    2    3    3    0    0  0.46701796880E-01 -0.89753034949E-01 -0.83126737491E-01  0.13246804616E+00  0.20026573664E-01 0.  0.
         14    1    1    2    0    0  0.15397521574E-01  0.16245850922E-01  0.32875931355E-02  0.22623430584E-01  0.00000000000E+00 0.  1.
     999901    1    3    3    0    0 -0.62099318453E-01  0.73507184027E-01  0.79839144355E-01  0.88883852326E+00  0.88000000000E+00 0. -1.
        -11    1    4    4    0    0  0.17016910090E-01 -0.18154600748E-01 -0.27327041229E-01  0.36962048924E-01  0.51100000000E-03 0. -1.
         11    1    4    4    0    0  0.29684886789E-01 -0.71598434201E-01 -0.55799696262E-01  0.95505997234E-01  0.51100000000E-03 0.  1.
</event>
<event>
 8    1  0.1129676E+005  0.1043930E+01  0.7957747E-01            NaN
         13   -1    0    0    0    0  0.00000000000E+00  0.00000000000E+00  0.74505805969E-08  0.10566000000E+00  0.10566000000E+00 0.  1.
     999900   -1    0    0    0    0 -0.00000000000E+00 -0.00000000000E+00 -0.74505805969E-08  0.93827000000E+00  0.93827000000E+00 0. -1.
     999902    2    1    2    0    0  0.75310913150E-02  0.22145053004E-01 -0.75024850772E-02  0.10193656357E+01  0.10190696205E+01 0.  0.
     999903    2    3    3    0    0 -0.29730080167E-01 -0.11381372209E-02 -0.12540280500E+00  0.13041626301E+00  0.19934019445E-01 0.  0.
         14    1    1    2    0    0 -0.75310913150E-02 -0.22145053004E-01  0.75024850772E-02  0.24564364255E-01  0.00000000000E+00 0.  1.
     999901    1    3    3    0    0  0.37261171482E-01  0.23283190225E-01  0.11790031993E+00  0.88894937274E+00  0.88000000000E+00 0.  1.
        -11    1    4    4    0    0 -0.19297253983E-01  0.41574898378E-02 -0.10542969007E+00  0.10726299177E+00  0.51100000000E-03 0. -1.
         11    1    4    4    0    0 -0.10432826184E-01 -0.52956270588E-02 -0.19973114932E-01  0.23153271242E-01  0.51100000000E-03 0.  1.
</event>
<event>
 8    1  0.1129676E+005  0.1043930E+01  0.7957747E-01            NaN
         13   -1    0    0    0    0  0.00000000000E+00  0.00000000000E+00  0.74505805969E-08  0.10566000000E+00  0.10566000000E+00 0. -1.
     999900   -1    0    0    0    0 -0.00000000000E+00 -0.00000000000E+00 -0.74505805969E-08  0.93827000000E+00  0.93827000000E+00 0. -1.
     999902    2    1    2    0    0  0.39881343660E-02 -0.22598006832E-01  0.99977776952E-03  0.10209610060E+01  0.10207026017E+01 0.  0.
     999903    2    3    3    0    0  0.55943750521E-01  0.12492952678E-01 -0.11614146400E+00  0.13098750529E+00  0.19573190703E-01 0.  0.
         14    1    1    2    0    0 -0.39881343660E-02  0.22598006832E-01 -0.99977776952E-03  0.22968993972E-01  0.00000000000E+00 0.  1.
     999901    1    3    3    0    0 -0.51955616155E-01 -0.35090959510E-01  0.11714124177E+00  0.88997350074E+00  0.88000000000E+00 0.  1.
        -11    1    4    4    0    0  0.31422797071E-01  0.16286256929E-01 -0.61159606136E-01  0.70663943311E-01  0.51100000000E-03 0. -1.
         11    1    4    4    0    0  0.24520953450E-01 -0.37933042512E-02 -0.54981857861E-01  0.60323561981E-01  0.51100000000E-03 0.  1.
</event>
<event>
 8    1  0.1129676E+005  0.1043930E+01  0.7957747E-01            NaN
         13   -1    0    0    0    0  0.00000000000E+00  0.00000000000E+00  0.74505805969E-08  0.10566000000E+00  0.10566000000E+00 0. -1.
     999900   -1    0    0    0    0 -0.00000000000E+00 -0.00000000000E+00 -0.74505805969E-08  0.93827000000E+00  0.93827000000E+00 0. -1.
     999902    2    1    2    0    0  0.14504344485E-01  0.18188438641E-01  0.96783290945E-03  0.10206462716E+01  0.10203806543E+01 0.  0.
     999903    2    3    3    0    0 -0.54991982440E-01 -0.10038104239E-02  0.11630626742E+00  0.13019636486E+00  0.19970473582E-01 0.  0.
         14    1    1    2    0    0 -0.14504344485E-01 -0.18188438641E-01 -0.96783290945E-03  0.23283728431E-01  0.00000000000E+00 0.  1.
     999901    1    3    3    0    0  0.69496326924E-01  0.19192249065E-01 -0.11533843451E+00  0.89044990671E+00  0.88000000000E+00 0. -1.
        -11    1    4    4    0    0 -0.18962556703E-01  0.76714312252E-02  0.30500420652E-01  0.36728275139E-01  0.51100000000E-03 0.  1.
         11    1    4    4    0    0 -0.36029425737E-01 -0.86752416491E-02  0.85805846763E-01  0.93468089722E-01  0.51100000000E-03 0. -1.
</event>
<event>
 8    1  0.1129676E+005  0.1043930E+01  0.7957747E-01            NaN
         13   -1    0    0    0    0  0.00000000000E+00  0.00000000000E+00  0.74505805969E-08  0.10566000000E+00  0.10566000000E+00 0.  1.
     999900   -1    0    0    0    0 -0.00000000000E+00 -0.00000000000E+00 -0.74505805969E-08  0.93827000000E+00  0.93827000000E+00 0. -1.
     999902    2    1    2    0    0  0.22555460930E-01 -0.32998554630E-03 -0.16970696653E-02  0.10213083786E+01  0.10210578174E+01 0.  0.
     999903    2    3    3    0    0  0.10852671849E+00 -0.99169800192E-02  0.75181391701E-01  0.13373119020E+00  0.18851908532E-01 0.  0.
         14    1    1    2    0    0 -0.22555460930E-01  0.32998554630E-03  0.16970696653E-02  0.22621621376E-01  0.00000000000E+00 0.  1.
     999901    1    3    3    0    0 -0.85971257559E-01  0.95869944729E-02 -0.76878461366E-01  0.88757718842E+00  0.88000000000E+00 0. -1.
        -11    1    4    4    0    0  0.67222356148E-01  0.26091655328E-02  0.42291993268E-01  0.79463996416E-01  0.51100000000E-03 0. -1.
         11    1    4    4    0    0  0.41304362341E-01 -0.12526145552E-01  0.32889398432E-01  0.54267193783E-01  0.51100000000E-03 0.  1.
</event>
<event>
 8    1  0.1129676E+005  0.1043930E+01  0.7957747E-01            NaN
         13   -1    0    0    0    0  0.00000000000E+00  0.00000000000E+00  0.74505805969E-08  0.10566000000E+00  0.10566000000E+00 0.  1.
     999900   -1    0    0    0    0 -0.00000000000E+00 -0.00000000000E+00 -0.74505805969E-08  0.93827000000E+00  0.93827000000E+00 0.  1.
     999902    2    1    2    0    0  0.63745202717E-02  0.24622362353E-01  0.11389692265E-01  0.10160620915E+01  0.10156798479E+01 0.  0.
     999903    2    3    3    0    0  0.12275987235E-01  0.10467672069E+00  0.73900873611E-01  0.13020026510E+00  0.19566660323E-01 0.  0.
         14    1    1    2    0    0 -0.63745202717E-02 -0.24622362353E-01 -0.11389692265E-01  0.27867908540E-01  0.00000000000E+00 0.  1.
     999901    1    3    3    0    0 -0.59014669635E-02 -0.80054358335E-01 -0.62511181347E-01  0.88586182636E+00  0.88000000000E+00 0.  1.
        -11    1    4    4    0    0  0.98514098498E-02  0.70131552733E-01  0.60215650597E-01  0.92960586609E-01  0.51100000000E-03 0.  1.
         11    1    4    4    0    0  0.24245773853E-02  0.34545167955E-01  0.13685223014E-01  0.37239678496E-01  0.51100000000E-03 0. -1.
</event>
<event>
 8    1  0.1129676E+005  0.1043930E+01  0.7957747E-01            NaN
         13   -1    0    0    0    0  0.00000000000E+00  0.00000000000E+00  0.74505805969E-08  0.10566000000E+00  0.10566000000E+00 0. -1.
     999900   -1    0    0    0    0 -0.00000000000E+00 -0.00000000000E+00 -0.74505805969E-08  0.93827000000E+00  0.93827000000E+00 0.  1.
     999902    2    1    2    0    0 -0.28588916957E-02 -0.23077063736E-01 -0.78925811985E-02  0.10193735961E+01  0.10190777750E+01 0.  0.
     999903    2    3    3    0    0  0.70969504974E-01  0.14314564765E-01 -0.10606134943E+00  0.13005595149E+00  0.20590368464E-01 0.  0.
         14    1    1    2    0    0  0.28588916957E-02  0.23077063736E-01  0.78925811985E-02  0.24556403856E-01  0.00000000000E+00 0.  1.
     999901    1    3    3    0    0 -0.73828396670E-01 -0.37391628500E-01  0.98168768235E-01  0.88931764465E+00  0.88000000000E+00 0.  1.
        -11    1    4    4    0    0  0.35389914131E-01  0.99661519302E-02 -0.70764871698E-01  0.79747717170E-01  0.51100000000E-03 0. -1.
         11    1    4    4    0    0  0.35579590843E-01  0.43484128343E-02 -0.35296477735E-01  0.50308234319E-01  0.51100000000E-03 0.  1.
</event>
<event>
 8    1  0.1129676E+005  0.1043930E+01  0.7957747E-01            NaN
         13   -1    0    0    0    0  0.00000000000E+00  0.00000000000E+00  0.74505805969E-08  0.10566000000E+00  0.10566000000E+00 0.  1.
     999900   -1    0    0    0    0 -0.00000000000E+00 -0.00000000000E+00 -0.74505805969E-08  0.93827000000E+00  0.93827000000E+00 0. -1.
     999902    2    1    2    0    0 -0.30543719341E-02 -0.18315198271E-01 -0.15118884228E-01  0.10199851397E+01  0.10197040398E+01 0.  0.
     999903    2    3    3    0    0  0.75502686769E-01 -0.10292070014E+00 -0.26740634986E-01  0.13236789812E+00  0.22646692174E-01 0.  0.
         14    1    1    2    0    0  0.30543719341E-02  0.18315198271E-01  0.15118884228E-01  0.23944860324E-01  0.00000000000E+00 0.  1.
     999901    1    3    3    0    0 -0.78557058703E-01  0.84605501868E-01  0.11621750758E-01  0.88761724156E+00  0.88000000000E+00 0.  1.
        -11    1    4    4    0    0  0.65907675362E-01 -0.97930016854E-01 -0.28404824297E-01  0.12141336433E+00  0.51100000000E-03 0.  1.
         11    1    4    4    0    0  0.95950114075E-02 -0.49906832857E-02  0.16641893103E-02  0.10954533793E-01  0.51100000000E-03 0. -1.
</event>
<event>
 8    1  0.1129676E+005  0.1043930E+01  0.7957747E-01            NaN
         13   -1    0    0    0    0  0.00000000000E+00  0.00000000000E+00  0.74505805969E-08  0.10566000000E+00  0.10566000000E+00 0.  1.
     999900   -1    0    0    0    0 -0.00000000000E+00 -0.00000000000E+00 -0.74505805969E-08  0.93827000000E+00  0.93827000000E+00 0.  1.
     999902    2    1    2    0    0 -0.25266594821E-01  0.77516818003E-02 -0.63709877606E-03  0.10174933724E+01  0.10171498747E+01 0.  0.
     999903    2    3    3    0    0  0.64854877032E-01 -0.80144031769E-01 -0.69089894922E-01  0.12590303964E+00  0.21188225673E-01 0.  0.
         14    1    1    2    0    0  0.25266594821E-01 -0.77516818003E-02  0.63709877606E-03  0.26436627610E-01  0.00000000000E+00 0. -1.
     999901    1    3    3    0    0 -0.90121471853E-01  0.87895713569E-01  0.68452796146E-01  0.89159033275E+00  0.88000000000E+00 0. -1.
        -11    1    4    4    0    0  0.51658852067E-01 -0.74237746964E-01 -0.62910485122E-01  0.11017200339E+00  0.51100000000E-03 0. -1.
         11    1    4    4    0    0  0.13196024966E-01 -0.59062848045E-02 -0.61794097995E-02  0.15731036252E-01  0.51100000000E-03 0.  1.
</event>
<event>
 8    1  0.1129676E+005  0.1043930E+01  0.7957747E-01            NaN
         13   -1    0    0    0    0  0.00000000000E+00  0.00000000000E+00  0.74505805969E-08  0.10566000000E+00  0.10566000000E+00 0.  1.
     999900   -1    0    0    0    0 -0.00000000000E+00 -0.00000000000E+00 -0.74505805969E-08  0.93827000000E+00  0.93827000000E+00 0.  1.
     999902    2    1    2    0    0  0.61624141466E-03  0.23578122941E-01  0.39894302102E-02  0.10200088130E+01  0.10197282753E+01 0.  0.
     999903    2    3    3    0    0  0.36859897108E-02 -0.31502112406E-01 -0.12370388740E+00  0.12908298047E+00  0.18809425345E-01 0.  0.
         14    1    1    2    0    0 -0.61624141466E-03 -0.23578122941E-01 -0.39894302102E-02  0.23921187017E-01  0.00000000000E+00 0. -1.
     999901    1    3    3    0    0 -0.30697482961E-02  0.55080235347E-01  0.12769331761E+00  0.89092583252E+00  0.88000000000E+00 0. -1.
        -11    1    4    4    0    0  0.17770649595E-03 -0.24764591382E-01 -0.59801229216E-01  0.64728391782E-01  0.51100000000E-03 0.  1.
         11    1    4    4    0    0  0.35082832148E-02 -0.67375210240E-02 -0.63902658186E-01  0.64354588686E-01  0.51100000000E-03 0. -1.
</event>
<event>
 8    1  0.1129676E+005  0.1043930E+01  0.7957747E-01            NaN
         13   -1    0    0    0    0  0.00000000000E+00  0.00000000000E+00  0.74505805969E-08  0.10566000000E+00  0.10566000000E+00 0.  1.
     999900   -1    0    0    0    0 -0.00000000000E+00 -0.00000000000E+00 -0.74505805969E-08  0.93827000000E+00  0.93827000000E+00 0.  1.
     999902    2    1    2    0    0 -0.10895515767E-01 -0.11665024732E-01  0.16718841036E-01  0.10208149678E+01  0.10205532293E+01 0.  0.
     999903    2    3    3    0    0  0.15208779970E-01 -0.10630122907E+00 -0.72081786196E-01  0.13091441339E+00  0.20286484220E-01 0.  0.
         14    1    1    2    0    0  0.10895515767E-01  0.11665024732E-01 -0.16718841036E-01  0.23115032153E-01  0.00000000000E+00 0. -1.
     999901    1    3    3    0    0 -0.26104295736E-01  0.94636204338E-01  0.88800627232E-01  0.88990055446E+00  0.88000000000E+00 0. -1.
        -11    1    4    4    0    0  0.53227431593E-02 -0.18650212174E-01 -0.48314317307E-02  0.19994145704E-01  0.51100000000E-03 0. -1.
         11    1    4    4    0    0  0.98860368102E-02 -0.87651016896E-01 -0.67250354465E-01  0.11092026769E+00  0.51100000000E-03 0.  1.
</event>
<event>
 8    1  0.1129676E+005  0.1043930E+01  0.7957747E-01            NaN
         13   -1    0    0    0    0  0.00000000000E+00  0.00000000000E+00  0.74505805969E-08  0.10566000000E+00  0.10566000000E+00 0.  1.
     999900   -1    0    0    0    0 -0.00000000000E+00 -0.00000000000E+00 -0.74505805969E-08  0.93827000000E+00  0.93827000000E+00 0.  1.
     999902    2    1    2    0    0 -0.14585020697E-01 -0.69089640743E-02  0.17303280911E-01  0.10202686361E+01  0.10199942302E+01 0.  0.
     999903    2    3    3    0    0  0.32220419556E-01 -0.51522368214E-01  0.11670874911E+00  0.13231449750E+00  0.13909862244E-01 0.  0.
         14    1    1    2    0    0  0.14585020697E-01  0.69089640743E-02 -0.17303280911E-01  0.23661363942E-01  0.00000000000E+00 0. -1.
     999901    1    3    3    0    0 -0.46805440253E-01  0.44613404139E-01 -0.99405468201E-01  0.88795413855E+00  0.88000000000E+00 0.  1.
        -11    1    4    4    0    0  0.27997218049E-01 -0.42458164469E-01  0.10646606049E+00  0.11799077551E+00  0.51100000000E-03 0. -1.
         11    1    4    4    0    0  0.42232015067E-02 -0.90642037442E-02  0.10242688620E-01  0.14323721990E-01  0.51100000000E-03 0.  1.
</event>
<event>
 8    1  0.1129676E+005  0.1043930E+01  0.7957747E-01            NaN
         13   -1    0    0    0    0  0.00000000000E+00  0.00000000000E+00  0.74505805969E-08  0.10566000000E+00  0.10566000000E+00 0. -1.
     999900   -1    0    0    0    0 -0.00000000000E+00 -0.00000000000E+00 -0.74505805969E-08  0.93827000000E+00  0.93827000000E+00 0.  1.
     999902    2    1    2    0    0 -0.79217831333E-02 -0.15745911680E-01  0.16927129413E-01  0.10194919949E+01  0.10191990540E+01 0.  0.
     999903    2    3    3    0    0 -0.24481096198E-01 -0.12761799160E+00  0.13110349357E-01  0.13224674081E+00  0.20776028068E-01 0.  0.
         14    1    1    2    0    0  0.79217831333E-02  0.15745911680E-01 -0.16927129413E-01  0.24438005090E-01  0.00000000000E+00 0. -1.
     999901    1    3    3    0    0  0.16559313065E-01  0.11187207992E+00  0.38167800553E-02  0.88724525410E+00  0.88000000000E+00 0.  1.
        -11    1    4    4    0    0 -0.21942413362E-02 -0.44590797623E-01  0.12158464564E-01  0.46273570310E-01  0.51100000000E-03 0.  1.
         11    1    4    4    0    0 -0.22286854862E-01 -0.83027193980E-01  0.95188479324E-03  0.85973170498E-01  0.51100000000E-03 0. -1.
</event>
<event>
 8    1  0.1129676E+005  0.1043930E+01  0.7957747E-01            NaN
         13   -1    0    0    0    0  0.00000000000E+00  0.00000000000E+00  0.74505805969E-08  0.10566000000E+00  0.10566000000E+00 0.  1.
     999900   -1    0    0    0    0 -0.00000000000E+00 -0.00000000000E+00 -0.74505805969E-08  0.93827000000E+00  0.93827000000E+00 0. -1.
     999902    2    1    2    0    0 -0.11825442836E-01 -0.60295961851E-02  0.17642298114E-01  0.10218517797E+01  0.10216132399E+01 0.  0.
     999903    2    3    3    0    0 -0.46894841163E-01 -0.94519825235E-01  0.80854533837E-01  0.13446450795E+00  0.20251537380E-01 0.  0.
         14    1    1    2    0    0  0.11825442836E-01  0.60295961851E-02 -0.17642298114E-01  0.22078220290E-01  0.00000000000E+00 0. -1.
     999901    1    3    3    0    0  0.35069398327E-01  0.88490229050E-01 -0.63212235723E-01  0.88738727176E+00  0.88000000000E+00 0.  1.
        -11    1    4    4    0    0 -0.40361322534E-01 -0.76464213577E-01  0.55848255251E-01  0.10293250726E+00  0.51100000000E-03 0.  1.
         11    1    4    4    0    0 -0.65335186291E-02 -0.18055611658E-01  0.25006278586E-01  0.31532000694E-01  0.51100000000E-03 0. -1.
</event>
<event>
 8    1  0.1129676E+005  0.1043930E+01  0.7957747E-01            NaN
         13   -1    0    0    0    0  0.00000000000E+00  0.00000000000E+00  0.74505805969E-08  0.10566000000E+00  0.10566000000E+00 0. -1.
     999900   -1    0    0    0    0 -0.00000000000E+00 -0.00000000000E+00 -0.74505805969E-08  0.93827000000E+00  0.93827000000E+00 0.  1.
     999902    2    1    2    0    0  0.75380650643E-02  0.33280408838E-01 -0.41492972109E-02  0.10095552316E+01  0.10089698414E+01 0.  0.
     999903    2    3    3    0    0 -0.38264696110E-01  0.56032398959E-01 -0.10037168738E+00  0.12283413993E+00  0.20246817113E-01 0.  0.
         14    1    1    2    0    0 -0.75380650643E-02 -0.33280408838E-01  0.41492972109E-02  0.34374768431E-01  0.00000000000E+00 0.  1.
     999901    1    3    3    0    0  0.45802761175E-01 -0.22751990120E-01  0.96222390171E-01  0.88672109164E+00  0.88000000000E+00 0. -1.
        -11    1    4    4    0    0  0.10541791842E-03  0.13370163981E-03 -0.91925862193E-02  0.92083522665E-02  0.51100000000E-03 0.  1.
         11    1    4    4    0    0 -0.38370114029E-01  0.55898697319E-01 -0.91179101162E-01  0.11362578766E+00  0.51100000000E-03 0. -1.
</event>
<event>
 8    1  0.1129676E+005  0.1043930E+01  0.7957747E-01            NaN
         13   -1    0    0    0    0  0.00000000000E+00  0.00000000000E+00  0.74505805969E-08  0.10566000000E+00  0.10566000000E+00 0.  1.
     999900   -1    0    0    0    0 -0.00000000000E+00 -0.00000000000E+00 -0.74505805969E-08  0.93827000000E+00  0.93827000000E+00 0. -1.
     999902    2    1    2    0    0 -0.16054074456E-01 -0.16326575044E-01 -0.19957120235E-02  0.10209458049E+01  0.10206870545E+01 0.  0.
     999903    2    3    3    0    0  0.55917966532E-01 -0.10923903868E-01  0.11549558505E+00  0.13020826304E+00  0.19204451079E-01 0.  0.
         14    1    1    2    0    0  0.16054074456E-01  0.16326575044E-01  0.19957120235E-02  0.22984195130E-01  0.00000000000E+00 0. -1.
     999901    1    3    3    0    0 -0.71972040988E-01 -0.54026711754E-02 -0.11749129707E+00  0.89073754183E+00  0.88000000000E+00 0. -1.
        -11    1    4    4    0    0  0.32285918171E-01 -0.12511352977E-01  0.52371603429E-01  0.62785033505E-01  0.51100000000E-03 0. -1.
         11    1    4    4    0    0  0.23632048361E-01  0.15874491083E-02  0.63123981619E-01  0.67423229534E-01  0.51100000000E-03 0.  1.
</event>
<event>
 8    1  0.1295435E+005  0.1043930E+01  0.7957747E-01            NaN
         13   -1    0    0    0    0  0.00000000000E+00  0.00000000000E+00  0.74505805969E-08  0.10566000000E+00  0.10566000000E+00 0. -1.
     999900   -1    0    0    0    0 -0.00000000000E+00 -0.00000000000E+00 -0.74505805969E-08  0.93827000000E+00  0.93827000000E+00 0.  1.
     999902    2    1    2    0    0  0.11855793048E-01 -0.10940680459E-01  0.17034332481E-01  0.10204688235E+01  0.10201990948E+01 0.  0.
     999903    2    3    3    0    0  0.43208176683E-01  0.10829853543E+00  0.56245960604E-01  0.13100914804E+00  0.20106453646E-01 0.  0.
         14    1    1    2    0    0 -0.11855793048E-01  0.10940680459E-01 -0.17034332481E-01  0.23461176458E-01  0.00000000000E+00 0.  1.
     999901    1    3    3    0    0 -0.31352383635E-01 -0.11923921588E+00 -0.39211628123E-01  0.88945967550E+00  0.88000000000E+00 0.  1.
        -11    1    4    4    0    0  0.25225606926E-01  0.51113969586E-01  0.37371298368E-01  0.68160429828E-01  0.51100000000E-03 0. -1.
         11    1    4    4    0    0  0.17982569757E-01  0.57184565840E-01  0.18874662236E-01  0.62848718212E-01  0.51100000000E-03 0.  1.
</event>
<event>
 8    1  0.1129676E+005  0.1043930E+01  0.7957747E-01            NaN
         13   -1    0    0    0    0  0.00000000000E+00  0.00000000000E+00  0.74505805969E-08  0.10566000000E+00  0.10566000000E+00 0.  1.
     999900   -1    0    0    0    0 -0.00000000000E+00 -0.00000000000E+00 -0.74505805969E-08  0.93827000000E+00  0.93827000000E+00 0.  1.
     999902    2    1    2    0    0 -0.51312327507E-02  0.11779020956E-01  0.24483311821E-01  0.10162802723E+01  0.10159040725E+01 0.  0.
     999903    2    3    3    0    0 -0.68779465968E-01 -0.10131529086E+00  0.25589697540E-01  0.12676206279E+00  0.20454457750E-01 0.  0.
         14    1    1    2    0    0  0.51312327507E-02 -0.11779020956E-01 -0.24483311821E-01  0.27649727701E-01  0.00000000000E+00 0. -1.
     999901    1    3    3    0    0  0.63648233218E-01  0.11309431182E+00 -0.11063857189E-02  0.88951820951E+00  0.88000000000E+00 0. -1.
        -11    1    4    4    0    0 -0.46904034952E-01 -0.62496516561E-01  0.25513154442E-01  0.82200883497E-01  0.51100000000E-03 0.  1.
         11    1    4    4    0    0 -0.21875431016E-01 -0.38818774299E-01  0.76543097649E-04  0.44561179294E-01  0.51100000000E-03 0. -1.
</event>
<event>
 8    1  0.1129676E+005  0.1043930E+01  0.7957747E-01            NaN
         13   -1    0    0    0    0  0.00000000000E+00  0.00000000000E+00  0.74505805969E-08  0.10566000000E+00  0.10566000000E+00 0.  1.
     999900   -1    0    0    0    0 -0.00000000000E+00 -0.00000000000E+00 -0.74505805969E-08  0.93827000000E+00  0.93827000000E+00 0.  1.
     999902    2    1    2    0    0 -0.39801529715E-02  0.25327451765E-01 -0.66508618974E-03  0.10182830943E+01  0.10179600662E+01 0.  0.
     999903    2    3    3    0    0  0.11572915537E+00  0.53352367552E-01  0.13223814257E-01  0.12962758405E+00  0.19716205414E-01 0.  0.
         14    1    1    2    0    0  0.39801529715E-02 -0.25327451765E-01  0.66508618974E-03  0.25646905665E-01  0.00000000000E+00 0.  1.
     999901    1    3    3    0    0 -0.11970930834E+00 -0.28024915787E-01 -0.13888900447E-01  0.88865551029E+00  0.88000000000E+00 0.  1.
        -11    1    4    4    0    0  0.10602227172E+00  0.42125451484E-01  0.12340428726E-01  0.11475113536E+00  0.51100000000E-03 0.  1.
         11    1    4    4    0    0  0.97068836476E-02  0.11226916068E-01  0.88338553040E-03  0.14876448687E-01  0.51100000000E-03 0. -1.
</event>
<event>
 8    1  0.1129676E+005  0.1043930E+01  0.7957747E-01            NaN
         13   -1    0    0    0    0  0.00000000000E+00  0.00000000000E+00  0.74505805969E-08  0.10566000000E+00  0.10566000000E+00 0.  1.
     999900   -1    0    0    0    0 -0.00000000000E+00 -0.00000000000E+00 -0.74505805969E-08  0.93827000000E+00  0.93827000000E+00 0.  1.
     999902    2    1    2    0    0  0.16080329179E-01 -0.17283658530E-01 -0.12944455875E-02  0.10202872965E+01  0.10200133283E+01 0.  0.
     999903    2    3    3    0    0 -0.12592461638E+00 -0.17191311800E-01 -0.76879583517E-02  0.12888038040E+00  0.19962403100E-01 0.  0.
         14    1    1    2    0    0 -0.16080329179E-01  0.17283658530E-01  0.12944455875E-02  0.23642703485E-01  0.00000000000E+00 0.  1.
     999901    1    3    3    0    0  0.14200494556E+00 -0.92346729989E-04  0.63935127642E-02  0.89140691611E+00  0.88000000000E+00 0.  1.
        -11    1    4    4    0    0 -0.72998161425E-01 -0.22952939994E-03 -0.22547309392E-02  0.73035122973E-01  0.51100000000E-03 0. -1.
         11    1    4    4    0    0 -0.52926454953E-01 -0.16961782400E-01 -0.54332274125E-02  0.55845257428E-01  0.51100000000E-03 0.  1.
</event>
<event>
 8    1  0.1129676E+005  0.1043930E+01  0.7957747E-01            NaN
         13   -1    0    0    0    0  0.00000000000E+00  0.00000000000E+00  0.74505805969E-08  0.10566000000E+00  0.10566000000E+00 0. -1.
     999900   -1    0    0    0    0 -0.00000000000E+00 -0.00000000000E+00 -0.74505805969E-08  0.93827000000E+00  0.93827000000E+00 0.  1.
     999902    2    1    2    0    0  0.17601435032E-02  0.10768566146E-01 -0.15944079465E-01  0.10246097052E+01  0.10244275348E+01 0.  0.
     999903    2    3    3    0    0 -0.88181782050E-01  0.49292626932E-01 -0.89089257892E-01  0.13617069750E+00  0.19994329981E-01 0.  0.
         14    1    1    2    0    0 -0.17601435032E-02 -0.10768566146E-01  0.15944079465E-01  0.19320294822E-01  0.00000000000E+00 0. -1.
     999901    1    3    3    0    0  0.89941925553E-01 -0.38524060786E-01  0.73145178427E-01  0.88843900768E+00  0.88000000000E+00 0. -1.
        -11    1    4    4    0    0 -0.64152260829E-01  0.43340562177E-01 -0.59865717503E-01  0.97867676749E-01  0.51100000000E-03 0.  1.
         11    1    4    4    0    0 -0.24029521221E-01  0.59520647558E-02 -0.29223540390E-01  0.38303020754E-01  0.51100000000E-03 0. -1.
</event>
<event>
 8    1  0.1129676E+005  0.1043930E+01  0.7957747E-01            NaN
         13   -1    0    0    0    0  0.00000000000E+00  0.00000000000E+00  0.74505805969E-08  0.10566000000E+00  0.10566000000E+00 0.  1.
     999900   -1    0    0    0    0 -0.00000000000E+00 -0.00000000000E+00 -0.74505805969E-08  0.93827000000E+00  0.93827000000E+00 0.  1.
     999902    2    1    2    0    0  0.10850837217E-01 -0.86692559785E-02  0.22192103681E-01  0.10177501197E+01  0.10174133477E+01 0.  0.
     999903    2    3    3    0    0 -0.35753900735E-02 -0.63881040419E-01 -0.10717038287E+00  0.12646390858E+00  0.20348426749E-01 0.  0.
         14    1    1    2    0    0 -0.10850837217E-01  0.86692559785E-02 -0.22192103681E-01  0.26179880316E-01  0.00000000000E+00 0. -1.
     999901    1    3    3    0    0  0.14426227291E-01  0.55211784440E-01  0.12936248655E+00  0.89128621110E+00  0.88000000000E+00 0. -1.
        -11    1    4    4    0    0  0.54900906434E-02 -0.36205039909E-01 -0.72158951327E-01  0.80920463344E-01  0.51100000000E-03 0. -1.
         11    1    4    4    0    0 -0.90654807169E-02 -0.27676000510E-01 -0.35011431539E-01  0.45543445239E-01  0.51100000000E-03 0.  1.
</event>
<event>
 8    1  0.1129676E+005  0.1043930E+01  0.7957747E-01            NaN
         13   -1    0    0    0    0  0.00000000000E+00  0.00000000000E+00  0.74505805969E-08  0.10566000000E+00  0.10566000000E+00 0. -1.
     999900   -1    0    0    0    0 -0.00000000000E+00 -0.00000000000E+00 -0.74505805969E-08  0.93827000000E+00  0.93827000000E+00 0.  1.
     999902    2    1    2    0    0 -0.33595052964E-02  0.21892398942E-01  0.48680267220E-02  0.10212526745E+01  0.10210008639E+01 0.  0.
     999903    2    3    3    0    0 -0.13612530148E-01 -0.15863642697E-01 -0.12643896607E+00  0.13065053575E+00  0.25412481503E-01 0.  0.
         14    1    1    2    0    0  0.33595052964E-02 -0.21892398942E-01 -0.48680267220E-02  0.22677325491E-01  0.00000000000E+00 0.  1.
     999901    1    3    3    0    0  0.10253024852E-01  0.37756041638E-01  0.13130699279E+00  0.89060213875E+00  0.88000000000E+00 0. -1.
        -11    1    4    4    0    0 -0.20804790032E-01 -0.97216273368E-02 -0.98753155210E-01  0.10138932938E+00  0.51100000000E-03 0.  1.
         11    1    4    4    0    0  0.71922598836E-02 -0.61420153598E-02 -0.27685810857E-01  0.29261206379E-01  0.51100000000E-03 0. -1.
</event>
<event>
 8    1  0.1129676E+005  0.1043930E+01  0.7957747E-01            NaN
         13   -1    0    0    0    0  0.00000000000E+00  0.00000000000E+00  0.74505805969E-08  0.10566000000E+00  0.10566000000E+00 0. -1.
     999900   -1    0    0    0    0 -0.00000000000E+00 -0.00000000000E+00 -0.74505805969E-08  0.93827000000E+00  0.93827000000E+00 0. -1.
     999902    2    1    2    0    0  0.21722494010E-01 -0.84484920447E-02  0.18450692610E-02  0.10205494944E+01  0.10202816388E+01 0.  0.
     999903    2    3    3    0    0  0.66307914277E-01  0.48391665854E-01  0.10139357945E+00  0.13199529278E+00  0.20089961219E-01 0.  0.
         14    1    1    2    0    0 -0.21722494010E-01  0.84484920447E-02 -0.18450692610E-02  0.23380505649E-01  0.00000000000E+00 0. -1.
     999901    1    3    3    0    0 -0.44585420267E-01 -0.56840157899E-01 -0.99548510191E-01  0.88855420157E+00  0.88000000000E+00 0.  1.
        -11    1    4    4    0    0  0.20325021784E-01  0.44256705731E-02  0.27542486852E-01  0.34518730764E-01  0.51100000000E-03 0.  1.
         11    1    4    4    0    0  0.45982892493E-01  0.43965995281E-01  0.73851092600E-01  0.97476562014E-01  0.51100000000E-03 0. -1.
</event>
<event>
 8    1  0.1129676E+005  0.1043930E+01  0.7957747E-01            NaN
         13   -1    0    0    0    0  0.00000000000E+00  0.00000000000E+00  0.74505805969E-08  0.10566000000E+00  0.10566000000E+00 0.  1.
     999900   -1    0    0    0    0 -0.00000000000E+00 -0.00000000000E+00 -0.74505805969E-08  0.93827000000E+00  0.93827000000E+00 0.  1.
     999902    2    1    2    0    0 -0.10276129324E-01  0.23187432101E-01 -0.45315873812E-02  0.10181658558E+01  0.10178398297E+01 0.  0.
     999903    2    3    3    0    0  0.10885262639E+00 -0.58655137122E-01 -0.15856334721E-01  0.12630369355E+00  0.20294833641E-01 0.  0.
         14    1    1    2    0    0  0.10276129324E-01 -0.23187432101E-01  0.45315873812E-02  0.25764144183E-01  0.00000000000E+00 0. -1.
     999901    1    3    3    0    0 -0.11912875571E+00  0.81842569222E-01  0.11324747340E-01  0.89186216226E+00  0.88000000000E+00 0.  1.
        -11    1    4    4    0    0  0.38181137998E-01 -0.20013299297E-01 -0.15325456552E-01  0.45754367957E-01  0.51100000000E-03 0. -1.
         11    1    4    4    0    0  0.70671488389E-01 -0.38641837824E-01 -0.53087816855E-03  0.80549325597E-01  0.51100000000E-03 0.  1.
</event>
<event>
 8    1  0.1129676E+005  0.1043930E+01  0.7957747E-01            NaN
         13   -1    0    0    0    0  0.00000000000E+00  0.00000000000E+00  0.74505805969E-08  0.10566000000E+00  0.10566000000E+00 0. -1.
     999900   -1    0    0    0    0 -0.00000000000E+00 -0.00000000000E+00 -0.74505805969E-08  0.93827000000E+00  0.93827000000E+00 0.  1.
     999902    2    1    2    0    0 -0.51497656853E-02 -0.20490578016E-01  0.46566847845E-02  0.10222951072E+01  0.10220661513E+01 0.  0.
     999903    2    3    3    0    0 -0.22607245067E-01  0.12196756379E+00 -0.32729659871E-01  0.12988442565E+00  0.20286922954E-01 0.  0.
         14    1    1    2    0    0  0.51497656853E-02  0.20490578016E-01 -0.46566847845E-02  0.21634892818E-01  0.00000000000E+00 0.  1.
     999901    1    3    3    0    0  0.17457479382E-01 -0.14245814181E+00  0.37386344655E-01  0.89241068154E+00  0.88000000000E+00 0. -1.
        -11    1    4    4    0    0 -0.16211317016E-01  0.36021093916E-01 -0.98634329686E-02  0.40717004276E-01  0.51100000000E-03 0. -1.
         11    1    4    4    0    0 -0.63959280513E-02  0.85946469876E-01 -0.22866226902E-01  0.89167421369E-01  0.51100000000E-03 0.  1.
</event>
<event>
 8    1  0.1129676E+005  0.1043930E+01  0.7957747E-01            NaN
         13   -1    0    0    0    0  0.00000000000E+00  0.00000000000E+00  0.74505805969E-08  0.10566000000E+00  0.10566000000E+00 0.  1.
     999900   -1    0    0    0    0 -0.00000000000E+00 -0.00000000000E+00 -0.74505805969E-08  0.93827000000E+00  0.93827000000E+00 0. -1.
     999902    2    1    2    0    0 -0.12177459735E-01 -0.19417837242E-01  0.28828813133E-02  0.10208290491E+01  0.10205676330E+01 0.  0.
     999903    2    3    3    0    0  0.65345364008E-01 -0.70625411008E-02  0.11123927718E+00  0.13071470245E+00  0.19805569044E-01 0.  0.
         14    1    1    2    0    0  0.12177459735E-01  0.19417837242E-01 -0.28828813133E-02  0.23100950920E-01  0.00000000000E+00 0.  1.
     999901    1    3    3    0    0 -0.77522823743E-01 -0.12355296141E-01 -0.10835639587E+00  0.89011434663E+00  0.88000000000E+00 0. -1.
        -11    1    4    4    0    0  0.22320083198E-01 -0.97157415352E-02  0.52320468307E-01  0.57708528594E-01  0.51100000000E-03 0.  1.
         11    1    4    4    0    0  0.43025280810E-01  0.26532004344E-02  0.58918808876E-01  0.73006173860E-01  0.51100000000E-03 0. -1.
</event>
<event>
 8    1  0.1129676E+005  0.1043930E+01  0.7957747E-01            NaN
         13   -1    0    0    0    0  0.00000000000E+00  0.00000000000E+00  0.74505805969E-08  0.10566000000E+00  0.10566000000E+00 0. -1.
     999900   -1    0    0    0    0 -0.00000000000E+00 -0.00000000000E+00 -0.74505805969E-08  0.93827000000E+00  0.93827000000E+00 0. -1.
     999902    2    1    2    0    0  0.10032183757E-01 -0.25384221034E-01  0.38356989986E-02  0.10163670543E+01  0.10159932446E+01 0.  0.
     999903    2    3    3    0    0  0.67495492957E-01 -0.58444545332E-02  0.10703291743E+00  0.12826036011E+00  0.20121514485E-01 0.  0.
         14    1    1    2    0    0 -0.10032183757E-01  0.25384221034E-01 -0.38356989986E-02  0.27562945693E-01  0.00000000000E+00 0. -1.
     999901    1    3    3    0    0 -0.57463309200E-01 -0.19539766501E-01 -0.10319721843E+00  0.88810669419E+00  0.88000000000E+00 0. -1.
        -11    1    4    4    0    0  0.26930425699E-01 -0.12212780859E-01  0.42878557809E-01  0.52088690571E-01  0.51100000000E-03 0.  1.
         11    1    4    4    0    0  0.40565067257E-01  0.63683263258E-02  0.64154359619E-01  0.76171669543E-01  0.51100000000E-03 0. -1.
</event>
<event>
 8    1  0.1129676E+005  0.1043930E+01  0.7957747E-01            NaN
         13   -1    0    0    0    0  0.00000000000E+00  0.00000000000E+00  0.74505805969E-08  0.10566000000E+00  0.10566000000E+00 0. -1.
     999900   -1    0    0    0    0 -0.00000000000E+00 -0.00000000000E+00 -0.74505805969E-08  0.93827000000E+00  0.93827000000E+00 0.  1.
     999902    2    1    2    0    0  0.68255997777E-02 -0.58515018191E-02  0.21668294425E-01  0.10204705910E+01  0.10202009034E+01 0.  0.
     999903    2    3    3    0    0 -0.58920687015E-01 -0.63836775926E-01  0.98346325528E-01  0.13279700987E+00  0.20402567639E-01 0.  0.
         14    1    1    2    0    0 -0.68255997777E-02  0.58515018191E-02 -0.21668294425E-01  0.23459408968E-01  0.00000000000E+00 0.  1.
     999901    1    3    3    0    0  0.65746286792E-01  0.57985274107E-01 -0.76678031103E-01  0.88767358116E+00  0.88000000000E+00 0.  1.
        -11    1    4    4    0    0 -0.23114747984E-01 -0.25117642822E-01  0.24365885494E-01  0.41942163180E-01  0.51100000000E-03 0. -1.
         11    1    4    4    0    0 -0.35805939031E-01 -0.38719133104E-01  0.73980440035E-01  0.90854846689E-01  0.51100000000E-03 0.  1.
</event>
<event>
 8    1  0.1129676E+005  0.1043930E+01  0.7957747E-01            NaN
         13   -1    0    0    0    0  0.00000000000E+00  0.00000000000E+00  0.74505805969E-08  0.10566000000E+00  0.10566000000E+00 0.  1.
     999900   -1    0    0    0    0 -0.00000000000E+00 -0.00000000000E+00 -0.74505805969E-08  0.93827000000E+00  0.93827000000E+00 0. -1.
     999902    2    1    2    0    0  0.24146552512E-02 -0.45396444882E-02  0.23206232740E-01  0.10201609409E+01  0.10198840018E+01 0.  0.
     999903    2    3    3    0    0  0.29736599694E-01 -0.12022243247E+00  0.41127441981E-01  0.13198856697E+00  0.19794360242E-01 0.  0.
         14    1    1    2    0    0 -0.24146552512E-02  0.45396444882E-02 -0.23206232740E-01  0.23769059091E-01  0.00000000000E+00 0. -1.
     999901    1    3    3    0    0 -0.27321944443E-01  0.11568278798E+00 -0.17921209241E-01  0.88817237394E+00  0.88000000000E+00 0. -1.
        -11    1    4    4    0    0  0.16857878437E-01 -0.56893132995E-01  0.97114890483E-02  0.60129782869E-01  0.51100000000E-03 0. -1.
         11    1    4    4    0    0  0.12878721257E-01 -0.63329299474E-01  0.31415952933E-01  0.71858784104E-01  0.51100000000E-03 0.  1.
</event>
<event>
 8    1  0.1129676E+005  0.1043930E+01  0.7957747E-01            NaN
         13   -1    0    0    0    0  0.00000000000E+00  0.00000000000E+00  0.74505805969E-08  0.10566000000E+00  0.10566000000E+00 0. -1.
     999900   -1    0    0    0    0 -0.00000000000E+00 -0.00000000000E+00 -0.74505805969E-08  0.93827000000E+00  0.93827000000E+00 0. -1.
     999902    2    1    2    0    0 -0.69895226379E-02 -0.20687434259E-01 -0.26834826192E-01  0.10093333057E+01  0.10087401998E+01 0.  0.
     999903    2    3    3    0    0 -0.79723559615E-01 -0.87249884123E-01  0.24691539685E-01  0.12232949154E+00  0.19658182316E-01 0.  0.
         14    1    1    2    0    0  0.69895226379E-02  0.20687434259E-01  0.26834826192E-01  0.34596694346E-01  0.00000000000E+00 0. -1.
     999901    1    3    3    0    0  0.72734036978E-01  0.66562449864E-01 -0.51526365877E-01  0.88700381411E+00  0.88000000000E+00 0. -1.
        -11    1    4    4    0    0 -0.74461755234E-01 -0.71991070711E-01  0.19733924248E-01  0.10543697711E+00  0.51100000000E-03 0. -1.
         11    1    4    4    0    0 -0.52618043811E-02 -0.15258813412E-01  0.49576154368E-02  0.16892514434E-01  0.51100000000E-03 0.  1.
</event>
<event>
 8    1  0.1129676E+005  0.1043930E+01  0.7957747E-01            NaN
         13   -1    0    0    0    0  0.00000000000E+00  0.00000000000E+00  0.74505805969E-08  0.10566000000E+00  0.10566000000E+00 0. -1.
     999900   -1    0    0    0    0 -0.00000000000E+00 -0.00000000000E+00 -0.74505805969E-08  0.93827000000E+00  0.93827000000E+00 0.  1.
     999902    2    1    2    0    0 -0.67059546361E-02 -0.12716921301E-01  0.17203520680E-01  0.10215101196E+01  0.10212640566E+01 0.  0.
     999903    2    3    3    0    0  0.27823105227E-01 -0.12448233380E+00 -0.29734071917E-01  0.13252929806E+00  0.20246560157E-01 0.  0.
         14    1    1    2    0    0  0.67059546361E-02  0.12716921301E-01 -0.17203520680E-01  0.22419880436E-01  0.00000000000E+00 0.  1.
     999901    1    3    3    0    0 -0.34529059863E-01  0.11176541250E+00  0.46937592597E-01  0.88898082151E+00  0.88000000000E+00 0. -1.
        -11    1    4    4    0    0  0.10905295091E-01 -0.25442997607E-01 -0.13313927976E-01  0.30721220474E-01  0.51100000000E-03 0. -1.
         11    1    4    4    0    0  0.16917810136E-01 -0.99039336193E-01 -0.16420143942E-01  0.10180807758E+00  0.51100000000E-03 0.  1.
</event>
<event>
 8    1  0.1129676E+005  0.1043930E+01  0.7957747E-01            NaN
         13   -1    0    0    0    0  0.00000000000E+00  0.00000000000E+00  0.74505805969E-08  0.10566000000E+00  0.10566000000E+00 0. -1.
     999900   -1    0    0    0    0 -0.00000000000E+00 -0.00000000000E+00 -0.74505805969E-08  0.93827000000E+00  0.93827000000E+00 0.  1.
     999902    2    1    2    0    0  0.15657469679E-01  0.69607488521E-02  0.16988821673E-01  0.10198005897E+01  0.10195150878E+01 0.  0.
     999903    2    3    3    0    0  0.36963793664E-01  0.27133318847E-01 -0.11858985518E+00  0.12893445514E+00  0.21400956477E-01 0.  0.
         14    1    1    2    0    0 -0.15657469679E-01 -0.69607488521E-02 -0.16988821673E-01  0.24129410336E-01  0.00000000000E+00 0.  1.
     999901    1    3    3    0    0 -0.21306323986E-01 -0.20172569995E-01  0.13557867685E+00  0.89086613452E+00  0.88000000000E+00 0. -1.
        -11    1    4    4    0    0  0.54102579866E-02 -0.35348837216E-02 -0.18328865689E-01  0.19441572284E-01  0.51100000000E-03 0.  1.
         11    1    4    4    0    0  0.31553535678E-01  0.30668202569E-01 -0.10026098949E+00  0.10949288286E+00  0.51100000000E-03 0. -1.
</event>
<event>
 8    1  0.1129676E+005  0.1043930E+01  0.7957747E-01            NaN
         13   -1    0    0    0    0  0.00000000000E+00  0.00000000000E+00  0.74505805969E-08  0.10566000000E+00  0.10566000000E+00 0. -1.
     999900   -1    0    0    0    0 -0.00000000000E+00 -0.00000000000E+00 -0.74505805969E-08  0.93827000000E+00  0.93827000000E+00 0. -1.
     999902    2    1    2    0    0  0.17293363125E-01 -0.15477037978E-01  0.19574573650E-02  0.10206398572E+01  0.10203740919E+01 0.  0.
     999903    2    3    3    0    0 -0.58739347102E-01  0.97870941093E-01 -0.55145609944E-01  0.12828931078E+00  0.19699668927E-01 0.  0.
         14    1    1    2    0    0 -0.17293363125E-01  0.15477037978E-01 -0.19574573650E-02  0.23290142809E-01  0.00000000000E+00 0. -1.
     999901    1    3    3    0    0  0.76032710226E-01 -0.11334797907E+00  0.57103067309E-01  0.89235054641E+00  0.88000000000E+00 0.  1.
        -11    1    4    4    0    0 -0.20998100669E-01  0.38966152509E-01 -0.11164514624E-01  0.45652916456E-01  0.51100000000E-03 0. -1.
         11    1    4    4    0    0 -0.37741246432E-01  0.58904788584E-01 -0.43981095320E-01  0.82636394324E-01  0.51100000000E-03 0.  1.
</event>
<event>
 8    1  0.1129676E+005  0.1043930E+01  0.7957747E-01            NaN
         13   -1    0    0    0    0  0.00000000000E+00  0.00000000000E+00  0.74505805969E-08  0.10566000000E+00  0.10566000000E+00 0.  1.
     999900   -1    0    0    0    0 -0.00000000000E+00 -0.00000000000E+00 -0.74505805969E-08  0.93827000000E+00  0.93827000000E+00 0.  1.
     999902    2    1    2    0    0 -0.95213937467E-02 -0.20615412766E-01  0.25439856532E-02  0.10210799662E+01  0.10208242617E+01 0.  0.
     999903    2    3    3    0    0 -0.91646754072E-02  0.24889621278E-01 -0.12624165916E+00  0.13054272514E+00  0.20024037003E-01 0.  0.
         14    1    1    2    0    0  0.95213937467E-02  0.20615412766E-01 -0.25439856532E-02  0.22850033816E-01  0.00000000000E+00 0. -1.
     999901    1    3    3    0    0 -0.35671833952E-03 -0.45505034044E-01  0.12878564481E+00  0.89053724104E+00  0.88000000000E+00 0. -1.
        -11    1    4    4    0    0  0.55198404028E-02  0.13582426014E-01 -0.58167452677E-01  0.59988870688E-01  0.51100000000E-03 0. -1.
         11    1    4    4    0    0 -0.14684515810E-01  0.11307195264E-01 -0.68074206481E-01  0.70553854455E-01  0.51100000000E-03 0.  1.
</event>
<event>
 8    1  0.1129676E+005  0.1043930E+01  0.7957747E-01            NaN
         13   -1    0    0    0    0  0.00000000000E+00  0.00000000000E+00  0.74505805969E-08  0.10566000000E+00  0.10566000000E+00 0. -1.
     999900   -1    0    0    0    0 -0.00000000000E+00 -0.00000000000E+00 -0.74505805969E-08  0.93827000000E+00  0.93827000000E+00 0. -1.
     999902    2    1    2    0    0 -0.15097274227E-01  0.16197769872E-01 -0.92297886591E-02  0.10199407433E+01  0.10196585877E+01 0.  0.
     999903    2    3    3    0    0  0.11464728244E+00  0.32732705979E-01  0.43587642652E-01  0.12870747690E+00  0.21220334774E-01 0.  0.
         14    1    1    2    0    0  0.15097274227E-01 -0.16197769872E-01  0.92297886591E-02  0.23989256691E-01  0.00000000000E+00 0. -1.
     999901    1    3    3    0    0 -0.12974455666E+00 -0.16534936107E-01 -0.52817431311E-01  0.89123326640E+00  0.88000000000E+00 0.  1.
        -11    1    4    4    0    0  0.96450415954E-01  0.32403470088E-01  0.30292424545E-01  0.10616289237E+00  0.51100000000E-03 0. -1.
         11    1    4    4    0    0  0.18196866484E-01  0.32923589076E-03  0.13295218107E-01  0.22544584530E-01  0.51100000000E-03 0.  1.
</event>
<event>
 8    1  0.1129676E+005  0.1043930E+01  0.7957747E-01            NaN
         13   -1    0    0    0    0  0.00000000000E+00  0.00000000000E+00  0.74505805969E-08  0.10566000000E+00  0.10566000000E+00 0.  1.
     999900   -1    0    0    0    0 -0.00000000000E+00 -0.00000000000E+00 -0.74505805969E-08  0.93827000000E+00  0.93827000000E+00 0. -1.
     999902    2    1    2    0    0 -0.94547807053E-03 -0.10178114888E-01  0.23286861535E-01  0.10184984080E+01  0.10181808490E+01 0.  0.
     999903    2    3    3    0    0  0.10550305388E+00  0.55495972737E-01  0.46168056552E-01  0.12935954099E+00  0.19791514112E-01 0.  0.
         14    1    1    2    0    0  0.94547807053E-03  0.10178114888E-01 -0.23286861535E-01  0.25431591999E-01  0.00000000000E+00 0. -1.
     999901    1    3    3    0    0 -0.10644853195E+00 -0.65674087625E-01 -0.22881195017E-01  0.88913886701E+00  0.88000000000E+00 0. -1.
        -11    1    4    4    0    0  0.88522949843E-01  0.49184575124E-01  0.46020512819E-01  0.11123661178E+00  0.51100000000E-03 0. -1.
         11    1    4    4    0    0  0.16980104041E-01  0.63113976135E-02  0.14754373316E-03  0.18122929213E-01  0.51100000000E-03 0.  1.
</event>
<event>
 8    1  0.1129676E+005  0.1043930E+01  0.7957747E-01            NaN
         13   -1    0    0    0    0  0.00000000000E+00  0.00000000000E+00  0.74505805969E-08  0.10566000000E+00  0.10566000000E+00 0.  1.
     999900   -1    0    0    0    0 -0.00000000000E+00 -0.00000000000E+00 -0.74505805969E-08  0.93827000000E+00  0.93827000000E+00 0. -1.
     999902    2    1    2    0    0 -0.11926052205E-01  0.10610345933E-01  0.16993563091E-01  0.10206149545E+01  0.10203486139E+01 0.  0.
     999903    2    3    3    0    0 -0.57337634691E-01 -0.69593135406E-01 -0.89146955711E-01  0.12945805471E+00  0.26103627499E-01 0.  0.
         14    1    1    2    0    0  0.11926052205E-01 -0.10610345933E-01 -0.16993563091E-01  0.23315045540E-01  0.00000000000E+00 0. -1.
     999901    1    3    3    0    0  0.45411582486E-01  0.80203481340E-01  0.10614051880E+00  0.89115689975E+00  0.88000000000E+00 0.  1.
        -11    1    4    4    0    0 -0.14729534447E-02 -0.34923872738E-02 -0.15038762834E-01  0.15517469810E-01  0.51100000000E-03 0. -1.
         11    1    4    4    0    0 -0.55864681246E-01 -0.66100748133E-01 -0.74108192877E-01  0.11394058490E+00  0.51100000000E-03 0.  1.
</event>
<event>
 8    1  0.1129676E+005  0.1043930E+01  0.7957747E-01            NaN
         13   -1    0    0    0    0  0.00000000000E+00  0.00000000000E+00  0.74505805969E-08  0.10566000000E+00  0.10566000000E+00 0. -1.
     999900   -1    0    0    0    0 -0.00000000000E+00 -0.00000000000E+00 -0.74505805969E-08  0.93827000000E+00  0.93827000000E+00 0. -1.
     999902    2    1    2    0    0 -0.20337181999E-01 -0.10503747376E-01  0.12171553951E-02  0.10210081513E+01  0.10207508187E+01 0.  0.
     999903    2    3    3    0    0 -0.42428618216E-01 -0.12139626671E+00 -0.28913548607E-01  0.13326210556E+00  0.19635535902E-01 0.  0.
         14    1    1    2    0    0  0.20337181999E-01  0.10503747376E-01 -0.12171553951E-02  0.22921848700E-01  0.00000000000E+00 0.  1.
     999901    1    3    3    0    0  0.22091436217E-01  0.11089251934E+00  0.30130704002E-01  0.88774604574E+00  0.88000000000E+00 0.  1.
        -11    1    4    4    0    0 -0.28155485436E-01 -0.87837133975E-01 -0.29318194695E-01  0.96787969945E-01  0.51100000000E-03 0. -1.
         11    1    4    4    0    0 -0.14273132780E-01 -0.33559132739E-01  0.40464608773E-03  0.36474135617E-01  0.51100000000E-03 0.  1.
</event>
<event>
 8    1  0.1129676E+005  0.1043930E+01  0.7957747E-01            NaN
         13   -1    0    0    0    0  0.00000000000E+00  0.00000000000E+00  0.74505805969E-08  0.10566000000E+00  0.10566000000E+00 0. -1.
     999900   -1    0    0    0    0 -0.00000000000E+00 -0.00000000000E+00 -0.74505805969E-08  0.93827000000E+00  0.93827000000E+00 0. -1.
     999902    2    1    2    0    0  0.10231582491E-01  0.89369405547E-02  0.19850140115E-01  0.10198762633E+01  0.10195925707E+01 0.  0.
     999903    2    3    3    0    0 -0.12446720037E+00  0.24587528550E-01 -0.10875087957E-01  0.12895946435E+00  0.20387382813E-01 0.  0.
         14    1    1    2    0    0 -0.10231582491E-01 -0.89369405547E-02 -0.19850140115E-01  0.24053736702E-01  0.00000000000E+00 0.  1.
     999901    1    3    3    0    0  0.13469878286E+00 -0.15650587995E-01  0.30725228072E-01  0.89091679895E+00  0.88000000000E+00 0.  1.
        -11    1    4    4    0    0 -0.54422825929E-01  0.82376594935E-02  0.50898663020E-02  0.55279931947E-01  0.51100000000E-03 0.  1.
         11    1    4    4    0    0 -0.70044374445E-01  0.16349869056E-01 -0.15964954259E-01  0.73679532402E-01  0.51100000000E-03 0. -1.
</event>
<event>
 8    1  0.1129676E+005  0.1043930E+01  0.7957747E-01            NaN
         13   -1    0    0    0    0  0.00000000000E+00  0.00000000000E+00  0.74505805969E-08  0.10566000000E+00  0.10566000000E+00 0.  1.
     999900   -1    0    0    0    0 -0.00000000000E+00 -0.00000000000E+00 -0.74505805969E-08  0.93827000000E+00  0.93827000000E+00 0. -1.
     999902    2    1    2    0    0 -0.30451801122E-02  0.23223403032E-01 -0.38771867985E-02  0.10201890618E+01  0.10199127853E+01 0.  0.
     999903    2    3    3    0    0  0.70810700103E-01 -0.94913572380E-01 -0.44789520889E-01  0.12828948498E+00  0.20720745752E-01 0.  0.
         14    1    1    2    0    0  0.30451801122E-02 -0.23223403032E-01  0.38771867985E-02  0.23740938225E-01  0.00000000000E+00 0.  1.
     999901    1    3    3    0    0 -0.73855880216E-01  0.11813697541E+00  0.40912334091E-01  0.89189957679E+00  0.88000000000E+00 0.  1.
        -11    1    4    4    0    0  0.19755559871E-01 -0.21634177889E-01 -0.20409731534E-01  0.35709075331E-01  0.51100000000E-03 0.  1.
         11    1    4    4    0    0  0.51055140232E-01 -0.73279394492E-01 -0.24379789356E-01  0.92580409651E-01  0.51100000000E-03 0. -1.
</event>
<event>
 8    1  0.1129676E+005  0.1043930E+01  0.7957747E-01            NaN
         13   -1    0    0    0    0  0.00000000000E+00  0.00000000000E+00  0.74505805969E-08  0.10566000000E+00  0.10566000000E+00 0. -1.
     999900   -1    0    0    0    0 -0.00000000000E+00 -0.00000000000E+00 -0.74505805969E-08  0.93827000000E+00  0.93827000000E+00 0. -1.
     999902    2    1    2    0    0 -0.87952965414E-02  0.19849610941E-01  0.10165000840E-01  0.10199572751E+01  0.10196755129E+01 0.  0.
     999903    2    3    3    0    0 -0.11275689101E+00  0.22410854897E-01  0.63316947336E-01  0.13224127183E+00  0.16197384565E-01 0.  0.
         14    1    1    2    0    0  0.87952965414E-02 -0.19849610941E-01 -0.10165000840E-01  0.23972724873E-01  0.00000000000E+00 0. -1.
     999901    1    3    3    0    0  0.10396159447E+00 -0.25612439560E-02 -0.53151946496E-01  0.88771600330E+00  0.88000000000E+00 0. -1.
        -11    1    4    4    0    0 -0.16686551651E-01  0.85002036190E-02  0.68996526316E-02  0.19963987452E-01  0.51100000000E-03 0.  1.
         11    1    4    4    0    0 -0.96070339362E-01  0.13910651278E-01  0.56417294704E-01  0.11227728438E+00  0.51100000000E-03 0. -1.
</event>
<event>
 8    1  0.1129676E+005  0.1043930E+01  0.7957747E-01            NaN
         13   -1    0    0    0    0  0.00000000000E+00  0.00000000000E+00  0.74505805969E-08  0.10566000000E+00  0.10566000000E+00 0. -1.
     999900   -1    0    0    0    0 -0.00000000000E+00 -0.00000000000E+00 -0.74505805969E-08  0.93827000000E+00  0.93827000000E+00 0. -1.
     999902    2    1    2    0    0 -0.15140103916E-01 -0.16142106614E-01 -0.71368973366E-02  0.10206764915E+01  0.10204115712E+01 0.  0.
     999903    2    3    3    0    0 -0.30969102912E-01  0.10884475628E+00  0.58826190697E-01  0.12925997716E+00  0.21008443079E-01 0.  0.
         14    1    1    2    0    0  0.15140103916E-01  0.16142106614E-01  0.71368973366E-02  0.23253508469E-01  0.00000000000E+00 0. -1.
     999901    1    3    3    0    0  0.15828998997E-01 -0.12498686289E+00 -0.65963088034E-01  0.89141651437E+00  0.88000000000E+00 0. -1.
        -11    1    4    4    0    0 -0.15559640072E-01  0.25286658867E-01  0.10417809029E-01  0.31469181460E-01  0.51100000000E-03 0.  1.
         11    1    4    4    0    0 -0.15409462840E-01  0.83558097408E-01  0.48408381669E-01  0.97790795703E-01  0.51100000000E-03 0. -1.
</event>
<event>
 8    1  0.1129676E+005  0.1043930E+01  0.7957747E-01            NaN
         13   -1    0    0    0    0  0.00000000000E+00  0.00000000000E+00  0.74505805969E-08  0.10566000000E+00  0.10566000000E+00 0.  1.
     999900   -1    0    0    0    0 -0.00000000000E+00 -0.00000000000E+00 -0.74505805969E-08  0.93827000000E+00  0.93827000000E+00 0. -1.
     999902    2    1    2    0    0 -0.98109387504E-04  0.23342981150E-01  0.10868356177E-02  0.10205615254E+01  0.10202939486E+01 0.  0.
     999903    2    3    3    0    0 -0.50323978648E-01  0.42894089123E-01 -0.11199189866E+00  0.13169050891E+00  0.20683303969E-01 0.  0.
         14    1    1    2    0    0  0.98109387504E-04 -0.23342981150E-01 -0.10868356177E-02  0.23368474620E-01  0.00000000000E+00 0. -1.
     999901    1    3    3    0    0  0.50225869261E-01 -0.19551107973E-01  0.11307873428E+00  0.88887101647E+00  0.88000000000E+00 0.  1.
        -11    1    4    4    0    0 -0.60853995825E-02  0.43659620831E-04 -0.20566577061E-01  0.21454118655E-01  0.51100000000E-03 0.  1.
         11    1    4    4    0    0 -0.44238579066E-01  0.42850429502E-01 -0.91425321603E-01  0.11023639026E+00  0.51100000000E-03 0. -1.
</event>
<event>
 8    1  0.1129676E+005  0.1043930E+01  0.7957747E-01            NaN
         13   -1    0    0    0    0  0.00000000000E+00  0.00000000000E+00  0.74505805969E-08  0.10566000000E+00  0.10566000000E+00 0.  1.
     999900   -1    0    0    0    0 -0.00000000000E+00 -0.00000000000E+00 -0.74505805969E-08  0.93827000000E+00  0.93827000000E+00 0. -1.
     999902    2    1    2    0    0 -0.77329197838E-02  0.18271244283E-01  0.13643485909E-01  0.10198513554E+01  0.10195670680E+01 0.  0.
     999903    2    3    3    0    0  0.29798563670E-01 -0.11067563844E+00 -0.51690736626E-01  0.12726832208E+00  0.19703862805E-01 0.  0.
         14    1    1    2    0    0  0.77329197838E-02 -0.18271244283E-01 -0.13643485909E-01  0.24078644558E-01  0.00000000000E+00 0. -1.
     999901    1    3    3    0    0 -0.37531483454E-01  0.12894688273E+00  0.65334222535E-01  0.89258303336E+00  0.88000000000E+00 0.  1.
        -11    1    4    4    0    0  0.82217416744E-02 -0.67399964242E-01 -0.28590252036E-01  0.73675069382E-01  0.51100000000E-03 0. -1.
         11    1    4    4    0    0  0.21576821996E-01 -0.43275674202E-01 -0.23100484591E-01  0.53593252695E-01  0.51100000000E-03 0.  1.
</event>
<event>
 8    1  0.1129676E+005  0.1043930E+01  0.7957747E-01            NaN
         13   -1    0    0    0    0  0.00000000000E+00  0.00000000000E+00  0.74505805969E-08  0.10566000000E+00  0.10566000000E+00 0.  1.
     999900   -1    0    0    0    0 -0.00000000000E+00 -0.00000000000E+00 -0.74505805969E-08  0.93827000000E+00  0.93827000000E+00 0.  1.
     999902    2    1    2    0    0 -0.70002371526E-02  0.19583188690E-01 -0.10415990911E-01  0.10206706478E+01  0.10204055928E+01 0.  0.
     999903    2    3    3    0    0  0.11435155948E+00 -0.10661247690E-01  0.56220592997E-01  0.12933377610E+00  0.19404360522E-01 0.  0.
         14    1    1    2    0    0  0.70002371526E-02 -0.19583188690E-01  0.10415990911E-01  0.23259352229E-01  0.00000000000E+00 0. -1.
     999901    1    3    3    0    0 -0.12135179663E+00  0.30244436380E-01 -0.66636583907E-01  0.89133687167E+00  0.88000000000E+00 0.  1.
        -11    1    4    4    0    0  0.70105367917E-01 -0.15953360018E-01  0.35580139677E-01  0.80221442066E-01  0.51100000000E-03 0.  1.
         11    1    4    4    0    0  0.44246191561E-01  0.52921123280E-02  0.20640453320E-01  0.49112334039E-01  0.51100000000E-03 0. -1.
</event>
<event>
 8    1  0.1129676E+005  0.1043930E+01  0.7957747E-01            NaN
         13   -1    0    0    0    0  0.00000000000E+00  0.00000000000E+00  0.74505805969E-08  0.10566000000E+00  0.10566000000E+00 0. -1.
     999900   -1    0    0    0    0 -0.00000000000E+00 -0.00000000000E+00 -0.74505805969E-08  0.93827000000E+00  0.93827000000E+00 0.  1.
     999902    2    1    2    0    0 -0.57090635272E-03 -0.21418932041E-01  0.10579193154E-01  0.10200340608E+01  0.10197541219E+01 0.  0.
     999903    2    3    3    0    0  0.49613131872E-01 -0.17122458920E-02  0.12032803400E+00  0.13157944784E+00  0.19233322307E-01 0.  0.
         14    1    1    2    0    0  0.57090635272E-03  0.21418932041E-01 -0.10579193154E-01  0.23895939229E-01  0.00000000000E+00 0.  1.
     999901    1    3    3    0    0 -0.50184038225E-01 -0.19706686149E-01 -0.10974884085E+00  0.88845461293E+00  0.88000000000E+00 0.  1.
        -11    1    4    4    0    0  0.47392611294E-01 -0.48630052110E-02  0.98617042385E-01  0.10952301400E+00  0.51100000000E-03 0.  1.
         11    1    4    4    0    0  0.22205205773E-02  0.31507593190E-02  0.21710991617E-01  0.22056433844E-01  0.51100000000E-03 0. -1.
</event>
<event>
 8    1  0.1129676E+005  0.1043930E+01  0.7957747E-01            NaN
         13   -1    0    0    0    0  0.00000000000E+00  0.00000000000E+00  0.74505805969E-08  0.10566000000E+00  0.10566000000E+00 0. -1.
     999900   -1    0    0    0    0 -0.00000000000E+00 -0.00000000000E+00 -0.74505805969E-08  0.93827000000E+00  0.93827000000E+00 0.  1.
     999902    2    1    2    0    0 -0.22707956982E-01 -0.42791660837E-02 -0.58299177831E-02  0.10200982876E+01  0.10198198694E+01 0.  0.
     999903    2    3    3    0    0 -0.28823018590E-01 -0.11123640750E+00 -0.62450335311E-01  0.13179478255E+00  0.16294648573E-01 0.  0.
         14    1    1    2    0    0  0.22707956982E-01  0.42791660837E-02  0.58299177831E-02  0.23831712360E-01  0.00000000000E+00 0.  1.
     999901    1    3    3    0    0  0.61150616079E-02  0.10695724142E+00  0.56620417528E-01  0.88830350509E+00  0.88000000000E+00 0. -1.
        -11    1    4    4    0    0 -0.15827801692E-01 -0.87661457289E-01 -0.49652175173E-01  0.10198357721E+00  0.51100000000E-03 0. -1.
         11    1    4    4    0    0 -0.12995216898E-01 -0.23574950215E-01 -0.12798160138E-01  0.29811205340E-01  0.51100000000E-03 0.  1.
</event>
<event>
 8    1  0.1129676E+005  0.1043930E+01  0.7957747E-01            NaN
         13   -1    0    0    0    0  0.00000000000E+00  0.00000000000E+00  0.74505805969E-08  0.10566000000E+00  0.10566000000E+00 0.  1.
     999900   -1    0    0    0    0 -0.00000000000E+00 -0.00000000000E+00 -0.74505805969E-08  0.93827000000E+00  0.93827000000E+00 0. -1.
     999902    2    1    2    0    0 -0.14318797500E-01  0.11486843866E-01 -0.13089774082E-01  0.10213840973E+01  0.10211352293E+01 0.  0.
     999903    2    3    3    0    0 -0.27816390309E-01 -0.12368323053E+00  0.24054184391E-01  0.13018669621E+00  0.17282331991E-01 0.  0.
         14    1    1    2    0    0  0.14318797500E-01 -0.11486843866E-01  0.13089774082E-01  0.22545902718E-01  0.00000000000E+00 0.  1.
     999901    1    3    3    0    0  0.13497592809E-01  0.13517007440E+00 -0.37143958473E-01  0.89119740107E+00  0.88000000000E+00 0.  1.
        -11    1    4    4    0    0 -0.79589099293E-02 -0.20978948162E-01  0.10245302453E-01  0.24671600203E-01  0.51100000000E-03 0.  1.
         11    1    4    4    0    0 -0.19857480379E-01 -0.10270428237E+00  0.13808881938E-01  0.10551509601E+00  0.51100000000E-03 0. -1.
</event>
<event>
 8    1  0.1129676E+005  0.1043930E+01  0.7957747E-01            NaN
         13   -1    0    0    0    0  0.00000000000E+00  0.00000000000E+00  0.74505805969E-08  0.10566000000E+00  0.10566000000E+00 0. -1.
     999900   -1    0    0    0    0 -0.00000000000E+00 -0.00000000000E+00 -0.74505805969E-08  0.93827000000E+00  0.93827000000E+00 0. -1.
     999902    2    1    2    0    0  0.39130981929E-02 -0.19084805541E-01  0.12920009237E-01  0.10205533283E+01  0.10202855616E+01 0.  0.
     999903    2    3    3    0    0  0.12725694481E-02  0.34544000333E-01  0.12558521118E+00  0.13174712395E+00  0.19767448208E-01 0.  0.
         14    1    1    2    0    0 -0.39130981929E-02  0.19084805541E-01 -0.12920009237E-01  0.23376671677E-01  0.00000000000E+00 0. -1.
     999901    1    3    3    0    0  0.26405287448E-02 -0.53628805874E-01 -0.11266520194E+00  0.88880620438E+00  0.88000000000E+00 0. -1.
        -11    1    4    4    0    0  0.82135779893E-02  0.29428181474E-01  0.87105733535E-01  0.92310078886E-01  0.51100000000E-03 0. -1.
         11    1    4    4    0    0 -0.69410085412E-02  0.51158188591E-02  0.38479477645E-01  0.39437045059E-01  0.51100000000E-03 0.  1.
</event>
<event>
 8    1  0.1129676E+005  0.1043930E+01  0.7957747E-01            NaN
         13   -1    0    0    0    0  0.00000000000E+00  0.00000000000E+00  0.74505805969E-08  0.10566000000E+00  0.10566000000E+00 0. -1.
     999900   -1    0    0    0    0 -0.00000000000E+00 -0.00000000000E+00 -0.74505805969E-08  0.93827000000E+00  0.93827000000E+00 0.  1.
     999902    2    1    2    0    0  0.15621846001E-01 -0.18003874034E-01 -0.13915205995E-02  0.10200528586E+01  0.10197733652E+01 0.  0.
     999903    2    3    3    0    0 -0.59279593021E-01  0.21486794938E-01 -0.11163559923E+00  0.12914124940E+00  0.15466181709E-01 0.  0.
         14    1    1    2    0    0 -0.15621846001E-01  0.18003874034E-01  0.13915205995E-02  0.23877141418E-01  0.00000000000E+00 0. -1.
     999901    1    3    3    0    0  0.74901439022E-01 -0.39490668972E-01  0.11024407863E+00  0.89091160918E+00  0.88000000000E+00 0. -1.
        -11    1    4    4    0    0 -0.23262048690E-02  0.38231406572E-02 -0.14288545018E-01  0.14981697944E-01  0.51100000000E-03 0.  1.
         11    1    4    4    0    0 -0.56953388152E-01  0.17663654281E-01 -0.97347054208E-01  0.11415955146E+00  0.51100000000E-03 0. -1.
</event>
<event>
 8    1  0.1129676E+005  0.1043930E+01  0.7957747E-01            NaN
         13   -1    0    0    0    0  0.00000000000E+00  0.00000000000E+00  0.74505805969E-08  0.10566000000E+00  0.10566000000E+00 0. -1.
     999900   -1    0    0    0    0 -0.00000000000E+00 -0.00000000000E+00 -0.74505805969E-08  0.93827000000E+00  0.93827000000E+00 0. -1.
     999902    2    1    2    0    0  0.24116702221E-01 -0.70959990648E-02 -0.46131707590E-02  0.10183712466E+01  0.10180504634E+01 0.  0.
     999903    2    3    3    0    0 -0.10115837505E+00 -0.71167415428E-02 -0.73443113604E-01  0.12683806922E+00  0.20256851030E-01 0.  0.
         14    1    1    2    0    0 -0.24116702221E-01  0.70959990648E-02  0.46131707590E-02  0.25558753358E-01  0.00000000000E+00 0. -1.
     999901    1    3    3    0    0  0.12527507727E+00  0.20742477950E-04  0.68829942845E-01  0.89153317742E+00  0.88000000000E+00 0.  1.
        -11    1    4    4    0    0 -0.79008205909E-01 -0.11039316552E-01 -0.64635365113E-01  0.10267499528E+00  0.51100000000E-03 0.  1.
         11    1    4    4    0    0 -0.22150169144E-01  0.39225750092E-02 -0.88077484916E-02  0.24163073941E-01  0.51100000000E-03 0. -1.
</event>
<event>
 8    1  0.1129676E+005  0.1043930E+01  0.7957747E-01            NaN
         13   -1    0    0    0    0  0.00000000000E+00  0.00000000000E+00  0.74505805969E-08  0.10566000000E+00  0.10566000000E+00 0. -1.
     999900   -1    0    0    0    0 -0.00000000000E+00 -0.00000000000E+00 -0.74505805969E-08  0.93827000000E+00  0.93827000000E+00 0. -1.
     999902    2    1    2    0    0  0.10636367961E-01  0.21157698529E-01  0.10015849082E-02  0.10202280232E+01  0.10199526635E+01 0.  0.
     999903    2    3    3    0    0  0.31207308391E-01  0.10074075635E+00 -0.80158016953E-01  0.13267886535E+00  0.74684363854E-02 0.  0.
         14    1    1    2    0    0 -0.10636367961E-01 -0.21157698529E-01 -0.10015849082E-02  0.23701976769E-01  0.00000000000E+00 0.  1.
     999901    1    3    3    0    0 -0.20570940430E-01 -0.79583057819E-01  0.81159601861E-01  0.88754915788E+00  0.88000000000E+00 0.  1.
        -11    1    4    4    0    0  0.19347878791E-01  0.56193345144E-01 -0.49096858364E-01  0.77089526360E-01  0.51100000000E-03 0.  1.
         11    1    4    4    0    0  0.11859429600E-01  0.44547411204E-01 -0.31061158589E-01  0.55589338990E-01  0.51100000000E-03 0. -1.
</event>
<event>
 8    1  0.1129676E+005  0.1043930E+01  0.7957747E-01            NaN
         13   -1    0    0    0    0  0.00000000000E+00  0.00000000000E+00  0.74505805969E-08  0.10566000000E+00  0.10566000000E+00 0. -1.
     999900   -1    0    0    0    0 -0.00000000000E+00 -0.00000000000E+00 -0.74505805969E-08  0.93827000000E+00  0.93827000000E+00 0.  1.
     999902    2    1    2    0    0  0.17883242640E-01 -0.70156822283E-02 -0.13229965158E-01  0.10206048603E+01  0.10203382864E+01 0.  0.
     999903    2    3    3    0    0  0.10547095049E+00  0.69689454859E-01 -0.34626732421E-01  0.13267856477E+00  0.20587603962E-01 0.  0.
         14    1    1    2    0    0 -0.17883242640E-01  0.70156822283E-02  0.13229965158E-01  0.23325139710E-01  0.00000000000E+00 0.  1.
     999901    1    3    3    0    0 -0.87587707846E-01 -0.76705137088E-01  0.21396767263E-01  0.88792629552E+00  0.88000000000E+00 0.  1.
        -11    1    4    4    0    0  0.12149942637E-01  0.80429482192E-02  0.25813637096E-02  0.14806575625E-01  0.51100000000E-03 0.  1.
         11    1    4    4    0    0  0.93321007849E-01  0.61646506640E-01 -0.37208096130E-01  0.11787198915E+00  0.51100000000E-03 0. -1.
</event>
<event>
 8    1  0.1129676E+005  0.1043930E+01  0.7957747E-01            NaN
         13   -1    0    0    0    0  0.00000000000E+00  0.00000000000E+00  0.74505805969E-08  0.10566000000E+00  0.10566000000E+00 0.  1.
     999900   -1    0    0    0    0 -0.00000000000E+00 -0.00000000000E+00 -0.74505805969E-08  0.93827000000E+00  0.93827000000E+00 0. -1.
     999902    2    1    2    0    0 -0.89010794886E-02 -0.12716854416E-02 -0.23035787425E-01  0.10192015973E+01  0.10189015664E+01 0.  0.
     999903    2    3    3    0    0 -0.21210690407E-01  0.90607675233E-01  0.85278980496E-01  0.12772785542E+00  0.19551376849E-01 0.  0.
         14    1    1    2    0    0  0.89010794886E-02  0.12716854416E-02  0.23035787425E-01  0.24728402743E-01  0.00000000000E+00 0.  1.
     999901    1    3    3    0    0  0.12309610918E-01 -0.91879360674E-01 -0.10831476792E+00  0.89147374184E+00  0.88000000000E+00 0. -1.
        -11    1    4    4    0    0 -0.18576084278E-01  0.71122903585E-01  0.76794838471E-01  0.10630732175E+00  0.51100000000E-03 0.  1.
         11    1    4    4    0    0 -0.26346061282E-02  0.19484771647E-01  0.84841420255E-02  0.21420533665E-01  0.51100000000E-03 0. -1.
</event>
<event>
 8    1  0.1129676E+005  0.1043930E+01  0.7957747E-01            NaN
         13   -1    0    0    0    0  0.00000000000E+00  0.00000000000E+00  0.74505805969E-08  0.10566000000E+00  0.10566000000E+00 0.  1.
     999900   -1    0    0    0    0 -0.00000000000E+00 -0.00000000000E+00 -0.74505805969E-08  0.93827000000E+00  0.93827000000E+00 0.  1.
     999902    2    1    2    0    0 -0.73771635008E-02  0.13082770262E-01 -0.17583846691E-01  0.10208048387E+01  0.10205428681E+01 0.  0.
     999903    2    3    3    0    0  0.35284670700E-01 -0.49223795836E-01 -0.11591641177E+00  0.13211398493E+00  0.18694930718E-01 0.  0.
         14    1    1    2    0    0  0.73771635008E-02 -0.13082770262E-01  0.17583846691E-01  0.23125161264E-01  0.00000000000E+00 0.  1.
     999901    1    3    3    0    0 -0.42661834201E-01  0.62306566098E-01  0.98332565079E-01  0.88869085380E+00  0.88000000000E+00 0. -1.
        -11    1    4    4    0    0  0.23604481583E-01 -0.32657097259E-01 -0.57002404587E-01  0.69808257405E-01  0.51100000000E-03 0. -1.
         11    1    4    4    0    0  0.11680189117E-01 -0.16566698576E-01 -0.58914007183E-01  0.62305727529E-01  0.51100000000E-03 0.  1.
</event>
<event>
 8    1  0.1129676E+005  0.1043930E+01  0.7957747E-01            NaN
         13   -1    0    0    0    0  0.00000000000E+00  0.00000000000E+00  0.74505805969E-08  0.10566000000E+00  0.10566000000E+00 0. -1.
     999900   -1    0    0    0    0 -0.00000000000E+00 -0.00000000000E+00 -0.74505805969E-08  0.93827000000E+00  0.93827000000E+00 0.  1.
     999902    2    1    2    0    0  0.10617200974E-01 -0.20592353041E-01 -0.40499176387E-02  0.10204103956E+01  0.10201393060E+01 0.  0.
     999903    2    3    3    0    0 -0.25306278290E-01  0.98656309969E-01  0.75290213992E-01  0.12810686173E+00  0.19216567894E-01 0.  0.
         14    1    1    2    0    0 -0.10617200974E-01  0.20592353041E-01  0.40499176387E-02  0.23519604443E-01  0.00000000000E+00 0. -1.
     999901    1    3    3    0    0  0.35923479264E-01 -0.11924866301E+00 -0.79340131631E-01  0.89230353383E+00  0.88000000000E+00 0.  1.
        -11    1    4    4    0    0 -0.19227054239E-02  0.43887749800E-01  0.35504962896E-01  0.56486236287E-01  0.51100000000E-03 0. -1.
         11    1    4    4    0    0 -0.23383572866E-01  0.54768560170E-01  0.39785251097E-01  0.71620625443E-01  0.51100000000E-03 0.  1.
</event>
<event>
 8    1  0.1129676E+005  0.1043930E+01  0.7957747E-01            NaN
         13   -1    0    0    0    0  0.00000000000E+00  0.00000000000E+00  0.74505805969E-08  0.10566000000E+00  0.10566000000E+00 0.  1.
     999900   -1    0    0    0    0 -0.00000000000E+00 -0.00000000000E+00 -0.74505805969E-08  0.93827000000E+00  0.93827000000E+00 0. -1.
     999902    2    1    2    0    0 -0.16204204651E-02  0.23526957005E-01  0.33716781661E-02  0.10201074963E+01  0.10198292957E+01 0.  0.
     999903    2    3    3    0    0 -0.49540193257E-01  0.94788123725E-01  0.76284156342E-01  0.13292618002E+00  0.20275050625E-01 0.  0.
         14    1    1    2    0    0  0.16204204651E-02 -0.23526957005E-01 -0.33716781661E-02  0.23822503690E-01  0.00000000000E+00 0. -1.
     999901    1    3    3    0    0  0.47919772792E-01 -0.71261166720E-01 -0.72912478176E-01  0.88718131629E+00  0.88000000000E+00 0. -1.
        -11    1    4    4    0    0 -0.12326843572E-01  0.40023576704E-01  0.37330551292E-01  0.56104090273E-01  0.51100000000E-03 0.  1.
         11    1    4    4    0    0 -0.37213349685E-01  0.54764547021E-01  0.38953605050E-01  0.76822089744E-01  0.51100000000E-03 0. -1.
</event>
<event>
 8    1  0.1129676E+005  0.1043930E+01  0.7957747E-01            NaN
         13   -1    0    0    0    0  0.00000000000E+00  0.00000000000E+00  0.74505805969E-08  0.10566000000E+00  0.10566000000E+00 0.  1.
     999900   -1    0    0    0    0 -0.00000000000E+00 -0.00000000000E+00 -0.74505805969E-08  0.93827000000E+00  0.93827000000E+00 0. -1.
     999902    2    1    2    0    0 -0.26526857029E-02 -0.19526396392E-01  0.13176755760E-01  0.10202246464E+01  0.10199492072E+01 0.  0.
     999903    2    3    3    0    0  0.48660652709E-01 -0.58653730611E-02 -0.11762004711E+00  0.12897412835E+00  0.19939623369E-01 0.  0.
         14    1    1    2    0    0  0.26526857029E-02  0.19526396392E-01 -0.13176755760E-01  0.23705353612E-01  0.00000000000E+00 0. -1.
     999901    1    3    3    0    0 -0.51313338412E-01 -0.13661023331E-01  0.13079680287E+00  0.89125051803E+00  0.88000000000E+00 0.  1.
        -11    1    4    4    0    0  0.98587491099E-02 -0.14332210920E-02 -0.49108558372E-01  0.50111482547E-01  0.51100000000E-03 0.  1.
         11    1    4    4    0    0  0.38801903599E-01 -0.44321519691E-02 -0.68511488734E-01  0.78862645806E-01  0.51100000000E-03 0. -1.
</event>
<event>
 8    1  0.1129676E+005  0.1043930E+01  0.7957747E-01            NaN
         13   -1    0    0    0    0  0.00000000000E+00  0.00000000000E+00  0.74505805969E-08  0.10566000000E+00  0.10566000000E+00 0. -1.
     999900   -1    0    0    0    0 -0.00000000000E+00 -0.00000000000E+00 -0.74505805969E-08  0.93827000000E+00  0.93827000000E+00 0. -1.
     999902    2    1    2    0    0 -0.12706398582E-01 -0.19132872675E-01  0.81258352610E-04  0.10209620662E+01  0.10207036860E+01 0.  0.
     999903    2    3    3    0    0 -0.11276290303E+00 -0.17186178387E-01  0.65474587419E-01  0.13287908514E+00  0.18949739915E-01 0.  0.
         14    1    1    2    0    0  0.12706398582E-01  0.19132872675E-01 -0.81258352610E-04  0.22967933835E-01  0.00000000000E+00 0.  1.
     999901    1    3    3    0    0  0.10005650445E+00 -0.19466942871E-02 -0.65393329067E-01  0.88808298103E+00  0.88000000000E+00 0. -1.
        -11    1    4    4    0    0 -0.69079726788E-01 -0.17591418969E-01  0.47359961989E-01  0.85584424956E-01  0.51100000000E-03 0. -1.
         11    1    4    4    0    0 -0.43683176241E-01  0.40524058176E-03  0.18114625430E-01  0.47294660184E-01  0.51100000000E-03 0.  1.
</event>
<event>
 8    1  0.1129676E+005  0.1043930E+01  0.7957747E-01            NaN
         13   -1    0    0    0    0  0.00000000000E+00  0.00000000000E+00  0.74505805969E-08  0.10566000000E+00  0.10566000000E+00 0.  1.
     999900   -1    0    0    0    0 -0.00000000000E+00 -0.00000000000E+00 -0.74505805969E-08  0.93827000000E+00  0.93827000000E+00 0.  1.
     999902    2    1    2    0    0  0.67215236145E-02  0.11011583119E-01  0.20612595694E-01  0.10196130729E+01  0.10193230624E+01 0.  0.
     999903    2    3    3    0    0  0.70026154690E-01 -0.56425546516E-01 -0.89140757328E-01  0.12798476398E+00  0.18615062527E-01 0.  0.
         14    1    1    2    0    0 -0.67215236145E-02 -0.11011583119E-01 -0.20612595694E-01  0.24316927103E-01  0.00000000000E+00 0. -1.
     999901    1    3    3    0    0 -0.63304631075E-01  0.67437129635E-01  0.10975335302E+00  0.89162830892E+00  0.88000000000E+00 0. -1.
        -11    1    4    4    0    0  0.44900085142E-01 -0.29755175135E-01 -0.42170726086E-01  0.68410666951E-01  0.51100000000E-03 0.  1.
         11    1    4    4    0    0  0.25126069547E-01 -0.26670371381E-01 -0.46970031242E-01  0.59574097026E-01  0.51100000000E-03 0. -1.
</event>
<event>
 8    1  0.1129676E+005  0.1043930E+01  0.7957747E-01            NaN
         13   -1    0    0    0    0  0.00000000000E+00  0.00000000000E+00  0.74505805969E-08  0.10566000000E+00  0.10566000000E+00 0.  1.
     999900   -1    0    0    0    0 -0.00000000000E+00 -0.00000000000E+00 -0.74505805969E-08  0.93827000000E+00  0.93827000000E+00 0. -1.
     999902    2    1    2    0    0  0.22426241714E-01 -0.31380789887E-02  0.83717239127E-02  0.10197873071E+01  0.10195014871E+01 0.  0.
     999903    2    3    3    0    0  0.23310283349E-01 -0.51427762133E-01  0.11792636820E+00  0.13167982766E+00  0.15644956653E-01 0.  0.
         14    1    1    2    0    0 -0.22426241714E-01  0.31380789887E-02 -0.83717239127E-02  0.24142692857E-01  0.00000000000E+00 0.  1.
     999901    1    3    3    0    0 -0.88404163584E-03  0.48289683145E-01 -0.10955464428E+00  0.88810747948E+00  0.88000000000E+00 0.  1.
        -11    1    4    4    0    0  0.43831818432E-02 -0.27203516598E-01  0.62263675731E-01  0.68090161073E-01  0.51100000000E-03 0.  1.
         11    1    4    4    0    0  0.18927101506E-01 -0.24224245535E-01  0.55662692466E-01  0.63589666588E-01  0.51100000000E-03 0. -1.
</event>
<event>
 8    1  0.1129676E+005  0.1043930E+01  0.7957747E-01            NaN
         13   -1    0    0    0    0  0.00000000000E+00  0.00000000000E+00  0.74505805969E-08  0.10566000000E+00  0.10566000000E+00 0.  1.
     999900   -1    0    0    0    0 -0.00000000000E+00 -0.00000000000E+00 -0.74505805969E-08  0.93827000000E+00  0.93827000000E+00 0. -1.
     999902    2    1    2    0    0 -0.22302228546E-01 -0.13874990244E-02  0.95150008811E-02  0.10196431765E+01  0.10193538923E+01 0.  0.
     999903    2    3    3    0    0 -0.10707439221E+00 -0.19314567120E-01 -0.71338620868E-01  0.13169891723E+00  0.20431054840E-01 0.  0.
         14    1    1    2    0    0  0.22302228546E-01  0.13874990244E-02 -0.95150008811E-02  0.24286823453E-01  0.00000000000E+00 0. -1.
     999901    1    3    3    0    0  0.84772163665E-01  0.17927068095E-01  0.80853621749E-01  0.88794425932E+00  0.88000000000E+00 0.  1.
        -11    1    4    4    0    0 -0.35036983684E-01 -0.51180191971E-02 -0.34938244026E-01  0.49746621622E-01  0.51100000000E-03 0.  1.
         11    1    4    4    0    0 -0.72037408527E-01 -0.14196547922E-01 -0.36400376841E-01  0.81952295608E-01  0.51100000000E-03 0. -1.
</event>
<event>
 8    1  0.1129676E+005  0.1043930E+01  0.7957747E-01            NaN
         13   -1    0    0    0    0  0.00000000000E+00  0.00000000000E+00  0.74505805969E-08  0.10566000000E+00  0.10566000000E+00 0.  1.
     999900   -1    0    0    0    0 -0.00000000000E+00 -0.00000000000E+00 -0.74505805969E-08  0.93827000000E+00  0.93827000000E+00 0. -1.
     999902    2    1    2    0    0  0.69378947816E-02 -0.19996382856E-01 -0.11341815731E-01  0.10199169516E+01  0.10196342293E+01 0.  0.
     999903    2    3    3    0    0 -0.10739725882E+00  0.34111202895E-01 -0.60530872641E-01  0.12951270544E+00  0.20293076723E-01 0.  0.
         14    1    1    2    0    0 -0.69378947816E-02  0.19996382856E-01  0.11341815731E-01  0.24013048440E-01  0.00000000000E+00 0.  1.
     999901    1    3    3    0    0  0.11433515360E+00 -0.54107585750E-01  0.49189056910E-01  0.89040424612E+00  0.88000000000E+00 0.  1.
        -11    1    4    4    0    0 -0.42977038180E-01  0.19600963053E-01 -0.34658145226E-01  0.58589006775E-01  0.51100000000E-03 0.  1.
         11    1    4    4    0    0 -0.64420220641E-01  0.14510239841E-01 -0.25872727415E-01  0.70923698667E-01  0.51100000000E-03 0. -1.
</event>
<event>
 8    1  0.1129676E+005  0.1043930E+01  0.7957747E-01            NaN
         13   -1    0    0    0    0  0.00000000000E+00  0.00000000000E+00  0.74505805969E-08  0.10566000000E+00  0.10566000000E+00 0.  1.
     999900   -1    0    0    0    0 -0.00000000000E+00 -0.00000000000E+00 -0.74505805969E-08  0.93827000000E+00  0.93827000000E+00 0. -1.
     999902    2    1    2    0    0  0.91025851749E-02  0.78887133349E-02 -0.20711605017E-01  0.10199704625E+01  0.10196890138E+01 0.  0.
     999903    2    3    3    0    0 -0.44499609779E-01 -0.59828344031E-01 -0.10662185958E+00  0.13157901330E+00  0.19625742841E-01 0.  0.
         14    1    1    2    0    0 -0.91025851749E-02 -0.78887133349E-02  0.20711605017E-01  0.23959537502E-01  0.00000000000E+00 0.  1.
     999901    1    3    3    0    0  0.53602194953E-01  0.67717057366E-01  0.85910254561E-01  0.88839144919E+00  0.88000000000E+00 0.  1.
        -11    1    4    4    0    0 -0.14248501604E-01 -0.18389540154E-01 -0.50113661370E-01  0.55252467474E-01  0.51100000000E-03 0.  1.
         11    1    4    4    0    0 -0.30251108175E-01 -0.41438803877E-01 -0.56508198209E-01  0.76326545830E-01  0.51100000000E-03 0. -1.
</event>
<event>
 8    1  0.1129676E+005  0.1043930E+01  0.7957747E-01            NaN
         13   -1    0    0    0    0  0.00000000000E+00  0.00000000000E+00  0.74505805969E-08  0.10566000000E+00  0.10566000000E+00 0. -1.
     999900   -1    0    0    0    0 -0.00000000000E+00 -0.00000000000E+00 -0.74505805969E-08  0.93827000000E+00  0.93827000000E+00 0.  1.
     999902    2    1    2    0    0 -0.38423705367E-03  0.69954132613E-02 -0.21772172215E-01  0.10210583816E+01  0.10208021883E+01 0.  0.
     999903    2    3    3    0    0 -0.11631852674E+00  0.39907777468E-01 -0.44592762853E-01  0.13255134022E+00  0.21417584575E-01 0.  0.
         14    1    1    2    0    0  0.38423705367E-03 -0.69954132613E-02  0.21772172215E-01  0.22871618390E-01  0.00000000000E+00 0. -1.
     999901    1    3    3    0    0  0.11593428969E+00 -0.32912364206E-01  0.22820590638E-01  0.88850704139E+00  0.88000000000E+00 0.  1.
        -11    1    4    4    0    0 -0.97884120224E-01  0.40918218610E-01 -0.34855774329E-01  0.11167268122E+00  0.51100000000E-03 0.  1.
         11    1    4    4    0    0 -0.18434406519E-01 -0.10104411423E-02 -0.97369885242E-02  0.20878658997E-01  0.51100000000E-03 0. -1.
</event>
<event>
 8    1  0.1129676E+005  0.1043930E+01  0.7957747E-01            NaN
         13   -1    0    0    0    0  0.00000000000E+00  0.00000000000E+00  0.74505805969E-08  0.10566000000E+00  0.10566000000E+00 0. -1.
     999900   -1    0    0    0    0 -0.00000000000E+00 -0.00000000000E+00 -0.74505805969E-08  0.93827000000E+00  0.93827000000E+00 0.  1.
     999902    2    1    2    0    0  0.10021408677E-01  0.18079537253E-01 -0.11996273104E-01  0.10200300237E+01  0.10197499891E+01 0.  0.
     999903    2    3    3    0    0  0.49890837482E-01  0.11338996679E+00 -0.44952766343E-01  0.13337350633E+00  0.20527073701E-01 0.  0.
         14    1    1    2    0    0 -0.10021408677E-01 -0.18079537253E-01  0.11996273104E-01  0.23899976309E-01  0.00000000000E+00 0.  1.
     999901    1    3    3    0    0 -0.39869428805E-01 -0.95310429541E-01  0.32956493239E-01  0.88665651736E+00  0.88000000000E+00 0.  1.
        -11    1    4    4    0    0  0.14321503374E-01  0.52247619070E-01 -0.26268788608E-01  0.60209879034E-01  0.51100000000E-03 0. -1.
         11    1    4    4    0    0  0.35569334109E-01  0.61142347724E-01 -0.18683977735E-01  0.73163627296E-01  0.51100000000E-03 0.  1.
</event>
<event>
 8    1  0.1129676E+005  0.1043930E+01  0.7957747E-01            NaN
         13   -1    0    0    0    0  0.00000000000E+00  0.00000000000E+00  0.74505805969E-08  0.10566000000E+00  0.10566000000E+00 0. -1.
     999900   -1    0    0    0    0 -0.00000000000E+00 -0.00000000000E+00 -0.74505805969E-08  0.93827000000E+00  0.93827000000E+00 0. -1.
     999902    2    1    2    0    0 -0.19572122969E-01  0.12799148111E-01  0.18589428656E-02  0.10204706339E+01  0.10202009472E+01 0.  0.
     999903    2    3    3    0    0  0.92476134966E-01 -0.41096461071E-01 -0.76261071892E-01  0.12830344916E+00  0.20131302230E-01 0.  0.
         14    1    1    2    0    0  0.19572122969E-01 -0.12799148111E-01 -0.18589428656E-02  0.23459366114E-01  0.00000000000E+00 0. -1.
     999901    1    3    3    0    0 -0.11204825794E+00  0.53895609182E-01  0.78120014758E-01  0.89216718473E+00  0.88000000000E+00 0.  1.
        -11    1    4    4    0    0  0.92857528146E-01 -0.41509074591E-01 -0.73636434930E-01  0.12557113314E+00  0.51100000000E-03 0. -1.
         11    1    4    4    0    0 -0.38139317949E-03  0.41261352068E-03 -0.26246369626E-02  0.27323160249E-02  0.51100000000E-03 0.  1.
</event>
<event>
 8    1  0.1129676E+005  0.1043930E+01  0.7957747E-01            NaN
         13   -1    0    0    0    0  0.00000000000E+00  0.00000000000E+00  0.74505805969E-08  0.10566000000E+00  0.10566000000E+00 0.  1.
     999900   -1    0    0    0    0 -0.00000000000E+00 -0.00000000000E+00 -0.74505805969E-08  0.93827000000E+00  0.93827000000E+00 0. -1.
     999902    2    1    2    0    0  0.22535446416E-02 -0.17340329472E-01 -0.16714446006E-01  0.10197403701E+01  0.10194534242E+01 0.  0.
     999903    2    3    3    0    0  0.79327592202E-01  0.66216905493E-01 -0.77487507460E-01  0.13034980048E+00  0.17584402606E-01 0.  0.
         14    1    1    2    0    0 -0.22535446416E-02  0.17340329472E-01  0.16714446006E-01  0.24189629905E-01  0.00000000000E+00 0.  1.
     999901    1    3    3    0    0 -0.77074047560E-01 -0.83557234965E-01  0.60773061454E-01  0.88939056962E+00  0.88000000000E+00 0.  1.
        -11    1    4    4    0    0  0.50873466540E-01  0.52909015455E-01 -0.54290651001E-01  0.91297368096E-01  0.51100000000E-03 0.  1.
         11    1    4    4    0    0  0.28454125662E-01  0.13307890038E-01 -0.23196856459E-01  0.39052432383E-01  0.51100000000E-03 0. -1.
</event>
<event>
 8    1  0.1129676E+005  0.1043930E+01  0.7957747E-01            NaN
         13   -1    0    0    0    0  0.00000000000E+00  0.00000000000E+00  0.74505805969E-08  0.10566000000E+00  0.10566000000E+00 0. -1.
     999900   -1    0    0    0    0 -0.00000000000E+00 -0.00000000000E+00 -0.74505805969E-08  0.93827000000E+00  0.93827000000E+00 0.  1.
     999902    2    1    2    0    0 -0.63498637934E-02 -0.21760141181E-02 -0.23008641575E-01  0.10199622426E+01  0.10196805985E+01 0.  0.
     999903    2    3    3    0    0 -0.63004641452E-01  0.10689725503E+00  0.32123276522E-01  0.12971156427E+00  0.19914241987E-01 0.  0.
         14    1    1    2    0    0  0.63498637934E-02  0.21760141181E-02  0.23008641575E-01  0.23967757399E-01  0.00000000000E+00 0. -1.
     999901    1    3    3    0    0  0.56654777659E-01 -0.10907326915E+00 -0.55131918096E-01  0.89025067833E+00  0.88000000000E+00 0.  1.
        -11    1    4    4    0    0 -0.15407545447E-01  0.45122990983E-01  0.11903931116E-01  0.49147141005E-01  0.51100000000E-03 0.  1.
         11    1    4    4    0    0 -0.47597096006E-01  0.61774264045E-01  0.20219345406E-01  0.80564423266E-01  0.51100000000E-03 0. -1.
</event>
<event>
 8    1  0.1129676E+005  0.1043930E+01  0.7957747E-01            NaN
         13   -1    0    0    0    0  0.00000000000E+00  0.00000000000E+00  0.74505805969E-08  0.10566000000E+00  0.10566000000E+00 0. -1.
     999900   -1    0    0    0    0 -0.00000000000E+00 -0.00000000000E+00 -0.74505805969E-08  0.93827000000E+00  0.93827000000E+00 0. -1.
     999902    2    1    2    0    0 -0.86159878965E-02 -0.71011415725E-02 -0.19744416602E-01  0.10212473316E+01  0.10209954010E+01 0.  0.
     999903    2    3    3    0    0  0.63577647743E-01 -0.24108287829E-01  0.10782338211E+00  0.12896110660E+00  0.19538639915E-01 0.  0.
         14    1    1    2    0    0  0.86159878965E-02  0.71011415725E-02  0.19744416602E-01  0.22682668406E-01  0.00000000000E+00 0. -1.
     999901    1    3    3    0    0 -0.72193635640E-01  0.17007146257E-01 -0.12756779872E+00  0.89228622500E+00  0.88000000000E+00 0. -1.
        -11    1    4    4    0    0  0.18444882164E-01 -0.37344514071E-02  0.46316883157E-01  0.49996745811E-01  0.51100000000E-03 0. -1.
         11    1    4    4    0    0  0.45132765580E-01 -0.20373836422E-01  0.61506498956E-01  0.78964360786E-01  0.51100000000E-03 0.  1.
</event>
<event>
 8    1  0.1129676E+005  0.1043930E+01  0.7957747E-01            NaN
         13   -1    0    0    0    0  0.00000000000E+00  0.00000000000E+00  0.74505805969E-08  0.10566000000E+00  0.10566000000E+00 0.  1.
     999900   -1    0    0    0    0 -0.00000000000E+00 -0.00000000000E+00 -0.74505805969E-08  0.93827000000E+00  0.93827000000E+00 0.  1.
     999902    2    1    2    0    0 -0.12378325079E-01 -0.17060073327E-01 -0.10738600165E-01  0.10202744178E+01  0.10200001476E+01 0.  0.
     999903    2    3    3    0    0  0.68008093394E-01  0.58905348197E-01  0.88310836289E-01  0.12783757840E+00  0.21182583187E-01 0.  0.
         14    1    1    2    0    0  0.12378325079E-01  0.17060073327E-01  0.10738600165E-01  0.23655582157E-01  0.00000000000E+00 0.  1.
     999901    1    3    3    0    0 -0.80386418473E-01 -0.75965421524E-01 -0.99049436454E-01  0.89243683945E+00  0.88000000000E+00 0. -1.
        -11    1    4    4    0    0  0.51367303430E-01  0.45285315146E-01  0.53433302370E-01  0.86860454482E-01  0.51100000000E-03 0.  1.
         11    1    4    4    0    0  0.16640789964E-01  0.13620033051E-01  0.34877533919E-01  0.40977123913E-01  0.51100000000E-03 0. -1.
</event>
<event>
 8    1  0.1129676E+005  0.1043930E+01  0.7957747E-01            NaN
         13   -1    0    0    0    0  0.00000000000E+00  0.00000000000E+00  0.74505805969E-08  0.10566000000E+00  0.10566000000E+00 0.  1.
     999900   -1    0    0    0    0 -0.00000000000E+00 -0.00000000000E+00 -0.74505805969E-08  0.93827000000E+00  0.93827000000E+00 0.  1.
     999902    2    1    2    0    0  0.14053554239E-01  0.11553626463E-01  0.16131189847E-01  0.10196153140E+01  0.10193253575E+01 0.  0.
     999903    2    3    3    0    0 -0.97840668480E-01  0.12726844375E-01  0.82264144554E-01  0.13006752929E+00  0.20381455299E-01 0.  0.
         14    1    1    2    0    0 -0.14053554239E-01 -0.11553626463E-01 -0.16131189847E-01  0.24314686037E-01  0.00000000000E+00 0. -1.
     999901    1    3    3    0    0  0.11189422272E+00 -0.11732179119E-02 -0.66132954706E-01  0.88954778467E+00  0.88000000000E+00 0.  1.
        -11    1    4    4    0    0 -0.11932225438E-01  0.68316473183E-02  0.17808423541E-01  0.22504454648E-01  0.51100000000E-03 0. -1.
         11    1    4    4    0    0 -0.85908443042E-01  0.58951970568E-02  0.64455721013E-01  0.10756307464E+00  0.51100000000E-03 0.  1.
</event>
<event>
 8    1  0.1129676E+005  0.1043930E+01  0.7957747E-01            NaN
         13   -1    0    0    0    0  0.00000000000E+00  0.00000000000E+00  0.74505805969E-08  0.10566000000E+00  0.10566000000E+00 0.  1.
     999900   -1    0    0    0    0 -0.00000000000E+00 -0.00000000000E+00 -0.74505805969E-08  0.93827000000E+00  0.93827000000E+00 0. -1.
     999902    2    1    2    0    0 -0.95853248762E-02  0.26021007784E-02  0.21056783813E-01  0.10206483006E+01  0.10203827302E+01 0.  0.
     999903    2    3    3    0    0 -0.12327760785E+00  0.16356620880E-01  0.42536235427E-01  0.13296790269E+00  0.20155003798E-01 0.  0.
         14    1    1    2    0    0  0.95853248762E-02 -0.26021007784E-02 -0.21056783813E-01  0.23281699379E-01  0.00000000000E+00 0. -1.
     999901    1    3    3    0    0  0.11369228297E+00 -0.13754520102E-01 -0.21479451614E-01  0.88768039793E+00  0.88000000000E+00 0. -1.
        -11    1    4    4    0    0 -0.66489932237E-01  0.17396499780E-01  0.28871570917E-01  0.74547823722E-01  0.51100000000E-03 0. -1.
         11    1    4    4    0    0 -0.56787675610E-01 -0.10398789001E-02  0.13664664510E-01  0.58420078967E-01  0.51100000000E-03 0.  1.
</event>
<event>
 8    1  0.1129676E+005  0.1043930E+01  0.7957747E-01            NaN
         13   -1    0    0    0    0  0.00000000000E+00  0.00000000000E+00  0.74505805969E-08  0.10566000000E+00  0.10566000000E+00 0. -1.
     999900   -1    0    0    0    0 -0.00000000000E+00 -0.00000000000E+00 -0.74505805969E-08  0.93827000000E+00  0.93827000000E+00 0.  1.
     999902    2    1    2    0    0  0.82192029231E-02 -0.14300302320E-01  0.17318215039E-01  0.10200140113E+01  0.10197335969E+01 0.  0.
     999903    2    3    3    0    0  0.90209192722E-01  0.71833354500E-01 -0.54835590571E-01  0.12908890955E+00  0.18954558985E-01 0.  0.
         14    1    1    2    0    0 -0.82192029231E-02  0.14300302320E-01 -0.17318215039E-01  0.23915988695E-01  0.00000000000E+00 0.  1.
     999901    1    3    3    0    0 -0.81989989799E-01 -0.86133656820E-01  0.72153805611E-01  0.89092510175E+00  0.88000000000E+00 0. -1.
        -11    1    4    4    0    0  0.57746579302E-01  0.56592430056E-01 -0.35028751726E-01  0.88117223794E-01  0.51100000000E-03 0. -1.
         11    1    4    4    0    0  0.32462613420E-01  0.15240924444E-01 -0.19806838846E-01  0.40971685760E-01  0.51100000000E-03 0.  1.
</event>
<event>
 8    1  0.1129676E+005  0.1043930E+01  0.7957747E-01            NaN
         13   -1    0    0    0    0  0.00000000000E+00  0.00000000000E+00  0.74505805969E-08  0.10566000000E+00  0.10566000000E+00 0. -1.
     999900   -1    0    0    0    0 -0.00000000000E+00 -0.00000000000E+00 -0.74505805969E-08  0.93827000000E+00  0.93827000000E+00 0. -1.
     999902    2    1    2    0    0 -0.14059526821E-01 -0.13517354652E-01 -0.12913378048E-01  0.10205388798E+01  0.10202707781E+01 0.  0.
     999903    2    3    3    0    0 -0.25295441648E-01  0.10812269057E+00  0.62072847356E-01  0.12894172841E+00  0.21036999806E-01 0.  0.
         14    1    1    2    0    0  0.14059526821E-01  0.13517354652E-01  0.12913378048E-01  0.23391120192E-01  0.00000000000E+00 0. -1.
     999901    1    3    3    0    0  0.11235914827E-01 -0.12164004523E+00 -0.74986225405E-01  0.89159715140E+00  0.88000000000E+00 0. -1.
        -11    1    4    4    0    0 -0.17745867929E-01  0.40359018097E-01  0.17260088557E-01  0.47349107154E-01  0.51100000000E-03 0. -1.
         11    1    4    4    0    0 -0.75495737196E-02  0.67763672477E-01  0.44812758799E-01  0.81592621254E-01  0.51100000000E-03 0.  1.
</event>
<event>
 8    1  0.1129676E+005  0.1043930E+01  0.7957747E-01            NaN
         13   -1    0    0    0    0  0.00000000000E+00  0.00000000000E+00  0.74505805969E-08  0.10566000000E+00  0.10566000000E+00 0.  1.
     999900   -1    0    0    0    0 -0.00000000000E+00 -0.00000000000E+00 -0.74505805969E-08  0.93827000000E+00  0.93827000000E+00 0. -1.
     999902    2    1    2    0    0  0.12620949064E-01  0.22851379577E-01  0.85799427725E-03  0.10178108488E+01  0.10174756577E+01 0.  0.
     999903    2    3    3    0    0  0.58949424128E-01 -0.96231805297E-01  0.55170185322E-01  0.12692536426E+00  0.18185262916E-01 0.  0.
         14    1    1    2    0    0 -0.12620949064E-01 -0.22851379577E-01 -0.85799427725E-03  0.26119151173E-01  0.00000000000E+00 0. -1.
     999901    1    3    3    0    0 -0.46328475065E-01  0.11908318487E+00 -0.54312191045E-01  0.89088548457E+00  0.88000000000E+00 0. -1.
        -11    1    4    4    0    0  0.21706649269E-01 -0.47017869221E-01  0.32668621329E-01  0.61232006248E-01  0.51100000000E-03 0. -1.
         11    1    4    4    0    0  0.37242774860E-01 -0.49213936076E-01  0.22501563993E-01  0.65693358009E-01  0.51100000000E-03 0.  1.
</event>
<event>
 8    1  0.1129676E+005  0.1043930E+01  0.7957747E-01            NaN
         13   -1    0    0    0    0  0.00000000000E+00  0.00000000000E+00  0.74505805969E-08  0.10566000000E+00  0.10566000000E+00 0.  1.
     999900   -1    0    0    0    0 -0.00000000000E+00 -0.00000000000E+00 -0.74505805969E-08  0.93827000000E+00  0.93827000000E+00 0.  1.
     999902    2    1    2    0    0  0.17593688906E-01  0.16390027196E-01 -0.22217667974E-02  0.10197823888E+01  0.10194964509E+01 0.  0.
     999903    2    3    3    0    0 -0.92113687412E-01  0.79491675464E-01 -0.40252782886E-01  0.12991504774E+00  0.21302000436E-01 0.  0.
         14    1    1    2    0    0 -0.17593688906E-01 -0.16390027196E-01  0.22217667974E-02  0.24147611238E-01  0.00000000000E+00 0.  1.
     999901    1    3    3    0    0  0.10970737632E+00 -0.63101648268E-01  0.38031016088E-01  0.88986734102E+00  0.88000000000E+00 0. -1.
        -11    1    4    4    0    0 -0.33019486617E-01  0.41371739043E-01 -0.13113258014E-01  0.54535547533E-01  0.51100000000E-03 0.  1.
         11    1    4    4    0    0 -0.59094200795E-01  0.38119936421E-01 -0.27139524872E-01  0.75379500208E-01  0.51100000000E-03 0. -1.
</event>
<event>
 8    1  0.1129676E+005  0.1043930E+01  0.7957747E-01            NaN
         13   -1    0    0    0    0  0.00000000000E+00  0.00000000000E+00  0.74505805969E-08  0.10566000000E+00  0.10566000000E+00 0.  1.
     999900   -1    0    0    0    0 -0.00000000000E+00 -0.00000000000E+00 -0.74505805969E-08  0.93827000000E+00  0.93827000000E+00 0.  1.
     999902    2    1    2    0    0 -0.17269160450E-01 -0.11034998117E-01 -0.10066353569E-01  0.10210974233E+01  0.10208421138E+01 0.  0.
     999903    2    3    3    0    0  0.11599151611E+00  0.24512611532E-01 -0.48413401356E-01  0.12952996281E+00  0.19474442261E-01 0.  0.
         14    1    1    2    0    0  0.17269160450E-01  0.11034998117E-01  0.10066353569E-01  0.22832576733E-01  0.00000000000E+00 0.  1.
     999901    1    3    3    0    0 -0.13326067656E+00 -0.35547609649E-01  0.38347047787E-01  0.89156746046E+00  0.88000000000E+00 0. -1.
        -11    1    4    4    0    0  0.78125287106E-01  0.23684966503E-01 -0.26831914535E-01  0.85934573265E-01  0.51100000000E-03 0. -1.
         11    1    4    4    0    0  0.37866229005E-01  0.82764502944E-03 -0.21581486820E-01  0.43595389547E-01  0.51100000000E-03 0.  1.
</event>
<event>
 8    1  0.1129676E+005  0.1043930E+01  0.7957747E-01            NaN
         13   -1    0    0    0    0  0.00000000000E+00  0.00000000000E+00  0.74505805969E-08  0.10566000000E+00  0.10566000000E+00 0.  1.
     999900   -1    0    0    0    0 -0.00000000000E+00 -0.00000000000E+00 -0.74505805969E-08  0.93827000000E+00  0.93827000000E+00 0. -1.
     999902    2    1    2    0    0 -0.37007932772E-02  0.22919573393E-01 -0.55230583294E-02  0.10200656565E+01  0.10197864663E+01 0.  0.
     999903    2    3    3    0    0  0.30433724677E-01  0.13466403434E-01 -0.12509718140E+00  0.13127293681E+00  0.21811087233E-01 0.  0.
         14    1    1    2    0    0  0.37007932772E-02 -0.22919573393E-01  0.55230583294E-02  0.23864343459E-01  0.00000000000E+00 0. -1.
     999901    1    3    3    0    0 -0.34134517954E-01  0.94531699588E-02  0.11957412307E+00  0.88879271973E+00  0.88000000000E+00 0.  1.
        -11    1    4    4    0    0  0.18527157457E-01  0.18959700902E-01 -0.88948332018E-01  0.92815907642E-01  0.51100000000E-03 0. -1.
         11    1    4    4    0    0  0.11906567220E-01 -0.54932974673E-02 -0.36148849379E-01  0.38457029169E-01  0.51100000000E-03 0.  1.
</event>
<event>
 8    1  0.1129676E+005  0.1043930E+01  0.7957747E-01            NaN
         13   -1    0    0    0    0  0.00000000000E+00  0.00000000000E+00  0.74505805969E-08  0.10566000000E+00  0.10566000000E+00 0. -1.
     999900   -1    0    0    0    0 -0.00000000000E+00 -0.00000000000E+00 -0.74505805969E-08  0.93827000000E+00  0.93827000000E+00 0.  1.
     999902    2    1    2    0    0  0.18096666649E-02 -0.49348576403E-02  0.24879351874E-01  0.10185014754E+01  0.10181839940E+01 0.  0.
     999903    2    3    3    0    0  0.57900304022E-01 -0.13594489751E-01  0.11616346008E+00  0.13196104359E+00  0.19557919386E-01 0.  0.
         14    1    1    2    0    0 -0.18096666649E-02  0.49348576403E-02 -0.24879351874E-01  0.25428524594E-01  0.00000000000E+00 0.  1.
     999901    1    3    3    0    0 -0.56090637357E-01  0.86596321108E-02 -0.91284108207E-01  0.88654043181E+00  0.88000000000E+00 0.  1.
        -11    1    4    4    0    0  0.14334943548E-01  0.45186128141E-02  0.22170562292E-01  0.26789987339E-01  0.51100000000E-03 0. -1.
         11    1    4    4    0    0  0.43565360474E-01 -0.18113102565E-01  0.93992897789E-01  0.10517105625E+00  0.51100000000E-03 0.  1.
</event>
<event>
 8    1  0.1129676E+005  0.1043930E+01  0.7957747E-01            NaN
         13   -1    0    0    0    0  0.00000000000E+00  0.00000000000E+00  0.74505805969E-08  0.10566000000E+00  0.10566000000E+00 0.  1.
     999900   -1    0    0    0    0 -0.00000000000E+00 -0.00000000000E+00 -0.74505805969E-08  0.93827000000E+00  0.93827000000E+00 0. -1.
     999902    2    1    2    0    0 -0.17658081591E-01  0.13082765991E-01 -0.88454867210E-02  0.10202401446E+01  0.10199650697E+01 0.  0.
     999903    2    3    3    0    0  0.74525953329E-01  0.20084328905E-01  0.10092423229E+00  0.12861448923E+00  0.19962168964E-01 0.  0.
         14    1    1    2    0    0  0.17658081591E-01 -0.13082765991E-01  0.88454867210E-02  0.23689855355E-01  0.00000000000E+00 0. -1.
     999901    1    3    3    0    0 -0.92184034920E-01 -0.70015629142E-02 -0.10976971901E+00  0.89162565541E+00  0.88000000000E+00 0. -1.
        -11    1    4    4    0    0  0.81842954028E-02  0.54098729787E-02  0.48904665205E-02  0.10973932781E-01  0.51100000000E-03 0. -1.
         11    1    4    4    0    0  0.66341657926E-01  0.14674455926E-01  0.96033765771E-01  0.11764055645E+00  0.51100000000E-03 0.  1.
</event>
<event>
 8    1  0.1129676E+005  0.1043930E+01  0.7957747E-01            NaN
         13   -1    0    0    0    0  0.00000000000E+00  0.00000000000E+00  0.74505805969E-08  0.10566000000E+00  0.10566000000E+00 0.  1.
     999900   -1    0    0    0    0 -0.00000000000E+00 -0.00000000000E+00 -0.74505805969E-08  0.93827000000E+00  0.93827000000E+00 0. -1.
     999902    2    1    2    0    0  0.14514719831E-01  0.15957159746E-01  0.47626624122E-03  0.10223537429E+01  0.10221260396E+01 0.  0.
     999903    2    3    3    0    0  0.50693664226E-01  0.12119994872E+00 -0.23720951479E-01  0.13501476263E+00  0.20174920715E-01 0.  0.
         14    1    1    2    0    0 -0.14514719831E-01 -0.15957159746E-01 -0.47626624122E-03  0.21576257054E-01  0.00000000000E+00 0.  1.
     999901    1    3    3    0    0 -0.36178944395E-01 -0.10524278897E+00  0.24197217720E-01  0.88733898032E+00  0.88000000000E+00 0.  1.
        -11    1    4    4    0    0  0.30040126685E-01  0.52803978375E-01 -0.17873832359E-01  0.63327753376E-01  0.51100000000E-03 0.  1.
         11    1    4    4    0    0  0.20653537541E-01  0.68395970345E-01 -0.58471191203E-02  0.71687009251E-01  0.51100000000E-03 0. -1.
</event>
<event>
 8    1  0.1129676E+005  0.1043930E+01  0.7957747E-01            NaN
         13   -1    0    0    0    0  0.00000000000E+00  0.00000000000E+00  0.74505805969E-08  0.10566000000E+00  0.10566000000E+00 0. -1.
     999900   -1    0    0    0    0 -0.00000000000E+00 -0.00000000000E+00 -0.74505805969E-08  0.93827000000E+00  0.93827000000E+00 0.  1.
     999902    2    1    2    0    0  0.12333257185E-01 -0.81382208234E-02  0.19596378285E-01  0.10193870191E+01  0.10190915252E+01 0.  0.
     999903    2    3    3    0    0  0.10022520460E+00 -0.43417425838E-01  0.72137378373E-01  0.13274719738E+00  0.22087384363E-01 0.  0.
         14    1    1    2    0    0 -0.12333257185E-01  0.81382208234E-02 -0.19596378285E-01  0.24542980928E-01  0.00000000000E+00 0.  1.
     999901    1    3    3    0    0 -0.87891947420E-01  0.35279205015E-01 -0.52541000089E-01  0.88663982170E+00  0.88000000000E+00 0. -1.
        -11    1    4    4    0    0  0.52847852076E-01 -0.32555672458E-01  0.48049666475E-01  0.78497126366E-01  0.51100000000E-03 0.  1.
         11    1    4    4    0    0  0.47377352528E-01 -0.10861753380E-01  0.24087711898E-01  0.54250071010E-01  0.51100000000E-03 0. -1.
</event>
<event>
 8    1  0.1129676E+005  0.1043930E+01  0.7957747E-01            NaN
         13   -1    0    0    0    0  0.00000000000E+00  0.00000000000E+00  0.74505805969E-08  0.10566000000E+00  0.10566000000E+00 0.  1.
     999900   -1    0    0    0    0 -0.00000000000E+00 -0.00000000000E+00 -0.74505805969E-08  0.93827000000E+00  0.93827000000E+00 0. -1.
     999902    2    1    2    0    0  0.10045442673E-01  0.11899966461E-01  0.16247367374E-01  0.10214245103E+01  0.10211765436E+01 0.  0.
     999903    2    3    3    0    0  0.22175132369E-01 -0.12631766507E+00 -0.92133585051E-02  0.13018969747E+00  0.20410349027E-01 0.  0.
         14    1    1    2    0    0 -0.10045442673E-01 -0.11899966461E-01 -0.16247367374E-01  0.22505489705E-01  0.00000000000E+00 0.  1.
     999901    1    3    3    0    0 -0.12129689696E-01  0.13821763153E+00  0.25460725879E-01  0.89123481283E+00  0.88000000000E+00 0.  1.
        -11    1    4    4    0    0  0.18262538598E-01 -0.96903594273E-01 -0.15588017195E-01  0.99835235764E-01  0.51100000000E-03 0. -1.
         11    1    4    4    0    0  0.39125937714E-02 -0.29414070795E-01  0.63746586901E-02  0.30354461701E-01  0.51100000000E-03 0.  1.
</event>
<event>
 7    1  0.1129676E+005  0.1043930E+01  0.7957747E-01            NaN
         13   -1    0    0    0    0  0.00000000000E+00  0.00000000000E+00  0.74505805969E-08  0.10566000000E+00  0.10566000000E+00 0.  1.
     999900   -1    0    0    0    0 -0.00000000000E+00 -0.00000000000E+00 -0.74505805969E-08  0.93827000000E+00  0.93827000000E+00 0. -1.
     999902    2    1    2    0    0 -0.20430418865E-01  0.86950231890E-02 -0.12210547667E-01  0.10185902502E+01  0.10182750095E+01 0.  0.
         14    1    1    2    0    0  0.20430418865E-01 -0.86950231890E-02  0.12210547667E-01  0.25339749754E-01  0.00000000000E+00 0.  1.
     999901    1    3    3    0    0  0.78445541629E-01  0.69222271359E-01  0.36144195966E-01  0.88693394836E+00  0.88000000000E+00 0.  1.
        -11    1    3    3    0    0 -0.48272278476E-01 -0.70172862144E-02 -0.18028980463E-01  0.52007311338E-01  0.51100000000E-03 0. -1.
         11    1    3    3    0    0 -0.50603682017E-01 -0.53509961956E-01 -0.30325763170E-01  0.79648990547E-01  0.51100000000E-03 0.  1.
</event>
<event>
 8    1  0.1129676E+005  0.1043930E+01  0.7957747E-01            NaN
         13   -1    0    0    0    0  0.00000000000E+00  0.00000000000E+00  0.74505805969E-08  0.10566000000E+00  0.10566000000E+00 0. -1.
     999900   -1    0    0    0    0 -0.00000000000E+00 -0.00000000000E+00 -0.74505805969E-08  0.93827000000E+00  0.93827000000E+00 0.  1.
     999902    2    1    2    0    0 -0.44475138243E-02 -0.41349718442E-02 -0.22697306113E-01  0.10204343392E+01  0.10201638077E+01 0.  0.
     999903    2    3    3    0    0  0.34554207688E-01  0.75478368508E-01  0.95550723642E-01  0.12811039871E+00  0.19782721941E-01 0.  0.
         14    1    1    2    0    0  0.44475138243E-02  0.41349718442E-02  0.22697306113E-01  0.23495660794E-01  0.00000000000E+00 0. -1.
     999901    1    3    3    0    0 -0.39001721512E-01 -0.79613340352E-01 -0.11824802975E+00  0.89232394050E+00  0.88000000000E+00 0.  1.
        -11    1    4    4    0    0  0.21387243449E-01  0.45091191396E-01  0.42416635791E-01  0.65498563623E-01  0.51100000000E-03 0. -1.
         11    1    4    4    0    0  0.13166964238E-01  0.30387177111E-01  0.53134087851E-01  0.62611835086E-01  0.51100000000E-03 0.  1.
</event>
<event>
 8    1  0.1129676E+005  0.1043930E+01  0.7957747E-01            NaN
         13   -1    0    0    0    0  0.00000000000E+00  0.00000000000E+00  0.74505805969E-08  0.10566000000E+00  0.10566000000E+00 0.  1.
     999900   -1    0    0    0    0 -0.00000000000E+00 -0.00000000000E+00 -0.74505805969E-08  0.93827000000E+00  0.93827000000E+00 0.  1.
     999902    2    1    2    0    0  0.37967183213E-02  0.22966593289E-01 -0.79313561968E-02  0.10193376051E+01  0.10190409056E+01 0.  0.
     999903    2    3    3    0    0  0.47956001059E-01  0.47640719181E-01 -0.11136573134E+00  0.13183688693E+00  0.20229248011E-01 0.  0.
         14    1    1    2    0    0 -0.37967183213E-02 -0.22966593289E-01  0.79313561968E-02  0.24592394931E-01  0.00000000000E+00 0. -1.
     999901    1    3    3    0    0 -0.44159282737E-01 -0.24674125892E-01  0.10343437515E+00  0.88750071814E+00  0.88000000000E+00 0. -1.
        -11    1    4    4    0    0  0.73984692289E-02  0.20344174147E-01 -0.32927295685E-01  0.39409271634E-01  0.51100000000E-03 0. -1.
         11    1    4    4    0    0  0.40557531830E-01  0.27296545034E-01 -0.78438435660E-01  0.92427615293E-01  0.51100000000E-03 0.  1.
</event>
<event>
 8    1  0.1129676E+005  0.1043930E+01  0.7957747E-01            NaN
         13   -1    0    0    0    0  0.00000000000E+00  0.00000000000E+00  0.74505805969E-08  0.10566000000E+00  0.10566000000E+00 0. -1.
     999900   -1    0    0    0    0 -0.00000000000E+00 -0.00000000000E+00 -0.74505805969E-08  0.93827000000E+00  0.93827000000E+00 0.  1.
     999902    2    1    2    0    0 -0.24370012431E-02 -0.20110318352E-01  0.11930257731E-01  0.10204205353E+01  0.10201496822E+01 0.  0.
     999903    2    3    3    0    0  0.12226012260E+00  0.30268943132E-01  0.25809266438E-01  0.13009471320E+00  0.19868811548E-01 0.  0.
         14    1    1    2    0    0  0.24370012431E-02  0.20110318352E-01 -0.11930257731E-01  0.23509464664E-01  0.00000000000E+00 0.  1.
     999901    1    3    3    0    0 -0.12469712384E+00 -0.50379261484E-01 -0.13879008707E-01  0.89032582214E+00  0.88000000000E+00 0.  1.
        -11    1    4    4    0    0  0.49032124686E-01  0.13286133378E-01  0.59772128287E-03  0.50806387227E-01  0.51100000000E-03 0.  1.
         11    1    4    4    0    0  0.73227997911E-01  0.16982809754E-01  0.25211545155E-01  0.79288325972E-01  0.51100000000E-03 0. -1.
</event>
<event>
 8    1  0.1129676E+005  0.1043930E+01  0.7957747E-01            NaN
         13   -1    0    0    0    0  0.00000000000E+00  0.00000000000E+00  0.74505805969E-08  0.10566000000E+00  0.10566000000E+00 0. -1.
     999900   -1    0    0    0    0 -0.00000000000E+00 -0.00000000000E+00 -0.74505805969E-08  0.93827000000E+00  0.93827000000E+00 0.  1.
     999902    2    1    2    0    0  0.18294736005E-02 -0.11394747365E-01  0.20149117455E-01  0.10207098756E+01  0.10204457242E+01 0.  0.
     999903    2    3    3    0    0  0.78716215518E-01  0.74995578267E-02  0.10509304631E+00  0.13308155427E+00  0.20338774575E-01 0.  0.
         14    1    1    2    0    0 -0.18294736005E-02  0.11394747365E-01 -0.20149117455E-01  0.23220124362E-01  0.00000000000E+00 0.  1.
     999901    1    3    3    0    0 -0.76886741917E-01 -0.18894305192E-01 -0.84943928850E-01  0.88762832137E+00  0.88000000000E+00 0. -1.
        -11    1    4    4    0    0  0.24824260198E-01  0.11831956815E-01  0.38139239000E-01  0.47022353928E-01  0.51100000000E-03 0.  1.
         11    1    4    4    0    0  0.53891955320E-01 -0.43323989885E-02  0.66953807306E-01  0.86059200339E-01  0.51100000000E-03 0. -1.
</event>
<event>
 8    1  0.1129676E+005  0.1043930E+01  0.7957747E-01            NaN
         13   -1    0    0    0    0  0.00000000000E+00  0.00000000000E+00  0.74505805969E-08  0.10566000000E+00  0.10566000000E+00 0. -1.
     999900   -1    0    0    0    0 -0.00000000000E+00 -0.00000000000E+00 -0.74505805969E-08  0.93827000000E+00  0.93827000000E+00 0. -1.
     999902    2    1    2    0    0  0.10607261669E-01 -0.28198793511E-01 -0.17582611469E-01  0.10090468496E+01  0.10084437072E+01 0.  0.
     999903    2    3    3    0    0 -0.17361394133E-02  0.10793590536E+00 -0.43685604711E-01  0.11811117177E+00  0.19714030289E-01 0.  0.
         14    1    1    2    0    0 -0.10607261669E-01  0.28198793511E-01  0.17582611469E-01  0.34883150397E-01  0.00000000000E+00 0. -1.
     999901    1    3    3    0    0  0.12343401082E-01 -0.13613469887E+00  0.26102993242E-01  0.89093567784E+00  0.88000000000E+00 0.  1.
        -11    1    4    4    0    0  0.23582562207E-02  0.99451901006E-01 -0.35514623509E-01  0.10563044821E+00  0.51100000000E-03 0.  1.
         11    1    4    4    0    0 -0.40943956340E-02  0.84840043574E-02 -0.81709812023E-02  0.12480723551E-01  0.51100000000E-03 0. -1.
</event>
<event>
 7    1  0.1129676E+005  0.1043930E+01  0.7957747E-01            NaN
         13   -1    0    0    0    0  0.00000000000E+00  0.00000000000E+00  0.74505805969E-08  0.10566000000E+00  0.10566000000E+00 0. -1.
     999900   -1    0    0    0    0 -0.00000000000E+00 -0.00000000000E+00 -0.74505805969E-08  0.93827000000E+00  0.93827000000E+00 0.  1.
     999903    2    1    2    0    0 -0.53586602384E-02 -0.28931430600E-01  0.11274519909E+00  0.11824167137E+00  0.20096517480E-01 0.  0.
         14    1    1    2    0    0 -0.16491357506E-01 -0.15016676862E-01 -0.34196751670E-01  0.40827481935E-01  0.00000000000E+00 0.  1.
     999901    1    1    2    0    0  0.21850017744E-01  0.43948107461E-01 -0.78548447417E-01  0.88486084670E+00  0.88000000000E+00 0.  1.
        -11    1    3    3    0    0  0.39979433395E-02 -0.19036675178E-01  0.43290963504E-01  0.47463114045E-01  0.51100000000E-03 0. -1.
         11    1    3    3    0    0 -0.93566035778E-02 -0.98947554216E-02  0.69454235583E-01  0.70778557324E-01  0.51100000000E-03 0.  1.
</event>
<event>
 8    1  0.1129676E+005  0.1043930E+01  0.7957747E-01            NaN
         13   -1    0    0    0    0  0.00000000000E+00  0.00000000000E+00  0.74505805969E-08  0.10566000000E+00  0.10566000000E+00 0.  1.
     999900   -1    0    0    0    0 -0.00000000000E+00 -0.00000000000E+00 -0.74505805969E-08  0.93827000000E+00  0.93827000000E+00 0.  1.
     999902    2    1    2    0    0 -0.15643429640E-01 -0.13190625670E-01  0.10879281940E-01  0.10207552665E+01  0.10204921586E+01 0.  0.
     999903    2    3    3    0    0 -0.94665199044E-01  0.88338725882E-01  0.10860256253E-01  0.13140007896E+00  0.19565407873E-01 0.  0.
         14    1    1    2    0    0  0.15643429640E-01  0.13190625670E-01 -0.10879281940E-01  0.23174733483E-01  0.00000000000E+00 0.  1.
     999901    1    3    3    0    0  0.79021769404E-01 -0.10152935155E+00  0.19025686410E-04  0.88935518755E+00  0.88000000000E+00 0. -1.
        -11    1    4    4    0    0 -0.39027023809E-01  0.35513410296E-01  0.14061986884E-01  0.54610543802E-01  0.51100000000E-03 0.  1.
         11    1    4    4    0    0 -0.55638175235E-01  0.52825315587E-01 -0.32017306313E-02  0.76789535161E-01  0.51100000000E-03 0. -1.
</event>
<event>
 8    1  0.1129676E+005  0.1043930E+01  0.7957747E-01            NaN
         13   -1    0    0    0    0  0.00000000000E+00  0.00000000000E+00  0.74505805969E-08  0.10566000000E+00  0.10566000000E+00 0. -1.
     999900   -1    0    0    0    0 -0.00000000000E+00 -0.00000000000E+00 -0.74505805969E-08  0.93827000000E+00  0.93827000000E+00 0. -1.
     999902    2    1    2    0    0  0.42382890758E-02 -0.21384628649E-01  0.25287823003E-03  0.10221279500E+01  0.10218954040E+01 0.  0.
     999903    2    3    3    0    0 -0.17702858864E-01  0.33882077224E-01 -0.12418518269E+00  0.13138631869E+00  0.19468404379E-01 0.  0.
         14    1    1    2    0    0 -0.42382890758E-02  0.21384628649E-01 -0.25287823003E-03  0.21802049998E-01  0.00000000000E+00 0.  1.
     999901    1    3    3    0    0  0.21941147940E-01 -0.55266705872E-01  0.12443806092E+00  0.89074163131E+00  0.88000000000E+00 0.  1.
        -11    1    4    4    0    0  0.15198530763E-02  0.16477813938E-01 -0.39822824487E-01  0.43127100258E-01  0.51100000000E-03 0.  1.
         11    1    4    4    0    0 -0.19222711940E-01  0.17404263286E-01 -0.84362358204E-01  0.88259218429E-01  0.51100000000E-03 0. -1.
</event>
<event>
 8    1  0.1129676E+005  0.1043930E+01  0.7957747E-01            NaN
         13   -1    0    0    0    0  0.00000000000E+00  0.00000000000E+00  0.74505805969E-08  0.10566000000E+00  0.10566000000E+00 0. -1.
     999900   -1    0    0    0    0 -0.00000000000E+00 -0.00000000000E+00 -0.74505805969E-08  0.93827000000E+00  0.93827000000E+00 0.  1.
     999902    2    1    2    0    0 -0.21409639227E-01 -0.86830373883E-02 -0.43679741892E-02  0.10204173015E+01  0.10201463730E+01 0.  0.
     999903    2    3    3    0    0  0.11458351652E+00 -0.51184426692E-01  0.18578851920E-01  0.12866225484E+00  0.21437683816E-01 0.  0.
         14    1    1    2    0    0  0.21409639227E-01  0.86830373883E-02  0.43679741892E-02  0.23512698455E-01  0.00000000000E+00 0.  1.
     999901    1    3    3    0    0 -0.13599315575E+00  0.42501389304E-01 -0.22946826109E-01  0.89175504671E+00  0.88000000000E+00 0.  1.
        -11    1    4    4    0    0  0.44466253739E-01 -0.17798915017E-01  0.17493107962E-01  0.50993323529E-01  0.51100000000E-03 0.  1.
         11    1    4    4    0    0  0.70117262780E-01 -0.33385511675E-01  0.10857439577E-02  0.77668931307E-01  0.51100000000E-03 0. -1.
</event>
<event>
 8    1  0.1129676E+005  0.1043930E+01  0.7957747E-01            NaN
         13   -1    0    0    0    0  0.00000000000E+00  0.00000000000E+00  0.74505805969E-08  0.10566000000E+00  0.10566000000E+00 0. -1.
     999900   -1    0    0    0    0 -0.00000000000E+00 -0.00000000000E+00 -0.74505805969E-08  0.93827000000E+00  0.93827000000E+00 0. -1.
     999902    2    1    2    0    0  0.10617245131E-01  0.21289688101E-01 -0.22935659113E-02  0.10200294318E+01  0.10197493833E+01 0.  0.
     999903    2    3    3    0    0 -0.11095302764E+00  0.62652231058E-01 -0.19608790681E-01  0.13054081011E+00  0.20506633890E-01 0.  0.
         14    1    1    2    0    0 -0.10617245131E-01 -0.21289688101E-01  0.22935659113E-02  0.23900568156E-01  0.00000000000E+00 0.  1.
     999901    1    3    3    0    0  0.12157027277E+00 -0.41362542958E-01  0.17315224770E-01  0.88948862173E+00  0.88000000000E+00 0.  1.
        -11    1    4    4    0    0 -0.23052492071E-01  0.13861771549E-01 -0.12749667040E-01  0.29772155310E-01  0.51100000000E-03 0. -1.
         11    1    4    4    0    0 -0.87900535569E-01  0.48790459509E-01 -0.68591236419E-02  0.10076865480E+00  0.51100000000E-03 0.  1.
</event>
<event>
 8    1  0.1129676E+005  0.1043930E+01  0.7957747E-01            NaN
         13   -1    0    0    0    0  0.00000000000E+00  0.00000000000E+00  0.74505805969E-08  0.10566000000E+00  0.10566000000E+00 0. -1.
     999900   -1    0    0    0    0 -0.00000000000E+00 -0.00000000000E+00 -0.74505805969E-08  0.93827000000E+00  0.93827000000E+00 0. -1.
     999902    2    1    2    0    0 -0.88728003633E-02 -0.22751002055E-01  0.23905410130E-02  0.10193933057E+01  0.10190979650E+01 0.  0.
     999903    2    3    3    0    0  0.14064819932E-01 -0.14551965553E-01 -0.12654909361E+00  0.12966369059E+00  0.19708391715E-01 0.  0.
         14    1    1    2    0    0  0.88728003633E-02  0.22751002055E-01 -0.23905410130E-02  0.24536694299E-01  0.00000000000E+00 0. -1.
     999901    1    3    3    0    0 -0.22937620295E-01 -0.81990365019E-02  0.12893963462E+00  0.88972961511E+00  0.88000000000E+00 0.  1.
        -11    1    4    4    0    0  0.37545880872E-02 -0.11230619907E-02 -0.80521625724E-01  0.80618555744E-01  0.51100000000E-03 0.  1.
         11    1    4    4    0    0  0.10310231844E-01 -0.13428903562E-01 -0.46027467883E-01  0.49045134849E-01  0.51100000000E-03 0. -1.
</event>
<event>
 8    1  0.1129676E+005  0.1043930E+01  0.7957747E-01            NaN
         13   -1    0    0    0    0  0.00000000000E+00  0.00000000000E+00  0.74505805969E-08  0.10566000000E+00  0.10566000000E+00 0. -1.
     999900   -1    0    0    0    0 -0.00000000000E+00 -0.00000000000E+00 -0.74505805969E-08  0.93827000000E+00  0.93827000000E+00 0. -1.
     999902    2    1    2    0    0  0.18003431334E-01  0.14827459890E-01  0.33785277293E-02  0.10203632532E+01  0.10200910630E+01 0.  0.
     999903    2    3    3    0    0 -0.58978739044E-01  0.11787330647E-01 -0.11315081853E+00  0.12934440630E+00  0.17590761292E-01 0.  0.
         14    1    1    2    0    0 -0.18003431334E-01 -0.14827459890E-01 -0.33785277293E-02  0.23566746831E-01  0.00000000000E+00 0. -1.
     999901    1    3    3    0    0  0.76982170378E-01  0.30401292433E-02  0.11652934626E+00  0.89101884687E+00  0.88000000000E+00 0.  1.
        -11    1    4    4    0    0 -0.37622908392E-01  0.30794166695E-02 -0.84581631003E-01  0.92624399955E-01  0.51100000000E-03 0.  1.
         11    1    4    4    0    0 -0.21355830652E-01  0.87079139775E-02 -0.28569187528E-01  0.36720006341E-01  0.51100000000E-03 0. -1.
</event>
<event>
 8    1  0.1129676E+005  0.1043930E+01  0.7957747E-01            NaN
         13   -1    0    0    0    0  0.00000000000E+00  0.00000000000E+00  0.74505805969E-08  0.10566000000E+00  0.10566000000E+00 0.  1.
     999900   -1    0    0    0    0 -0.00000000000E+00 -0.00000000000E+00 -0.74505805969E-08  0.93827000000E+00  0.93827000000E+00 0.  1.
     999902    2    1    2    0    0  0.14441049943E-01 -0.12378981227E-01 -0.89388094027E-02  0.10229136870E+01  0.10226977684E+01 0.  0.
     999903    2    3    3    0    0  0.19577632557E-01 -0.12998961095E+00 -0.23282513600E-01  0.13495851550E+00  0.19777330838E-01 0.  0.
         14    1    1    2    0    0 -0.14441049943E-01  0.12378981227E-01  0.89388094027E-02  0.21016313026E-01  0.00000000000E+00 0.  1.
     999901    1    3    3    0    0 -0.51365826136E-02  0.11761062972E+00  0.14343704197E-01  0.88795517148E+00  0.88000000000E+00 0.  1.
        -11    1    4    4    0    0  0.58854761996E-02 -0.57811266569E-01 -0.19857365470E-01  0.61411378888E-01  0.51100000000E-03 0.  1.
         11    1    4    4    0    0  0.13692156357E-01 -0.72178344376E-01 -0.34251481292E-02  0.73547136608E-01  0.51100000000E-03 0. -1.
</event>
<event>
 8    1  0.1129676E+005  0.1043930E+01  0.7957747E-01            NaN
         13   -1    0    0    0    0  0.00000000000E+00  0.00000000000E+00  0.74505805969E-08  0.10566000000E+00  0.10566000000E+00 0.  1.
     999900   -1    0    0    0    0 -0.00000000000E+00 -0.00000000000E+00 -0.74505805969E-08  0.93827000000E+00  0.93827000000E+00 0.  1.
     999902    2    1    2    0    0 -0.14309552265E-01 -0.83985395359E-02 -0.16365828280E-01  0.10206246554E+01  0.10203585390E+01 0.  0.
     999903    2    3    3    0    0 -0.47563720888E-01 -0.95662607139E-01 -0.77497424912E-01  0.13357452753E+00  0.20558735042E-01 0.  0.
         14    1    1    2    0    0  0.14309552265E-01  0.83985395359E-02  0.16365828280E-01  0.23305344616E-01  0.00000000000E+00 0.  1.
     999901    1    3    3    0    0  0.33254168624E-01  0.87264067603E-01  0.61131596632E-01  0.88705012786E+00  0.88000000000E+00 0. -1.
        -11    1    4    4    0    0 -0.35858496311E-01 -0.57224382300E-01 -0.39317864444E-01  0.78144848025E-01  0.51100000000E-03 0.  1.
         11    1    4    4    0    0 -0.11705224577E-01 -0.38438224839E-01 -0.38179560468E-01  0.55429679502E-01  0.51100000000E-03 0. -1.
</event>
<event>
 8    1  0.1129676E+005  0.1043930E+01  0.7957747E-01            NaN
         13   -1    0    0    0    0  0.00000000000E+00  0.00000000000E+00  0.74505805969E-08  0.10566000000E+00  0.10566000000E+00 0.  1.
     999900   -1    0    0    0    0 -0.00000000000E+00 -0.00000000000E+00 -0.74505805969E-08  0.93827000000E+00  0.93827000000E+00 0.  1.
     999902    2    1    2    0    0 -0.11763566284E-01  0.19324042694E-01 -0.72043093619E-02  0.10201875867E+01  0.10199112754E+01 0.  0.
     999903    2    3    3    0    0 -0.45940705603E-01 -0.62651260607E-01  0.10113470307E+00  0.12910657529E+00  0.20113446529E-01 0.  0.
         14    1    1    2    0    0  0.11763566284E-01 -0.19324042694E-01  0.72043093619E-02  0.23742413339E-01  0.00000000000E+00 0. -1.
     999901    1    3    3    0    0  0.34177139319E-01  0.81975303301E-01 -0.10833901244E+00  0.89108101137E+00  0.88000000000E+00 0. -1.
        -11    1    4    4    0    0 -0.26986093062E-01 -0.20158873843E-01  0.40674958276E-01  0.52814228813E-01  0.51100000000E-03 0. -1.
         11    1    4    4    0    0 -0.18954612541E-01 -0.42492386764E-01  0.60459744799E-01  0.76292346481E-01  0.51100000000E-03 0.  1.
</event>
<event>
 8    1  0.1129676E+005  0.1043930E+01  0.7957747E-01            NaN
         13   -1    0    0    0    0  0.00000000000E+00  0.00000000000E+00  0.74505805969E-08  0.10566000000E+00  0.10566000000E+00 0.  1.
     999900   -1    0    0    0    0 -0.00000000000E+00 -0.00000000000E+00 -0.74505805969E-08  0.93827000000E+00  0.93827000000E+00 0.  1.
     999902    2    1    2    0    0 -0.58891209000E-02  0.14307956622E-01 -0.17198603112E-01  0.10207957977E+01  0.10205336199E+01 0.  0.
     999903    2    3    3    0    0 -0.66734756779E-01 -0.10815917741E+00 -0.20648701609E-01  0.13022727505E+00  0.19515093374E-01 0.  0.
         14    1    1    2    0    0  0.58891209000E-02 -0.14307956622E-01  0.17198603112E-01  0.23134202313E-01  0.00000000000E+00 0.  1.
     999901    1    3    3    0    0  0.60845635879E-01  0.12246713403E+00  0.34500984970E-02  0.89056852263E+00  0.88000000000E+00 0. -1.
        -11    1    4    4    0    0 -0.42093635597E-01 -0.49784571709E-01 -0.93651433202E-02  0.65866112443E-01  0.51100000000E-03 0. -1.
         11    1    4    4    0    0 -0.24641121182E-01 -0.58374605702E-01 -0.11283558289E-01  0.64361162611E-01  0.51100000000E-03 0.  1.
</event>
<event>
 8    1  0.1129676E+005  0.1043930E+01  0.7957747E-01            NaN
         13   -1    0    0    0    0  0.00000000000E+00  0.00000000000E+00  0.74505805969E-08  0.10566000000E+00  0.10566000000E+00 0. -1.
     999900   -1    0    0    0    0 -0.00000000000E+00 -0.00000000000E+00 -0.74505805969E-08  0.93827000000E+00  0.93827000000E+00 0.  1.
     999902    2    1    2    0    0 -0.12167210320E-01 -0.81025776327E-02  0.19235814116E-01  0.10197699231E+01  0.10194836864E+01 0.  0.
     999903    2    3    3    0    0  0.33904940035E-01  0.80717666592E-01 -0.90219826833E-01  0.12736182354E+00  0.20409073529E-01 0.  0.
         14    1    1    2    0    0  0.12167210320E-01  0.81025776327E-02 -0.19235814116E-01  0.24160076904E-01  0.00000000000E+00 0.  1.
     999901    1    3    3    0    0 -0.46072150356E-01 -0.88820244224E-01  0.10945564095E+00  0.89240809956E+00  0.88000000000E+00 0. -1.
        -11    1    4    4    0    0  0.27697883023E-01  0.39755588321E-01 -0.47770644324E-01  0.68043920425E-01  0.51100000000E-03 0. -1.
         11    1    4    4    0    0  0.62070570126E-02  0.40962078270E-01 -0.42449182509E-01  0.59317903112E-01  0.51100000000E-03 0.  1.
</event>
<event>
 8    1  0.1129676E+005  0.1043930E+01  0.7957747E-01            NaN
         13   -1    0    0    0    0  0.00000000000E+00  0.00000000000E+00  0.74505805969E-08  0.10566000000E+00  0.10566000000E+00 0. -1.
     999900   -1    0    0    0    0 -0.00000000000E+00 -0.00000000000E+00 -0.74505805969E-08  0.93827000000E+00  0.93827000000E+00 0.  1.
     999902    2    1    2    0    0 -0.12035185956E-01 -0.20038719186E-01  0.94361938060E-03  0.10205358472E+01  0.10202676752E+01 0.  0.
     999903    2    3    3    0    0 -0.75936654590E-01  0.10079261259E+00 -0.23291501118E-01  0.12965372846E+00  0.18495107888E-01 0.  0.
         14    1    1    2    0    0  0.12035185956E-01  0.20038719186E-01 -0.94361938060E-03  0.23394152799E-01  0.00000000000E+00 0. -1.
     999901    1    3    3    0    0  0.63901468633E-01 -0.12083133178E+00  0.24235120499E-01  0.89088211874E+00  0.88000000000E+00 0. -1.
        -11    1    4    4    0    0 -0.38707524201E-01  0.53250773730E-01 -0.21445304310E-01  0.69239291811E-01  0.51100000000E-03 0.  1.
         11    1    4    4    0    0 -0.37229130389E-01  0.47541838859E-01 -0.18461968082E-02  0.60414436646E-01  0.51100000000E-03 0. -1.
</event>
<event>
 8    1  0.1129676E+005  0.1043930E+01  0.7957747E-01            NaN
         13   -1    0    0    0    0  0.00000000000E+00  0.00000000000E+00  0.74505805969E-08  0.10566000000E+00  0.10566000000E+00 0.  1.
     999900   -1    0    0    0    0 -0.00000000000E+00 -0.00000000000E+00 -0.74505805969E-08  0.93827000000E+00  0.93827000000E+00 0. -1.
     999902    2    1    2    0    0 -0.10432943587E-01 -0.13463584818E-01  0.15104853774E-01  0.10211644331E+01  0.10209106368E+01 0.  0.
     999903    2    3    3    0    0 -0.61629645314E-01  0.67583053087E-01  0.93543395454E-01  0.13248999070E+00  0.20917661348E-01 0.  0.
         14    1    1    2    0    0  0.10432943587E-01  0.13463584818E-01 -0.15104853774E-01  0.22765566884E-01  0.00000000000E+00 0. -1.
     999901    1    3    3    0    0  0.51196701728E-01 -0.81046637905E-01 -0.78438541680E-01  0.88867444242E+00  0.88000000000E+00 0. -1.
        -11    1    4    4    0    0 -0.16739654069E-01  0.30882219576E-01  0.27581436973E-01  0.44664575346E-01  0.51100000000E-03 0. -1.
         11    1    4    4    0    0 -0.44889991245E-01  0.36700833511E-01  0.65961958481E-01  0.87825415354E-01  0.51100000000E-03 0.  1.
</event>
<event>
 8    1  0.1129676E+005  0.1043930E+01  0.7957747E-01            NaN
         13   -1    0    0    0    0  0.00000000000E+00  0.00000000000E+00  0.74505805969E-08  0.10566000000E+00  0.10566000000E+00 0.  1.
     999900   -1    0    0    0    0 -0.00000000000E+00 -0.00000000000E+00 -0.74505805969E-08  0.93827000000E+00  0.93827000000E+00 0. -1.
     999902    2    1    2    0    0 -0.94443875007E-03  0.14568986996E-01  0.18729952276E-01  0.10201821904E+01  0.10199057521E+01 0.  0.
     999903    2    3    3    0    0  0.73005942908E-03  0.16112347536E-01 -0.12568594532E+00  0.12840803888E+00  0.20773224782E-01 0.  0.
         14    1    1    2    0    0  0.94443875007E-03 -0.14568986996E-01 -0.18729952276E-01  0.23747809560E-01  0.00000000000E+00 0. -1.
     999901    1    3    3    0    0 -0.16744981791E-02 -0.15433605396E-02  0.14441589760E+00  0.89177415156E+00  0.88000000000E+00 0.  1.
        -11    1    4    4    0    0 -0.17940608293E-02  0.19231089348E-01 -0.71288649237E-01  0.73860585448E-01  0.51100000000E-03 0.  1.
         11    1    4    4    0    0  0.25241202584E-02 -0.31187418127E-02 -0.54397296087E-01  0.54547453434E-01  0.51100000000E-03 0. -1.
</event>
<event>
 8    1  0.1129676E+005  0.1043930E+01  0.7957747E-01            NaN
         13   -1    0    0    0    0  0.00000000000E+00  0.00000000000E+00  0.74505805969E-08  0.10566000000E+00  0.10566000000E+00 0. -1.
     999900   -1    0    0    0    0 -0.00000000000E+00 -0.00000000000E+00 -0.74505805969E-08  0.93827000000E+00  0.93827000000E+00 0.  1.
     999902    2    1    2    0    0  0.21938969124E-01  0.10130026421E-01 -0.10678931408E-03  0.10197650004E+01  0.10194786456E+01 0.  0.
     999903    2    3    3    0    0 -0.34325572752E-01  0.60662184793E-01  0.10778367380E+00  0.12995628516E+00  0.20326586182E-01 0.  0.
         14    1    1    2    0    0 -0.21938969124E-01 -0.10130026421E-01  0.10678931408E-03  0.24164999596E-01  0.00000000000E+00 0. -1.
     999901    1    3    3    0    0  0.56264541876E-01 -0.50532158372E-01 -0.10789046311E+00  0.88980871525E+00  0.88000000000E+00 0.  1.
        -11    1    4    4    0    0 -0.20080398258E-01  0.41120300686E-01  0.85935662249E-01  0.97361700323E-01  0.51100000000E-03 0.  1.
         11    1    4    4    0    0 -0.14245174494E-01  0.19541884107E-01  0.21848011548E-01  0.32594584833E-01  0.51100000000E-03 0. -1.
</event>
<event>
 8    1  0.1129676E+005  0.1043930E+01  0.7957747E-01            NaN
         13   -1    0    0    0    0  0.00000000000E+00  0.00000000000E+00  0.74505805969E-08  0.10566000000E+00  0.10566000000E+00 0. -1.
     999900   -1    0    0    0    0 -0.00000000000E+00 -0.00000000000E+00 -0.74505805969E-08  0.93827000000E+00  0.93827000000E+00 0. -1.
     999902    2    1    2    0    0 -0.20775760454E-01 -0.81673295225E-02  0.81579804210E-02  0.10201625824E+01  0.10198856820E+01 0.  0.
     999903    2    3    3    0    0 -0.64536235488E-01  0.64683760025E-01 -0.91129168093E-01  0.13051085377E+00  0.19484434118E-01 0.  0.
         14    1    1    2    0    0  0.20775760454E-01  0.81673295225E-02 -0.81579804210E-02  0.23767417582E-01  0.00000000000E+00 0. -1.
     999901    1    3    3    0    0  0.43760475034E-01 -0.72851089547E-01  0.99287148514E-01  0.88965172865E+00  0.88000000000E+00 0.  1.
        -11    1    4    4    0    0 -0.35234606926E-01  0.44914317512E-01 -0.65259170867E-01  0.86705212911E-01  0.51100000000E-03 0. -1.
         11    1    4    4    0    0 -0.29301628563E-01  0.19769442513E-01 -0.25869997226E-01  0.43805640860E-01  0.51100000000E-03 0.  1.
</event>
<event>
 8    1  0.1129676E+005  0.1043930E+01  0.7957747E-01            NaN
         13   -1    0    0    0    0  0.00000000000E+00  0.00000000000E+00  0.74505805969E-08  0.10566000000E+00  0.10566000000E+00 0. -1.
     999900   -1    0    0    0    0 -0.00000000000E+00 -0.00000000000E+00 -0.74505805969E-08  0.93827000000E+00  0.93827000000E+00 0. -1.
     999902    2    1    2    0    0  0.10487851187E-01  0.18181405493E-01  0.10314564465E-01  0.10205430642E+01  0.10202750595E+01 0.  0.
     999903    2    3    3    0    0  0.98386382715E-01  0.84930557515E-01  0.24309661173E-01  0.13353829310E+00  0.18666445671E-01 0.  0.
         14    1    1    2    0    0 -0.10487851187E-01 -0.18181405493E-01 -0.10314564465E-01  0.23386935847E-01  0.00000000000E+00 0.  1.
     999901    1    3    3    0    0 -0.87898531528E-01 -0.66749152022E-01 -0.13995096709E-01  0.88700477105E+00  0.88000000000E+00 0. -1.
        -11    1    4    4    0    0  0.19560827793E-01  0.79601322239E-02  0.44841212638E-02  0.21595327122E-01  0.51100000000E-03 0.  1.
         11    1    4    4    0    0  0.78825554921E-01  0.76970425291E-01  0.19825539910E-01  0.11194296598E+00  0.51100000000E-03 0. -1.
</event>
<event>
 8    1  0.1129676E+005  0.1043930E+01  0.7957747E-01            NaN
         13   -1    0    0    0    0  0.00000000000E+00  0.00000000000E+00  0.74505805969E-08  0.10566000000E+00  0.10566000000E+00 0.  1.
     999900   -1    0    0    0    0 -0.00000000000E+00 -0.00000000000E+00 -0.74505805969E-08  0.93827000000E+00  0.93827000000E+00 0.  1.
     999902    2    1    2    0    0  0.23502341464E-01  0.91425559766E-04  0.72191688346E-02  0.10193437272E+01  0.10190471772E+01 0.  0.
     999903    2    3    3    0    0 -0.93524541037E-01  0.15744453189E-01 -0.81841810153E-01  0.12700289180E+00  0.20902752279E-01 0.  0.
         14    1    1    2    0    0 -0.23502341464E-01 -0.91425559766E-04 -0.72191688346E-02  0.24586272828E-01  0.00000000000E+00 0.  1.
     999901    1    3    3    0    0  0.11702688250E+00 -0.15653027630E-01  0.89060978988E-01  0.89234083538E+00  0.88000000000E+00 0.  1.
        -11    1    4    4    0    0 -0.37209595397E-01  0.34098833751E-03 -0.21231164179E-01  0.42844996395E-01  0.51100000000E-03 0. -1.
         11    1    4    4    0    0 -0.56314945640E-01  0.15403464852E-01 -0.60610645974E-01  0.84157895400E-01  0.51100000000E-03 0.  1.
</event>
<event>
 8    1  0.1129676E+005  0.1043930E+01  0.7957747E-01            NaN
         13   -1    0    0    0    0  0.00000000000E+00  0.00000000000E+00  0.74505805969E-08  0.10566000000E+00  0.10566000000E+00 0.  1.
     999900   -1    0    0    0    0 -0.00000000000E+00 -0.00000000000E+00 -0.74505805969E-08  0.93827000000E+00  0.93827000000E+00 0.  1.
     999902    2    1    2    0    0  0.14223472418E-01  0.18191363292E-01  0.98092053150E-02  0.10188410906E+01  0.10185321372E+01 0.  0.
     999903    2    3    3    0    0  0.15870819938E-01  0.10677115180E+00  0.72511391204E-01  0.13217280042E+00  0.23659787280E-01 0.  0.
         14    1    1    2    0    0 -0.14223472418E-01 -0.18191363292E-01 -0.98092053150E-02  0.25088909401E-01  0.00000000000E+00 0.  1.
     999901    1    3    3    0    0 -0.16473475204E-02 -0.88579788513E-01 -0.62702185889E-01  0.88666829018E+00  0.88000000000E+00 0.  1.
        -11    1    4    4    0    0 -0.60484618496E-02  0.31554637111E-01  0.19777982180E-01  0.37732064800E-01  0.51100000000E-03 0. -1.
         11    1    4    4    0    0  0.21919281788E-01  0.75216514693E-01  0.52733409025E-01  0.94440735623E-01  0.51100000000E-03 0.  1.
</event>
<event>
 8    1  0.1129676E+005  0.1043930E+01  0.7957747E-01            NaN
         13   -1    0    0    0    0  0.00000000000E+00  0.00000000000E+00  0.74505805969E-08  0.10566000000E+00  0.10566000000E+00 0. -1.
     999900   -1    0    0    0    0 -0.00000000000E+00 -0.00000000000E+00 -0.74505805969E-08  0.93827000000E+00  0.93827000000E+00 0. -1.
     999902    2    1    2    0    0  0.22965950845E-01 -0.21496312508E-02  0.36699167600E-02  0.10205735426E+01  0.10203062441E+01 0.  0.
     999903    2    3    3    0    0  0.93664783405E-01  0.91202915216E-01 -0.98915843238E-02  0.13271266546E+00  0.20585061087E-01 0.  0.
         14    1    1    2    0    0 -0.22965950845E-01  0.21496312508E-02 -0.36699167600E-02  0.23356457389E-01  0.00000000000E+00 0. -1.
     999901    1    3    3    0    0 -0.70698832559E-01 -0.93352546466E-01  0.13561501084E-01  0.88786087715E+00  0.88000000000E+00 0.  1.
        -11    1    4    4    0    0  0.35023716020E-01  0.31163667882E-01  0.60894331896E-02  0.47277660657E-01  0.51100000000E-03 0.  1.
         11    1    4    4    0    0  0.58641067385E-01  0.60039247334E-01 -0.15981017513E-01  0.85435004806E-01  0.51100000000E-03 0. -1.
</event>
<event>
 8    1  0.1129676E+005  0.1043930E+01  0.7957747E-01            NaN
         13   -1    0    0    0    0  0.00000000000E+00  0.00000000000E+00  0.74505805969E-08  0.10566000000E+00  0.10566000000E+00 0. -1.
     999900   -1    0    0    0    0 -0.00000000000E+00 -0.00000000000E+00 -0.74505805969E-08  0.93827000000E+00  0.93827000000E+00 0.  1.
     999902    2    1    2    0    0  0.23424580032E-01 -0.50464666943E-02 -0.15723451499E-02  0.10199164612E+01  0.10196337273E+01 0.  0.
     999903    2    3    3    0    0  0.52271452590E-01 -0.70023809421E-01 -0.96921864075E-01  0.13191548831E+00  0.19292736401E-01 0.  0.
         14    1    1    2    0    0 -0.23424580032E-01  0.50464666943E-02  0.15723451499E-02  0.24013538787E-01  0.00000000000E+00 0. -1.
     999901    1    3    3    0    0 -0.28846872557E-01  0.64977342727E-01  0.95349518925E-01  0.88800097291E+00  0.88000000000E+00 0. -1.
        -11    1    4    4    0    0  0.22139026684E-01 -0.41752553649E-01 -0.42319052790E-01  0.63439542785E-01  0.51100000000E-03 0.  1.
         11    1    4    4    0    0  0.30132425906E-01 -0.28271255772E-01 -0.54602811285E-01  0.68475945522E-01  0.51100000000E-03 0. -1.
</event>
<event>
 8    1  0.1129676E+005  0.1043930E+01  0.7957747E-01            NaN
         13   -1    0    0    0    0  0.00000000000E+00  0.00000000000E+00  0.74505805969E-08  0.10566000000E+00  0.10566000000E+00 0.  1.
     999900   -1    0    0    0    0 -0.00000000000E+00 -0.00000000000E+00 -0.74505805969E-08  0.93827000000E+00  0.93827000000E+00 0.  1.
     999902    2    1    2    0    0  0.16663633787E-01 -0.12860215337E-01  0.17365487110E-01  0.10166422377E+01  0.10162759554E+01 0.  0.
     999903    2    3    3    0    0 -0.85963296974E-01  0.87461477761E-01  0.17954959819E-01  0.12501615210E+00  0.16354179417E-01 0.  0.
         14    1    1    2    0    0 -0.16663633787E-01  0.12860215337E-01 -0.17365487110E-01  0.27287762314E-01  0.00000000000E+00 0.  1.
     999901    1    3    3    0    0  0.10262693076E+00 -0.10032169310E+00 -0.58947270869E-03  0.89162608559E+00  0.88000000000E+00 0. -1.
        -11    1    4    4    0    0 -0.39055950834E-01  0.29451132778E-01  0.36605765028E-02  0.49055045192E-01  0.51100000000E-03 0.  1.
         11    1    4    4    0    0 -0.46907346140E-01  0.58010344983E-01  0.14294383316E-01  0.75961106905E-01  0.51100000000E-03 0. -1.
</event>
<event>
 8    1  0.1129676E+005  0.1043930E+01  0.7957747E-01            NaN
         13   -1    0    0    0    0  0.00000000000E+00  0.00000000000E+00  0.74505805969E-08  0.10566000000E+00  0.10566000000E+00 0.  1.
     999900   -1    0    0    0    0 -0.00000000000E+00 -0.00000000000E+00 -0.74505805969E-08  0.93827000000E+00  0.93827000000E+00 0.  1.
     999902    2    1    2    0    0 -0.75919405041E-03 -0.30453108799E-02  0.23040085604E-01  0.10206771327E+01  0.10204122272E+01 0.  0.
     999903    2    3    3    0    0  0.58796998977E-02 -0.12917441461E+00  0.14439894036E-01  0.13161774827E+00  0.19852477381E-01 0.  0.
         14    1    1    2    0    0  0.75919405041E-03  0.30453108799E-02 -0.23040085604E-01  0.23252867320E-01  0.00000000000E+00 0. -1.
     999901    1    3    3    0    0 -0.66388939481E-02  0.12612910373E+00  0.86001915679E-02  0.88905938441E+00  0.88000000000E+00 0.  1.
        -11    1    4    4    0    0  0.10858990081E-01 -0.70222179102E-01  0.14144053782E-01  0.72452656830E-01  0.51100000000E-03 0. -1.
         11    1    4    4    0    0 -0.49792901836E-02 -0.58952235508E-01  0.29584025393E-03  0.59165091436E-01  0.51100000000E-03 0.  1.
</event>
<event>
 8    1  0.1129676E+005  0.1043930E+01  0.7957747E-01            NaN
         13   -1    0    0    0    0  0.00000000000E+00  0.00000000000E+00  0.74505805969E-08  0.10566000000E+00  0.10566000000E+00 0.  1.
     999900   -1    0    0    0    0 -0.00000000000E+00 -0.00000000000E+00 -0.74505805969E-08  0.93827000000E+00  0.93827000000E+00 0. -1.
     999902    2    1    2    0    0 -0.18227228452E-01 -0.15742725724E-01  0.41591169884E-02  0.10194889787E+01  0.10191959645E+01 0.  0.
     999903    2    3    3    0    0  0.12507032354E+00  0.13622382220E-01 -0.39468356108E-02  0.12737788443E+00  0.19529280651E-01 0.  0.
         14    1    1    2    0    0  0.18227228452E-01  0.15742725724E-01 -0.41591169884E-02  0.24441021345E-01  0.00000000000E+00 0. -1.
     999901    1    3    3    0    0 -0.14329755199E+00 -0.29365107944E-01  0.81059525992E-02  0.89211109422E+00  0.88000000000E+00 0.  1.
        -11    1    4    4    0    0  0.85156504746E-01  0.20767053498E-02  0.30583655562E-02  0.85238240987E-01  0.51100000000E-03 0.  1.
         11    1    4    4    0    0  0.39913818795E-01  0.11545676870E-01 -0.70052011670E-02  0.42139643444E-01  0.51100000000E-03 0. -1.
</event>
<event>
 8    1  0.1129676E+005  0.1043930E+01  0.7957747E-01            NaN
         13   -1    0    0    0    0  0.00000000000E+00  0.00000000000E+00  0.74505805969E-08  0.10566000000E+00  0.10566000000E+00 0.  1.
     999900   -1    0    0    0    0 -0.00000000000E+00 -0.00000000000E+00 -0.74505805969E-08  0.93827000000E+00  0.93827000000E+00 0.  1.
     999902    2    1    2    0    0  0.20775903794E-02 -0.21926921098E-01  0.78399594758E-02  0.10205511374E+01  0.10202833199E+01 0.  0.
     999903    2    3    3    0    0 -0.50279428268E-01 -0.11735343532E+00 -0.31632002869E-01  0.13296704968E+00  0.19488535233E-01 0.  0.
         14    1    1    2    0    0 -0.20775903794E-02  0.21926921098E-01 -0.78399594758E-02  0.23378862573E-01  0.00000000000E+00 0. -1.
     999901    1    3    3    0    0  0.52357018647E-01  0.95426514223E-01  0.39471962344E-01  0.88758408775E+00  0.88000000000E+00 0. -1.
        -11    1    4    4    0    0 -0.19927554902E-01 -0.60180555470E-01 -0.23998868807E-01  0.67786529090E-01  0.51100000000E-03 0. -1.
         11    1    4    4    0    0 -0.30351873366E-01 -0.57172879851E-01 -0.76331340613E-02  0.65180520586E-01  0.51100000000E-03 0.  1.
</event>
<event>
 8    1  0.1129676E+005  0.1043930E+01  0.7957747E-01            NaN
         13   -1    0    0    0    0  0.00000000000E+00  0.00000000000E+00  0.74505805969E-08  0.10566000000E+00  0.10566000000E+00 0. -1.
     999900   -1    0    0    0    0 -0.00000000000E+00 -0.00000000000E+00 -0.74505805969E-08  0.93827000000E+00  0.93827000000E+00 0.  1.
     999902    2    1    2    0    0  0.18436531974E-01 -0.38219991193E-02  0.14344821133E-01  0.10202596117E+01  0.10199849940E+01 0.  0.
     999903    2    3    3    0    0  0.98092949072E-01 -0.48240596269E-01  0.74622319788E-01  0.13349496796E+00  0.17407873913E-01 0.  0.
         14    1    1    2    0    0 -0.18436531974E-01  0.38219991193E-02 -0.14344821133E-01  0.23670388291E-01  0.00000000000E+00 0.  1.
     999901    1    3    3    0    0 -0.79656417098E-01  0.44418597150E-01 -0.60277498655E-01  0.88676464375E+00  0.88000000000E+00 0.  1.
        -11    1    4    4    0    0  0.68498417122E-01 -0.42220093685E-01  0.55359673812E-01  0.97670487173E-01  0.51100000000E-03 0.  1.
         11    1    4    4    0    0  0.29594531950E-01 -0.60205025840E-02  0.19262645976E-01  0.35824480788E-01  0.51100000000E-03 0. -1.
</event>
<event>
 8    1  0.1129676E+005  0.1043930E+01  0.7957747E-01            NaN
         13   -1    0    0    0    0  0.00000000000E+00  0.00000000000E+00  0.74505805969E-08  0.10566000000E+00  0.10566000000E+00 0.  1.
     999900   -1    0    0    0    0 -0.00000000000E+00 -0.00000000000E+00 -0.74505805969E-08  0.93827000000E+00  0.93827000000E+00 0.  1.
     999902    2    1    2    0    0 -0.39214985371E-02 -0.22913908422E-01  0.45654945563E-02  0.10202388816E+01  0.10199637770E+01 0.  0.
     999903    2    3    3    0    0  0.11846948016E+00  0.63269817550E-02  0.50946961341E-01  0.13007832206E+00  0.15802802680E-01 0.  0.
         14    1    1    2    0    0  0.39214985371E-02  0.22913908422E-01 -0.45654945563E-02  0.23691118388E-01  0.00000000000E+00 0. -1.
     999901    1    3    3    0    0 -0.12239097869E+00 -0.29240890177E-01 -0.46381466784E-01  0.89016055955E+00  0.88000000000E+00 0.  1.
        -11    1    4    4    0    0  0.20576453181E-01  0.41846310662E-02  0.14831268885E-01  0.25712433187E-01  0.51100000000E-03 0.  1.
         11    1    4    4    0    0  0.97893026977E-01  0.21423506888E-02  0.36115692455E-01  0.10436588887E+00  0.51100000000E-03 0. -1.
</event>
<event>
 8    1  0.1129676E+005  0.1043930E+01  0.7957747E-01            NaN
         13   -1    0    0    0    0  0.00000000000E+00  0.00000000000E+00  0.74505805969E-08  0.10566000000E+00  0.10566000000E+00 0. -1.
     999900   -1    0    0    0    0 -0.00000000000E+00 -0.00000000000E+00 -0.74505805969E-08  0.93827000000E+00  0.93827000000E+00 0.  1.
     999902    2    1    2    0    0  0.12125095698E-01  0.18546182324E-01 -0.78807817553E-02  0.10204122292E+01  0.10201411823E+01 0.  0.
     999903    2    3    3    0    0  0.28482722322E-01  0.17239160077E-01  0.12453937737E+00  0.13035359131E+00  0.19327393527E-01 0.  0.
         14    1    1    2    0    0 -0.12125095698E-01 -0.18546182324E-01  0.78807817553E-02  0.23517770845E-01  0.00000000000E+00 0. -1.
     999901    1    3    3    0    0 -0.16357626624E-01  0.13070222472E-02 -0.13242015913E+00  0.89005863784E+00  0.88000000000E+00 0.  1.
        -11    1    4    4    0    0  0.11372002805E-01 -0.41798225817E-03  0.20552501565E-01  0.23498161599E-01  0.51100000000E-03 0. -1.
         11    1    4    4    0    0  0.17110719517E-01  0.17657142335E-01  0.10398687581E+00  0.10685542971E+00  0.51100000000E-03 0.  1.
</event>
<event>
 8    1  0.1129676E+005  0.1043930E+01  0.7957747E-01            NaN
         13   -1    0    0    0    0  0.00000000000E+00  0.00000000000E+00  0.74505805969E-08  0.10566000000E+00  0.10566000000E+00 0.  1.
     999900   -1    0    0    0    0 -0.00000000000E+00 -0.00000000000E+00 -0.74505805969E-08  0.93827000000E+00  0.93827000000E+00 0.  1.
     999902    2    1    2    0    0 -0.14235772329E-01  0.33517949506E-02  0.17802080609E-01  0.10208907765E+01  0.10206307715E+01 0.  0.
     999903    2    3    3    0    0  0.59925621634E-01  0.32812011039E-02 -0.11161146870E+00  0.12833949842E+00  0.20299273401E-01 0.  0.
         14    1    1    2    0    0  0.14235772329E-01 -0.33517949506E-02 -0.17802080609E-01  0.23039223451E-01  0.00000000000E+00 0. -1.
     999901    1    3    3    0    0 -0.74161393963E-01  0.70593846698E-04  0.12941354931E+00  0.89255127813E+00  0.88000000000E+00 0. -1.
        -11    1    4    4    0    0  0.24516422983E-01 -0.52048017742E-02 -0.61338856107E-01  0.66263574812E-01  0.51100000000E-03 0.  1.
         11    1    4    4    0    0  0.35409198651E-01  0.84860028781E-02 -0.50272612597E-01  0.62075923612E-01  0.51100000000E-03 0. -1.
</event>
<event>
 8    1  0.1129676E+005  0.1043930E+01  0.7957747E-01            NaN
         13   -1    0    0    0    0  0.00000000000E+00  0.00000000000E+00  0.74505805969E-08  0.10566000000E+00  0.10566000000E+00 0.  1.
     999900   -1    0    0    0    0 -0.00000000000E+00 -0.00000000000E+00 -0.74505805969E-08  0.93827000000E+00  0.93827000000E+00 0. -1.
     999902    2    1    2    0    0 -0.17491047511E-01 -0.13054715375E-01  0.89128690383E-02  0.10203545558E+01  0.10200821623E+01 0.  0.
     999903    2    3    3    0    0 -0.10231767106E+00  0.28439327569E-01 -0.74816979491E-01  0.13135061921E+00  0.19434597588E-01 0.  0.
         14    1    1    2    0    0  0.17491047511E-01  0.13054715375E-01 -0.89128690383E-02  0.23575444239E-01  0.00000000000E+00 0.  1.
     999901    1    3    3    0    0  0.84826623551E-01 -0.41494042944E-01  0.83729848529E-01  0.88900393655E+00  0.88000000000E+00 0.  1.
        -11    1    4    4    0    0 -0.67576402100E-01  0.26121343850E-01 -0.57296813808E-01  0.92369262846E-01  0.51100000000E-03 0. -1.
         11    1    4    4    0    0 -0.34741268962E-01  0.23179837191E-02 -0.17520165684E-01  0.38981356367E-01  0.51100000000E-03 0.  1.
</event>
<event>
 8    1  0.1129676E+005  0.1043930E+01  0.7957747E-01            NaN
         13   -1    0    0    0    0  0.00000000000E+00  0.00000000000E+00  0.74505805969E-08  0.10566000000E+00  0.10566000000E+00 0.  1.
     999900   -1    0    0    0    0 -0.00000000000E+00 -0.00000000000E+00 -0.74505805969E-08  0.93827000000E+00  0.93827000000E+00 0. -1.
     999902    2    1    2    0    0 -0.38570504724E-02  0.13264528210E-01  0.19233670360E-01  0.10202496575E+01  0.10199748060E+01 0.  0.
     999903    2    3    3    0    0 -0.12000358518E+00  0.16156437142E-01 -0.44022639174E-01  0.13036216943E+00  0.19859797136E-01 0.  0.
         14    1    1    2    0    0  0.38570504724E-02 -0.13264528210E-01 -0.19233670360E-01  0.23680342533E-01  0.00000000000E+00 0. -1.
     999901    1    3    3    0    0  0.11614653471E+00 -0.28919089318E-02  0.63256309534E-01  0.88988748803E+00  0.88000000000E+00 0.  1.
        -11    1    4    4    0    0 -0.72928869522E-01  0.88625998803E-02 -0.36833742821E-01  0.82183644466E-01  0.51100000000E-03 0.  1.
         11    1    4    4    0    0 -0.47074715658E-01  0.72938372614E-02 -0.71888963525E-02  0.48178524968E-01  0.51100000000E-03 0. -1.
</event>
<event>
 8    1  0.1129676E+005  0.1043930E+01  0.7957747E-01            NaN
         13   -1    0    0    0    0  0.00000000000E+00  0.00000000000E+00  0.74505805969E-08  0.10566000000E+00  0.10566000000E+00 0. -1.
     999900   -1    0    0    0    0 -0.00000000000E+00 -0.00000000000E+00 -0.74505805969E-08  0.93827000000E+00  0.93827000000E+00 0.  1.
     999902    2    1    2    0    0 -0.84820127457E-02 -0.14958150746E-01 -0.18122190305E-01  0.10189479145E+01  0.10186416190E+01 0.  0.
     999903    2    3    3    0    0 -0.27474603805E-01 -0.10941665577E+00 -0.66475478266E-01  0.13236956595E+00  0.19386963768E-01 0.  0.
         14    1    1    2    0    0  0.84820127457E-02  0.14958150746E-01  0.18122190305E-01  0.24982085490E-01  0.00000000000E+00 0.  1.
     999901    1    3    3    0    0  0.18992591059E-01  0.94458505023E-01  0.48353287961E-01  0.88657834856E+00  0.88000000000E+00 0. -1.
        -11    1    4    4    0    0 -0.16305674699E-01 -0.80317558017E-01 -0.38774766913E-01  0.90667131990E-01  0.51100000000E-03 0. -1.
         11    1    4    4    0    0 -0.11168929106E-01 -0.29099097752E-01 -0.27700711353E-01  0.41702433956E-01  0.51100000000E-03 0.  1.
</event>
<event>
 8    1  0.1129676E+005  0.1043930E+01  0.7957747E-01            NaN
         13   -1    0    0    0    0  0.00000000000E+00  0.00000000000E+00  0.74505805969E-08  0.10566000000E+00  0.10566000000E+00 0. -1.
     999900   -1    0    0    0    0 -0.00000000000E+00 -0.00000000000E+00 -0.74505805969E-08  0.93827000000E+00  0.93827000000E+00 0.  1.
     999902    2    1    2    0    0  0.75976881816E-02 -0.13121327290E-01  0.18504157463E-01  0.10200072506E+01  0.10197266758E+01 0.  0.
     999903    2    3    3    0    0 -0.10386602060E+00 -0.42253659504E-01 -0.60620035741E-01  0.12897779592E+00  0.19671327600E-01 0.  0.
         14    1    1    2    0    0 -0.75976881816E-02  0.13121327290E-01 -0.18504157463E-01  0.23922749403E-01  0.00000000000E+00 0.  1.
     999901    1    3    3    0    0  0.11146370878E+00  0.29132332213E-01  0.79124193204E-01  0.89102945468E+00  0.88000000000E+00 0.  1.
        -11    1    4    4    0    0 -0.23806066535E-01 -0.16688907861E-02 -0.95810581123E-02  0.25721038002E-01  0.51100000000E-03 0. -1.
         11    1    4    4    0    0 -0.80059954066E-01 -0.40584768718E-01 -0.51038977629E-01  0.10325675792E+00  0.51100000000E-03 0.  1.
</event>
<event>
 8    1  0.1129676E+005  0.1043930E+01  0.7957747E-01            NaN
         13   -1    0    0    0    0  0.00000000000E+00  0.00000000000E+00  0.74505805969E-08  0.10566000000E+00  0.10566000000E+00 0.  1.
     999900   -1    0    0    0    0 -0.00000000000E+00 -0.00000000000E+00 -0.74505805969E-08  0.93827000000E+00  0.93827000000E+00 0.  1.
     999902    2    1    2    0    0 -0.76943015442E-02 -0.16146449144E-01 -0.15671777143E-01  0.10201494471E+01  0.10198722370E+01 0.  0.
     999903    2    3    3    0    0  0.10238604225E+00 -0.78521923219E-01  0.65376304986E-02  0.13082293811E+00  0.20574412468E-01 0.  0.
         14    1    1    2    0    0  0.76943015442E-02  0.16146449144E-01  0.15671777143E-01  0.23780552875E-01  0.00000000000E+00 0.  1.
     999901    1    3    3    0    0 -0.11008034380E+00  0.62375474075E-01 -0.22209407642E-01  0.88932650902E+00  0.88000000000E+00 0.  1.
        -11    1    4    4    0    0  0.44303078250E-01 -0.30872658947E-01  0.12593704054E-01  0.55450395090E-01  0.51100000000E-03 0.  1.
         11    1    4    4    0    0  0.58082964001E-01 -0.47649264272E-01 -0.60560735550E-02  0.75372543016E-01  0.51100000000E-03 0. -1.
</event>
<event>
 8    1  0.1129676E+005  0.1043930E+01  0.7957747E-01            NaN
         13   -1    0    0    0    0  0.00000000000E+00  0.00000000000E+00  0.74505805969E-08  0.10566000000E+00  0.10566000000E+00 0.  1.
     999900   -1    0    0    0    0 -0.00000000000E+00 -0.00000000000E+00 -0.74505805969E-08  0.93827000000E+00  0.93827000000E+00 0.  1.
     999902    2    1    2    0    0 -0.55528423472E-02 -0.10411409406E-01  0.20347942014E-01  0.10204083026E+01  0.10201371642E+01 0.  0.
     999903    2    3    3    0    0  0.45253549724E-02  0.12676233553E+00 -0.13820348468E-01  0.12906904148E+00  0.19458851176E-01 0.  0.
         14    1    1    2    0    0  0.55528423472E-02  0.10411409406E-01 -0.20347942014E-01  0.23521697391E-01  0.00000000000E+00 0. -1.
     999901    1    3    3    0    0 -0.10078197320E-01 -0.13717374494E+00  0.34168290482E-01  0.89133926113E+00  0.88000000000E+00 0. -1.
        -11    1    4    4    0    0  0.11232232260E-01  0.57758848566E-01 -0.94896094187E-02  0.59603367666E-01  0.51100000000E-03 0. -1.
         11    1    4    4    0    0 -0.67068772877E-02  0.69003486964E-01 -0.43307390488E-02  0.69465673810E-01  0.51100000000E-03 0.  1.
</event>
<event>
 8    1  0.1129676E+005  0.1043930E+01  0.7957747E-01            NaN
         13   -1    0    0    0    0  0.00000000000E+00  0.00000000000E+00  0.74505805969E-08  0.10566000000E+00  0.10566000000E+00 0.  1.
     999900   -1    0    0    0    0 -0.00000000000E+00 -0.00000000000E+00 -0.74505805969E-08  0.93827000000E+00  0.93827000000E+00 0.  1.
     999902    2    1    2    0    0 -0.12338075883E-01 -0.19387240307E-01 -0.55673750385E-02  0.10202849399E+01  0.10200109165E+01 0.  0.
     999903    2    3    3    0    0 -0.10456621254E+00  0.34963690095E-01  0.67580076902E-01  0.13078474171E+00  0.19519975397E-01 0.  0.
         14    1    1    2    0    0  0.12338075883E-01  0.19387240307E-01  0.55673750385E-02  0.23645060119E-01  0.00000000000E+00 0. -1.
     999901    1    3    3    0    0  0.92228136656E-01 -0.54350930402E-01 -0.73147451941E-01  0.88950019817E+00  0.88000000000E+00 0.  1.
        -11    1    4    4    0    0 -0.12451781094E-01  0.55849724052E-02  0.16550751451E-01  0.21457568916E-01  0.51100000000E-03 0.  1.
         11    1    4    4    0    0 -0.92114431445E-01  0.29378717690E-01  0.51029325451E-01  0.10932717279E+00  0.51100000000E-03 0. -1.
</event>
<event>
 8    1  0.1129676E+005  0.1043930E+01  0.7957747E-01            NaN
         13   -1    0    0    0    0  0.00000000000E+00  0.00000000000E+00  0.74505805969E-08  0.10566000000E+00  0.10566000000E+00 0. -1.
     999900   -1    0    0    0    0 -0.00000000000E+00 -0.00000000000E+00 -0.74505805969E-08  0.93827000000E+00  0.93827000000E+00 0. -1.
     999902    2    1    2    0    0 -0.12727100694E-01  0.15794957392E-01 -0.17222541672E-01  0.10173203079E+01  0.10169722382E+01 0.  0.
     999903    2    3    3    0    0 -0.24080738186E-01 -0.73410080547E-01  0.96816038600E-01  0.12541715080E+00  0.19677258657E-01 0.  0.
         14    1    1    2    0    0  0.12727100694E-01 -0.15794957392E-01  0.17222541672E-01  0.26609692082E-01  0.00000000000E+00 0.  1.
     999901    1    3    3    0    0  0.11353637492E-01  0.89205037938E-01 -0.11403858027E+00  0.89190315711E+00  0.88000000000E+00 0.  1.
        -11    1    4    4    0    0 -0.23555612756E-01 -0.47230661510E-01  0.72514230705E-01  0.89689336349E-01  0.51100000000E-03 0. -1.
         11    1    4    4    0    0 -0.52512543060E-03 -0.26179419036E-01  0.24301807895E-01  0.35727814456E-01  0.51100000000E-03 0.  1.
</event>
<event>
 8    1  0.1129676E+005  0.1043930E+01  0.7957747E-01            NaN
         13   -1    0    0    0    0  0.00000000000E+00  0.00000000000E+00  0.74505805969E-08  0.10566000000E+00  0.10566000000E+00 0. -1.
     999900   -1    0    0    0    0 -0.00000000000E+00 -0.00000000000E+00 -0.74505805969E-08  0.93827000000E+00  0.93827000000E+00 0.  1.
     999902    2    1    2    0    0 -0.96012713149E-02 -0.19387439307E-01 -0.10539797678E-01  0.10198645777E+01  0.10195806061E+01 0.  0.
     999903    2    3    3    0    0 -0.90342333769E-01 -0.95296339417E-01 -0.11215148938E-01  0.13291376941E+00  0.17238357137E-01 0.  0.
         14    1    1    2    0    0  0.96012713149E-02  0.19387439307E-01  0.10539797678E-01  0.24065422266E-01  0.00000000000E+00 0. -1.
     999901    1    3    3    0    0  0.80741062454E-01  0.75908900110E-01  0.67535126067E-03  0.88695080832E+00  0.88000000000E+00 0.  1.
        -11    1    4    4    0    0 -0.58307652903E-01 -0.69922765706E-01 -0.22517436992E-02  0.91073086155E-01  0.51100000000E-03 0. -1.
         11    1    4    4    0    0 -0.32034680866E-01 -0.25373573711E-01 -0.89634052392E-02  0.41840683258E-01  0.51100000000E-03 0.  1.
</event>
<event>
 8    1  0.1129676E+005  0.1043930E+01  0.7957747E-01            NaN
         13   -1    0    0    0    0  0.00000000000E+00  0.00000000000E+00  0.74505805969E-08  0.10566000000E+00  0.10566000000E+00 0.  1.
     999900   -1    0    0    0    0 -0.00000000000E+00 -0.00000000000E+00 -0.74505805969E-08  0.93827000000E+00  0.93827000000E+00 0. -1.
     999902    2    1    2    0    0 -0.18043582506E-01  0.99624387238E-02 -0.12290547999E-01  0.10199325288E+01  0.10196501776E+01 0.  0.
     999903    2    3    3    0    0 -0.21250540203E-02 -0.42014639267E-01 -0.12293649264E+00  0.13133951662E+00  0.19155720714E-01 0.  0.
         14    1    1    2    0    0  0.18043582506E-01 -0.99624387238E-02  0.12290547999E-01  0.23997471223E-01  0.00000000000E+00 0.  1.
     999901    1    3    3    0    0 -0.15918528486E-01  0.51977077990E-01  0.11064594464E+00  0.88859301216E+00  0.88000000000E+00 0.  1.
        -11    1    4    4    0    0  0.40371930418E-02 -0.36479399697E-01 -0.86424187341E-01  0.93895936060E-01  0.51100000000E-03 0.  1.
         11    1    4    4    0    0 -0.61622470621E-02 -0.55352395695E-02 -0.36512305300E-01  0.37443580562E-01  0.51100000000E-03 0. -1.
</event>
<event>
 8    1  0.1129676E+005  0.1043930E+01  0.7957747E-01            NaN
         13   -1    0    0    0    0  0.00000000000E+00  0.00000000000E+00  0.74505805969E-08  0.10566000000E+00  0.10566000000E+00 0.  1.
     999900   -1    0    0    0    0 -0.00000000000E+00 -0.00000000000E+00 -0.74505805969E-08  0.93827000000E+00  0.93827000000E+00 0.  1.
     999902    2    1    2    0    0  0.17398964619E-01  0.48947178007E-02 -0.13685146804E-01  0.10212591933E+01  0.10210075291E+01 0.  0.
     999903    2    3    3    0    0 -0.65416921552E-01 -0.10813497665E+00  0.18567590811E-01  0.12958973556E+00  0.21821946168E-01 0.  0.
         14    1    1    2    0    0 -0.17398964619E-01 -0.48947178007E-02  0.13685146804E-01  0.22670806673E-01  0.00000000000E+00 0.  1.
     999901    1    3    3    0    0  0.82815886171E-01  0.11302969445E+00 -0.32252737615E-01  0.89166945777E+00  0.88000000000E+00 0.  1.
        -11    1    4    4    0    0 -0.42051130990E-01 -0.82514330486E-01  0.20507743371E-01  0.94856423147E-01  0.51100000000E-03 0. -1.
         11    1    4    4    0    0 -0.23365790562E-01 -0.25620646160E-01 -0.19401525603E-02  0.34733312413E-01  0.51100000000E-03 0.  1.
</event>
<event>
 8    1  0.1129676E+005  0.1043930E+01  0.7957747E-01            NaN
         13   -1    0    0    0    0  0.00000000000E+00  0.00000000000E+00  0.74505805969E-08  0.10566000000E+00  0.10566000000E+00 0.  1.
     999900   -1    0    0    0    0 -0.00000000000E+00 -0.00000000000E+00 -0.74505805969E-08  0.93827000000E+00  0.93827000000E+00 0.  1.
     999902    2    1    2    0    0 -0.81017630905E-02 -0.11373493965E-01 -0.19445688249E-01  0.10199898721E+01  0.10197088847E+01 0.  0.
     999903    2    3    3    0    0  0.87294818935E-01 -0.47442676681E-01 -0.84145619445E-01  0.13174014662E+00  0.20094476253E-01 0.  0.
         14    1    1    2    0    0  0.81017630905E-02  0.11373493965E-01  0.19445688249E-01  0.23940127853E-01  0.00000000000E+00 0.  1.
     999901    1    3    3    0    0 -0.95396582025E-01  0.36069182716E-01  0.64699931197E-01  0.88824972553E+00  0.88000000000E+00 0.  1.
        -11    1    4    4    0    0  0.24331274783E-01 -0.37135541259E-02 -0.22821937450E-01  0.33569381388E-01  0.51100000000E-03 0.  1.
         11    1    4    4    0    0  0.62963544152E-01 -0.43729122555E-01 -0.61323681995E-01  0.98170765231E-01  0.51100000000E-03 0. -1.
</event>
<event>
 8    1  0.1129676E+005  0.1043930E+01  0.7957747E-01            NaN
         13   -1    0    0    0    0  0.00000000000E+00  0.00000000000E+00  0.74505805969E-08  0.10566000000E+00  0.10566000000E+00 0. -1.
     999900   -1    0    0    0    0 -0.00000000000E+00 -0.00000000000E+00 -0.74505805969E-08  0.93827000000E+00  0.93827000000E+00 0. -1.
     999902    2    1    2    0    0  0.14095940060E-01  0.15151414786E-02 -0.16701363744E-01  0.10220227699E+01  0.10217879503E+01 0.  0.
     999903    2    3    3    0    0  0.85755152634E-01  0.78741677233E-01 -0.64383107520E-01  0.13445726287E+00  0.19477501595E-01 0.  0.
         14    1    1    2    0    0 -0.14095940060E-01 -0.15151414786E-02  0.16701363744E-01  0.21907230104E-01  0.00000000000E+00 0. -1.
     999901    1    3    3    0    0 -0.71659212573E-01 -0.77226535754E-01  0.47681743775E-01  0.88756550703E+00  0.88000000000E+00 0.  1.
        -11    1    4    4    0    0  0.25131802341E-01  0.33781272034E-01 -0.17467700223E-01  0.45586878608E-01  0.51100000000E-03 0.  1.
         11    1    4    4    0    0  0.60623350293E-01  0.44960405199E-01 -0.46915407297E-01  0.88870384264E-01  0.51100000000E-03 0. -1.
</event>
<event>
 8    1  0.1631801E+005  0.1043930E+01  0.7957747E-01            NaN
         13   -1    0    0    0    0  0.00000000000E+00  0.00000000000E+00  0.74505805969E-08  0.10566000000E+00  0.10566000000E+00 0. -1.
     999900   -1    0    0    0    0 -0.00000000000E+00 -0.00000000000E+00 -0.74505805969E-08  0.93827000000E+00  0.93827000000E+00 0. -1.
     999902    2    1    2    0    0  0.85838034793E-02  0.95878776739E-02  0.20539405755E-01  0.10196920902E+01  0.10194039840E+01 0.  0.
     999903    2    3    3    0    0  0.79107914088E-01  0.11305261892E-01  0.10434552536E+00  0.13290008235E+00  0.19712234998E-01 0.  0.
         14    1    1    2    0    0 -0.85838034793E-02 -0.95878776739E-02 -0.20539405755E-01  0.24237909754E-01  0.00000000000E+00 0.  1.
     999901    1    3    3    0    0 -0.70524110609E-01 -0.17173842185E-02 -0.83806119603E-01  0.88679200790E+00  0.88000000000E+00 0. -1.
        -11    1    4    4    0    0  0.25200579539E-01  0.12921752931E-01  0.38107495326E-01  0.47481398768E-01  0.51100000000E-03 0. -1.
         11    1    4    4    0    0  0.53907334549E-01 -0.16164910383E-02  0.66238030032E-01  0.85418683582E-01  0.51100000000E-03 0.  1.
</event>
<event>
 8    1  0.1129676E+005  0.1043930E+01  0.7957747E-01            NaN
         13   -1    0    0    0    0  0.00000000000E+00  0.00000000000E+00  0.74505805969E-08  0.10566000000E+00  0.10566000000E+00 0. -1.
     999900   -1    0    0    0    0 -0.00000000000E+00 -0.00000000000E+00 -0.74505805969E-08  0.93827000000E+00  0.93827000000E+00 0.  1.
     999902    2    1    2    0    0 -0.14063004333E-01  0.55608009368E-02  0.20623911786E-01  0.10183558659E+01  0.10180346916E+01 0.  0.
     999903    2    3    3    0    0 -0.23256880634E-01 -0.92949288207E-01  0.86217834265E-01  0.13038552422E+00  0.19657499990E-01 0.  0.
         14    1    1    2    0    0  0.14063004333E-01 -0.55608009368E-02 -0.20623911786E-01  0.25574134106E-01  0.00000000000E+00 0.  1.
     999901    1    3    3    0    0  0.91938763009E-02  0.98510089144E-01 -0.65593922480E-01  0.88797034167E+00  0.88000000000E+00 0.  1.
        -11    1    4    4    0    0 -0.11887097961E-01 -0.58209739900E-01  0.65232882812E-01  0.88234160267E-01  0.51100000000E-03 0. -1.
         11    1    4    4    0    0 -0.11369782673E-01 -0.34739548307E-01  0.20984951454E-01  0.42151363954E-01  0.51100000000E-03 0.  1.
</event>
<event>
 8    1  0.1129676E+005  0.1043930E+01  0.7957747E-01            NaN
         13   -1    0    0    0    0  0.00000000000E+00  0.00000000000E+00  0.74505805969E-08  0.10566000000E+00  0.10566000000E+00 0. -1.
     999900   -1    0    0    0    0 -0.00000000000E+00 -0.00000000000E+00 -0.74505805969E-08  0.93827000000E+00  0.93827000000E+00 0.  1.
     999902    2    1    2    0    0  0.18550995578E-01  0.13741387273E-01  0.16985932011E-02  0.10207815577E+01  0.10205190533E+01 0.  0.
     999903    2    3    3    0    0  0.81543029546E-01 -0.42639062602E-01 -0.92440526857E-01  0.13173210724E+00  0.18459191354E-01 0.  0.
         14    1    1    2    0    0 -0.18550995578E-01 -0.13741387273E-01 -0.16985932011E-02  0.23148442280E-01  0.00000000000E+00 0.  1.
     999901    1    3    3    0    0 -0.62992033968E-01  0.56380449875E-01  0.94139120058E-01  0.88904945048E+00  0.88000000000E+00 0. -1.
        -11    1    4    4    0    0  0.72487833662E-01 -0.31136359783E-01 -0.81652129434E-01  0.11353981809E+00  0.51100000000E-03 0.  1.
         11    1    4    4    0    0  0.90551958847E-02 -0.11502702819E-01 -0.10788397423E-01  0.18192289152E-01  0.51100000000E-03 0. -1.
</event>
<event>
 8    1  0.1129676E+005  0.1043930E+01  0.7957747E-01            NaN
         13   -1    0    0    0    0  0.00000000000E+00  0.00000000000E+00  0.74505805969E-08  0.10566000000E+00  0.10566000000E+00 0. -1.
     999900   -1    0    0    0    0 -0.00000000000E+00 -0.00000000000E+00 -0.74505805969E-08  0.93827000000E+00  0.93827000000E+00 0. -1.
     999902    2    1    2    0    0  0.10099144848E-01  0.18578401645E-01  0.91596430328E-02  0.10208855040E+01  0.10206253786E+01 0.  0.
     999903    2    3    3    0    0 -0.12681139340E+00 -0.16051477531E-01 -0.64622370700E-02  0.12948897769E+00  0.19668640250E-01 0.  0.
         14    1    1    2    0    0 -0.10099144848E-01 -0.18578401645E-01 -0.91596430328E-02  0.23044495977E-01  0.00000000000E+00 0. -1.
     999901    1    3    3    0    0  0.13691053825E+00  0.34629879177E-01  0.15621880103E-01  0.89139652633E+00  0.88000000000E+00 0.  1.
        -11    1    4    4    0    0 -0.29822689053E-01 -0.17603445383E-02  0.65599883598E-02  0.30590622150E-01  0.51100000000E-03 0. -1.
         11    1    4    4    0    0 -0.96988704346E-01 -0.14291132993E-01 -0.13022225430E-01  0.98898355543E-01  0.51100000000E-03 0.  1.
</event>
<event>
 8    1  0.1129676E+005  0.1043930E+01  0.7957747E-01            NaN
         13   -1    0    0    0    0  0.00000000000E+00  0.00000000000E+00  0.74505805969E-08  0.10566000000E+00  0.10566000000E+00 0. -1.
     999900   -1    0    0    0    0 -0.00000000000E+00 -0.00000000000E+00 -0.74505805969E-08  0.93827000000E+00  0.93827000000E+00 0. -1.
     999902    2    1    2    0    0 -0.21499164267E-01  0.91582500383E-03 -0.10164023214E-01  0.10201316772E+01  0.10198540477E+01 0.  0.
     999903    2    3    3    0    0 -0.62308889635E-01 -0.78877129232E-01 -0.83969235047E-01  0.13250587851E+00  0.20074266158E-01 0.  0.
         14    1    1    2    0    0  0.21499164267E-01 -0.91582500383E-03  0.10164023214E-01  0.23798322788E-01  0.00000000000E+00 0. -1.
     999901    1    3    3    0    0  0.40809725368E-01  0.79792954235E-01  0.73805211833E-01  0.88762579870E+00  0.88000000000E+00 0.  1.
        -11    1    4    4    0    0 -0.53034050694E-01 -0.52929161351E-01 -0.60414113849E-01  0.96250885333E-01  0.51100000000E-03 0. -1.
         11    1    4    4    0    0 -0.92748389407E-02 -0.25947967881E-01 -0.23555121198E-01  0.36254993176E-01  0.51100000000E-03 0.  1.
</event>
<event>
 8    1  0.1129676E+005  0.1043930E+01  0.7957747E-01            NaN
         13   -1    0    0    0    0  0.00000000000E+00  0.00000000000E+00  0.74505805969E-08  0.10566000000E+00  0.10566000000E+00 0. -1.
     999900   -1    0    0    0    0 -0.00000000000E+00 -0.00000000000E+00 -0.74505805969E-08  0.93827000000E+00  0.93827000000E+00 0. -1.
     999902    2    1    2    0    0 -0.16113921774E-01 -0.11846523556E-01 -0.13247043782E-01  0.10199407782E+01  0.10196586234E+01 0.  0.
     999903    2    3    3    0    0  0.66749494870E-02  0.12429367214E+00 -0.27837355780E-01  0.12906123370E+00  0.19708165407E-01 0.  0.
         14    1    1    2    0    0  0.16113921774E-01  0.11846523556E-01  0.13247043782E-01  0.23989221835E-01  0.00000000000E+00 0. -1.
     999901    1    3    3    0    0 -0.22788871261E-01 -0.13614019569E+00  0.14590311998E-01  0.89087954446E+00  0.88000000000E+00 0.  1.
        -11    1    4    4    0    0  0.10519537566E-01  0.77584059125E-01 -0.10088818422E-01  0.78942968522E-01  0.51100000000E-03 0. -1.
         11    1    4    4    0    0 -0.38445880793E-02  0.46709613014E-01 -0.17748537358E-01  0.50118265181E-01  0.51100000000E-03 0.  1.
</event>
<event>
 8    1  0.1129676E+005  0.1043930E+01  0.7957747E-01            NaN
         13   -1    0    0    0    0  0.00000000000E+00  0.00000000000E+00  0.74505805969E-08  0.10566000000E+00  0.10566000000E+00 0.  1.
     999900   -1    0    0    0    0 -0.00000000000E+00 -0.00000000000E+00 -0.74505805969E-08  0.93827000000E+00  0.93827000000E+00 0.  1.
     999902    2    1    2    0    0  0.12680005863E-01 -0.20254220820E-01  0.15754619764E-02  0.10199821798E+01  0.10197010097E+01 0.  0.
     999903    2    3    3    0    0  0.95813660491E-01 -0.93095659173E-03 -0.88109354648E-01  0.13131578608E+00  0.17304712682E-01 0.  0.
         14    1    1    2    0    0 -0.12680005863E-01  0.20254220820E-01 -0.15754619764E-02  0.23947820155E-01  0.00000000000E+00 0.  1.
     999901    1    3    3    0    0 -0.83133654628E-01 -0.19323264228E-01  0.89684816624E-01  0.88866639376E+00  0.88000000000E+00 0. -1.
        -11    1    4    4    0    0  0.82375949972E-01  0.52984906761E-02 -0.74587250732E-01  0.11125372007E+00  0.51100000000E-03 0. -1.
         11    1    4    4    0    0  0.13437710519E-01 -0.62294472678E-02 -0.13522103916E-01  0.20062066009E-01  0.51100000000E-03 0.  1.
</event>
<event>
 8    1  0.1129676E+005  0.1043930E+01  0.7957747E-01            NaN
         13   -1    0    0    0    0  0.00000000000E+00  0.00000000000E+00  0.74505805969E-08  0.10566000000E+00  0.10566000000E+00 0. -1.
     999900   -1    0    0    0    0 -0.00000000000E+00 -0.00000000000E+00 -0.74505805969E-08  0.93827000000E+00  0.93827000000E+00 0.  1.
     999902    2    1    2    0    0 -0.83033618309E-02  0.11252961611E-01  0.19959710430E-01  0.10195586028E+01  0.10192672758E+01 0.  0.
     999903    2    3    3    0    0 -0.68188697787E-01 -0.99895437370E-01 -0.38940579326E-01  0.12859874722E+00  0.19810910006E-01 0.  0.
         14    1    1    2    0    0  0.83033618309E-02 -0.11252961611E-01 -0.19959710430E-01  0.24371397235E-01  0.00000000000E+00 0.  1.
     999901    1    3    3    0    0  0.59885335956E-01  0.11114839898E+00  0.58900289756E-01  0.89095985554E+00  0.88000000000E+00 0. -1.
        -11    1    4    4    0    0 -0.24014588092E-01 -0.34014191552E-01 -0.23413452921E-01  0.47771503711E-01  0.51100000000E-03 0.  1.
         11    1    4    4    0    0 -0.44174109696E-01 -0.65881245818E-01 -0.15527126404E-01  0.80827243509E-01  0.51100000000E-03 0. -1.
</event>
<event>
 8    1  0.1129676E+005  0.1043930E+01  0.7957747E-01            NaN
         13   -1    0    0    0    0  0.00000000000E+00  0.00000000000E+00  0.74505805969E-08  0.10566000000E+00  0.10566000000E+00 0. -1.
     999900   -1    0    0    0    0 -0.00000000000E+00 -0.00000000000E+00 -0.74505805969E-08  0.93827000000E+00  0.93827000000E+00 0.  1.
     999902    2    1    2    0    0  0.19354908307E-01  0.11541487942E-01  0.79517228857E-02  0.10200333827E+01  0.10197534278E+01 0.  0.
     999903    2    3    3    0    0 -0.46461701401E-01  0.93554876042E-01 -0.74595115655E-01  0.12993675737E+00  0.20197155958E-01 0.  0.
         14    1    1    2    0    0 -0.19354908307E-01 -0.11541487942E-01 -0.79517228857E-02  0.23896617257E-01  0.00000000000E+00 0.  1.
     999901    1    3    3    0    0  0.65816609708E-01 -0.82013388099E-01  0.82546838541E-01  0.89009662537E+00  0.88000000000E+00 0.  1.
        -11    1    4    4    0    0 -0.28569875136E-01  0.74638401301E-01 -0.51091289316E-01  0.94856257986E-01  0.51100000000E-03 0.  1.
         11    1    4    4    0    0 -0.17891826265E-01  0.18916474741E-01 -0.23503826339E-01  0.35080499388E-01  0.51100000000E-03 0. -1.
</event>
<event>
 8    1  0.1129676E+005  0.1043930E+01  0.7957747E-01            NaN
         13   -1    0    0    0    0  0.00000000000E+00  0.00000000000E+00  0.74505805969E-08  0.10566000000E+00  0.10566000000E+00 0.  1.
     999900   -1    0    0    0    0 -0.00000000000E+00 -0.00000000000E+00 -0.74505805969E-08  0.93827000000E+00  0.93827000000E+00 0. -1.
     999902    2    1    2    0    0 -0.13503780340E-01  0.65241088327E-02  0.36410100376E-02  0.10284971443E+01  0.10283813509E+01 0.  0.
     999903    2    3    3    0    0  0.57921969506E-01 -0.61488128575E-01 -0.10515750832E+00  0.13632876350E+00  0.19791050916E-01 0.  0.
         14    1    1    2    0    0  0.13503780340E-01 -0.65241088327E-02 -0.36410100376E-02  0.15432855653E-01  0.00000000000E+00 0. -1.
     999901    1    3    3    0    0 -0.71425749845E-01  0.68012237407E-01  0.10879851835E+00  0.89216838084E+00  0.88000000000E+00 0.  1.
        -11    1    4    4    0    0  0.50228599980E-01 -0.54760158982E-01 -0.80090686959E-01  0.10925367969E+00  0.51100000000E-03 0.  1.
         11    1    4    4    0    0  0.76933695259E-02 -0.67279695930E-02 -0.25066821357E-01  0.27075083813E-01  0.51100000000E-03 0. -1.
</event>
<event>
 8    1  0.1129676E+005  0.1043930E+01  0.7957747E-01            NaN
         13   -1    0    0    0    0  0.00000000000E+00  0.00000000000E+00  0.74505805969E-08  0.10566000000E+00  0.10566000000E+00 0.  1.
     999900   -1    0    0    0    0 -0.00000000000E+00 -0.00000000000E+00 -0.74505805969E-08  0.93827000000E+00  0.93827000000E+00 0.  1.
     999902    2    1    2    0    0 -0.11166280249E-01 -0.17213579069E-01  0.12186024760E-01  0.10200659618E+01  0.10197867788E+01 0.  0.
     999903    2    3    3    0    0  0.27963418865E-01  0.11437905802E+00 -0.44995714253E-01  0.12758766697E+00  0.19735165443E-01 0.  0.
         14    1    1    2    0    0  0.11166280249E-01  0.17213579069E-01 -0.12186024760E-01  0.23864038183E-01  0.00000000000E+00 0. -1.
     999901    1    3    3    0    0 -0.39129699114E-01 -0.13159263709E+00  0.57181739013E-01  0.89247829484E+00  0.88000000000E+00 0. -1.
        -11    1    4    4    0    0  0.14530452411E-01  0.57944603708E-01 -0.12295856206E-01  0.60993117210E-01  0.51100000000E-03 0.  1.
         11    1    4    4    0    0  0.13432966454E-01  0.56434454310E-01 -0.32699858046E-01  0.66594549764E-01  0.51100000000E-03 0. -1.
</event>
<event>
 8    1  0.1129676E+005  0.1043930E+01  0.7957747E-01            NaN
         13   -1    0    0    0    0  0.00000000000E+00  0.00000000000E+00  0.74505805969E-08  0.10566000000E+00  0.10566000000E+00 0.  1.
     999900   -1    0    0    0    0 -0.00000000000E+00 -0.00000000000E+00 -0.74505805969E-08  0.93827000000E+00  0.93827000000E+00 0.  1.
     999902    2    1    2    0    0 -0.90299410907E-02  0.20807035799E-01  0.15222514459E-01  0.10166133838E+01  0.10162463159E+01 0.  0.
     999903    2    3    3    0    0 -0.10297485394E+00  0.31595969052E-01 -0.66863804738E-01  0.12774882069E+00  0.15712001782E-01 0.  0.
         14    1    1    2    0    0  0.90299410907E-02 -0.20807035799E-01 -0.15222514459E-01  0.27316616212E-01  0.00000000000E+00 0. -1.
     999901    1    3    3    0    0  0.93944912846E-01 -0.10788933253E-01  0.82086319198E-01  0.88886456310E+00  0.88000000000E+00 0.  1.
        -11    1    4    4    0    0 -0.50313744344E-01  0.20910242551E-01 -0.40512825362E-01  0.67898904655E-01  0.51100000000E-03 0.  1.
         11    1    4    4    0    0 -0.52661109593E-01  0.10685726501E-01 -0.26350979376E-01  0.59849916036E-01  0.51100000000E-03 0. -1.
</event>
<event>
 8    1  0.1129676E+005  0.1043930E+01  0.7957747E-01            NaN
         13   -1    0    0    0    0  0.00000000000E+00  0.00000000000E+00  0.74505805969E-08  0.10566000000E+00  0.10566000000E+00 0.  1.
     999900   -1    0    0    0    0 -0.00000000000E+00 -0.00000000000E+00 -0.74505805969E-08  0.93827000000E+00  0.93827000000E+00 0.  1.
     999902    2    1    2    0    0 -0.64141877454E-02 -0.15268324686E-01 -0.17325680235E-01  0.10199624649E+01  0.10196808261E+01 0.  0.
     999903    2    3    3    0    0  0.12574988992E+00  0.67886637789E-02 -0.24604795845E-01  0.12979009974E+00  0.19518023516E-01 0.  0.
         14    1    1    2    0    0  0.64141877454E-02  0.15268324686E-01  0.17325680235E-01  0.23967535100E-01  0.00000000000E+00 0.  1.
     999901    1    3    3    0    0 -0.13216407766E+00 -0.22056988465E-01  0.72791156100E-02  0.89017236516E+00  0.88000000000E+00 0.  1.
        -11    1    4    4    0    0  0.43249255922E-01  0.55623624033E-03  0.72625695667E-03  0.43261947560E-01  0.51100000000E-03 0.  1.
         11    1    4    4    0    0  0.82500633998E-01  0.62324275385E-02 -0.25331052802E-01  0.86528152182E-01  0.51100000000E-03 0. -1.
</event>
<event>
 8    1  0.1129676E+005  0.1043930E+01  0.7957747E-01            NaN
         13   -1    0    0    0    0  0.00000000000E+00  0.00000000000E+00  0.74505805969E-08  0.10566000000E+00  0.10566000000E+00 0.  1.
     999900   -1    0    0    0    0 -0.00000000000E+00 -0.00000000000E+00 -0.74505805969E-08  0.93827000000E+00  0.93827000000E+00 0.  1.
     999902    2    1    2    0    0 -0.26853941351E-02  0.12727370413E-01  0.19568747602E-01  0.10204324856E+01  0.10201619109E+01 0.  0.
     999903    2    3    3    0    0 -0.58355954073E-01  0.26994088800E-01  0.11502530017E+00  0.13340672279E+00  0.20795090783E-01 0.  0.
         14    1    1    2    0    0  0.26853941351E-02 -0.12727370413E-01 -0.19568747602E-01  0.23497514379E-01  0.00000000000E+00 0. -1.
     999901    1    3    3    0    0  0.55670559938E-01 -0.14266718387E-01 -0.95456552568E-01  0.88702576283E+00  0.88000000000E+00 0.  1.
        -11    1    4    4    0    0 -0.52568727652E-01  0.18079602509E-01  0.85133241304E-01  0.10167729860E+00  0.51100000000E-03 0. -1.
         11    1    4    4    0    0 -0.57872264207E-02  0.89144862912E-02  0.29892058866E-01  0.31729424195E-01  0.51100000000E-03 0.  1.
</event>
<event>
 8    1  0.1129676E+005  0.1043930E+01  0.7957747E-01            NaN
         13   -1    0    0    0    0  0.00000000000E+00  0.00000000000E+00  0.74505805969E-08  0.10566000000E+00  0.10566000000E+00 0. -1.
     999900   -1    0    0    0    0 -0.00000000000E+00 -0.00000000000E+00 -0.74505805969E-08  0.93827000000E+00  0.93827000000E+00 0. -1.
     999902    2    1    2    0    0  0.21619808600E-01  0.18479740212E-02  0.92109271560E-02  0.10203572973E+01  0.10200849680E+01 0.  0.
     999903    2    3    3    0    0 -0.20280283546E-01  0.12048611068E+00  0.42271497121E-01  0.13079356916E+00  0.19796098062E-01 0.  0.
         14    1    1    2    0    0 -0.21619808600E-01 -0.18479740212E-02 -0.92109271560E-02  0.23572702665E-01  0.00000000000E+00 0.  1.
     999901    1    3    3    0    0  0.41900092146E-01 -0.11863813666E+00 -0.33060569965E-01  0.88956372817E+00  0.88000000000E+00 0. -1.
        -11    1    4    4    0    0 -0.16302091127E-01  0.43334836575E-01  0.12117908958E-01  0.47862000320E-01  0.51100000000E-03 0. -1.
         11    1    4    4    0    0 -0.39781924188E-02  0.77151274104E-01  0.30153588164E-01  0.82931568844E-01  0.51100000000E-03 0.  1.
</event>
<event>
 8    1  0.1129676E+005  0.1043930E+01  0.7957747E-01            NaN
         13   -1    0    0    0    0  0.00000000000E+00  0.00000000000E+00  0.74505805969E-08  0.10566000000E+00  0.10566000000E+00 0.  1.
     999900   -1    0    0    0    0 -0.00000000000E+00 -0.00000000000E+00 -0.74505805969E-08  0.93827000000E+00  0.93827000000E+00 0.  1.
     999902    2    1    2    0    0 -0.20410480216E-01  0.29064221537E-02 -0.10719887222E-01  0.10206931548E+01  0.10204286184E+01 0.  0.
     999903    2    3    3    0    0  0.88887463902E-01 -0.91224148928E-01 -0.59789136568E-03  0.12889213451E+00  0.19748374077E-01 0.  0.
         14    1    1    2    0    0  0.20410480216E-01 -0.29064221537E-02  0.10719887222E-01  0.23236845191E-01  0.00000000000E+00 0.  1.
     999901    1    3    3    0    0 -0.10929794412E+00  0.94130571082E-01 -0.10121995856E-01  0.89180102030E+00  0.88000000000E+00 0. -1.
        -11    1    4    4    0    0  0.85057571863E-03 -0.30016570875E-02  0.27817255033E-02  0.42110025053E-02  0.51100000000E-03 0.  1.
         11    1    4    4    0    0  0.88036888183E-01 -0.88222491841E-01 -0.33796168690E-02  0.12468113201E+00  0.51100000000E-03 0. -1.
</event>
<event>
 8    1  0.1129676E+005  0.1043930E+01  0.7957747E-01            NaN
         13   -1    0    0    0    0  0.00000000000E+00  0.00000000000E+00  0.74505805969E-08  0.10566000000E+00  0.10566000000E+00 0.  1.
     999900   -1    0    0    0    0 -0.00000000000E+00 -0.00000000000E+00 -0.74505805969E-08  0.93827000000E+00  0.93827000000E+00 0. -1.
     999902    2    1    2    0    0 -0.19010373798E-01 -0.17706844330E-02 -0.17126229856E-01  0.10182816592E+01  0.10179585945E+01 0.  0.
     999903    2    3    3    0    0 -0.97304770950E-01  0.56342074526E-01  0.60831412534E-01  0.12947093732E+00  0.20484507490E-01 0.  0.
         14    1    1    2    0    0  0.19010373798E-01  0.17706844330E-02  0.17126229856E-01  0.25648340772E-01  0.00000000000E+00 0. -1.
     999901    1    3    3    0    0  0.78294397152E-01 -0.58112758959E-01 -0.77957642389E-01  0.88881072191E+00  0.88000000000E+00 0. -1.
        -11    1    4    4    0    0 -0.56150838869E-01  0.20878752838E-01  0.33868163951E-01  0.68819711393E-01  0.51100000000E-03 0.  1.
         11    1    4    4    0    0 -0.41153932081E-01  0.35463321688E-01  0.26963248583E-01  0.60651225923E-01  0.51100000000E-03 0. -1.
</event>
<event>
 8    1  0.1129676E+005  0.1043930E+01  0.7957747E-01            NaN
         13   -1    0    0    0    0  0.00000000000E+00  0.00000000000E+00  0.74505805969E-08  0.10566000000E+00  0.10566000000E+00 0. -1.
     999900   -1    0    0    0    0 -0.00000000000E+00 -0.00000000000E+00 -0.74505805969E-08  0.93827000000E+00  0.93827000000E+00 0.  1.
     999902    2    1    2    0    0  0.18178311802E-01 -0.62955815006E-03 -0.20769291287E-01  0.10163218341E+01  0.10159467799E+01 0.  0.
     999903    2    3    3    0    0  0.36100902785E-01  0.29950080164E-01 -0.11956655926E+00  0.13008414945E+00  0.20626229957E-01 0.  0.
         14    1    1    2    0    0 -0.18178311802E-01  0.62955815006E-03  0.20769291287E-01  0.27608165893E-01  0.00000000000E+00 0. -1.
     999901    1    3    3    0    0 -0.17922590983E-01 -0.30579638314E-01  0.98797267969E-01  0.88623768466E+00  0.88000000000E+00 0. -1.
        -11    1    4    4    0    0  0.20781923692E-01  0.21213731519E-01 -0.48598232058E-01  0.56955772644E-01  0.51100000000E-03 0. -1.
         11    1    4    4    0    0  0.15318979093E-01  0.87363486452E-02 -0.70968327198E-01  0.73128376806E-01  0.51100000000E-03 0.  1.
</event>
<event>
 8    1  0.1129676E+005  0.1043930E+01  0.7957747E-01            NaN
         13   -1    0    0    0    0  0.00000000000E+00  0.00000000000E+00  0.74505805969E-08  0.10566000000E+00  0.10566000000E+00 0. -1.
     999900   -1    0    0    0    0 -0.00000000000E+00 -0.00000000000E+00 -0.74505805969E-08  0.93827000000E+00  0.93827000000E+00 0.  1.
     999902    2    1    2    0    0  0.91854950276E-02 -0.12283241382E-01 -0.18108641176E-01  0.10201987079E+01  0.10199226586E+01 0.  0.
     999903    2    3    3    0    0 -0.80525838168E-01 -0.16179535886E-01  0.96515509323E-01  0.12823346181E+00  0.19554774212E-01 0.  0.
         14    1    1    2    0    0 -0.91854950276E-02  0.12283241382E-01  0.18108641176E-01  0.23731292063E-01  0.00000000000E+00 0. -1.
     999901    1    3    3    0    0  0.89711333196E-01  0.38962945044E-02 -0.11462415050E+00  0.89196524612E+00  0.88000000000E+00 0.  1.
        -11    1    4    4    0    0 -0.28500889691E-01 -0.35425609570E-02  0.48230432169E-01  0.56136317652E-01  0.51100000000E-03 0.  1.
         11    1    4    4    0    0 -0.52024948477E-01 -0.12636974929E-01  0.48285077155E-01  0.72097144161E-01  0.51100000000E-03 0. -1.
</event>
<event>
 8    1  0.1143899E+005  0.1043930E+01  0.7957747E-01            NaN
         13   -1    0    0    0    0  0.00000000000E+00  0.00000000000E+00  0.74505805969E-08  0.10566000000E+00  0.10566000000E+00 0. -1.
     999900   -1    0    0    0    0 -0.00000000000E+00 -0.00000000000E+00 -0.74505805969E-08  0.93827000000E+00  0.93827000000E+00 0.  1.
     999902    2    1    2    0    0 -0.64134105750E-02  0.20328381651E-01 -0.98938451186E-02  0.10204297211E+01  0.10201590820E+01 0.  0.
     999903    2    3    3    0    0  0.45814564493E-01  0.12058738797E+00  0.23361866122E-01  0.13257524428E+00  0.19751611339E-01 0.  0.
         14    1    1    2    0    0  0.64134105750E-02 -0.20328381651E-01  0.98938451186E-02  0.23500278870E-01  0.00000000000E+00 0. -1.
     999901    1    3    3    0    0 -0.52227975068E-01 -0.10025900632E+00 -0.33255711240E-01  0.88785447685E+00  0.88000000000E+00 0.  1.
        -11    1    4    4    0    0  0.14390667725E-01  0.65609137270E-01  0.12452246040E-01  0.68315223511E-01  0.51100000000E-03 0. -1.
         11    1    4    4    0    0  0.31423896768E-01  0.54978250701E-01  0.10909620082E-01  0.64260020772E-01  0.51100000000E-03 0.  1.
</event>
<event>
 8    1  0.1129676E+005  0.1043930E+01  0.7957747E-01            NaN
         13   -1    0    0    0    0  0.00000000000E+00  0.00000000000E+00  0.74505805969E-08  0.10566000000E+00  0.10566000000E+00 0.  1.
     999900   -1    0    0    0    0 -0.00000000000E+00 -0.00000000000E+00 -0.74505805969E-08  0.93827000000E+00  0.93827000000E+00 0.  1.
     999902    2    1    2    0    0 -0.62300711107E-03 -0.24400006539E-01 -0.94798977677E-02  0.10177457124E+01  0.10174088255E+01 0.  0.
     999903    2    3    3    0    0  0.10640677743E+00 -0.17191992169E-01  0.65960261461E-01  0.12802747165E+00  0.20550195291E-01 0.  0.
         14    1    1    2    0    0  0.62300711107E-03  0.24400006539E-01  0.94798977677E-02  0.26184287629E-01  0.00000000000E+00 0.  1.
     999901    1    3    3    0    0 -0.10702978454E+00 -0.72080143698E-02 -0.75440159229E-01  0.88971824072E+00  0.88000000000E+00 0.  1.
        -11    1    4    4    0    0  0.80169997061E-01 -0.21545776367E-01  0.52392810656E-01  0.98166779704E-01  0.51100000000E-03 0.  1.
         11    1    4    4    0    0  0.26236780370E-01  0.43537841972E-02  0.13567450805E-01  0.29860691944E-01  0.51100000000E-03 0. -1.
</event>
<event>
 8    1  0.1129676E+005  0.1043930E+01  0.7957747E-01            NaN
         13   -1    0    0    0    0  0.00000000000E+00  0.00000000000E+00  0.74505805969E-08  0.10566000000E+00  0.10566000000E+00 0.  1.
     999900   -1    0    0    0    0 -0.00000000000E+00 -0.00000000000E+00 -0.74505805969E-08  0.93827000000E+00  0.93827000000E+00 0.  1.
     999902    2    1    2    0    0  0.10358628382E-01  0.20593463139E-01  0.46427722007E-02  0.10204151698E+01  0.10201441915E+01 0.  0.
     999903    2    3    3    0    0 -0.40951718247E-01  0.49333419669E-01 -0.11210248546E+00  0.13075894857E+00  0.20496484103E-01 0.  0.
         14    1    1    2    0    0 -0.10358628382E-01 -0.20593463139E-01 -0.46427722007E-02  0.23514830209E-01  0.00000000000E+00 0. -1.
     999901    1    3    3    0    0  0.51310346629E-01 -0.28739956529E-01  0.11674525766E+00  0.88965622122E+00  0.88000000000E+00 0. -1.
        -11    1    4    4    0    0 -0.87377986456E-02  0.10843642466E-01 -0.44023190712E-01  0.46176142634E-01  0.51100000000E-03 0.  1.
         11    1    4    4    0    0 -0.32213919601E-01  0.38489777203E-01 -0.68079294750E-01  0.84582805935E-01  0.51100000000E-03 0. -1.
</event>
<event>
 8    1  0.1259167E+005  0.1043930E+01  0.7957747E-01            NaN
         13   -1    0    0    0    0  0.00000000000E+00  0.00000000000E+00  0.74505805969E-08  0.10566000000E+00  0.10566000000E+00 0. -1.
     999900   -1    0    0    0    0 -0.00000000000E+00 -0.00000000000E+00 -0.74505805969E-08  0.93827000000E+00  0.93827000000E+00 0. -1.
     999902    2    1    2    0    0  0.97449804790E-02 -0.12589881427E-01  0.17871032126E-01  0.10199958498E+01  0.10197150043E+01 0.  0.
     999903    2    3    3    0    0 -0.22426932166E-01 -0.52305679380E-01  0.11857517304E+00  0.13277902137E+00  0.18202897380E-01 0.  0.
         14    1    1    2    0    0 -0.97449804790E-02  0.12589881427E-01 -0.17871032126E-01  0.23934150249E-01  0.00000000000E+00 0.  1.
     999901    1    3    3    0    0  0.32171912645E-01  0.39715797953E-01 -0.10070414091E+00  0.88721682838E+00  0.88000000000E+00 0. -1.
        -11    1    4    4    0    0 -0.28530503346E-02 -0.29688342020E-01  0.60146994590E-01  0.67137617081E-01  0.51100000000E-03 0. -1.
         11    1    4    4    0    0 -0.19573881831E-01 -0.22617337361E-01  0.58428178446E-01  0.65641404287E-01  0.51100000000E-03 0.  1.
</event>
<event>
 8    1  0.1129676E+005  0.1043930E+01  0.7957747E-01            NaN
         13   -1    0    0    0    0  0.00000000000E+00  0.00000000000E+00  0.74505805969E-08  0.10566000000E+00  0.10566000000E+00 0.  1.
     999900   -1    0    0    0    0 -0.00000000000E+00 -0.00000000000E+00 -0.74505805969E-08  0.93827000000E+00  0.93827000000E+00 0. -1.
     999902    2    1    2    0    0  0.14096841737E-01 -0.18978995016E-01 -0.43512709008E-03  0.10202844394E+01  0.10200104043E+01 0.  0.
     999903    2    3    3    0    0  0.11663880756E-01 -0.12371812205E+00 -0.42913782517E-01  0.13305242908E+00  0.20472818956E-01 0.  0.
         14    1    1    2    0    0 -0.14096841737E-01  0.18978995016E-01  0.43512709008E-03  0.23645560564E-01  0.00000000000E+00 0.  1.
     999901    1    3    3    0    0  0.24329609812E-02  0.10473912704E+00  0.42478655427E-01  0.88723201035E+00  0.88000000000E+00 0.  1.
        -11    1    4    4    0    0  0.15553312158E-01 -0.71525108292E-01 -0.30244981006E-01  0.79200799442E-01  0.51100000000E-03 0.  1.
         11    1    4    4    0    0 -0.38894314024E-02 -0.52193013761E-01 -0.12668801512E-01  0.53851629639E-01  0.51100000000E-03 0. -1.
</event>
<event>
 8    1  0.1129676E+005  0.1043930E+01  0.7957747E-01            NaN
         13   -1    0    0    0    0  0.00000000000E+00  0.00000000000E+00  0.74505805969E-08  0.10566000000E+00  0.10566000000E+00 0.  1.
     999900   -1    0    0    0    0 -0.00000000000E+00 -0.00000000000E+00 -0.74505805969E-08  0.93827000000E+00  0.93827000000E+00 0.  1.
     999902    2    1    2    0    0  0.21109401785E-01  0.80200905879E-02  0.84011987830E-02  0.10198362490E+01  0.10195516004E+01 0.  0.
     999903    2    3    3    0    0 -0.86208133235E-01  0.61976069622E-02  0.93855552100E-01  0.12920567391E+00  0.20371277384E-01 0.  0.
         14    1    1    2    0    0 -0.21109401785E-01 -0.80200905879E-02 -0.84011987830E-02  0.24093751010E-01  0.00000000000E+00 0. -1.
     999901    1    3    3    0    0  0.10731753502E+00  0.18224836258E-02 -0.85454353317E-01  0.89063057508E+00  0.88000000000E+00 0. -1.
        -11    1    4    4    0    0 -0.37757591618E-01 -0.71484872263E-02  0.37507447934E-01  0.53701083471E-01  0.51100000000E-03 0.  1.
         11    1    4    4    0    0 -0.48450541617E-01  0.13346094188E-01  0.56348104166E-01  0.75504590438E-01  0.51100000000E-03 0. -1.
</event>
<event>
 8    1  0.1129676E+005  0.1043930E+01  0.7957747E-01            NaN
         13   -1    0    0    0    0  0.00000000000E+00  0.00000000000E+00  0.74505805969E-08  0.10566000000E+00  0.10566000000E+00 0.  1.
     999900   -1    0    0    0    0 -0.00000000000E+00 -0.00000000000E+00 -0.74505805969E-08  0.93827000000E+00  0.93827000000E+00 0. -1.
     999902    2    1    2    0    0 -0.15745864977E-01 -0.17561189548E-01 -0.39532530892E-02  0.10200144015E+01  0.10197339964E+01 0.  0.
     999903    2    3    3    0    0 -0.24823349066E-01 -0.78976497063E-01 -0.10169898206E+00  0.13242864887E+00  0.18471013580E-01 0.  0.
         14    1    1    2    0    0  0.15745864977E-01  0.17561189548E-01  0.39532530892E-02  0.23915598513E-01  0.00000000000E+00 0.  1.
     999901    1    3    3    0    0  0.90774840888E-02  0.61415307515E-01  0.97745728971E-01  0.88758575262E+00  0.88000000000E+00 0. -1.
        -11    1    4    4    0    0 -0.25673788346E-01 -0.60335608904E-01 -0.72328289988E-01  0.97627720261E-01  0.51100000000E-03 0. -1.
         11    1    4    4    0    0  0.85043928017E-03 -0.18640888159E-01 -0.29370692072E-01  0.34800928610E-01  0.51100000000E-03 0.  1.
</event>
<event>
 8    1  0.1129676E+005  0.1043930E+01  0.7957747E-01            NaN
         13   -1    0    0    0    0  0.00000000000E+00  0.00000000000E+00  0.74505805969E-08  0.10566000000E+00  0.10566000000E+00 0.  1.
     999900   -1    0    0    0    0 -0.00000000000E+00 -0.00000000000E+00 -0.74505805969E-08  0.93827000000E+00  0.93827000000E+00 0.  1.
     999902    2    1    2    0    0  0.81050877403E-02 -0.14565826731E-01 -0.16747680878E-01  0.10203007687E+01  0.10200271164E+01 0.  0.
     999903    2    3    3    0    0 -0.85435421031E-01 -0.78423698208E-01 -0.59862857452E-01  0.13199531846E+00  0.19741195133E-01 0.  0.
         14    1    1    2    0    0 -0.81050877403E-02  0.14565826731E-01  0.16747680878E-01  0.23629231270E-01  0.00000000000E+00 0.  1.
     999901    1    3    3    0    0  0.93540508772E-01  0.63857871477E-01  0.43115176574E-01  0.88830545027E+00  0.88000000000E+00 0. -1.
        -11    1    4    4    0    0 -0.31705167171E-01 -0.25227655452E-01 -0.31173791174E-01  0.51124540117E-01  0.51100000000E-03 0. -1.
         11    1    4    4    0    0 -0.53730253860E-01 -0.53196042756E-01 -0.28689066278E-01  0.80870778342E-01  0.51100000000E-03 0.  1.
</event>
<event>
 8    1  0.1129676E+005  0.1043930E+01  0.7957747E-01            NaN
         13   -1    0    0    0    0  0.00000000000E+00  0.00000000000E+00  0.74505805969E-08  0.10566000000E+00  0.10566000000E+00 0. -1.
     999900   -1    0    0    0    0 -0.00000000000E+00 -0.00000000000E+00 -0.74505805969E-08  0.93827000000E+00  0.93827000000E+00 0.  1.
     999902    2    1    2    0    0 -0.55188480144E-02  0.16885354814E-01  0.16568694236E-01  0.10196381388E+01  0.10193487331E+01 0.  0.
     999903    2    3    3    0    0  0.86647720818E-01 -0.89355174483E-01 -0.20319815228E-01  0.12770625319E+00  0.20095210484E-01 0.  0.
         14    1    1    2    0    0  0.55188480144E-02 -0.16885354814E-01 -0.16568694236E-01  0.24291861174E-01  0.00000000000E+00 0.  1.
     999901    1    3    3    0    0 -0.92166568832E-01  0.10624052930E+00  0.36888509464E-01  0.89193188563E+00  0.88000000000E+00 0. -1.
        -11    1    4    4    0    0  0.81693860467E-02 -0.49248304524E-02 -0.66219192484E-02  0.11623414253E-01  0.51100000000E-03 0.  1.
         11    1    4    4    0    0  0.78478334771E-01 -0.84430344030E-01 -0.13697895980E-01  0.11608283894E+00  0.51100000000E-03 0. -1.
</event>
<event>
 8    1  0.1129676E+005  0.1043930E+01  0.7957747E-01            NaN
         13   -1    0    0    0    0  0.00000000000E+00  0.00000000000E+00  0.74505805969E-08  0.10566000000E+00  0.10566000000E+00 0. -1.
     999900   -1    0    0    0    0 -0.00000000000E+00 -0.00000000000E+00 -0.74505805969E-08  0.93827000000E+00  0.93827000000E+00 0. -1.
     999902    2    1    2    0    0  0.94302328170E-02  0.22269350750E-01 -0.36042218175E-02  0.10194791577E+01  0.10191859052E+01 0.  0.
     999903    2    3    3    0    0  0.12531753343E-01 -0.10437621582E+00  0.69264039514E-01  0.12742618704E+00  0.19710066045E-01 0.  0.
         14    1    1    2    0    0 -0.94302328170E-02 -0.22269350750E-01  0.36042218175E-02  0.24450842291E-01  0.00000000000E+00 0.  1.
     999901    1    3    3    0    0 -0.31015205264E-02  0.12664556657E+00 -0.72868261331E-01  0.89205297066E+00  0.88000000000E+00 0. -1.
        -11    1    4    4    0    0  0.16350110275E-01 -0.65211430967E-01  0.48752817549E-01  0.83047908913E-01  0.51100000000E-03 0. -1.
         11    1    4    4    0    0 -0.38183569312E-02 -0.39164784856E-01  0.20511221965E-01  0.44378278132E-01  0.51100000000E-03 0.  1.
</event>
<event>
 8    1  0.1515948E+005  0.1043930E+01  0.7957747E-01            NaN
         13   -1    0    0    0    0  0.00000000000E+00  0.00000000000E+00  0.74505805969E-08  0.10566000000E+00  0.10566000000E+00 0. -1.
     999900   -1    0    0    0    0 -0.00000000000E+00 -0.00000000000E+00 -0.74505805969E-08  0.93827000000E+00  0.93827000000E+00 0. -1.
     999902    2    1    2    0    0 -0.13238775094E-01 -0.12004215396E-01 -0.10821517941E-01  0.10230380972E+01  0.10228247536E+01 0.  0.
     999903    2    3    3    0    0  0.51762964609E-01 -0.12257447361E-01  0.11829808228E+00  0.13124374787E+00  0.20020878157E-01 0.  0.
         14    1    1    2    0    0  0.13238775094E-01  0.12004215396E-01  0.10821517941E-01  0.20891902829E-01  0.00000000000E+00 0. -1.
     999901    1    3    3    0    0 -0.65001739703E-01  0.25323196505E-03 -0.12911960022E+00  0.89179434930E+00  0.88000000000E+00 0. -1.
        -11    1    4    4    0    0  0.43573495675E-01 -0.13042607119E-01  0.79620517540E-01  0.91697584811E-01  0.51100000000E-03 0. -1.
         11    1    4    4    0    0  0.81894689341E-02  0.78515975829E-03  0.38677564739E-01  0.39546163055E-01  0.51100000000E-03 0.  1.
</event>
<event>
 8    1  0.1129676E+005  0.1043930E+01  0.7957747E-01            NaN
         13   -1    0    0    0    0  0.00000000000E+00  0.00000000000E+00  0.74505805969E-08  0.10566000000E+00  0.10566000000E+00 0.  1.
     999900   -1    0    0    0    0 -0.00000000000E+00 -0.00000000000E+00 -0.74505805969E-08  0.93827000000E+00  0.93827000000E+00 0. -1.
     999902    2    1    2    0    0 -0.56901111372E-02  0.15726589166E-01 -0.10852675599E-01  0.10239930108E+01  0.10237989073E+01 0.  0.
     999903    2    3    3    0    0  0.57455962799E-01 -0.96727104554E-01  0.64940872461E-01  0.13136883353E+00  0.19573785785E-01 0.  0.
         14    1    1    2    0    0  0.56901111372E-02 -0.15726589166E-01  0.10852675599E-01  0.19936989221E-01  0.00000000000E+00 0.  1.
     999901    1    3    3    0    0 -0.63146073936E-01  0.11245369372E+00 -0.75793548060E-01  0.89262417725E+00  0.88000000000E+00 0. -1.
        -11    1    4    4    0    0  0.28933070063E-01 -0.40500974394E-01  0.38813440304E-01  0.63120485893E-01  0.51100000000E-03 0. -1.
         11    1    4    4    0    0  0.28522892736E-01 -0.56226130161E-01  0.26127432158E-01  0.68248347636E-01  0.51100000000E-03 0.  1.
</event>
<event>
 8    1  0.1129676E+005  0.1043930E+01  0.7957747E-01            NaN
         13   -1    0    0    0    0  0.00000000000E+00  0.00000000000E+00  0.74505805969E-08  0.10566000000E+00  0.10566000000E+00 0. -1.
     999900   -1    0    0    0    0 -0.00000000000E+00 -0.00000000000E+00 -0.74505805969E-08  0.93827000000E+00  0.93827000000E+00 0. -1.
     999902    2    1    2    0    0  0.19927932044E-01  0.16397076646E-01 -0.64938715822E-02  0.10173187812E+01  0.10169706710E+01 0.  0.
     999903    2    3    3    0    0 -0.27772759783E-01 -0.66126143421E-01 -0.10255996855E+00  0.12697382960E+00  0.21443255922E-01 0.  0.
         14    1    1    2    0    0 -0.19927932044E-01 -0.16397076646E-01  0.64938715822E-02  0.26611218803E-01  0.00000000000E+00 0. -1.
     999901    1    3    3    0    0  0.47700691827E-01  0.82523220067E-01  0.96066096966E-01  0.89034495160E+00  0.88000000000E+00 0.  1.
        -11    1    4    4    0    0 -0.20315544726E-01 -0.28519643936E-01 -0.61670333617E-01  0.70919550317E-01  0.51100000000E-03 0.  1.
         11    1    4    4    0    0 -0.74572150567E-02 -0.37606499485E-01 -0.40889634931E-01  0.56054279281E-01  0.51100000000E-03 0. -1.
</event>
<event>
 8    1  0.1129676E+005  0.1043930E+01  0.7957747E-01            NaN
         13   -1    0    0    0    0  0.00000000000E+00  0.00000000000E+00  0.74505805969E-08  0.10566000000E+00  0.10566000000E+00 0.  1.
     999900   -1    0    0    0    0 -0.00000000000E+00 -0.00000000000E+00 -0.74505805969E-08  0.93827000000E+00  0.93827000000E+00 0.  1.
     999902    2    1    2    0    0  0.63450818121E-02 -0.19299379842E-01  0.12384389586E-01  0.10201371601E+01  0.10198596600E+01 0.  0.
     999903    2    3    3    0    0 -0.43402435736E-01  0.10644893866E+00 -0.49861941962E-01  0.12763390469E+00  0.24270401725E-01 0.  0.
         14    1    1    2    0    0 -0.63450818121E-02  0.19299379842E-01 -0.12384389586E-01  0.23792839908E-01  0.00000000000E+00 0. -1.
     999901    1    3    3    0    0  0.49747517548E-01 -0.12574831851E+00  0.62246331547E-01  0.89250325540E+00  0.88000000000E+00 0. -1.
        -11    1    4    4    0    0 -0.31873122680E-01  0.75179962207E-01 -0.23028116528E-01  0.84843844436E-01  0.51100000000E-03 0. -1.
         11    1    4    4    0    0 -0.11529313056E-01  0.31268976458E-01 -0.26833825434E-01  0.42790060256E-01  0.51100000000E-03 0.  1.
</event>
<event>
 8    1  0.1129676E+005  0.1043930E+01  0.7957747E-01            NaN
         13   -1    0    0    0    0  0.00000000000E+00  0.00000000000E+00  0.74505805969E-08  0.10566000000E+00  0.10566000000E+00 0.  1.
     999900   -1    0    0    0    0 -0.00000000000E+00 -0.00000000000E+00 -0.74505805969E-08  0.93827000000E+00  0.93827000000E+00 0.  1.
     999902    2    1    2    0    0 -0.10009832108E-01 -0.17219446841E-01 -0.13252638023E-01  0.10200064028E+01  0.10197258079E+01 0.  0.
     999903    2    3    3    0    0 -0.12357894622E-01 -0.12321642463E+00 -0.44494810398E-01  0.13309211944E+00  0.19967955487E-01 0.  0.
         14    1    1    2    0    0  0.10009832108E-01  0.17219446841E-01  0.13252638023E-01  0.23923597198E-01  0.00000000000E+00 0.  1.
     999901    1    3    3    0    0  0.23480625141E-02  0.10599697779E+00  0.31242172375E-01  0.88691428336E+00  0.88000000000E+00 0.  1.
        -11    1    4    4    0    0 -0.35868341276E-04 -0.78709088081E-01 -0.22039824205E-01  0.81738221201E-01  0.51100000000E-03 0.  1.
         11    1    4    4    0    0 -0.12322026281E-01 -0.44507336549E-01 -0.22454986192E-01  0.51353898238E-01  0.51100000000E-03 0. -1.
</event>
<event>
 8    1  0.1129676E+005  0.1043930E+01  0.7957747E-01            NaN
         13   -1    0    0    0    0  0.00000000000E+00  0.00000000000E+00  0.74505805969E-08  0.10566000000E+00  0.10566000000E+00 0. -1.
     999900   -1    0    0    0    0 -0.00000000000E+00 -0.00000000000E+00 -0.74505805969E-08  0.93827000000E+00  0.93827000000E+00 0. -1.
     999902    2    1    2    0    0 -0.99725330087E-02 -0.27293299471E-02 -0.23358833746E-01  0.10183852203E+01  0.10180647922E+01 0.  0.
     999903    2    3    3    0    0  0.74715414699E-01 -0.98223863935E-01  0.25395178159E-01  0.12784144922E+00  0.21637939491E-01 0.  0.
         14    1    1    2    0    0  0.99725330087E-02  0.27293299471E-02  0.23358833746E-01  0.25544779712E-01  0.00000000000E+00 0. -1.
     999901    1    3    3    0    0 -0.84687947707E-01  0.95494533987E-01 -0.48754011905E-01  0.89054377107E+00  0.88000000000E+00 0.  1.
        -11    1    4    4    0    0  0.61727261650E-01 -0.74729426050E-01  0.11496861643E-01  0.97607278915E-01  0.51100000000E-03 0. -1.
         11    1    4    4    0    0  0.12988153049E-01 -0.23494437884E-01  0.13898316516E-01  0.30234170306E-01  0.51100000000E-03 0.  1.
</event>
<event>
 8    1  0.1157389E+005  0.1043930E+01  0.7957747E-01            NaN
         13   -1    0    0    0    0  0.00000000000E+00  0.00000000000E+00  0.74505805969E-08  0.10566000000E+00  0.10566000000E+00 0. -1.
     999900   -1    0    0    0    0 -0.00000000000E+00 -0.00000000000E+00 -0.74505805969E-08  0.93827000000E+00  0.93827000000E+00 0.  1.
     999902    2    1    2    0    0 -0.23085745391E-01  0.89045493772E-02 -0.49805223304E-02  0.10186901854E+01  0.10183774573E+01 0.  0.
     999903    2    3    3    0    0 -0.12578832341E+00 -0.31323116746E-01 -0.12994070442E-01  0.13176837280E+00  0.19753942772E-01 0.  0.
         14    1    1    2    0    0  0.23085745391E-01 -0.89045493772E-02  0.49805223304E-02  0.25239814630E-01  0.00000000000E+00 0. -1.
     999901    1    3    3    0    0  0.10270257802E+00  0.40227666123E-01  0.80135481119E-02  0.88692181257E+00  0.88000000000E+00 0. -1.
        -11    1    4    4    0    0 -0.58857088359E-01 -0.94060455964E-02  0.24824855645E-02  0.59657810883E-01  0.51100000000E-03 0. -1.
         11    1    4    4    0    0 -0.66931235054E-01 -0.21917071149E-01 -0.15476556007E-01  0.72110561920E-01  0.51100000000E-03 0.  1.
</event>
<event>
 8    1  0.1129676E+005  0.1043930E+01  0.7957747E-01            NaN
         13   -1    0    0    0    0  0.00000000000E+00  0.00000000000E+00  0.74505805969E-08  0.10566000000E+00  0.10566000000E+00 0.  1.
     999900   -1    0    0    0    0 -0.00000000000E+00 -0.00000000000E+00 -0.74505805969E-08  0.93827000000E+00  0.93827000000E+00 0. -1.
     999902    2    1    2    0    0 -0.18560559008E-02 -0.17580012035E-01 -0.15524156027E-01  0.10204033941E+01  0.10201321412E+01 0.  0.
     999903    2    3    3    0    0 -0.11694066395E+00 -0.51560141504E-01  0.23006429765E-01  0.13142436042E+00  0.20236097066E-01 0.  0.
         14    1    1    2    0    0  0.18560559008E-02  0.17580012035E-01  0.15524156027E-01  0.23526605939E-01  0.00000000000E+00 0. -1.
     999901    1    3    3    0    0  0.11508460805E+00  0.33980129470E-01 -0.38530585792E-01  0.88897903364E+00  0.88000000000E+00 0. -1.
        -11    1    4    4    0    0 -0.42845308270E-01 -0.10658438705E-01  0.18955082009E-02  0.44194760195E-01  0.51100000000E-03 0. -1.
         11    1    4    4    0    0 -0.74095355681E-01 -0.40901702799E-01  0.21110921564E-01  0.87229600226E-01  0.51100000000E-03 0.  1.
</event>
<event>
 8    1  0.1129676E+005  0.1043930E+01  0.7957747E-01            NaN
         13   -1    0    0    0    0  0.00000000000E+00  0.00000000000E+00  0.74505805969E-08  0.10566000000E+00  0.10566000000E+00 0.  1.
     999900   -1    0    0    0    0 -0.00000000000E+00 -0.00000000000E+00 -0.74505805969E-08  0.93827000000E+00  0.93827000000E+00 0. -1.
     999902    2    1    2    0    0 -0.89437829165E-02 -0.15144040894E-01 -0.15601866755E-01  0.10204193328E+01  0.10201484516E+01 0.  0.
     999903    2    3    3    0    0  0.11414559464E+00 -0.77110009853E-02  0.56411400383E-01  0.12890816874E+00  0.18611651268E-01 0.  0.
         14    1    1    2    0    0  0.89437829165E-02  0.15144040894E-01  0.15601866755E-01  0.23510667232E-01  0.00000000000E+00 0.  1.
     999901    1    3    3    0    0 -0.12308937755E+00 -0.74330399090E-02 -0.72013267138E-01  0.89151116403E+00  0.88000000000E+00 0. -1.
        -11    1    4    4    0    0  0.41659311206E-01 -0.11731360055E-01  0.22435426332E-01  0.48751743503E-01  0.51100000000E-03 0. -1.
         11    1    4    4    0    0  0.72486283430E-01  0.40203590696E-02  0.33975974051E-01  0.80156425234E-01  0.51100000000E-03 0.  1.
</event>
<event>
 8    1  0.1187732E+005  0.1043930E+01  0.7957747E-01            NaN
         13   -1    0    0    0    0  0.00000000000E+00  0.00000000000E+00  0.74505805969E-08  0.10566000000E+00  0.10566000000E+00 0.  1.
     999900   -1    0    0    0    0 -0.00000000000E+00 -0.00000000000E+00 -0.74505805969E-08  0.93827000000E+00  0.93827000000E+00 0.  1.
     999902    2    1    2    0    0 -0.12870782000E-02  0.27617409617E-01 -0.71003576600E-02  0.10153854215E+01  0.10149841187E+01 0.  0.
     999903    2    3    3    0    0  0.16794927470E-01  0.44831927579E-01  0.11569350661E+00  0.12650880931E+00  0.18097514812E-01 0.  0.
         14    1    1    2    0    0  0.12870782000E-02 -0.27617409617E-01  0.71003576600E-02  0.28544578525E-01  0.00000000000E+00 0. -1.
     999901    1    3    3    0    0 -0.18082005670E-01 -0.17214517962E-01 -0.12279386427E+00  0.88887661217E+00  0.88000000000E+00 0.  1.
        -11    1    4    4    0    0  0.33768206078E-02  0.31525526118E-01  0.81249501758E-01  0.87218142444E-01  0.51100000000E-03 0. -1.
         11    1    4    4    0    0  0.13418106862E-01  0.13306401460E-01  0.34444004848E-01  0.39290666863E-01  0.51100000000E-03 0.  1.
</event>
<event>
 8    1  0.1129676E+005  0.1043930E+01  0.7957747E-01            NaN
         13   -1    0    0    0    0  0.00000000000E+00  0.00000000000E+00  0.74505805969E-08  0.10566000000E+00  0.10566000000E+00 0.  1.
     999900   -1    0    0    0    0 -0.00000000000E+00 -0.00000000000E+00 -0.74505805969E-08  0.93827000000E+00  0.93827000000E+00 0.  1.
     999902    2    1    2    0    0 -0.16267470843E-01  0.57154095614E-02  0.21319371678E-01  0.10165108074E+01  0.10161409398E+01 0.  0.
     999903    2    3    3    0    0 -0.73920896186E-01  0.85202941217E-01 -0.56465514361E-01  0.12763923420E+00  0.19482805518E-01 0.  0.
         14    1    1    2    0    0  0.16267470843E-01 -0.57154095614E-02 -0.21319371678E-01  0.27419192600E-01  0.00000000000E+00 0. -1.
     999901    1    3    3    0    0  0.57653425342E-01 -0.79487531655E-01  0.77784886039E-01  0.88887157320E+00  0.88000000000E+00 0.  1.
        -11    1    4    4    0    0 -0.52818106478E-01  0.47507166711E-01 -0.31209187911E-01  0.77594830961E-01  0.51100000000E-03 0.  1.
         11    1    4    4    0    0 -0.21102789708E-01  0.37695774506E-01 -0.25256326450E-01  0.50044403242E-01  0.51100000000E-03 0. -1.
</event>
<event>
 8    1  0.1129676E+005  0.1043930E+01  0.7957747E-01            NaN
         13   -1    0    0    0    0  0.00000000000E+00  0.00000000000E+00  0.74505805969E-08  0.10566000000E+00  0.10566000000E+00 0.  1.
     999900   -1    0    0    0    0 -0.00000000000E+00 -0.00000000000E+00 -0.74505805969E-08  0.93827000000E+00  0.93827000000E+00 0. -1.
     999902    2    1    2    0    0 -0.17853827681E-01  0.27236967095E-02  0.18871050788E-01  0.10178092373E+01  0.10174740042E+01 0.  0.
     999903    2    3    3    0    0  0.72264121360E-01 -0.75908522980E-01 -0.66498073818E-01  0.12562531110E+00  0.19378283496E-01 0.  0.
         14    1    1    2    0    0  0.17853827681E-01 -0.27236967095E-02 -0.18871050788E-01  0.26120762709E-01  0.00000000000E+00 0. -1.
     999901    1    3    3    0    0 -0.90117949041E-01  0.78632219690E-01  0.85369124607E-01  0.89218392619E+00  0.88000000000E+00 0.  1.
        -11    1    4    4    0    0  0.45228334824E-01 -0.34702850310E-01 -0.31065913015E-01  0.64924896327E-01  0.51100000000E-03 0. -1.
         11    1    4    4    0    0  0.27035786536E-01 -0.41205672670E-01 -0.35432160804E-01  0.60700414776E-01  0.51100000000E-03 0.  1.
</event>
<event>
 8    1  0.1129676E+005  0.1043930E+01  0.7957747E-01            NaN
         13   -1    0    0    0    0  0.00000000000E+00  0.00000000000E+00  0.74505805969E-08  0.10566000000E+00  0.10566000000E+00 0. -1.
     999900   -1    0    0    0    0 -0.00000000000E+00 -0.00000000000E+00 -0.74505805969E-08  0.93827000000E+00  0.93827000000E+00 0.  1.
     999902    2    1    2    0    0 -0.19234585549E-01  0.93785374806E-02 -0.97082802887E-02  0.10204315542E+01  0.10201609579E+01 0.  0.
     999903    2    3    3    0    0  0.94541288917E-01  0.70853908578E-01 -0.53322778201E-01  0.12991125954E+00  0.86766934384E-02 0.  0.
         14    1    1    2    0    0  0.19234585549E-01 -0.93785374806E-02  0.97082802887E-02  0.23498445751E-01  0.00000000000E+00 0. -1.
     999901    1    3    3    0    0 -0.11377587447E+00 -0.61475371098E-01  0.43614497913E-01  0.89052029471E+00  0.88000000000E+00 0. -1.
        -11    1    4    4    0    0  0.46658109503E-01  0.39345645045E-01 -0.24750446564E-01  0.65862771673E-01  0.51100000000E-03 0.  1.
         11    1    4    4    0    0  0.47883179415E-01  0.31508263533E-01 -0.28572331637E-01  0.64048487866E-01  0.51100000000E-03 0. -1.
</event>
<event>
 8    1  0.1129676E+005  0.1043930E+01  0.7957747E-01            NaN
         13   -1    0    0    0    0  0.00000000000E+00  0.00000000000E+00  0.74505805969E-08  0.10566000000E+00  0.10566000000E+00 0. -1.
     999900   -1    0    0    0    0 -0.00000000000E+00 -0.00000000000E+00 -0.74505805969E-08  0.93827000000E+00  0.93827000000E+00 0. -1.
     999902    2    1    2    0    0  0.21636937730E-02 -0.22828533120E-01  0.61759425677E-02  0.10201820367E+01  0.10199055948E+01 0.  0.
     999903    2    3    3    0    0  0.23907366138E-01  0.52335701096E-01  0.11496879567E+00  0.13003691690E+00  0.19524036813E-01 0.  0.
         14    1    1    2    0    0 -0.21636937730E-02  0.22828533120E-01 -0.61759425677E-02  0.23747963318E-01  0.00000000000E+00 0.  1.
     999901    1    3    3    0    0 -0.21743672365E-01 -0.75164234215E-01 -0.10879285310E+00  0.89014511979E+00  0.88000000000E+00 0. -1.
        -11    1    4    4    0    0  0.26230949420E-01  0.46609606175E-01  0.10907031006E+00  0.12147885311E+00  0.51100000000E-03 0. -1.
         11    1    4    4    0    0 -0.23235832821E-02  0.57260949209E-02  0.58984856136E-02  0.85580637907E-02  0.51100000000E-03 0.  1.
</event>
<event>
 8    1  0.1129676E+005  0.1043930E+01  0.7957747E-01            NaN
         13   -1    0    0    0    0  0.00000000000E+00  0.00000000000E+00  0.74505805969E-08  0.10566000000E+00  0.10566000000E+00 0. -1.
     999900   -1    0    0    0    0 -0.00000000000E+00 -0.00000000000E+00 -0.74505805969E-08  0.93827000000E+00  0.93827000000E+00 0. -1.
     999902    2    1    2    0    0 -0.11416188400E-01  0.38700270952E-02 -0.20691623801E-01  0.10199831889E+01  0.10197020427E+01 0.  0.
     999903    2    3    3    0    0 -0.11658154409E+00 -0.24801186295E-01  0.49095120960E-01  0.13051594369E+00  0.20438331440E-01 0.  0.
         14    1    1    2    0    0  0.11416188400E-01 -0.38700270952E-02  0.20691623801E-01  0.23946811120E-01  0.00000000000E+00 0. -1.
     999901    1    3    3    0    0  0.10516535569E+00  0.28671213390E-01 -0.69786744760E-01  0.88946724519E+00  0.88000000000E+00 0.  1.
        -11    1    4    4    0    0 -0.52077889066E-01 -0.17939084903E-01  0.30828584528E-01  0.63123530017E-01  0.51100000000E-03 0. -1.
         11    1    4    4    0    0 -0.64503655024E-01 -0.68621013916E-02  0.18266536432E-01  0.67392413677E-01  0.51100000000E-03 0.  1.
</event>
<event>
 8    1  0.1318925E+005  0.1043930E+01  0.7957747E-01            NaN
         13   -1    0    0    0    0  0.00000000000E+00  0.00000000000E+00  0.74505805969E-08  0.10566000000E+00  0.10566000000E+00 0.  1.
     999900   -1    0    0    0    0 -0.00000000000E+00 -0.00000000000E+00 -0.74505805969E-08  0.93827000000E+00  0.93827000000E+00 0. -1.
     999902    2    1    2    0    0  0.62344722911E-02 -0.65398293433E-02 -0.22263900111E-01  0.10199025311E+01  0.10196194652E+01 0.  0.
     999903    2    3    3    0    0 -0.12818423587E-01 -0.31050586489E-01  0.12158665479E+00  0.12768239449E+00  0.19774436427E-01 0.  0.
         14    1    1    2    0    0 -0.62344722911E-02  0.65398293433E-02  0.22263900111E-01  0.24027468879E-01  0.00000000000E+00 0.  1.
     999901    1    3    3    0    0  0.19052895878E-01  0.24510757146E-01 -0.14385055490E+00  0.89222013663E+00  0.88000000000E+00 0. -1.
        -11    1    4    4    0    0 -0.11919040621E-01 -0.25952432472E-01  0.66815294137E-01  0.72664550726E-01  0.51100000000E-03 0. -1.
         11    1    4    4    0    0 -0.89938296587E-03 -0.50981540177E-02  0.54771360653E-01  0.55017843768E-01  0.51100000000E-03 0.  1.
</event>
<event>
 8    1  0.1129676E+005  0.1043930E+01  0.7957747E-01            NaN
         13   -1    0    0    0    0  0.00000000000E+00  0.00000000000E+00  0.74505805969E-08  0.10566000000E+00  0.10566000000E+00 0.  1.
     999900   -1    0    0    0    0 -0.00000000000E+00 -0.00000000000E+00 -0.74505805969E-08  0.93827000000E+00  0.93827000000E+00 0.  1.
     999902    2    1    2    0    0 -0.12359005883E-01  0.17792564589E-01  0.10152102129E-01  0.10200054194E+01  0.10197248011E+01 0.  0.
     999903    2    3    3    0    0  0.11808854250E+00 -0.37833704662E-01 -0.23368212781E-01  0.12802197993E+00  0.21616218393E-01 0.  0.
         14    1    1    2    0    0  0.12359005883E-01 -0.17792564589E-01 -0.10152102129E-01  0.23924580637E-01  0.00000000000E+00 0. -1.
     999901    1    3    3    0    0 -0.13044754839E+00  0.55626269251E-01  0.33520314909E-01  0.89198343943E+00  0.88000000000E+00 0. -1.
        -11    1    4    4    0    0  0.71524312979E-01 -0.20695725121E-01 -0.34101336376E-02  0.74538114531E-01  0.51100000000E-03 0. -1.
         11    1    4    4    0    0  0.46564229524E-01 -0.17137979541E-01 -0.19958079143E-01  0.53483865399E-01  0.51100000000E-03 0.  1.
</event>
<event>
 8    1  0.1129676E+005  0.1043930E+01  0.7957747E-01            NaN
         13   -1    0    0    0    0  0.00000000000E+00  0.00000000000E+00  0.74505805969E-08  0.10566000000E+00  0.10566000000E+00 0.  1.
     999900   -1    0    0    0    0 -0.00000000000E+00 -0.00000000000E+00 -0.74505805969E-08  0.93827000000E+00  0.93827000000E+00 0.  1.
     999902    2    1    2    0    0 -0.21553605142E-01 -0.88899161812E-02  0.52653505687E-02  0.10200278574E+01  0.10197477715E+01 0.  0.
     999903    2    3    3    0    0  0.61630636838E-01 -0.91090107528E-01  0.66511354872E-01  0.13018092527E+00  0.20677763211E-01 0.  0.
         14    1    1    2    0    0  0.21553605142E-01  0.88899161812E-02 -0.52653505687E-02  0.23902142602E-01  0.00000000000E+00 0. -1.
     999901    1    3    3    0    0 -0.83184241981E-01  0.82200191346E-01 -0.61246004303E-01  0.88984693213E+00  0.88000000000E+00 0.  1.
        -11    1    4    4    0    0  0.40673085270E-01 -0.56497337010E-01  0.30427624084E-01  0.75975985568E-01  0.51100000000E-03 0. -1.
         11    1    4    4    0    0  0.20957551568E-01 -0.34592770518E-01  0.36083730787E-01  0.54204939704E-01  0.51100000000E-03 0.  1.
</event>
<event>
 8    1  0.1129676E+005  0.1043930E+01  0.7957747E-01            NaN
         13   -1    0    0    0    0  0.00000000000E+00  0.00000000000E+00  0.74505805969E-08  0.10566000000E+00  0.10566000000E+00 0.  1.
     999900   -1    0    0    0    0 -0.00000000000E+00 -0.00000000000E+00 -0.74505805969E-08  0.93827000000E+00  0.93827000000E+00 0. -1.
     999902    2    1    2    0    0 -0.14191809435E-01 -0.13411455749E-01  0.11955940681E-01  0.10210341681E+01  0.10207774260E+01 0.  0.
     999903    2    3    3    0    0  0.12754650167E+00 -0.12009663362E-01 -0.66856457918E-02  0.12949660715E+00  0.17672897382E-01 0.  0.
         14    1    1    2    0    0  0.14191809435E-01  0.13411455749E-01 -0.11955940681E-01  0.22895831890E-01  0.00000000000E+00 0. -1.
     999901    1    3    3    0    0 -0.14173831110E+00 -0.14017923869E-02  0.18641586473E-01  0.89153756096E+00  0.88000000000E+00 0.  1.
        -11    1    4    4    0    0  0.50694455497E-02  0.13040983515E-02 -0.33815734322E-02  0.62526882674E-02  0.51100000000E-03 0. -1.
         11    1    4    4    0    0  0.12247705612E+00 -0.13313761714E-01 -0.33040723596E-02  0.12324391888E+00  0.51100000000E-03 0.  1.
</event>
<event>
 8    1  0.1129676E+005  0.1043930E+01  0.7957747E-01            NaN
         13   -1    0    0    0    0  0.00000000000E+00  0.00000000000E+00  0.74505805969E-08  0.10566000000E+00  0.10566000000E+00 0.  1.
     999900   -1    0    0    0    0 -0.00000000000E+00 -0.00000000000E+00 -0.74505805969E-08  0.93827000000E+00  0.93827000000E+00 0. -1.
     999902    2    1    2    0    0  0.12789062412E-01 -0.28405919383E-02  0.20060868736E-01  0.10199702935E+01  0.10196888408E+01 0.  0.
     999903    2    3    3    0    0  0.31060733501E-01 -0.12382542445E+00  0.24606121001E-01  0.13149303271E+00  0.19683789130E-01 0.  0.
         14    1    1    2    0    0 -0.12789062412E-01  0.28405919383E-02 -0.20060868736E-01  0.23959706475E-01  0.00000000000E+00 0. -1.
     999901    1    3    3    0    0 -0.18271671090E-01  0.12098483251E+00 -0.45452522652E-02  0.88847726081E+00  0.88000000000E+00 0. -1.
        -11    1    4    4    0    0  0.18870367100E-01 -0.10529305268E+00  0.21002051487E-01  0.10901405865E+00  0.51100000000E-03 0.  1.
         11    1    4    4    0    0  0.12190366401E-01 -0.18532371775E-01  0.36040695146E-02  0.22478974057E-01  0.51100000000E-03 0. -1.
</event>
<event>
 7    1  0.1129676E+005  0.1043930E+01  0.7957747E-01            NaN
         13   -1    0    0    0    0  0.00000000000E+00  0.00000000000E+00  0.74505805969E-08  0.10566000000E+00  0.10566000000E+00 0. -1.
     999900   -1    0    0    0    0 -0.00000000000E+00 -0.00000000000E+00 -0.74505805969E-08  0.93827000000E+00  0.93827000000E+00 0.  1.
     999903    2    1    2    0    0  0.52318595339E-02  0.71694584076E-01  0.88269239800E-01  0.11559903672E+00  0.20104548128E-01 0.  0.
         14    1    1    2    0    0 -0.13220834386E-01 -0.35909920317E-01 -0.24121589304E-01  0.45234543323E-01  0.00000000000E+00 0.  1.
     999901    1    1    2    0    0  0.79889748522E-02 -0.35784663759E-01 -0.64147650495E-01  0.88309641996E+00  0.88000000000E+00 0.  1.
        -11    1    3    3    0    0 -0.62014130543E-02  0.98066137090E-02  0.11740335882E-01  0.16514351453E-01  0.51100000000E-03 0.  1.
         11    1    3    3    0    0  0.11433272588E-01  0.61887970367E-01  0.76528903918E-01  0.99084685266E-01  0.51100000000E-03 0. -1.
</event>
<event>
 8    1  0.1129676E+005  0.1043930E+01  0.7957747E-01            NaN
         13   -1    0    0    0    0  0.00000000000E+00  0.00000000000E+00  0.74505805969E-08  0.10566000000E+00  0.10566000000E+00 0. -1.
     999900   -1    0    0    0    0 -0.00000000000E+00 -0.00000000000E+00 -0.74505805969E-08  0.93827000000E+00  0.93827000000E+00 0. -1.
     999902    2    1    2    0    0  0.11742216690E-02 -0.17631684506E-02  0.24566362940E-01  0.10192724708E+01  0.10189741782E+01 0.  0.
     999903    2    3    3    0    0 -0.28608104690E-01  0.10578451892E+00  0.69083139824E-01  0.13110850199E+00  0.20203242053E-01 0.  0.
         14    1    1    2    0    0 -0.11742216690E-02  0.17631684506E-02 -0.24566362940E-01  0.24657529228E-01  0.00000000000E+00 0.  1.
     999901    1    3    3    0    0  0.29782326359E-01 -0.10754768737E+00 -0.44516776884E-01  0.88816396878E+00  0.88000000000E+00 0. -1.
        -11    1    4    4    0    0  0.90426360625E-03  0.28121631047E-01  0.14061621131E-01  0.31458450935E-01  0.51100000000E-03 0. -1.
         11    1    4    4    0    0 -0.29512368296E-01  0.77662887870E-01  0.55021518693E-01  0.99650051054E-01  0.51100000000E-03 0.  1.
</event>
<event>
 8    1  0.1129676E+005  0.1043930E+01  0.7957747E-01            NaN
         13   -1    0    0    0    0  0.00000000000E+00  0.00000000000E+00  0.74505805969E-08  0.10566000000E+00  0.10566000000E+00 0. -1.
     999900   -1    0    0    0    0 -0.00000000000E+00 -0.00000000000E+00 -0.74505805969E-08  0.93827000000E+00  0.93827000000E+00 0.  1.
     999902    2    1    2    0    0  0.23140261904E-01  0.42351996871E-02  0.19526083322E-02  0.10203244643E+01  0.10200513669E+01 0.  0.
     999903    2    3    3    0    0  0.95753739682E-01  0.51661279540E-01 -0.73358941626E-01  0.13285965948E+00  0.20796353841E-01 0.  0.
         14    1    1    2    0    0 -0.23140261904E-01 -0.42351996871E-02 -0.19526083322E-02  0.23605535721E-01  0.00000000000E+00 0.  1.
     999901    1    3    3    0    0 -0.72613477778E-01 -0.47426079853E-01  0.75311549958E-01  0.88746480480E+00  0.88000000000E+00 0. -1.
        -11    1    4    4    0    0  0.69831269272E-01  0.47518178992E-01 -0.54292111742E-01  0.10041054736E+00  0.51100000000E-03 0. -1.
         11    1    4    4    0    0  0.25922470410E-01  0.41431005475E-02 -0.19066829884E-01  0.32449112116E-01  0.51100000000E-03 0.  1.
</event>
<event>
 8    1  0.1129676E+005  0.1043930E+01  0.7957747E-01            NaN
         13   -1    0    0    0    0  0.00000000000E+00  0.00000000000E+00  0.74505805969E-08  0.10566000000E+00  0.10566000000E+00 0. -1.
     999900   -1    0    0    0    0 -0.00000000000E+00 -0.00000000000E+00 -0.74505805969E-08  0.93827000000E+00  0.93827000000E+00 0.  1.
     999902    2    1    2    0    0  0.14119844851E-01 -0.99768414036E-02 -0.15415360843E-01  0.10207666511E+01  0.10205038046E+01 0.  0.
     999903    2    3    3    0    0 -0.18017327762E-01 -0.12477405127E+00 -0.35264661492E-01  0.13250700887E+00  0.20526155983E-01 0.  0.
         14    1    1    2    0    0 -0.14119844851E-01  0.99768414036E-02  0.15415360843E-01  0.23163348914E-01  0.00000000000E+00 0. -1.
     999901    1    3    3    0    0  0.32137172613E-01  0.11479720987E+00  0.19849300650E-01  0.88825964222E+00  0.88000000000E+00 0. -1.
        -11    1    4    4    0    0 -0.15157332357E-01 -0.64129973670E-01 -0.96109237300E-02  0.66596015069E-01  0.51100000000E-03 0. -1.
         11    1    4    4    0    0 -0.28599954053E-02 -0.60644077599E-01 -0.25653737762E-01  0.65910993800E-01  0.51100000000E-03 0.  1.
</event>
<event>
 8    1  0.1129676E+005  0.1043930E+01  0.7957747E-01            NaN
         13   -1    0    0    0    0  0.00000000000E+00  0.00000000000E+00  0.74505805969E-08  0.10566000000E+00  0.10566000000E+00 0.  1.
     999900   -1    0    0    0    0 -0.00000000000E+00 -0.00000000000E+00 -0.74505805969E-08  0.93827000000E+00  0.93827000000E+00 0.  1.
     999902    2    1    2    0    0  0.42931872320E-02  0.13227499926E-01  0.18007848946E-01  0.10211773994E+01  0.10209238954E+01 0.  0.
     999903    2    3    3    0    0 -0.71188199695E-01  0.75798026227E-01 -0.76535732920E-01  0.13069943818E+00  0.20286058518E-01 0.  0.
         14    1    1    2    0    0 -0.42931872320E-02 -0.13227499926E-01 -0.18007848946E-01  0.22752600611E-01  0.00000000000E+00 0. -1.
     999901    1    3    3    0    0  0.75481386927E-01 -0.62570526301E-01  0.94543581866E-01  0.89047796121E+00  0.88000000000E+00 0. -1.
        -11    1    4    4    0    0 -0.25653752703E-01  0.41857184185E-01 -0.37605393722E-01  0.61843072802E-01  0.51100000000E-03 0.  1.
         11    1    4    4    0    0 -0.45534446992E-01  0.33940842041E-01 -0.38930339198E-01  0.68856365374E-01  0.51100000000E-03 0. -1.
</event>
<event>
 8    1  0.1129676E+005  0.1043930E+01  0.7957747E-01            NaN
         13   -1    0    0    0    0  0.00000000000E+00  0.00000000000E+00  0.74505805969E-08  0.10566000000E+00  0.10566000000E+00 0.  1.
     999900   -1    0    0    0    0 -0.00000000000E+00 -0.00000000000E+00 -0.74505805969E-08  0.93827000000E+00  0.93827000000E+00 0. -1.
     999902    2    1    2    0    0 -0.85119289364E-02  0.14747084810E-01  0.10528769486E-01  0.10239103988E+01  0.10237146675E+01 0.  0.
     999903    2    3    3    0    0 -0.11421036169E+00 -0.22084107064E-01  0.65884792917E-01  0.13509490350E+00  0.19445115358E-01 0.  0.
         14    1    1    2    0    0  0.85119289364E-02 -0.14747084810E-01 -0.10528769486E-01  0.20019601182E-01  0.00000000000E+00 0. -1.
     999901    1    3    3    0    0  0.10569843276E+00  0.36831191874E-01 -0.55356023431E-01  0.88881549532E+00  0.88000000000E+00 0. -1.
        -11    1    4    4    0    0 -0.11072591663E-01  0.34914283131E-02  0.77614670012E-02  0.13974757558E-01  0.51100000000E-03 0.  1.
         11    1    4    4    0    0 -0.10313777003E+00 -0.25575535377E-01  0.58123325916E-01  0.12112014594E+00  0.51100000000E-03 0. -1.
</event>
<event>
 8    1  0.1129676E+005  0.1043930E+01  0.7957747E-01            NaN
         13   -1    0    0    0    0  0.00000000000E+00  0.00000000000E+00  0.74505805969E-08  0.10566000000E+00  0.10566000000E+00 0.  1.
     999900   -1    0    0    0    0 -0.00000000000E+00 -0.00000000000E+00 -0.74505805969E-08  0.93827000000E+00  0.93827000000E+00 0.  1.
     999902    2    1    2    0    0 -0.42299213728E-02 -0.22703057472E-01 -0.69773099200E-02  0.10198052429E+01  0.10195198524E+01 0.  0.
     999903    2    3    3    0    0 -0.43240156556E-01 -0.53711016615E-01 -0.11075551919E+00  0.13230695627E+00  0.21994572083E-01 0.  0.
         14    1    1    2    0    0  0.42299213728E-02  0.22703057472E-01  0.69773099200E-02  0.24124757141E-01  0.00000000000E+00 0.  1.
     999901    1    3    3    0    0  0.39010235183E-01  0.31007959142E-01  0.10377820927E+00  0.88749828659E+00  0.88000000000E+00 0. -1.
        -11    1    4    4    0    0 -0.15817530464E-01 -0.12375484896E-01 -0.49910845531E-01  0.53802421125E-01  0.51100000000E-03 0.  1.
         11    1    4    4    0    0 -0.27422626092E-01 -0.41335531719E-01 -0.60844673661E-01  0.78504535144E-01  0.51100000000E-03 0. -1.
</event>
<event>
 8    1  0.1129676E+005  0.1043930E+01  0.7957747E-01            NaN
         13   -1    0    0    0    0  0.00000000000E+00  0.00000000000E+00  0.74505805969E-08  0.10566000000E+00  0.10566000000E+00 0. -1.
     999900   -1    0    0    0    0 -0.00000000000E+00 -0.00000000000E+00 -0.74505805969E-08  0.93827000000E+00  0.93827000000E+00 0. -1.
     999902    2    1    2    0    0 -0.16596347114E-01 -0.17412439367E-01 -0.12567599039E-01  0.10167900603E+01  0.10164277891E+01 0.  0.
     999903    2    3    3    0    0 -0.78012242727E-01  0.96819942909E-01  0.15453448892E-01  0.12684279863E+00  0.19755382093E-01 0.  0.
         14    1    1    2    0    0  0.16596347114E-01  0.17412439367E-01  0.12567599039E-01  0.27139939717E-01  0.00000000000E+00 0. -1.
     999901    1    3    3    0    0  0.61415895613E-01 -0.11423238228E+00 -0.28021047931E-01  0.88994726165E+00  0.88000000000E+00 0. -1.
        -11    1    4    4    0    0 -0.57942987619E-01  0.58812604280E-01  0.14646261397E-01  0.83851573213E-01  0.51100000000E-03 0.  1.
         11    1    4    4    0    0 -0.20069255109E-01  0.38007338630E-01  0.80718749449E-03  0.42991225418E-01  0.51100000000E-03 0. -1.
</event>
<event>
 8    1  0.1129676E+005  0.1043930E+01  0.7957747E-01            NaN
         13   -1    0    0    0    0  0.00000000000E+00  0.00000000000E+00  0.74505805969E-08  0.10566000000E+00  0.10566000000E+00 0.  1.
     999900   -1    0    0    0    0 -0.00000000000E+00 -0.00000000000E+00 -0.74505805969E-08  0.93827000000E+00  0.93827000000E+00 0. -1.
     999902    2    1    2    0    0  0.13313151839E-01 -0.18829249294E-01 -0.38570314428E-02  0.10205492957E+01  0.10202814355E+01 0.  0.
     999903    2    3    3    0    0 -0.60501175130E-01  0.75146433822E-01  0.82702941513E-01  0.12826424441E+00  0.17451680452E-01 0.  0.
         14    1    1    2    0    0 -0.13313151839E-01  0.18829249294E-01  0.38570314428E-02  0.23380704275E-01  0.00000000000E+00 0. -1.
     999901    1    3    3    0    0  0.73814326969E-01 -0.93975683116E-01 -0.86559972956E-01  0.89228505132E+00  0.88000000000E+00 0. -1.
        -11    1    4    4    0    0 -0.35312024193E-01  0.47205544984E-01  0.60991895046E-01  0.84826734655E-01  0.51100000000E-03 0. -1.
         11    1    4    4    0    0 -0.25189150937E-01  0.27940888837E-01  0.21711046467E-01  0.43437509754E-01  0.51100000000E-03 0.  1.
</event>
<event>
 8    1  0.1129676E+005  0.1043930E+01  0.7957747E-01            NaN
         13   -1    0    0    0    0  0.00000000000E+00  0.00000000000E+00  0.74505805969E-08  0.10566000000E+00  0.10566000000E+00 0. -1.
     999900   -1    0    0    0    0 -0.00000000000E+00 -0.00000000000E+00 -0.74505805969E-08  0.93827000000E+00  0.93827000000E+00 0. -1.
     999902    2    1    2    0    0 -0.50819318029E-02 -0.18795566760E-01 -0.13658141432E-01  0.10201467246E+01  0.10198694503E+01 0.  0.
     999903    2    3    3    0    0  0.11867141752E+00 -0.30671799857E-01  0.38338659419E-01  0.12988855774E+00  0.19429873460E-01 0.  0.
         14    1    1    2    0    0  0.50819318029E-02  0.18795566760E-01  0.13658141432E-01  0.23783275386E-01  0.00000000000E+00 0. -1.
     999901    1    3    3    0    0 -0.12375334933E+00  0.11876233097E-01 -0.51996800851E-01  0.89025816687E+00  0.88000000000E+00 0. -1.
        -11    1    4    4    0    0  0.60696263080E-01 -0.65190101766E-02  0.22992153204E-01  0.65233688195E-01  0.51100000000E-03 0.  1.
         11    1    4    4    0    0  0.57975154445E-01 -0.24152789681E-01  0.15346506214E-01  0.64654869548E-01  0.51100000000E-03 0. -1.
</event>
<event>
 8    1  0.1129676E+005  0.1043930E+01  0.7957747E-01            NaN
         13   -1    0    0    0    0  0.00000000000E+00  0.00000000000E+00  0.74505805969E-08  0.10566000000E+00  0.10566000000E+00 0.  1.
     999900   -1    0    0    0    0 -0.00000000000E+00 -0.00000000000E+00 -0.74505805969E-08  0.93827000000E+00  0.93827000000E+00 0.  1.
     999902    2    1    2    0    0 -0.24732933204E-02 -0.10517806785E-01 -0.22729137944E-01  0.10187634517E+01  0.10184525593E+01 0.  0.
     999903    2    3    3    0    0 -0.21584331697E-01  0.12435748062E+00  0.36002237586E-02  0.12789319731E+00  0.20323433480E-01 0.  0.
         14    1    1    2    0    0  0.24732933204E-02  0.10517806785E-01  0.22729137944E-01  0.25166548256E-01  0.00000000000E+00 0.  1.
     999901    1    3    3    0    0  0.19111038377E-01 -0.13487528740E+00 -0.26329361703E-01  0.89087025443E+00  0.88000000000E+00 0. -1.
        -11    1    4    4    0    0 -0.38820721495E-02  0.74194816472E-01 -0.25501071456E-02  0.74341814903E-01  0.51100000000E-03 0. -1.
         11    1    4    4    0    0 -0.17702259548E-01  0.50162664143E-01  0.61503309042E-02  0.53551382412E-01  0.51100000000E-03 0.  1.
</event>
<event>
 8    1  0.1129676E+005  0.1043930E+01  0.7957747E-01            NaN
         13   -1    0    0    0    0  0.00000000000E+00  0.00000000000E+00  0.74505805969E-08  0.10566000000E+00  0.10566000000E+00 0. -1.
     999900   -1    0    0    0    0 -0.00000000000E+00 -0.00000000000E+00 -0.74505805969E-08  0.93827000000E+00  0.93827000000E+00 0.  1.
     999902    2    1    2    0    0 -0.18497846314E-01 -0.16355917723E-01 -0.61606060799E-02  0.10184812391E+01  0.10181632458E+01 0.  0.
     999903    2    3    3    0    0  0.84865929168E-01 -0.93913935042E-01 -0.14349867560E-01  0.12900589931E+00  0.20360506613E-01 0.  0.
         14    1    1    2    0    0  0.18497846314E-01  0.16355917723E-01  0.61606060799E-02  0.25448760876E-01  0.00000000000E+00 0. -1.
     999901    1    3    3    0    0 -0.10336377548E+00  0.77558017318E-01  0.81892614797E-02  0.88947533981E+00  0.88000000000E+00 0. -1.
        -11    1    4    4    0    0  0.48608757901E-01 -0.57408345880E-01 -0.18241513017E-01  0.77405060813E-01  0.51100000000E-03 0.  1.
         11    1    4    4    0    0  0.36257171267E-01 -0.36505589162E-01  0.38916454573E-02  0.51600838498E-01  0.51100000000E-03 0. -1.
</event>
<event>
 7    1  0.1129676E+005  0.1043930E+01  0.7957747E-01            NaN
         13   -1    0    0    0    0  0.00000000000E+00  0.00000000000E+00  0.74505805969E-08  0.10566000000E+00  0.10566000000E+00 0.  1.
     999900   -1    0    0    0    0 -0.00000000000E+00 -0.00000000000E+00 -0.74505805969E-08  0.93827000000E+00  0.93827000000E+00 0.  1.
     999903    2    1    2    0    0 -0.48693447406E-01  0.98040036340E-01  0.35268183644E-01  0.11619775779E+00  0.16588357099E-01 0.  0.
         14    1    1    2    0    0  0.38165101018E-01 -0.20953555534E-01 -0.43993307283E-02  0.43760490583E-01  0.00000000000E+00 0. -1.
     999901    1    1    2    0    0  0.10528346388E-01 -0.77086480806E-01 -0.30868852916E-01  0.88397175163E+00  0.88000000000E+00 0.  1.
        -11    1    3    3    0    0 -0.17050048057E-01  0.32996968779E-01  0.38797264287E-02  0.37347255395E-01  0.51100000000E-03 0.  1.
         11    1    3    3    0    0 -0.31643399349E-01  0.65043067560E-01  0.31388457215E-01  0.78850502391E-01  0.51100000000E-03 0. -1.
</event>
<event>
 8    1  0.1129676E+005  0.1043930E+01  0.7957747E-01            NaN
         13   -1    0    0    0    0  0.00000000000E+00  0.00000000000E+00  0.74505805969E-08  0.10566000000E+00  0.10566000000E+00 0.  1.
     999900   -1    0    0    0    0 -0.00000000000E+00 -0.00000000000E+00 -0.74505805969E-08  0.93827000000E+00  0.93827000000E+00 0. -1.
     999902    2    1    2    0    0  0.20838842446E-01 -0.13261325474E-01  0.24285690589E-02  0.10191102890E+01  0.10188080109E+01 0.  0.
     999903    2    3    3    0    0  0.67708108581E-01 -0.53649788075E-01  0.97518769928E-01  0.13182786363E+00  0.20149129338E-01 0.  0.
         14    1    1    2    0    0 -0.20838842446E-01  0.13261325474E-01 -0.24285690589E-02  0.24819711028E-01  0.00000000000E+00 0. -1.
     999901    1    3    3    0    0 -0.46869266135E-01  0.40388462601E-01 -0.95090200869E-01  0.88728242534E+00  0.88000000000E+00 0. -1.
        -11    1    4    4    0    0  0.16737971196E-01 -0.43509117514E-02  0.13935208974E-01  0.22215789047E-01  0.51100000000E-03 0.  1.
         11    1    4    4    0    0  0.50970137385E-01 -0.49298876324E-01  0.83583560954E-01  0.10961207458E+00  0.51100000000E-03 0. -1.
</event>
<event>
 8    1  0.1129676E+005  0.1043930E+01  0.7957747E-01            NaN
         13   -1    0    0    0    0  0.00000000000E+00  0.00000000000E+00  0.74505805969E-08  0.10566000000E+00  0.10566000000E+00 0. -1.
     999900   -1    0    0    0    0 -0.00000000000E+00 -0.00000000000E+00 -0.74505805969E-08  0.93827000000E+00  0.93827000000E+00 0. -1.
     999902    2    1    2    0    0 -0.88604419321E-03  0.20837942909E-01 -0.11889712671E-01  0.10199222886E+01  0.10196396935E+01 0.  0.
     999903    2    3    3    0    0 -0.11513879385E+00  0.11277241109E-01  0.55677705628E-01  0.12991641568E+00  0.19853214911E-01 0.  0.
         14    1    1    2    0    0  0.88604419321E-03 -0.20837942909E-01  0.11889712671E-01  0.24007711394E-01  0.00000000000E+00 0. -1.
     999901    1    3    3    0    0  0.11425274966E+00  0.95607017992E-02 -0.67567418299E-01  0.89000587292E+00  0.88000000000E+00 0. -1.
        -11    1    4    4    0    0 -0.81473065692E-01  0.27102442585E-02  0.47032926792E-01  0.94114627878E-01  0.51100000000E-03 0.  1.
         11    1    4    4    0    0 -0.33665728163E-01  0.85669968508E-02  0.86447788361E-02  0.35801787803E-01  0.51100000000E-03 0. -1.
</event>
<event>
 8    1  0.1129676E+005  0.1043930E+01  0.7957747E-01            NaN
         13   -1    0    0    0    0  0.00000000000E+00  0.00000000000E+00  0.74505805969E-08  0.10566000000E+00  0.10566000000E+00 0. -1.
     999900   -1    0    0    0    0 -0.00000000000E+00 -0.00000000000E+00 -0.74505805969E-08  0.93827000000E+00  0.93827000000E+00 0.  1.
     999902    2    1    2    0    0 -0.24816250942E-03  0.19573736962E-01 -0.12170914895E-01  0.10208795351E+01  0.10206192734E+01 0.  0.
     999903    2    3    3    0    0 -0.72885510558E-01  0.10998539347E+00 -0.83029699922E-02  0.13326170462E+00  0.16752855912E-01 0.  0.
         14    1    1    2    0    0  0.24816250942E-03 -0.19573736962E-01  0.12170914895E-01  0.23050464912E-01  0.00000000000E+00 0.  1.
     999901    1    3    3    0    0  0.72637348049E-01 -0.90411656510E-01 -0.38679449026E-02  0.88761783047E+00  0.88000000000E+00 0.  1.
        -11    1    4    4    0    0 -0.51484112984E-01  0.83692615177E-01  0.37861013137E-03  0.98262262296E-01  0.51100000000E-03 0. -1.
         11    1    4    4    0    0 -0.21401397574E-01  0.26292778296E-01 -0.86815801235E-02  0.34999442325E-01  0.51100000000E-03 0.  1.
</event>
<event>
 8    1  0.1129676E+005  0.1043930E+01  0.7957747E-01            NaN
         13   -1    0    0    0    0  0.00000000000E+00  0.00000000000E+00  0.74505805969E-08  0.10566000000E+00  0.10566000000E+00 0. -1.
     999900   -1    0    0    0    0 -0.00000000000E+00 -0.00000000000E+00 -0.74505805969E-08  0.93827000000E+00  0.93827000000E+00 0.  1.
     999902    2    1    2    0    0  0.24476966015E-01 -0.16360729228E-02 -0.87619508114E-02  0.10178806165E+01  0.10175472368E+01 0.  0.
     999903    2    3    3    0    0 -0.81735693307E-01 -0.79211682105E-01 -0.52629289256E-01  0.12702515821E+00  0.20256717123E-01 0.  0.
         14    1    1    2    0    0 -0.24476966015E-01  0.16360729228E-02  0.87619508114E-02  0.26049383523E-01  0.00000000000E+00 0. -1.
     999901    1    3    3    0    0  0.10621265932E+00  0.77575609182E-01  0.43867338445E-01  0.89085545827E+00  0.88000000000E+00 0. -1.
        -11    1    4    4    0    0 -0.59445942747E-01 -0.45030992653E-01 -0.37748952670E-01  0.83587409082E-01  0.51100000000E-03 0. -1.
         11    1    4    4    0    0 -0.22289750560E-01 -0.34180689453E-01 -0.14880336587E-01  0.43437749129E-01  0.51100000000E-03 0.  1.
</event>
<event>
 8    1  0.1129676E+005  0.1043930E+01  0.7957747E-01            NaN
         13   -1    0    0    0    0  0.00000000000E+00  0.00000000000E+00  0.74505805969E-08  0.10566000000E+00  0.10566000000E+00 0.  1.
     999900   -1    0    0    0    0 -0.00000000000E+00 -0.00000000000E+00 -0.74505805969E-08  0.93827000000E+00  0.93827000000E+00 0. -1.
     999902    2    1    2    0    0  0.12308208180E-01  0.18085310156E-01 -0.86025664757E-02  0.10204230950E+01  0.10201523015E+01 0.  0.
     999903    2    3    3    0    0  0.11873141534E+00 -0.51648027605E-01  0.59900759255E-02  0.13115284215E+00  0.20012977057E-01 0.  0.
         14    1    1    2    0    0 -0.12308208180E-01 -0.18085310156E-01  0.86025664757E-02  0.23506904986E-01  0.00000000000E+00 0.  1.
     999901    1    3    3    0    0 -0.10642320716E+00  0.69733337761E-01 -0.14592642401E-01  0.88927025286E+00  0.88000000000E+00 0.  1.
        -11    1    4    4    0    0  0.43661025795E-01 -0.17825313052E-01 -0.73754930530E-02  0.47735583977E-01  0.51100000000E-03 0. -1.
         11    1    4    4    0    0  0.75070389543E-01 -0.33822714553E-01  0.13365568979E-01  0.83417258172E-01  0.51100000000E-03 0.  1.
</event>
<event>
 8    1  0.1129676E+005  0.1043930E+01  0.7957747E-01            NaN
         13   -1    0    0    0    0  0.00000000000E+00  0.00000000000E+00  0.74505805969E-08  0.10566000000E+00  0.10566000000E+00 0. -1.
     999900   -1    0    0    0    0 -0.00000000000E+00 -0.00000000000E+00 -0.74505805969E-08  0.93827000000E+00  0.93827000000E+00 0. -1.
     999902    2    1    2    0    0  0.20848195672E-01 -0.61538750603E-02 -0.95753891116E-02  0.10201769893E+01  0.10199004285E+01 0.  0.
     999903    2    3    3    0    0  0.10628353109E+00  0.18957500907E-01  0.73389329797E-01  0.13180042368E+00  0.18159904567E-01 0.  0.
         14    1    1    2    0    0 -0.20848195672E-01  0.61538750603E-02  0.95753891116E-02  0.23753010708E-01  0.00000000000E+00 0. -1.
     999901    1    3    3    0    0 -0.85435335415E-01 -0.25111375967E-01 -0.82964718909E-01  0.88837656561E+00  0.88000000000E+00 0. -1.
        -11    1    4    4    0    0  0.72080176448E-01  0.21207990651E-01  0.52394834621E-01  0.91601367458E-01  0.51100000000E-03 0.  1.
         11    1    4    4    0    0  0.34203354639E-01 -0.22504897440E-02  0.20994495176E-01  0.40199056225E-01  0.51100000000E-03 0. -1.
</event>
<event>
 8    1  0.1129676E+005  0.1043930E+01  0.7957747E-01            NaN
         13   -1    0    0    0    0  0.00000000000E+00  0.00000000000E+00  0.74505805969E-08  0.10566000000E+00  0.10566000000E+00 0.  1.
     999900   -1    0    0    0    0 -0.00000000000E+00 -0.00000000000E+00 -0.74505805969E-08  0.93827000000E+00  0.93827000000E+00 0.  1.
     999902    2    1    2    0    0 -0.21503148364E-01  0.96133609845E-02  0.29445480349E-02  0.10201924251E+01  0.10199162278E+01 0.  0.
     999903    2    3    3    0    0 -0.79195393972E-01 -0.95871125526E-01 -0.36828916074E-01  0.13112701663E+00  0.19358261652E-01 0.  0.
         14    1    1    2    0    0  0.21503148364E-01 -0.96133609845E-02 -0.29445480349E-02  0.23737574900E-01  0.00000000000E+00 0. -1.
     999901    1    3    3    0    0  0.57692245608E-01  0.10548448651E+00  0.39773464109E-01  0.88906540847E+00  0.88000000000E+00 0. -1.
        -11    1    4    4    0    0 -0.33221651671E-01 -0.47816788570E-01 -0.25905706188E-01  0.63729821458E-01  0.51100000000E-03 0.  1.
         11    1    4    4    0    0 -0.45973742301E-01 -0.48054336956E-01 -0.10923209886E-01  0.67397195169E-01  0.51100000000E-03 0. -1.
</event>
<event>
 8    1  0.1129676E+005  0.1043930E+01  0.7957747E-01            NaN
         13   -1    0    0    0    0  0.00000000000E+00  0.00000000000E+00  0.74505805969E-08  0.10566000000E+00  0.10566000000E+00 0. -1.
     999900   -1    0    0    0    0 -0.00000000000E+00 -0.00000000000E+00 -0.74505805969E-08  0.93827000000E+00  0.93827000000E+00 0.  1.
     999902    2    1    2    0    0 -0.52666542136E-02  0.17329301052E-01  0.16407275555E-01  0.10194914851E+01  0.10191985317E+01 0.  0.
     999903    2    3    3    0    0 -0.55495695941E-01  0.59647347128E-01 -0.98972467138E-01  0.12953291373E+00  0.18591616389E-01 0.  0.
         14    1    1    2    0    0  0.52666542136E-02 -0.17329301052E-01 -0.16407275555E-01  0.24438514944E-01  0.00000000000E+00 0.  1.
     999901    1    3    3    0    0  0.50229041727E-01 -0.42318046077E-01  0.11537974269E+00  0.88995857133E+00  0.88000000000E+00 0. -1.
        -11    1    4    4    0    0 -0.38166519745E-01  0.48350143527E-01 -0.63526428045E-01  0.88488913372E-01  0.51100000000E-03 0.  1.
         11    1    4    4    0    0 -0.17329176196E-01  0.11297203602E-01 -0.35446039093E-01  0.41044000356E-01  0.51100000000E-03 0. -1.
</event>
<event>
 8    1  0.1129676E+005  0.1043930E+01  0.7957747E-01            NaN
         13   -1    0    0    0    0  0.00000000000E+00  0.00000000000E+00  0.74505805969E-08  0.10566000000E+00  0.10566000000E+00 0. -1.
     999900   -1    0    0    0    0 -0.00000000000E+00 -0.00000000000E+00 -0.74505805969E-08  0.93827000000E+00  0.93827000000E+00 0.  1.
     999902    2    1    2    0    0 -0.10252166166E-01  0.11356665732E-01  0.18889125626E-01  0.10196219800E+01  0.10193321845E+01 0.  0.
     999903    2    3    3    0    0  0.70717118419E-01 -0.61388507773E-01  0.88201936958E-01  0.13021085399E+00  0.20145100903E-01 0.  0.
         14    1    1    2    0    0  0.10252166166E-01 -0.11356665732E-01 -0.18889125626E-01  0.24308019964E-01  0.00000000000E+00 0.  1.
     999901    1    3    3    0    0 -0.80969284585E-01  0.72745173505E-01 -0.69312811332E-01  0.88941112604E+00  0.88000000000E+00 0.  1.
        -11    1    4    4    0    0  0.44563444837E-01 -0.25646429671E-01  0.49981236714E-01  0.71707915289E-01  0.51100000000E-03 0. -1.
         11    1    4    4    0    0  0.26153673581E-01 -0.35742078102E-01  0.38220700244E-01  0.58502938704E-01  0.51100000000E-03 0.  1.
</event>
<event>
 8    1  0.1129676E+005  0.1043930E+01  0.7957747E-01            NaN
         13   -1    0    0    0    0  0.00000000000E+00  0.00000000000E+00  0.74505805969E-08  0.10566000000E+00  0.10566000000E+00 0.  1.
     999900   -1    0    0    0    0 -0.00000000000E+00 -0.00000000000E+00 -0.74505805969E-08  0.93827000000E+00  0.93827000000E+00 0.  1.
     999902    2    1    2    0    0 -0.22545831986E-01  0.78336808975E-02 -0.29542655121E-02  0.10198798694E+01  0.10195962629E+01 0.  0.
     999903    2    3    3    0    0  0.12525095914E-01 -0.60364153211E-01  0.11154874573E+00  0.12915440434E+00  0.20905225801E-01 0.  0.
         14    1    1    2    0    0  0.22545831986E-01 -0.78336808975E-02  0.29542655121E-02  0.24050130583E-01  0.00000000000E+00 0.  1.
     999901    1    3    3    0    0 -0.35070927900E-01  0.68197834108E-01 -0.11450301124E+00  0.89072546508E+00  0.88000000000E+00 0.  1.
        -11    1    4    4    0    0  0.34001955725E-02 -0.21214222205E-02  0.15018671717E-02  0.43102770410E-02  0.51100000000E-03 0.  1.
         11    1    4    4    0    0  0.91249003410E-02 -0.58242730990E-01  0.11004687855E+00  0.12484412729E+00  0.51100000000E-03 0. -1.
</event>
<event>
 8    1  0.1129676E+005  0.1043930E+01  0.7957747E-01            NaN
         13   -1    0    0    0    0  0.00000000000E+00  0.00000000000E+00  0.74505805969E-08  0.10566000000E+00  0.10566000000E+00 0.  1.
     999900   -1    0    0    0    0 -0.00000000000E+00 -0.00000000000E+00 -0.74505805969E-08  0.93827000000E+00  0.93827000000E+00 0. -1.
     999902    2    1    2    0    0  0.58164742703E-02  0.19883570251E-01 -0.12921374715E-01  0.10195138237E+01  0.10192214122E+01 0.  0.
     999903    2    3    3    0    0 -0.98953800841E-01 -0.21409693629E-01 -0.79094091125E-01  0.12987301274E+00  0.18997223628E-01 0.  0.
         14    1    1    2    0    0 -0.58164742703E-02 -0.19883570251E-01  0.12921374715E-01  0.24416176264E-01  0.00000000000E+00 0. -1.
     999901    1    3    3    0    0  0.10477027511E+00  0.41293263880E-01  0.66172716410E-01  0.88964081099E+00  0.88000000000E+00 0.  1.
        -11    1    4    4    0    0 -0.16860895944E-01  0.34823973550E-02 -0.13396563816E-01  0.21820768695E-01  0.51100000000E-03 0.  1.
         11    1    4    4    0    0 -0.82092904897E-01 -0.24892090984E-01 -0.65697527309E-01  0.10805224405E+00  0.51100000000E-03 0. -1.
</event>
<event>
 8    1  0.1129676E+005  0.1043930E+01  0.7957747E-01            NaN
         13   -1    0    0    0    0  0.00000000000E+00  0.00000000000E+00  0.74505805969E-08  0.10566000000E+00  0.10566000000E+00 0.  1.
     999900   -1    0    0    0    0 -0.00000000000E+00 -0.00000000000E+00 -0.74505805969E-08  0.93827000000E+00  0.93827000000E+00 0.  1.
     999902    2    1    2    0    0 -0.54742681264E-02 -0.20180803925E-01  0.48479184559E-02  0.10224652668E+01  0.10222399361E+01 0.  0.
     999903    2    3    3    0    0 -0.10075084341E+00 -0.55614207978E-01 -0.64960143004E-01  0.13386731644E+00  0.21376754988E-01 0.  0.
         14    1    1    2    0    0  0.54742681264E-02  0.20180803925E-01 -0.48479184559E-02  0.21464733214E-01  0.00000000000E+00 0. -1.
     999901    1    3    3    0    0  0.95276575284E-01  0.35433404053E-01  0.69808061460E-01  0.88859795035E+00  0.88000000000E+00 0. -1.
        -11    1    4    4    0    0 -0.78080453853E-01 -0.50539514468E-01 -0.57987795054E-01  0.10960677576E+00  0.51100000000E-03 0.  1.
         11    1    4    4    0    0 -0.22670389557E-01 -0.50746935097E-02 -0.69723479499E-02  0.24260540675E-01  0.51100000000E-03 0. -1.
</event>
<event>
 8    1  0.1129676E+005  0.1043930E+01  0.7957747E-01            NaN
         13   -1    0    0    0    0  0.00000000000E+00  0.00000000000E+00  0.74505805969E-08  0.10566000000E+00  0.10566000000E+00 0. -1.
     999900   -1    0    0    0    0 -0.00000000000E+00 -0.00000000000E+00 -0.74505805969E-08  0.93827000000E+00  0.93827000000E+00 0. -1.
     999902    2    1    2    0    0  0.22841621295E-01  0.35635574081E-02 -0.53171803978E-02  0.10202084694E+01  0.10199326498E+01 0.  0.
     999903    2    3    3    0    0  0.94504026433E-01  0.41936007744E-01  0.79970437114E-01  0.13235604761E+00  0.20813763906E-01 0.  0.
         14    1    1    2    0    0 -0.22841621295E-01 -0.35635574081E-02  0.53171803978E-02  0.23721530561E-01  0.00000000000E+00 0. -1.
     999901    1    3    3    0    0 -0.71662405138E-01 -0.38372450336E-01 -0.85287617511E-01  0.88785242183E+00  0.88000000000E+00 0. -1.
        -11    1    4    4    0    0  0.33660345099E-01  0.64809858015E-02  0.33834641167E-01  0.48167064193E-01  0.51100000000E-03 0.  1.
         11    1    4    4    0    0  0.60843681335E-01  0.35455021942E-01  0.46135795947E-01  0.84188983412E-01  0.51100000000E-03 0. -1.
</event>
<event>
 8    1  0.1129676E+005  0.1043930E+01  0.7957747E-01            NaN
         13   -1    0    0    0    0  0.00000000000E+00  0.00000000000E+00  0.74505805969E-08  0.10566000000E+00  0.10566000000E+00 0. -1.
     999900   -1    0    0    0    0 -0.00000000000E+00 -0.00000000000E+00 -0.74505805969E-08  0.93827000000E+00  0.93827000000E+00 0. -1.
     999902    2    1    2    0    0  0.12644731959E-01  0.19739805819E-01 -0.34119568459E-02  0.10202405376E+01  0.10199654719E+01 0.  0.
     999903    2    3    3    0    0  0.72671607436E-02  0.43374554376E-01  0.12169209099E+00  0.13106196025E+00  0.20835278303E-01 0.  0.
         14    1    1    2    0    0 -0.12644731959E-01 -0.19739805819E-01  0.34119568459E-02  0.23689462417E-01  0.00000000000E+00 0. -1.
     999901    1    3    3    0    0  0.53775712150E-02 -0.23634748557E-01 -0.12510404783E+00  0.88917857734E+00  0.88000000000E+00 0. -1.
        -11    1    4    4    0    0 -0.72499236797E-02  0.11730126897E-01  0.37172322607E-01  0.39650976777E-01  0.51100000000E-03 0.  1.
         11    1    4    4    0    0  0.14517084423E-01  0.31644427479E-01  0.84519768380E-01  0.91410983468E-01  0.51100000000E-03 0. -1.
</event>
<event>
 8    1  0.1129676E+005  0.1043930E+01  0.7957747E-01            NaN
         13   -1    0    0    0    0  0.00000000000E+00  0.00000000000E+00  0.74505805969E-08  0.10566000000E+00  0.10566000000E+00 0. -1.
     999900   -1    0    0    0    0 -0.00000000000E+00 -0.00000000000E+00 -0.74505805969E-08  0.93827000000E+00  0.93827000000E+00 0.  1.
     999902    2    1    2    0    0 -0.20187546818E-01  0.74372150493E-02 -0.78334160321E-02  0.10210343318E+01  0.10207775934E+01 0.  0.
     999903    2    3    3    0    0 -0.79678631766E-01  0.67141117992E-01 -0.81755336754E-01  0.13392205282E+00  0.19863712071E-01 0.  0.
         14    1    1    2    0    0  0.20187546818E-01 -0.74372150493E-02  0.78334160321E-02  0.22895668170E-01  0.00000000000E+00 0. -1.
     999901    1    3    3    0    0  0.59491084948E-01 -0.59703902943E-01  0.73921920721E-01  0.88711227901E+00  0.88000000000E+00 0. -1.
        -11    1    4    4    0    0 -0.48153898842E-01  0.33382574873E-01 -0.35284670270E-01  0.68399293534E-01  0.51100000000E-03 0. -1.
         11    1    4    4    0    0 -0.31524732924E-01  0.33758543119E-01 -0.46470666484E-01  0.65522759282E-01  0.51100000000E-03 0.  1.
</event>
<event>
 8    1  0.1129676E+005  0.1043930E+01  0.7957747E-01            NaN
         13   -1    0    0    0    0  0.00000000000E+00  0.00000000000E+00  0.74505805969E-08  0.10566000000E+00  0.10566000000E+00 0. -1.
     999900   -1    0    0    0    0 -0.00000000000E+00 -0.00000000000E+00 -0.74505805969E-08  0.93827000000E+00  0.93827000000E+00 0.  1.
     999902    2    1    2    0    0 -0.78812939388E-02 -0.68215054075E-03  0.21899700344E-01  0.10206453055E+01  0.10203796659E+01 0.  0.
     999903    2    3    3    0    0 -0.10522243399E+00 -0.24938881628E-01  0.75509915324E-01  0.13332476493E+00  0.19494542791E-01 0.  0.
         14    1    1    2    0    0  0.78812939388E-02  0.68215054075E-03 -0.21899700344E-01  0.23284694515E-01  0.00000000000E+00 0.  1.
     999901    1    3    3    0    0  0.97341140051E-01  0.24256731087E-01 -0.53610214980E-01  0.88732054056E+00  0.88000000000E+00 0.  1.
        -11    1    4    4    0    0 -0.30349796596E-01 -0.45215185015E-02  0.32062040100E-01  0.44382314263E-01  0.51100000000E-03 0.  1.
         11    1    4    4    0    0 -0.74872637393E-01 -0.20417363127E-01  0.43447875223E-01  0.88942450662E-01  0.51100000000E-03 0. -1.
</event>
<event>
 8    1  0.1129676E+005  0.1043930E+01  0.7957747E-01            NaN
         13   -1    0    0    0    0  0.00000000000E+00  0.00000000000E+00  0.74505805969E-08  0.10566000000E+00  0.10566000000E+00 0. -1.
     999900   -1    0    0    0    0 -0.00000000000E+00 -0.00000000000E+00 -0.74505805969E-08  0.93827000000E+00  0.93827000000E+00 0.  1.
     999902    2    1    2    0    0  0.19578179559E-01 -0.20641434821E-02  0.86024133702E-03  0.10242245231E+01  0.10240349447E+01 0.  0.
     999903    2    3    3    0    0 -0.10515606774E+00 -0.60414465110E-01 -0.48307174867E-01  0.13215903939E+00  0.20608793543E-01 0.  0.
         14    1    1    2    0    0 -0.19578179559E-01  0.20641434821E-02 -0.86024133702E-03  0.19705476861E-01  0.00000000000E+00 0. -1.
     999901    1    3    3    0    0  0.12473424730E+00  0.58350321628E-01  0.49167416204E-01  0.89206548375E+00  0.88000000000E+00 0. -1.
        -11    1    4    4    0    0 -0.52373765192E-01 -0.41536401333E-01 -0.23515625332E-01  0.70862752358E-01  0.51100000000E-03 0.  1.
         11    1    4    4    0    0 -0.52782302548E-01 -0.18878063777E-01 -0.24791549536E-01  0.61296287030E-01  0.51100000000E-03 0. -1.
</event>
<event>
 8    1  0.1129676E+005  0.1043930E+01  0.7957747E-01            NaN
         13   -1    0    0    0    0  0.00000000000E+00  0.00000000000E+00  0.74505805969E-08  0.10566000000E+00  0.10566000000E+00 0. -1.
     999900   -1    0    0    0    0 -0.00000000000E+00 -0.00000000000E+00 -0.74505805969E-08  0.93827000000E+00  0.93827000000E+00 0. -1.
     999902    2    1    2    0    0  0.49756629401E-02 -0.19812967897E-01  0.14415598300E-01  0.10189275923E+01  0.10186207920E+01 0.  0.
     999903    2    3    3    0    0 -0.46479835241E-02 -0.12734515960E+00 -0.26795787791E-01  0.13137243050E+00  0.17387001663E-01 0.  0.
         14    1    1    2    0    0 -0.49756629401E-02  0.19812967897E-01 -0.14415598300E-01  0.25002407742E-01  0.00000000000E+00 0.  1.
     999901    1    3    3    0    0  0.96236464642E-02  0.10753219170E+00  0.41211386091E-01  0.88755516176E+00  0.88000000000E+00 0.  1.
        -11    1    4    4    0    0 -0.49083157818E-02 -0.41236450464E-01 -0.12383021501E-02  0.41549138667E-01  0.51100000000E-03 0. -1.
         11    1    4    4    0    0  0.26033225778E-03 -0.86108709136E-01 -0.25557485641E-01  0.89823291831E-01  0.51100000000E-03 0.  1.
</event>
<event>
 8    1  0.1129676E+005  0.1043930E+01  0.7957747E-01            NaN
         13   -1    0    0    0    0  0.00000000000E+00  0.00000000000E+00  0.74505805969E-08  0.10566000000E+00  0.10566000000E+00 0.  1.
     999900   -1    0    0    0    0 -0.00000000000E+00 -0.00000000000E+00 -0.74505805969E-08  0.93827000000E+00  0.93827000000E+00 0. -1.
     999902    2    1    2    0    0  0.20082892403E-02 -0.23767483485E-01  0.47021436346E-02  0.10196187546E+01  0.10193288812E+01 0.  0.
     999903    2    3    3    0    0 -0.68206613004E-01 -0.97453348148E-01 -0.53323644655E-01  0.13185373433E+00  0.19816635829E-01 0.  0.
         14    1    1    2    0    0 -0.20082892403E-02  0.23767483485E-01 -0.47021436346E-02  0.24311245374E-01  0.00000000000E+00 0.  1.
     999901    1    3    3    0    0  0.70214902245E-01  0.73685864663E-01  0.58025788289E-01  0.88776502029E+00  0.88000000000E+00 0.  1.
        -11    1    4    4    0    0 -0.29052948786E-01 -0.45369155336E-01 -0.13702348471E-01  0.55591812020E-01  0.51100000000E-03 0.  1.
         11    1    4    4    0    0 -0.39153664219E-01 -0.52084192812E-01 -0.39621296184E-01  0.76261922313E-01  0.51100000000E-03 0. -1.
</event>
<event>
 8    1  0.1129676E+005  0.1043930E+01  0.7957747E-01            NaN
         13   -1    0    0    0    0  0.00000000000E+00  0.00000000000E+00  0.74505805969E-08  0.10566000000E+00  0.10566000000E+00 0. -1.
     999900   -1    0    0    0    0 -0.00000000000E+00 -0.00000000000E+00 -0.74505805969E-08  0.93827000000E+00  0.93827000000E+00 0. -1.
     999902    2    1    2    0    0  0.89283889879E-02 -0.24435672440E-02 -0.21607434561E-01  0.10204232270E+01  0.10201524365E+01 0.  0.
     999903    2    3    3    0    0  0.62555049861E-01  0.11273601076E+00  0.82431971351E-02  0.13079790461E+00  0.20435243203E-01 0.  0.
         14    1    1    2    0    0 -0.89283889879E-02  0.24435672440E-02  0.21607434561E-01  0.23506773047E-01  0.00000000000E+00 0.  1.
     999901    1    3    3    0    0 -0.53626660873E-01 -0.11517957801E+00 -0.29850631696E-01  0.88962532235E+00  0.88000000000E+00 0.  1.
        -11    1    4    4    0    0  0.19982200187E-01  0.24330413670E-01 -0.46532532523E-02  0.31830350932E-01  0.51100000000E-03 0. -1.
         11    1    4    4    0    0  0.42572849674E-01  0.88405597093E-01  0.12896450387E-01  0.98967553675E-01  0.51100000000E-03 0.  1.
</event>
<event>
 8    1  0.1129676E+005  0.1043930E+01  0.7957747E-01            NaN
         13   -1    0    0    0    0  0.00000000000E+00  0.00000000000E+00  0.74505805969E-08  0.10566000000E+00  0.10566000000E+00 0.  1.
     999900   -1    0    0    0    0 -0.00000000000E+00 -0.00000000000E+00 -0.74505805969E-08  0.93827000000E+00  0.93827000000E+00 0.  1.
     999902    2    1    2    0    0  0.14365323863E-01 -0.13898338688E-01 -0.11147901180E-01  0.10210432779E+01  0.10207867423E+01 0.  0.
     999903    2    3    3    0    0  0.81470868987E-01 -0.10409233164E+00 -0.71856183106E-02  0.13388274550E+00  0.20006009915E-01 0.  0.
         14    1    1    2    0    0 -0.14365323863E-01  0.13898338688E-01  0.11147901180E-01  0.22886722105E-01  0.00000000000E+00 0.  1.
     999901    1    3    3    0    0 -0.67105545123E-01  0.90193992952E-01 -0.39622828697E-02  0.88716053239E+00  0.88000000000E+00 0.  1.
        -11    1    4    4    0    0  0.16223824588E-01 -0.20181166551E-01  0.65234648368E-02  0.26707839338E-01  0.51100000000E-03 0.  1.
         11    1    4    4    0    0  0.65247044399E-01 -0.83911165089E-01 -0.13709083147E-01  0.10717490616E+00  0.51100000000E-03 0. -1.
</event>
<event>
 8    1  0.1129676E+005  0.1043930E+01  0.7957747E-01            NaN
         13   -1    0    0    0    0  0.00000000000E+00  0.00000000000E+00  0.74505805969E-08  0.10566000000E+00  0.10566000000E+00 0. -1.
     999900   -1    0    0    0    0 -0.00000000000E+00 -0.00000000000E+00 -0.74505805969E-08  0.93827000000E+00  0.93827000000E+00 0. -1.
     999902    2    1    2    0    0  0.10075977883E-01 -0.99213374210E-02  0.17028642764E-01  0.10217955711E+01  0.10215558018E+01 0.  0.
     999903    2    3    3    0    0 -0.45828497983E-01 -0.10383237401E+00 -0.63317462077E-01  0.13140234914E+00  0.19392349967E-01 0.  0.
         14    1    1    2    0    0 -0.10075977883E-01  0.99213374210E-02 -0.17028642764E-01  0.22134428859E-01  0.00000000000E+00 0.  1.
     999901    1    3    3    0    0  0.55904475866E-01  0.93911036587E-01  0.80346104841E-01  0.89039322200E+00  0.88000000000E+00 0.  1.
        -11    1    4    4    0    0 -0.34786964897E-01 -0.56026862148E-01 -0.33275804941E-01  0.73869361202E-01  0.51100000000E-03 0. -1.
         11    1    4    4    0    0 -0.11041533085E-01 -0.47805511861E-01 -0.30041657136E-01  0.57532987942E-01  0.51100000000E-03 0.  1.
</event>
<event>
 8    1  0.1129676E+005  0.1043930E+01  0.7957747E-01            NaN
         13   -1    0    0    0    0  0.00000000000E+00  0.00000000000E+00  0.74505805969E-08  0.10566000000E+00  0.10566000000E+00 0. -1.
     999900   -1    0    0    0    0 -0.00000000000E+00 -0.00000000000E+00 -0.74505805969E-08  0.93827000000E+00  0.93827000000E+00 0.  1.
     999902    2    1    2    0    0  0.22811521381E-02 -0.57919499818E-02 -0.21950555393E-01  0.10211138386E+01  0.10208589002E+01 0.  0.
     999903    2    3    3    0    0 -0.67947472049E-01  0.92064098744E-01 -0.62610317966E-01  0.13197881947E+00  0.20141986912E-01 0.  0.
         14    1    1    2    0    0 -0.22811521381E-02  0.57919499818E-02  0.21950555393E-01  0.22816161416E-01  0.00000000000E+00 0. -1.
     999901    1    3    3    0    0  0.70228624188E-01 -0.97856048726E-01  0.40659762573E-01  0.88913501912E+00  0.88000000000E+00 0. -1.
        -11    1    4    4    0    0 -0.23096299816E-01  0.17756517752E-01 -0.12052599444E-01  0.31531876922E-01  0.51100000000E-03 0.  1.
         11    1    4    4    0    0 -0.44851172234E-01  0.74307580992E-01 -0.50557718522E-01  0.10044694255E+00  0.51100000000E-03 0. -1.
</event>
<event>
 8    1  0.1129676E+005  0.1043930E+01  0.7957747E-01            NaN
         13   -1    0    0    0    0  0.00000000000E+00  0.00000000000E+00  0.74505805969E-08  0.10566000000E+00  0.10566000000E+00 0.  1.
     999900   -1    0    0    0    0 -0.00000000000E+00 -0.00000000000E+00 -0.74505805969E-08  0.93827000000E+00  0.93827000000E+00 0.  1.
     999902    2    1    2    0    0  0.13219622577E-01 -0.16458924760E-01  0.11009827709E-01  0.10201209485E+01  0.10198430657E+01 0.  0.
     999903    2    3    3    0    0  0.70906038111E-01  0.78871862858E-01  0.74067471027E-01  0.13085611285E+00  0.19720421276E-01 0.  0.
         14    1    1    2    0    0 -0.13219622577E-01  0.16458924760E-01 -0.11009827709E-01  0.23809051462E-01  0.00000000000E+00 0.  1.
     999901    1    3    3    0    0 -0.57686415534E-01 -0.95330787618E-01 -0.63057643318E-01  0.88926483568E+00  0.88000000000E+00 0. -1.
        -11    1    4    4    0    0  0.60472862841E-01  0.61616706930E-01  0.67669732071E-01  0.10969521171E+00  0.51100000000E-03 0.  1.
         11    1    4    4    0    0  0.10433175269E-01  0.17255155928E-01  0.63977389559E-02  0.21160901140E-01  0.51100000000E-03 0. -1.
</event>
<event>
 8    1  0.1129676E+005  0.1043930E+01  0.7957747E-01            NaN
         13   -1    0    0    0    0  0.00000000000E+00  0.00000000000E+00  0.74505805969E-08  0.10566000000E+00  0.10566000000E+00 0.  1.
     999900   -1    0    0    0    0 -0.00000000000E+00 -0.00000000000E+00 -0.74505805969E-08  0.93827000000E+00  0.93827000000E+00 0.  1.
     999902    2    1    2    0    0  0.11289701881E-01  0.11883220614E-01 -0.18478352006E-01  0.10192294374E+01  0.10189300900E+01 0.  0.
     999903    2    3    3    0    0  0.19796919815E-01  0.12593745511E+00  0.22471904180E-01  0.13088397269E+00  0.19325299372E-01 0.  0.
         14    1    1    2    0    0 -0.11289701881E-01 -0.11883220614E-01  0.18478352006E-01  0.24700562617E-01  0.00000000000E+00 0. -1.
     999901    1    3    3    0    0 -0.85072179336E-02 -0.11405423449E+00 -0.40950256186E-01  0.88834546470E+00  0.88000000000E+00 0. -1.
        -11    1    4    4    0    0  0.20246805677E-02  0.58706067660E-01  0.37368776641E-02  0.58861932412E-01  0.51100000000E-03 0.  1.
         11    1    4    4    0    0  0.17772239247E-01  0.67231387448E-01  0.18735026516E-01  0.72022040276E-01  0.51100000000E-03 0. -1.
</event>
<event>
 8    1  0.1129676E+005  0.1043930E+01  0.7957747E-01            NaN
         13   -1    0    0    0    0  0.00000000000E+00  0.00000000000E+00  0.74505805969E-08  0.10566000000E+00  0.10566000000E+00 0. -1.
     999900   -1    0    0    0    0 -0.00000000000E+00 -0.00000000000E+00 -0.74505805969E-08  0.93827000000E+00  0.93827000000E+00 0.  1.
     999902    2    1    2    0    0  0.89068399882E-02 -0.99797620415E-02  0.20861201473E-01  0.10191486123E+01  0.10188472784E+01 0.  0.
     999903    2    3    3    0    0  0.10307207224E+00 -0.93598842989E-02 -0.74372287589E-01  0.12901553650E+00  0.20057716395E-01 0.  0.
         14    1    1    2    0    0 -0.89068399882E-02  0.99797620415E-02 -0.20861201473E-01  0.24781387691E-01  0.00000000000E+00 0.  1.
     999901    1    3    3    0    0 -0.94165232251E-01 -0.61987774260E-03  0.95233489062E-01  0.89013307581E+00  0.88000000000E+00 0. -1.
        -11    1    4    4    0    0  0.66084095054E-01  0.24115041478E-02 -0.52669029315E-01  0.84541177785E-01  0.51100000000E-03 0. -1.
         11    1    4    4    0    0  0.36987977186E-01 -0.11771388447E-01 -0.21703258274E-01  0.44474358713E-01  0.51100000000E-03 0.  1.
</event>
<event>
 8    1  0.1129676E+005  0.1043930E+01  0.7957747E-01            NaN
         13   -1    0    0    0    0  0.00000000000E+00  0.00000000000E+00  0.74505805969E-08  0.10566000000E+00  0.10566000000E+00 0. -1.
     999900   -1    0    0    0    0 -0.00000000000E+00 -0.00000000000E+00 -0.74505805969E-08  0.93827000000E+00  0.93827000000E+00 0.  1.
     999902    2    1    2    0    0  0.15631250793E-01 -0.11355289279E-01 -0.12246604562E-01  0.10210551684E+01  0.10207989024E+01 0.  0.
     999903    2    3    3    0    0  0.76447217355E-02 -0.13049878793E+00 -0.15855487144E-01  0.13298310945E+00  0.18567054286E-01 0.  0.
         14    1    1    2    0    0 -0.15631250793E-01  0.11355289279E-01  0.12246604562E-01  0.22874831568E-01  0.00000000000E+00 0. -1.
     999901    1    3    3    0    0  0.79865290579E-02  0.11914349865E+00  0.36088825821E-02  0.88807205899E+00  0.88000000000E+00 0.  1.
        -11    1    4    4    0    0  0.13169573975E-02 -0.66144729562E-01 -0.16990795175E-01  0.68306719049E-01  0.51100000000E-03 0. -1.
         11    1    4    4    0    0  0.63277643379E-02 -0.64354058365E-01  0.11353080313E-02  0.64676390398E-01  0.51100000000E-03 0.  1.
</event>
<event>
 8    1  0.1129676E+005  0.1043930E+01  0.7957747E-01            NaN
         13   -1    0    0    0    0  0.00000000000E+00  0.00000000000E+00  0.74505805969E-08  0.10566000000E+00  0.10566000000E+00 0.  1.
     999900   -1    0    0    0    0 -0.00000000000E+00 -0.00000000000E+00 -0.74505805969E-08  0.93827000000E+00  0.93827000000E+00 0.  1.
     999902    2    1    2    0    0  0.21804787034E-01 -0.67670030380E-04  0.89508345935E-02  0.10203594515E+01  0.10200871725E+01 0.  0.
     999903    2    3    3    0    0  0.74375756209E-01 -0.28333129580E-01  0.10495967728E+00  0.13312760982E+00  0.19284898233E-01 0.  0.
         14    1    1    2    0    0 -0.21804787034E-01  0.67670030380E-04 -0.89508345935E-02  0.23570548503E-01  0.00000000000E+00 0.  1.
     999901    1    3    3    0    0 -0.52570969175E-01  0.28265459550E-01 -0.96008842684E-01  0.88723184167E+00  0.88000000000E+00 0.  1.
        -11    1    4    4    0    0  0.42293362396E-01 -0.11643439648E-01  0.43277195012E-01  0.61623655512E-01  0.51100000000E-03 0.  1.
         11    1    4    4    0    0  0.32082393813E-01 -0.16689689932E-01  0.61682482266E-01  0.71503954312E-01  0.51100000000E-03 0. -1.
</event>
<event>
 8    1  0.1129676E+005  0.1043930E+01  0.7957747E-01            NaN
         13   -1    0    0    0    0  0.00000000000E+00  0.00000000000E+00  0.74505805969E-08  0.10566000000E+00  0.10566000000E+00 0.  1.
     999900   -1    0    0    0    0 -0.00000000000E+00 -0.00000000000E+00 -0.74505805969E-08  0.93827000000E+00  0.93827000000E+00 0. -1.
     999902    2    1    2    0    0 -0.52435584071E-02  0.22844920039E-01 -0.40689689340E-02  0.10201404690E+01  0.10198630470E+01 0.  0.
     999903    2    3    3    0    0  0.62344252546E-01  0.82803449260E-01 -0.79553316946E-01  0.13229981653E+00  0.20767623377E-01 0.  0.
         14    1    1    2    0    0  0.52435584071E-02 -0.22844920039E-01  0.40689689340E-02  0.23789530986E-01  0.00000000000E+00 0.  1.
     999901    1    3    3    0    0 -0.67587810953E-01 -0.59958529221E-01  0.75484348012E-01  0.88784065249E+00  0.88000000000E+00 0. -1.
        -11    1    4    4    0    0  0.41602352369E-01  0.42111524909E-01 -0.53055960936E-01  0.79494228499E-01  0.51100000000E-03 0. -1.
         11    1    4    4    0    0  0.20741900177E-01  0.40691924351E-01 -0.26497356010E-01  0.52805588027E-01  0.51100000000E-03 0.  1.
</event>
<event>
 8    1  0.1129676E+005  0.1043930E+01  0.7957747E-01            NaN
         13   -1    0    0    0    0  0.00000000000E+00  0.00000000000E+00  0.74505805969E-08  0.10566000000E+00  0.10566000000E+00 0.  1.
     999900   -1    0    0    0    0 -0.00000000000E+00 -0.00000000000E+00 -0.74505805969E-08  0.93827000000E+00  0.93827000000E+00 0.  1.
     999902    2    1    2    0    0 -0.60681460623E-02  0.21571190775E-01  0.86266197859E-02  0.10199183937E+01  0.10196357058E+01 0.  0.
     999903    2    3    3    0    0  0.11338809181E+00 -0.51621087714E-01 -0.23601705478E-01  0.12825390111E+00  0.19246469523E-01 0.  0.
         14    1    1    2    0    0  0.60681460623E-02 -0.21571190775E-01 -0.86266197859E-02  0.24011606298E-01  0.00000000000E+00 0. -1.
     999901    1    3    3    0    0 -0.11945623787E+00  0.73192278488E-01  0.32228325264E-01  0.89166449259E+00  0.88000000000E+00 0.  1.
        -11    1    4    4    0    0  0.97267099619E-01 -0.51064288725E-01 -0.19169212315E-01  0.11151757742E+00  0.51100000000E-03 0. -1.
         11    1    4    4    0    0  0.16120992186E-01 -0.55679898882E-03 -0.44324931627E-02  0.16736323695E-01  0.51100000000E-03 0.  1.
</event>
<event>
 8    1  0.1129676E+005  0.1043930E+01  0.7957747E-01            NaN
         13   -1    0    0    0    0  0.00000000000E+00  0.00000000000E+00  0.74505805969E-08  0.10566000000E+00  0.10566000000E+00 0. -1.
     999900   -1    0    0    0    0 -0.00000000000E+00 -0.00000000000E+00 -0.74505805969E-08  0.93827000000E+00  0.93827000000E+00 0.  1.
     999902    2    1    2    0    0  0.18336555620E-01  0.10613943648E-01 -0.99542376847E-02  0.10205212000E+01  0.10202526881E+01 0.  0.
     999903    2    3    3    0    0  0.93397074018E-01 -0.27270368278E-01  0.85742426949E-01  0.13134902645E+00  0.20835463728E-01 0.  0.
         14    1    1    2    0    0 -0.18336555620E-01 -0.10613943648E-01  0.99542376847E-02  0.23408800047E-01  0.00000000000E+00 0. -1.
     999901    1    3    3    0    0 -0.75060518399E-01  0.37884311926E-01 -0.95696664633E-01  0.88917217350E+00  0.88000000000E+00 0.  1.
        -11    1    4    4    0    0  0.75410393913E-01 -0.29916436849E-01  0.73047286604E-01  0.10916907944E+00  0.51100000000E-03 0.  1.
         11    1    4    4    0    0  0.17986680105E-01  0.26460685703E-02  0.12695140344E-01  0.22179947012E-01  0.51100000000E-03 0. -1.
</event>
<event>
 8    1  0.1129676E+005  0.1043930E+01  0.7957747E-01            NaN
         13   -1    0    0    0    0  0.00000000000E+00  0.00000000000E+00  0.74505805969E-08  0.10566000000E+00  0.10566000000E+00 0. -1.
     999900   -1    0    0    0    0 -0.00000000000E+00 -0.00000000000E+00 -0.74505805969E-08  0.93827000000E+00  0.93827000000E+00 0. -1.
     999902    2    1    2    0    0  0.38019653489E-03 -0.10856646202E-01  0.21995128277E-01  0.10193984492E+01  0.10191032339E+01 0.  0.
     999903    2    3    3    0    0 -0.14179570784E-01 -0.10481880984E+00  0.77347761091E-01  0.13254739690E+00  0.19952271944E-01 0.  0.
         14    1    1    2    0    0 -0.38019653489E-03  0.10856646202E-01 -0.21995128277E-01  0.24531550789E-01  0.00000000000E+00 0.  1.
     999901    1    3    3    0    0  0.14559767319E-01  0.93962163640E-01 -0.55352632814E-01  0.88685105231E+00  0.88000000000E+00 0.  1.
        -11    1    4    4    0    0  0.52049994367E-03 -0.36487047151E-01  0.17247105951E-01  0.40364579952E-01  0.51100000000E-03 0. -1.
         11    1    4    4    0    0 -0.14700070728E-01 -0.68331762691E-01  0.60100655140E-01  0.92182816952E-01  0.51100000000E-03 0.  1.
</event>
<event>
 8    1  0.1129676E+005  0.1043930E+01  0.7957747E-01            NaN
         13   -1    0    0    0    0  0.00000000000E+00  0.00000000000E+00  0.74505805969E-08  0.10566000000E+00  0.10566000000E+00 0. -1.
     999900   -1    0    0    0    0 -0.00000000000E+00 -0.00000000000E+00 -0.74505805969E-08  0.93827000000E+00  0.93827000000E+00 0.  1.
     999902    2    1    2    0    0  0.38500948053E-02  0.18645402304E-02  0.22946711464E-01  0.10205879498E+01  0.10203209848E+01 0.  0.
     999903    2    3    3    0    0 -0.41827660726E-01  0.11601343357E+00  0.45107924969E-01  0.13176426280E+00  0.10882374918E-01 0.  0.
         14    1    1    2    0    0 -0.38500948053E-02 -0.18645402304E-02 -0.22946711464E-01  0.23342050195E-01  0.00000000000E+00 0.  1.
     999901    1    3    3    0    0  0.45677755531E-01 -0.11414889334E+00 -0.22161213505E-01  0.88882368701E+00  0.88000000000E+00 0. -1.
        -11    1    4    4    0    0 -0.34441536101E-01  0.10157364899E+00  0.42303579994E-01  0.11529648554E+00  0.51100000000E-03 0. -1.
         11    1    4    4    0    0 -0.73861246249E-02  0.14439784588E-01  0.28043449753E-02  0.16467777253E-01  0.51100000000E-03 0.  1.
</event>
<event>
 8    1  0.1129676E+005  0.1043930E+01  0.7957747E-01            NaN
         13   -1    0    0    0    0  0.00000000000E+00  0.00000000000E+00  0.74505805969E-08  0.10566000000E+00  0.10566000000E+00 0.  1.
     999900   -1    0    0    0    0 -0.00000000000E+00 -0.00000000000E+00 -0.74505805969E-08  0.93827000000E+00  0.93827000000E+00 0.  1.
     999902    2    1    2    0    0 -0.18217302473E-01 -0.76207701885E-02  0.14126798006E-01  0.10196501180E+01  0.10193610011E+01 0.  0.
     999903    2    3    3    0    0  0.11099859473E+00  0.23467308143E-01  0.56289704008E-01  0.12867260575E+00  0.22731170452E-01 0.  0.
         14    1    1    2    0    0  0.18217302473E-01  0.76207701885E-02 -0.14126798006E-01  0.24279881992E-01  0.00000000000E+00 0. -1.
     999901    1    3    3    0    0 -0.12921589720E+00 -0.31088078331E-01 -0.42162906002E-01  0.89097751226E+00  0.88000000000E+00 0. -1.
        -11    1    4    4    0    0  0.18309288456E-01  0.11620241644E-01  0.57706142085E-02  0.22445961084E-01  0.51100000000E-03 0.  1.
         11    1    4    4    0    0  0.92689306274E-01  0.11847066498E-01  0.50519089799E-01  0.10622664467E+00  0.51100000000E-03 0. -1.
</event>
<event>
 8    1  0.1129676E+005  0.1043930E+01  0.7957747E-01            NaN
         13   -1    0    0    0    0  0.00000000000E+00  0.00000000000E+00  0.74505805969E-08  0.10566000000E+00  0.10566000000E+00 0.  1.
     999900   -1    0    0    0    0 -0.00000000000E+00 -0.00000000000E+00 -0.74505805969E-08  0.93827000000E+00  0.93827000000E+00 0. -1.
     999902    2    1    2    0    0  0.19236359911E-01  0.16679439769E-01  0.55751777873E-02  0.10178661580E+01  0.10175324033E+01 0.  0.
     999903    2    3    3    0    0  0.76033693259E-01 -0.39430927802E-01  0.96511874396E-01  0.12958478746E+00  0.11906076712E-01 0.  0.
         14    1    1    2    0    0 -0.19236359911E-01 -0.16679439769E-01 -0.55751777873E-02  0.26063842023E-01  0.00000000000E+00 0. -1.
     999901    1    3    3    0    0 -0.56797333348E-01  0.56110367571E-01 -0.90936696609E-01  0.88828137052E+00  0.88000000000E+00 0. -1.
        -11    1    4    4    0    0  0.14978420661E-01 -0.13210928325E-01  0.24115142223E-01  0.31315857296E-01  0.51100000000E-03 0. -1.
         11    1    4    4    0    0  0.61055272598E-01 -0.26219999476E-01  0.72396732173E-01  0.98268930161E-01  0.51100000000E-03 0.  1.
</event>
<event>
 8    1  0.1129676E+005  0.1043930E+01  0.7957747E-01            NaN
         13   -1    0    0    0    0  0.00000000000E+00  0.00000000000E+00  0.74505805969E-08  0.10566000000E+00  0.10566000000E+00 0.  1.
     999900   -1    0    0    0    0 -0.00000000000E+00 -0.00000000000E+00 -0.74505805969E-08  0.93827000000E+00  0.93827000000E+00 0. -1.
     999902    2    1    2    0    0  0.19583156337E-01 -0.13333135054E-01  0.25564385146E-02  0.10201012803E+01  0.10198229328E+01 0.  0.
     999903    2    3    3    0    0  0.44089938976E-02 -0.23496902375E-01  0.12748213247E+00  0.13109060190E+00  0.19013367911E-01 0.  0.
         14    1    1    2    0    0 -0.19583156337E-01  0.13333135054E-01 -0.25564385146E-02  0.23828719654E-01  0.00000000000E+00 0. -1.
     999901    1    3    3    0    0  0.15174162439E-01  0.10163767322E-01 -0.12492569396E+00  0.88901067844E+00  0.88000000000E+00 0. -1.
        -11    1    4    4    0    0 -0.49660510017E-02 -0.13964294572E-01  0.91646513670E-01  0.92838611441E-01  0.51100000000E-03 0.  1.
         11    1    4    4    0    0  0.93750448993E-02 -0.95326078030E-02  0.35835618803E-01  0.38251990463E-01  0.51100000000E-03 0. -1.
</event>
<event>
 8    1  0.1129676E+005  0.1043930E+01  0.7957747E-01            NaN
         13   -1    0    0    0    0  0.00000000000E+00  0.00000000000E+00  0.74505805969E-08  0.10566000000E+00  0.10566000000E+00 0.  1.
     999900   -1    0    0    0    0 -0.00000000000E+00 -0.00000000000E+00 -0.74505805969E-08  0.93827000000E+00  0.93827000000E+00 0. -1.
     999902    2    1    2    0    0 -0.38800703635E-02 -0.23844183688E-01 -0.69246524978E-02  0.10187993244E+01  0.10184893287E+01 0.  0.
     999903    2    3    3    0    0 -0.56564207345E-01 -0.48412085857E-01 -0.10632784216E+00  0.13129710235E+00  0.19750429301E-01 0.  0.
         14    1    1    2    0    0  0.38800703635E-02  0.23844183688E-01  0.69246524978E-02  0.25130675558E-01  0.00000000000E+00 0. -1.
     999901    1    3    3    0    0  0.52684136981E-01  0.24567902169E-01  0.99403189660E-01  0.88750222209E+00  0.88000000000E+00 0.  1.
        -11    1    4    4    0    0 -0.30268562947E-01 -0.25889879519E-01 -0.73409877799E-01  0.83520913811E-01  0.51100000000E-03 0.  1.
         11    1    4    4    0    0 -0.26295644398E-01 -0.22522206338E-01 -0.32917964359E-01  0.47776188538E-01  0.51100000000E-03 0. -1.
</event>
<event>
 8    1  0.1129676E+005  0.1043930E+01  0.7957747E-01            NaN
         13   -1    0    0    0    0  0.00000000000E+00  0.00000000000E+00  0.74505805969E-08  0.10566000000E+00  0.10566000000E+00 0. -1.
     999900   -1    0    0    0    0 -0.00000000000E+00 -0.00000000000E+00 -0.74505805969E-08  0.93827000000E+00  0.93827000000E+00 0.  1.
     999902    2    1    2    0    0  0.17262035357E-01 -0.11335441219E-02  0.15912310312E-01  0.10204254386E+01  0.10201546997E+01 0.  0.
     999903    2    3    3    0    0  0.75532519314E-01  0.10571296254E+00 -0.65727209153E-02  0.13176509746E+00  0.20939157739E-01 0.  0.
         14    1    1    2    0    0 -0.17262035357E-01  0.11335441219E-02 -0.15912310312E-01  0.23504561396E-01  0.00000000000E+00 0. -1.
     999901    1    3    3    0    0 -0.58270483958E-01 -0.10684650666E+00  0.22485031228E-01  0.88866034114E+00  0.88000000000E+00 0. -1.
        -11    1    4    4    0    0  0.52537115524E-01  0.86238501187E-01 -0.30952644611E-03  0.10098309028E+00  0.51100000000E-03 0.  1.
         11    1    4    4    0    0  0.22995403790E-01  0.19474461352E-01 -0.62631944692E-02  0.30782007186E-01  0.51100000000E-03 0. -1.
</event>
<event>
 8    1  0.1129676E+005  0.1043930E+01  0.7957747E-01            NaN
         13   -1    0    0    0    0  0.00000000000E+00  0.00000000000E+00  0.74505805969E-08  0.10566000000E+00  0.10566000000E+00 0. -1.
     999900   -1    0    0    0    0 -0.00000000000E+00 -0.00000000000E+00 -0.74505805969E-08  0.93827000000E+00  0.93827000000E+00 0. -1.
     999902    2    1    2    0    0  0.52496667151E-02 -0.97849164188E-03 -0.23433956947E-01  0.10198953004E+01  0.10196120620E+01 0.  0.
     999903    2    3    3    0    0  0.81507308468E-01  0.76908407782E-01  0.60482322983E-01  0.12920818415E+00  0.21870046546E-01 0.  0.
         14    1    1    2    0    0 -0.52496667151E-02  0.97849164188E-03  0.23433956947E-01  0.24034699596E-01  0.00000000000E+00 0. -1.
     999901    1    3    3    0    0 -0.76257641753E-01 -0.77886899424E-01 -0.83916279929E-01  0.89068711626E+00  0.88000000000E+00 0. -1.
        -11    1    4    4    0    0  0.65966781905E-01  0.48875486327E-01  0.42407073629E-01  0.92406982925E-01  0.51100000000E-03 0.  1.
         11    1    4    4    0    0  0.15540526563E-01  0.28032921455E-01  0.18075249354E-01  0.36801201222E-01  0.51100000000E-03 0. -1.
</event>
<event>
 8    1  0.1129676E+005  0.1043930E+01  0.7957747E-01            NaN
         13   -1    0    0    0    0  0.00000000000E+00  0.00000000000E+00  0.74505805969E-08  0.10566000000E+00  0.10566000000E+00 0.  1.
     999900   -1    0    0    0    0 -0.00000000000E+00 -0.00000000000E+00 -0.74505805969E-08  0.93827000000E+00  0.93827000000E+00 0. -1.
     999902    2    1    2    0    0  0.20982084059E-01  0.52746029741E-02  0.98849969849E-02  0.10201438180E+01  0.10198664751E+01 0.  0.
     999903    2    3    3    0    0  0.55710279973E-01  0.11563019825E+00 -0.26838213747E-01  0.13181223622E+00  0.13423779610E-01 0.  0.
         14    1    1    2    0    0 -0.20982084059E-01 -0.52746029741E-02 -0.98849969849E-02  0.23786181984E-01  0.00000000000E+00 0. -1.
     999901    1    3    3    0    0 -0.34728195913E-01 -0.11035559528E+00  0.36723210732E-01  0.88833158179E+00  0.88000000000E+00 0.  1.
        -11    1    4    4    0    0  0.13114926954E-01  0.20316699538E-01 -0.94825370716E-02  0.25979784823E-01  0.51100000000E-03 0. -1.
         11    1    4    4    0    0  0.42595353019E-01  0.95313498714E-01 -0.17355676676E-01  0.10583245140E+00  0.51100000000E-03 0.  1.
</event>
<event>
 8    1  0.1129676E+005  0.1043930E+01  0.7957747E-01            NaN
         13   -1    0    0    0    0  0.00000000000E+00  0.00000000000E+00  0.74505805969E-08  0.10566000000E+00  0.10566000000E+00 0.  1.
     999900   -1    0    0    0    0 -0.00000000000E+00 -0.00000000000E+00 -0.74505805969E-08  0.93827000000E+00  0.93827000000E+00 0.  1.
     999902    2    1    2    0    0 -0.17140488083E-02  0.23692433019E-01  0.65027905512E-02  0.10193016499E+01  0.10190040715E+01 0.  0.
     999903    2    3    3    0    0  0.11178512493E+00 -0.22362018356E-01  0.58180118723E-01  0.12931646955E+00  0.18489160641E-01 0.  0.
         14    1    1    2    0    0  0.17140488083E-02 -0.23692433019E-01 -0.65027905512E-02  0.24628350141E-01  0.00000000000E+00 0. -1.
     999901    1    3    3    0    0 -0.11349917374E+00  0.46054451376E-01 -0.51677328172E-01  0.88998518031E+00  0.88000000000E+00 0.  1.
        -11    1    4    4    0    0  0.10017674191E+00 -0.15188921272E-01  0.47118695637E-01  0.11174307831E+00  0.51100000000E-03 0. -1.
         11    1    4    4    0    0  0.11608383013E-01 -0.71730970841E-02  0.11061423085E-01  0.17573391239E-01  0.51100000000E-03 0.  1.
</event>
<event>
 8    1  0.1129676E+005  0.1043930E+01  0.7957747E-01            NaN
         13   -1    0    0    0    0  0.00000000000E+00  0.00000000000E+00  0.74505805969E-08  0.10566000000E+00  0.10566000000E+00 0.  1.
     999900   -1    0    0    0    0 -0.00000000000E+00 -0.00000000000E+00 -0.74505805969E-08  0.93827000000E+00  0.93827000000E+00 0.  1.
     999902    2    1    2    0    0  0.56190517404E-02  0.21426233109E-01 -0.10403357103E-01  0.10194578312E+01  0.10191640606E+01 0.  0.
     999903    2    3    3    0    0  0.94072280189E-01  0.27993539791E-02 -0.89429568963E-01  0.13130464822E+00  0.19642620896E-01 0.  0.
         14    1    1    2    0    0 -0.56190517404E-02 -0.21426233109E-01  0.10403357103E-01  0.24472168819E-01  0.00000000000E+00 0. -1.
     999901    1    3    3    0    0 -0.88453228449E-01  0.18626879129E-01  0.79026211861E-01  0.88815318296E+00  0.88000000000E+00 0.  1.
        -11    1    4    4    0    0  0.10756191268E-01  0.57854699215E-02 -0.16515108849E-01  0.20546952429E-01  0.51100000000E-03 0. -1.
         11    1    4    4    0    0  0.83316088921E-01 -0.29861159424E-02 -0.72914460114E-01  0.11075769579E+00  0.51100000000E-03 0.  1.
</event>
<event>
 8    1  0.1129676E+005  0.1043930E+01  0.7957747E-01            NaN
         13   -1    0    0    0    0  0.00000000000E+00  0.00000000000E+00  0.74505805969E-08  0.10566000000E+00  0.10566000000E+00 0.  1.
     999900   -1    0    0    0    0 -0.00000000000E+00 -0.00000000000E+00 -0.74505805969E-08  0.93827000000E+00  0.93827000000E+00 0.  1.
     999902    2    1    2    0    0 -0.85465384622E-02 -0.98809933233E-02 -0.19780904359E-01  0.10202242723E+01  0.10199488243E+01 0.  0.
     999903    2    3    3    0    0  0.59259204807E-01 -0.98214016274E-01  0.56823780729E-01  0.12990488042E+00  0.22106323861E-01 0.  0.
         14    1    1    2    0    0  0.85465384622E-02  0.98809933233E-02  0.19780904359E-01  0.23705727705E-01  0.00000000000E+00 0.  1.
     999901    1    3    3    0    0 -0.67805743270E-01  0.88333022950E-01 -0.76604685089E-01  0.89031939187E+00  0.88000000000E+00 0.  1.
        -11    1    4    4    0    0  0.50090629121E-01 -0.63597130481E-01  0.41087086373E-01  0.90785879512E-01  0.51100000000E-03 0.  1.
         11    1    4    4    0    0  0.91685756865E-02 -0.34616885793E-01  0.15736694356E-01  0.39119000913E-01  0.51100000000E-03 0. -1.
</event>
<event>
 8    1  0.1129676E+005  0.1043930E+01  0.7957747E-01            NaN
         13   -1    0    0    0    0  0.00000000000E+00  0.00000000000E+00  0.74505805969E-08  0.10566000000E+00  0.10566000000E+00 0. -1.
     999900   -1    0    0    0    0 -0.00000000000E+00 -0.00000000000E+00 -0.74505805969E-08  0.93827000000E+00  0.93827000000E+00 0.  1.
     999902    2    1    2    0    0 -0.21678885983E-01  0.42363980398E-02 -0.22290839667E-02  0.10217288743E+01  0.10214876419E+01 0.  0.
     999903    2    3    3    0    0 -0.37641192249E-01 -0.12514408364E+00 -0.37451100740E-03  0.13212360023E+00  0.19457760766E-01 0.  0.
         14    1    1    2    0    0  0.21678885983E-01 -0.42363980398E-02  0.22290839667E-02  0.22201125673E-01  0.00000000000E+00 0.  1.
     999901    1    3    3    0    0  0.15962306267E-01  0.12938048168E+00 -0.18545729593E-02  0.88960527410E+00  0.88000000000E+00 0.  1.
        -11    1    4    4    0    0 -0.33114716626E-01 -0.82222871826E-01  0.40530423602E-02  0.88734848746E-01  0.51100000000E-03 0. -1.
         11    1    4    4    0    0 -0.45264756231E-02 -0.42921211818E-01 -0.44275533676E-02  0.43388751484E-01  0.51100000000E-03 0.  1.
</event>
<event>
 8    1  0.1129676E+005  0.1043930E+01  0.7957747E-01            NaN
         13   -1    0    0    0    0  0.00000000000E+00  0.00000000000E+00  0.74505805969E-08  0.10566000000E+00  0.10566000000E+00 0.  1.
     999900   -1    0    0    0    0 -0.00000000000E+00 -0.00000000000E+00 -0.74505805969E-08  0.93827000000E+00  0.93827000000E+00 0. -1.
     999902    2    1    2    0    0  0.15359059072E-01  0.73171087096E-02  0.17627626368E-01  0.10194315513E+01  0.10191371418E+01 0.  0.
     999903    2    3    3    0    0 -0.12008040917E+00 -0.14627380939E-01 -0.34396602943E-01  0.12728137866E+00  0.19599952005E-01 0.  0.
         14    1    1    2    0    0 -0.15359059072E-01 -0.73171087096E-02 -0.17627626368E-01  0.24498448661E-01  0.00000000000E+00 0. -1.
     999901    1    3    3    0    0  0.13543946824E+00  0.21944489648E-01  0.52024229311E-01  0.89215017268E+00  0.88000000000E+00 0.  1.
        -11    1    4    4    0    0 -0.23014263542E-01  0.47329352276E-02 -0.49814678381E-02  0.24023595590E-01  0.51100000000E-03 0. -1.
         11    1    4    4    0    0 -0.97066145629E-01 -0.19360316166E-01 -0.29415135105E-01  0.10325778307E+00  0.51100000000E-03 0.  1.
</event>
<event>
 8    1  0.1129676E+005  0.1043930E+01  0.7957747E-01            NaN
         13   -1    0    0    0    0  0.00000000000E+00  0.00000000000E+00  0.74505805969E-08  0.10566000000E+00  0.10566000000E+00 0.  1.
     999900   -1    0    0    0    0 -0.00000000000E+00 -0.00000000000E+00 -0.74505805969E-08  0.93827000000E+00  0.93827000000E+00 0.  1.
     999902    2    1    2    0    0 -0.11382406545E-01  0.12771398710E-01 -0.16043001649E-01  0.10204769468E+01  0.10202074069E+01 0.  0.
     999903    2    3    3    0    0  0.51291592496E-01 -0.19868695824E-01  0.11416058321E+00  0.12809452906E+00  0.18707674436E-01 0.  0.
         14    1    1    2    0    0  0.11382406545E-01 -0.12771398710E-01  0.16043001649E-01  0.23453053227E-01  0.00000000000E+00 0.  1.
     999901    1    3    3    0    0 -0.62673999041E-01  0.32640094534E-01 -0.13020358486E+00  0.89238241771E+00  0.88000000000E+00 0.  1.
        -11    1    4    4    0    0  0.19936036866E-01 -0.15466351531E-01  0.38047854161E-01  0.45656915389E-01  0.51100000000E-03 0. -1.
         11    1    4    4    0    0  0.31355555630E-01 -0.44023442931E-02  0.76112729048E-01  0.82437613674E-01  0.51100000000E-03 0.  1.
</event>
<event>
 8    1  0.1129676E+005  0.1043930E+01  0.7957747E-01            NaN
         13   -1    0    0    0    0  0.00000000000E+00  0.00000000000E+00  0.74505805969E-08  0.10566000000E+00  0.10566000000E+00 0. -1.
     999900   -1    0    0    0    0 -0.00000000000E+00 -0.00000000000E+00 -0.74505805969E-08  0.93827000000E+00  0.93827000000E+00 0.  1.
     999902    2    1    2    0    0  0.19108922608E-01  0.14109362940E-01 -0.30915405035E-02  0.10199762389E+01  0.10196949276E+01 0.  0.
     999903    2    3    3    0    0  0.10407220580E+00  0.66298836015E-01  0.45281420555E-01  0.13302503175E+00  0.20461973228E-01 0.  0.
         14    1    1    2    0    0 -0.19108922608E-01 -0.14109362940E-01  0.30915405035E-02  0.23953761052E-01  0.00000000000E+00 0. -1.
     999901    1    3    3    0    0 -0.84963283188E-01 -0.52189473074E-01 -0.48372961059E-01  0.88695120720E+00  0.88000000000E+00 0.  1.
        -11    1    4    4    0    0  0.50413082185E-01  0.33071696066E-01  0.32967432447E-01  0.68719201532E-01  0.51100000000E-03 0. -1.
         11    1    4    4    0    0  0.53659123610E-01  0.33227139949E-01  0.12313988109E-01  0.64305830218E-01  0.51100000000E-03 0.  1.
</event>
<event>
 8    1  0.1129676E+005  0.1043930E+01  0.7957747E-01            NaN
         13   -1    0    0    0    0  0.00000000000E+00  0.00000000000E+00  0.74505805969E-08  0.10566000000E+00  0.10566000000E+00 0.  1.
     999900   -1    0    0    0    0 -0.00000000000E+00 -0.00000000000E+00 -0.74505805969E-08  0.93827000000E+00  0.93827000000E+00 0.  1.
     999902    2    1    2    0    0  0.23216752500E-01  0.17810206073E-02  0.57662836496E-02  0.10199416766E+01  0.10196595432E+01 0.  0.
     999903    2    3    3    0    0  0.10285303051E+00  0.78492400922E-01  0.21611429905E-01  0.13288043787E+00  0.21221545140E-01 0.  0.
         14    1    1    2    0    0 -0.23216752500E-01 -0.17810206073E-02 -0.57662836496E-02  0.23988323371E-01  0.00000000000E+00 0.  1.
     999901    1    3    3    0    0 -0.79636278013E-01 -0.76711380315E-01 -0.15845146255E-01  0.88706123876E+00  0.88000000000E+00 0.  1.
        -11    1    4    4    0    0  0.41893029505E-01  0.21981380606E-01  0.14337309924E-01  0.49437097319E-01  0.51100000000E-03 0.  1.
         11    1    4    4    0    0  0.60960001008E-01  0.56511020316E-01  0.72741199800E-02  0.83443340553E-01  0.51100000000E-03 0. -1.
</event>
<event>
 8    1  0.1129676E+005  0.1043930E+01  0.7957747E-01            NaN
         13   -1    0    0    0    0  0.00000000000E+00  0.00000000000E+00  0.74505805969E-08  0.10566000000E+00  0.10566000000E+00 0. -1.
     999900   -1    0    0    0    0 -0.00000000000E+00 -0.00000000000E+00 -0.74505805969E-08  0.93827000000E+00  0.93827000000E+00 0.  1.
     999902    2    1    2    0    0 -0.32944200528E-02  0.14901906667E-01 -0.18495099623E-01  0.10199510773E+01  0.10196691676E+01 0.  0.
     999903    2    3    3    0    0  0.10954170941E+00 -0.57008853267E-01  0.29910077721E-01  0.12852176952E+00  0.19334865901E-01 0.  0.
         14    1    1    2    0    0  0.32944200528E-02 -0.14901906667E-01  0.18495099623E-01  0.23978922742E-01  0.00000000000E+00 0. -1.
     999901    1    3    3    0    0 -0.11283612946E+00  0.71910759934E-01 -0.48405177344E-01  0.89142930774E+00  0.88000000000E+00 0. -1.
        -11    1    4    4    0    0  0.37209480413E-01 -0.27668174902E-01  0.17074216236E-01  0.49415213407E-01  0.51100000000E-03 0. -1.
         11    1    4    4    0    0  0.72332228996E-01 -0.29340678365E-01  0.12835861485E-01  0.79106556110E-01  0.51100000000E-03 0.  1.
</event>
<event>
 8    1  0.1129676E+005  0.1043930E+01  0.7957747E-01            NaN
         13   -1    0    0    0    0  0.00000000000E+00  0.00000000000E+00  0.74505805969E-08  0.10566000000E+00  0.10566000000E+00 0.  1.
     999900   -1    0    0    0    0 -0.00000000000E+00 -0.00000000000E+00 -0.74505805969E-08  0.93827000000E+00  0.93827000000E+00 0.  1.
     999902    2    1    2    0    0  0.20741270251E-01  0.75368755557E-02 -0.88445759438E-02  0.10201554062E+01  0.10198783367E+01 0.  0.
     999903    2    3    3    0    0  0.32442672653E-01 -0.49635861744E-01  0.11394283160E+00  0.12971596857E+00  0.18083634812E-01 0.  0.
         14    1    1    2    0    0 -0.20741270251E-01 -0.75368755557E-02  0.88445759438E-02  0.23774593759E-01  0.00000000000E+00 0. -1.
     999901    1    3    3    0    0 -0.11701402402E-01  0.57172737299E-01 -0.12278740755E+00  0.89043943767E+00  0.88000000000E+00 0.  1.
        -11    1    4    4    0    0  0.61724481531E-04 -0.12419686529E-01  0.27666967678E-01  0.30331083806E-01  0.51100000000E-03 0.  1.
         11    1    4    4    0    0  0.32380948171E-01 -0.37216175215E-01  0.86275863927E-01  0.99384884763E-01  0.51100000000E-03 0. -1.
</event>
<event>
 8    1  0.1129676E+005  0.1043930E+01  0.7957747E-01            NaN
         13   -1    0    0    0    0  0.00000000000E+00  0.00000000000E+00  0.74505805969E-08  0.10566000000E+00  0.10566000000E+00 0. -1.
     999900   -1    0    0    0    0 -0.00000000000E+00 -0.00000000000E+00 -0.74505805969E-08  0.93827000000E+00  0.93827000000E+00 0.  1.
     999902    2    1    2    0    0  0.22946415724E-01 -0.38805923397E-02  0.63299980383E-02  0.10198122500E+01  0.10195270273E+01 0.  0.
     999903    2    3    3    0    0  0.53238051671E-01 -0.74174023686E-01  0.93405240963E-01  0.13220825740E+00  0.20455032358E-01 0.  0.
         14    1    1    2    0    0 -0.22946415724E-01  0.38805923397E-02 -0.63299980383E-02  0.24117750033E-01  0.00000000000E+00 0. -1.
     999901    1    3    3    0    0 -0.30291635947E-01  0.70293431346E-01 -0.87075242924E-01  0.88760399257E+00  0.88000000000E+00 0.  1.
        -11    1    4    4    0    0  0.44109157191E-01 -0.53010177678E-01  0.58806185544E-01  0.90631811550E-01  0.51100000000E-03 0.  1.
         11    1    4    4    0    0  0.91288944794E-02 -0.21163846007E-01  0.34599055419E-01  0.41576445845E-01  0.51100000000E-03 0. -1.
</event>
<event>
 8    1  0.1129676E+005  0.1043930E+01  0.7957747E-01            NaN
         13   -1    0    0    0    0  0.00000000000E+00  0.00000000000E+00  0.74505805969E-08  0.10566000000E+00  0.10566000000E+00 0. -1.
     999900   -1    0    0    0    0 -0.00000000000E+00 -0.00000000000E+00 -0.74505805969E-08  0.93827000000E+00  0.93827000000E+00 0. -1.
     999902    2    1    2    0    0  0.19623111857E-01  0.97005703172E-02 -0.85880605389E-02  0.10204156987E+01  0.10201447327E+01 0.  0.
     999903    2    3    3    0    0  0.19875202633E-01 -0.43922939466E-01 -0.12089926030E+00  0.13165850463E+00  0.19826305989E-01 0.  0.
         14    1    1    2    0    0 -0.19623111857E-01 -0.97005703172E-02  0.85880605389E-02  0.23514301334E-01  0.00000000000E+00 0.  1.
     999901    1    3    3    0    0 -0.25209077579E-03  0.53623509783E-01  0.11231119977E+00  0.88875719403E+00  0.88000000000E+00 0.  1.
        -11    1    4    4    0    0  0.17257562096E-01 -0.29135877339E-01 -0.10222937684E+00  0.10769321895E+00  0.51100000000E-03 0. -1.
         11    1    4    4    0    0  0.26176405363E-02 -0.14787062127E-01 -0.18669883468E-01  0.23965285687E-01  0.51100000000E-03 0.  1.
</event>
<event>
 8    1  0.1129676E+005  0.1043930E+01  0.7957747E-01            NaN
         13   -1    0    0    0    0  0.00000000000E+00  0.00000000000E+00  0.74505805969E-08  0.10566000000E+00  0.10566000000E+00 0. -1.
     999900   -1    0    0    0    0 -0.00000000000E+00 -0.00000000000E+00 -0.74505805969E-08  0.93827000000E+00  0.93827000000E+00 0.  1.
     999902    2    1    2    0    0  0.15035778249E-01 -0.93172890997E-02 -0.15981051658E-01  0.10200913651E+01  0.10198127831E+01 0.  0.
     999903    2    3    3    0    0 -0.10973863086E+00  0.42368889828E-01  0.45697554973E-01  0.12765404806E+00  0.19224971430E-01 0.  0.
         14    1    1    2    0    0 -0.15035778249E-01  0.93172890997E-02  0.15981051658E-01  0.23838634940E-01  0.00000000000E+00 0. -1.
     999901    1    3    3    0    0  0.12477440911E+00 -0.51686178928E-01 -0.61678606631E-01  0.89243731700E+00  0.88000000000E+00 0.  1.
        -11    1    4    4    0    0 -0.10676942255E+00  0.37021510356E-01  0.44142408429E-01  0.12132236053E+00  0.51100000000E-03 0. -1.
         11    1    4    4    0    0 -0.29692083094E-02  0.53473794724E-02  0.15551465434E-02  0.63316875300E-02  0.51100000000E-03 0.  1.
</event>
<event>
 8    1  0.1129676E+005  0.1043930E+01  0.7957747E-01            NaN
         13   -1    0    0    0    0  0.00000000000E+00  0.00000000000E+00  0.74505805969E-08  0.10566000000E+00  0.10566000000E+00 0.  1.
     999900   -1    0    0    0    0 -0.00000000000E+00 -0.00000000000E+00 -0.74505805969E-08  0.93827000000E+00  0.93827000000E+00 0.  1.
     999902    2    1    2    0    0 -0.59589581066E-02  0.23290995001E-01  0.36682365744E-02  0.10196105512E+01  0.10193204798E+01 0.  0.
     999903    2    3    3    0    0 -0.74404606541E-01 -0.35178771989E-01 -0.97718194201E-01  0.12922707833E+00  0.19421658565E-01 0.  0.
         14    1    1    2    0    0  0.59589581066E-02 -0.23290995001E-01 -0.36682365744E-02  0.24319448790E-01  0.00000000000E+00 0. -1.
     999901    1    3    3    0    0  0.68445648434E-01  0.58469766991E-01  0.10138643078E+00  0.89038347289E+00  0.88000000000E+00 0.  1.
        -11    1    4    4    0    0 -0.30581494534E-01 -0.16664952229E-01 -0.27354181248E-01  0.44288382150E-01  0.51100000000E-03 0. -1.
         11    1    4    4    0    0 -0.43823112007E-01 -0.18513819760E-01 -0.70364012953E-01  0.84938696175E-01  0.51100000000E-03 0.  1.
</event>
<event>
 7    1  0.1129676E+005  0.1043930E+01  0.7957747E-01            NaN
         13   -1    0    0    0    0  0.00000000000E+00  0.00000000000E+00  0.74505805969E-08  0.10566000000E+00  0.10566000000E+00 0.  1.
     999900   -1    0    0    0    0 -0.00000000000E+00 -0.00000000000E+00 -0.74505805969E-08  0.93827000000E+00  0.93827000000E+00 0.  1.
     999903    2    1    2    0    0  0.19732684514E-01  0.85843345281E-01  0.66385136358E-01  0.11219743203E+00  0.20562554747E-01 0.  0.
         14    1    1    2    0    0 -0.27714868009E-01  0.30992179683E-01 -0.14281937222E-02  0.41601308243E-01  0.00000000000E+00 0.  1.
     999901    1    1    2    0    0  0.79821834944E-02 -0.11683552496E+00 -0.64956942636E-01  0.89013125973E+00  0.88000000000E+00 0. -1.
        -11    1    3    3    0    0  0.14979823640E-01  0.42945656581E-01  0.22892371806E-01  0.50921963271E-01  0.51100000000E-03 0.  1.
         11    1    3    3    0    0  0.47528608742E-02  0.42897688699E-01  0.43492764552E-01  0.61275468759E-01  0.51100000000E-03 0. -1.
</event>
<event>
 8    1  0.1129676E+005  0.1043930E+01  0.7957747E-01            NaN
         13   -1    0    0    0    0  0.00000000000E+00  0.00000000000E+00  0.74505805969E-08  0.10566000000E+00  0.10566000000E+00 0. -1.
     999900   -1    0    0    0    0 -0.00000000000E+00 -0.00000000000E+00 -0.74505805969E-08  0.93827000000E+00  0.93827000000E+00 0.  1.
     999902    2    1    2    0    0 -0.13843021309E-03 -0.19763362607E-01  0.92365886183E-02  0.10221143122E+01  0.10218814721E+01 0.  0.
     999903    2    3    3    0    0  0.17442577594E-01  0.12296452535E+00  0.33098132543E-01  0.13012231947E+00  0.20293191912E-01 0.  0.
         14    1    1    2    0    0  0.13843021309E-03  0.19763362607E-01 -0.92365886183E-02  0.21815687791E-01  0.00000000000E+00 0.  1.
     999901    1    3    3    0    0 -0.17581007807E-01 -0.14272788796E+00 -0.23861543924E-01  0.89199199274E+00  0.88000000000E+00 0.  1.
        -11    1    4    4    0    0  0.85257256602E-02  0.47931315227E-01  0.23141350287E-01  0.53906235182E-01  0.51100000000E-03 0. -1.
         11    1    4    4    0    0  0.89168519340E-02  0.75033210124E-01  0.99567822552E-02  0.76216084286E-01  0.51100000000E-03 0.  1.
</event>
<event>
 8    1  0.1129676E+005  0.1043930E+01  0.7957747E-01            NaN
         13   -1    0    0    0    0  0.00000000000E+00  0.00000000000E+00  0.74505805969E-08  0.10566000000E+00  0.10566000000E+00 0. -1.
     999900   -1    0    0    0    0 -0.00000000000E+00 -0.00000000000E+00 -0.74505805969E-08  0.93827000000E+00  0.93827000000E+00 0.  1.
     999902    2    1    2    0    0 -0.75239447043E-02 -0.15502267733E-01  0.15379711335E-01  0.10208331264E+01  0.10205718037E+01 0.  0.
     999903    2    3    3    0    0  0.33572838022E-01  0.82381108401E-01  0.94003848460E-01  0.13097254418E+00  0.20082363641E-01 0.  0.
         14    1    1    2    0    0  0.75239447043E-02  0.15502267733E-01 -0.15379711335E-01  0.23096873587E-01  0.00000000000E+00 0.  1.
     999901    1    3    3    0    0 -0.41096782726E-01 -0.97883376133E-01 -0.78624137125E-01  0.88986058223E+00  0.88000000000E+00 0.  1.
        -11    1    4    4    0    0  0.13447245915E-01  0.48161193436E-01  0.63936928987E-01  0.81169704849E-01  0.51100000000E-03 0.  1.
         11    1    4    4    0    0  0.20125592107E-01  0.34219914965E-01  0.30066919472E-01  0.49802839331E-01  0.51100000000E-03 0. -1.
</event>
<event>
 8    1  0.1129676E+005  0.1043930E+01  0.7957747E-01            NaN
         13   -1    0    0    0    0  0.00000000000E+00  0.00000000000E+00  0.74505805969E-08  0.10566000000E+00  0.10566000000E+00 0. -1.
     999900   -1    0    0    0    0 -0.00000000000E+00 -0.00000000000E+00 -0.74505805969E-08  0.93827000000E+00  0.93827000000E+00 0. -1.
     999902    2    1    2    0    0  0.19815241463E-01 -0.16946747633E-02 -0.12804483669E-01  0.10202768708E+01  0.10200026582E+01 0.  0.
     999903    2    3    3    0    0  0.76485084758E-01 -0.87247150896E-01 -0.61688938043E-01  0.13296610950E+00  0.20308315287E-01 0.  0.
         14    1    1    2    0    0 -0.19815241463E-01  0.16946747633E-02  0.12804483669E-01  0.23653129155E-01  0.00000000000E+00 0. -1.
     999901    1    3    3    0    0 -0.56669843295E-01  0.85552476133E-01  0.48884454374E-01  0.88731076134E+00  0.88000000000E+00 0.  1.
        -11    1    4    4    0    0  0.54106040323E-01 -0.60473263398E-01 -0.32290554625E-01  0.87335103048E-01  0.51100000000E-03 0. -1.
         11    1    4    4    0    0  0.22379044435E-01 -0.26773887498E-01 -0.29398383418E-01  0.45631006456E-01  0.51100000000E-03 0.  1.
</event>
<event>
 8    1  0.1129676E+005  0.1043930E+01  0.7957747E-01            NaN
         13   -1    0    0    0    0  0.00000000000E+00  0.00000000000E+00  0.74505805969E-08  0.10566000000E+00  0.10566000000E+00 0. -1.
     999900   -1    0    0    0    0 -0.00000000000E+00 -0.00000000000E+00 -0.74505805969E-08  0.93827000000E+00  0.93827000000E+00 0. -1.
     999902    2    1    2    0    0  0.83757737431E-02 -0.19193477812E-01  0.19621582437E-01  0.10152324448E+01  0.10148267672E+01 0.  0.
     999903    2    3    3    0    0 -0.80560543595E-01 -0.82967701292E-01 -0.46001041054E-01  0.12602878488E+00  0.19837293133E-01 0.  0.
         14    1    1    2    0    0 -0.83757737431E-02  0.19193477812E-01 -0.19621582437E-01  0.28697555186E-01  0.00000000000E+00 0.  1.
     999901    1    3    3    0    0  0.88936317338E-01  0.63774223480E-01  0.65622623490E-01  0.88920365993E+00  0.88000000000E+00 0. -1.
        -11    1    4    4    0    0 -0.68782071545E-01 -0.59612875563E-01 -0.38353943872E-01  0.98772235119E-01  0.51100000000E-03 0. -1.
         11    1    4    4    0    0 -0.11778472050E-01 -0.23354825730E-01 -0.76470971817E-02  0.27256549763E-01  0.51100000000E-03 0.  1.
</event>
<event>
 8    1  0.1129676E+005  0.1043930E+01  0.7957747E-01            NaN
         13   -1    0    0    0    0  0.00000000000E+00  0.00000000000E+00  0.74505805969E-08  0.10566000000E+00  0.10566000000E+00 0. -1.
     999900   -1    0    0    0    0 -0.00000000000E+00 -0.00000000000E+00 -0.74505805969E-08  0.93827000000E+00  0.93827000000E+00 0.  1.
     999902    2    1    2    0    0 -0.66172465932E-02  0.10661610423E-01 -0.17509326218E-01  0.10223885424E+01  0.10221615808E+01 0.  0.
     999903    2    3    3    0    0  0.81885926832E-01 -0.98399574463E-01 -0.21379450480E-01  0.13124201598E+00  0.19483443951E-01 0.  0.
         14    1    1    2    0    0  0.66172465932E-02 -0.10661610423E-01  0.17509326218E-01  0.21541457562E-01  0.00000000000E+00 0. -1.
     999901    1    3    3    0    0 -0.88503173425E-01  0.10906118489E+00  0.38701242618E-02  0.89114652646E+00  0.88000000000E+00 0. -1.
        -11    1    4    4    0    0  0.62811329022E-01 -0.66315359057E-01 -0.21813282295E-01  0.93909905259E-01  0.51100000000E-03 0. -1.
         11    1    4    4    0    0  0.19074597809E-01 -0.32084215407E-01  0.43383181490E-03  0.37332110721E-01  0.51100000000E-03 0.  1.
</event>
<event>
 8    1  0.1129676E+005  0.1043930E+01  0.7957747E-01            NaN
         13   -1    0    0    0    0  0.00000000000E+00  0.00000000000E+00  0.74505805969E-08  0.10566000000E+00  0.10566000000E+00 0.  1.
     999900   -1    0    0    0    0 -0.00000000000E+00 -0.00000000000E+00 -0.74505805969E-08  0.93827000000E+00  0.93827000000E+00 0. -1.
     999902    2    1    2    0    0 -0.10693191123E-01 -0.14798582687E-01  0.14130267710E-01  0.10208430589E+01  0.10205819634E+01 0.  0.
     999903    2    3    3    0    0 -0.12129413399E+00  0.37336655131E-01 -0.28411548717E-01  0.13137104820E+00  0.18569960905E-01 0.  0.
         14    1    1    2    0    0  0.10693191123E-01  0.14798582687E-01 -0.14130267710E-01  0.23086941146E-01  0.00000000000E+00 0. -1.
     999901    1    3    3    0    0  0.11060094287E+00 -0.52135237818E-01  0.42541816427E-01  0.88947201065E+00  0.88000000000E+00 0.  1.
        -11    1    4    4    0    0 -0.40091816693E-01  0.15584889399E-01 -0.12871213602E-02  0.43036732517E-01  0.51100000000E-03 0. -1.
         11    1    4    4    0    0 -0.81202317301E-01  0.21751765732E-01 -0.27124427356E-01  0.88334315687E-01  0.51100000000E-03 0.  1.
</event>
<event>
 8    1  0.1129676E+005  0.1043930E+01  0.7957747E-01            NaN
         13   -1    0    0    0    0  0.00000000000E+00  0.00000000000E+00  0.74505805969E-08  0.10566000000E+00  0.10566000000E+00 0. -1.
     999900   -1    0    0    0    0 -0.00000000000E+00 -0.00000000000E+00 -0.74505805969E-08  0.93827000000E+00  0.93827000000E+00 0. -1.
     999902    2    1    2    0    0 -0.30589899945E-02 -0.23708608585E-01 -0.51321687190E-04  0.10200248086E+01  0.10197446504E+01 0.  0.
     999903    2    3    3    0    0  0.92338764582E-02 -0.12327885071E+00 -0.45344709524E-01  0.13316696282E+00  0.19858443997E-01 0.  0.
         14    1    1    2    0    0  0.30589899945E-02  0.23708608585E-01  0.51321687190E-04  0.23905191376E-01  0.00000000000E+00 0. -1.
     999901    1    3    3    0    0 -0.12292866453E-01  0.99570242125E-01  0.45293387837E-01  0.88685784580E+00  0.88000000000E+00 0.  1.
        -11    1    4    4    0    0 -0.19437015778E-02 -0.60906316081E-01 -0.14262421823E-01  0.62586221420E-01  0.51100000000E-03 0. -1.
         11    1    4    4    0    0  0.11177578036E-01 -0.62372534629E-01 -0.31082287701E-01  0.70580741400E-01  0.51100000000E-03 0.  1.
</event>
<event>
 8    1  0.1129676E+005  0.1043930E+01  0.7957747E-01            NaN
         13   -1    0    0    0    0  0.00000000000E+00  0.00000000000E+00  0.74505805969E-08  0.10566000000E+00  0.10566000000E+00 0. -1.
     999900   -1    0    0    0    0 -0.00000000000E+00 -0.00000000000E+00 -0.74505805969E-08  0.93827000000E+00  0.93827000000E+00 0.  1.
     999902    2    1    2    0    0 -0.61277183546E-02 -0.20837629392E-01 -0.15398491811E-01  0.10173054008E+01  0.10169569358E+01 0.  0.
     999903    2    3    3    0    0  0.81457003771E-01 -0.87425166895E-01  0.42792372027E-01  0.12854718830E+00  0.20366375397E-01 0.  0.
         14    1    1    2    0    0  0.61277183546E-02  0.20837629392E-01  0.15398491811E-01  0.26624599170E-01  0.00000000000E+00 0. -1.
     999901    1    3    3    0    0 -0.87584722126E-01  0.66587537503E-01 -0.58190863839E-01  0.88875821253E+00  0.88000000000E+00 0. -1.
        -11    1    4    4    0    0  0.52155563104E-01 -0.50271901424E-01  0.35487306765E-01  0.80666454601E-01  0.51100000000E-03 0. -1.
         11    1    4    4    0    0  0.29301440667E-01 -0.37153265470E-01  0.73050652625E-02  0.47880733701E-01  0.51100000000E-03 0.  1.
</event>
<event>
 8    1  0.1129676E+005  0.1043930E+01  0.7957747E-01            NaN
         13   -1    0    0    0    0  0.00000000000E+00  0.00000000000E+00  0.74505805969E-08  0.10566000000E+00  0.10566000000E+00 0.  1.
     999900   -1    0    0    0    0 -0.00000000000E+00 -0.00000000000E+00 -0.74505805969E-08  0.93827000000E+00  0.93827000000E+00 0.  1.
     999902    2    1    2    0    0 -0.10761771875E-01  0.67881765502E-02  0.19322557994E-01  0.10207943928E+01  0.10205321827E+01 0.  0.
     999903    2    3    3    0    0 -0.63269841852E-01  0.10504940858E+00 -0.43658472537E-01  0.13153685001E+00  0.18905807496E-01 0.  0.
         14    1    1    2    0    0  0.10761771875E-01 -0.67881765502E-02 -0.19322557994E-01  0.23135607237E-01  0.00000000000E+00 0. -1.
     999901    1    3    3    0    0  0.52508069976E-01 -0.98261232025E-01  0.62981030532E-01  0.88925754275E+00  0.88000000000E+00 0.  1.
        -11    1    4    4    0    0 -0.10084186192E-01  0.32836887038E-01 -0.13586104844E-01  0.36943136404E-01  0.51100000000E-03 0.  1.
         11    1    4    4    0    0 -0.53185655659E-01  0.72212521537E-01 -0.30072367694E-01  0.94593713609E-01  0.51100000000E-03 0. -1.
</event>
<event>
 8    1  0.1129676E+005  0.1043930E+01  0.7957747E-01            NaN
         13   -1    0    0    0    0  0.00000000000E+00  0.00000000000E+00  0.74505805969E-08  0.10566000000E+00  0.10566000000E+00 0.  1.
     999900   -1    0    0    0    0 -0.00000000000E+00 -0.00000000000E+00 -0.74505805969E-08  0.93827000000E+00  0.93827000000E+00 0.  1.
     999902    2    1    2    0    0  0.20636440347E-01  0.10602764996E-01  0.91657469509E-02  0.10189842145E+01  0.10186788195E+01 0.  0.
     999903    2    3    3    0    0  0.92157462199E-01 -0.51998331811E-01  0.75266253295E-01  0.13140129962E+00  0.20111397454E-01 0.  0.
         14    1    1    2    0    0 -0.20636440347E-01 -0.10602764996E-01 -0.91657469509E-02  0.24945785474E-01  0.00000000000E+00 0. -1.
     999901    1    3    3    0    0 -0.71521021852E-01  0.62601096806E-01 -0.66100506344E-01  0.88758291490E+00  0.88000000000E+00 0.  1.
        -11    1    4    4    0    0  0.45385463227E-01 -0.30706409884E-01  0.49788815711E-01  0.74039929573E-01  0.51100000000E-03 0.  1.
         11    1    4    4    0    0  0.46771998972E-01 -0.21291921927E-01  0.25477437584E-01  0.57361370050E-01  0.51100000000E-03 0. -1.
</event>
<event>
 8    1  0.1129676E+005  0.1043930E+01  0.7957747E-01            NaN
         13   -1    0    0    0    0  0.00000000000E+00  0.00000000000E+00  0.74505805969E-08  0.10566000000E+00  0.10566000000E+00 0. -1.
     999900   -1    0    0    0    0 -0.00000000000E+00 -0.00000000000E+00 -0.74505805969E-08  0.93827000000E+00  0.93827000000E+00 0. -1.
     999902    2    1    2    0    0  0.74767728758E-02 -0.10346395215E-01 -0.23192211311E-01  0.10174568307E+01  0.10171123702E+01 0.  0.
     999903    2    3    3    0    0  0.12151738596E+00 -0.34670518875E-01  0.15694007501E-01  0.12891360586E+00  0.20097162351E-01 0.  0.
         14    1    1    2    0    0 -0.74767728758E-02  0.10346395215E-01  0.23192211311E-01  0.26473169286E-01  0.00000000000E+00 0. -1.
     999901    1    3    3    0    0 -0.11404061308E+00  0.24324123659E-01 -0.38886218812E-01  0.88854322486E+00  0.88000000000E+00 0.  1.
        -11    1    4    4    0    0  0.91716210797E-01 -0.17533631050E-01  0.14618752965E-01  0.94515927759E-01  0.51100000000E-03 0. -1.
         11    1    4    4    0    0  0.29801175161E-01 -0.17136887824E-01  0.10752545362E-02  0.34397678099E-01  0.51100000000E-03 0.  1.
</event>
<event>
 8    1  0.1129676E+005  0.1043930E+01  0.7957747E-01            NaN
         13   -1    0    0    0    0  0.00000000000E+00  0.00000000000E+00  0.74505805969E-08  0.10566000000E+00  0.10566000000E+00 0.  1.
     999900   -1    0    0    0    0 -0.00000000000E+00 -0.00000000000E+00 -0.74505805969E-08  0.93827000000E+00  0.93827000000E+00 0. -1.
     999902    2    1    2    0    0  0.12868812697E-01  0.20070865790E-01 -0.77364281367E-02  0.10188641205E+01  0.10185557411E+01 0.  0.
     999903    2    3    3    0    0  0.18624446680E-01 -0.12375332553E+00 -0.10176367697E-01  0.12716659409E+00  0.20150151372E-01 0.  0.
         14    1    1    2    0    0 -0.12868812697E-01 -0.20070865790E-01  0.77364281367E-02  0.25065879480E-01  0.00000000000E+00 0. -1.
     999901    1    3    3    0    0 -0.57556339825E-02  0.14382419132E+00  0.24399395600E-02  0.89169752643E+00  0.88000000000E+00 0. -1.
        -11    1    4    4    0    0  0.21110334222E-01 -0.86248643237E-01 -0.26830749259E-02  0.88836561636E-01  0.51100000000E-03 0.  1.
         11    1    4    4    0    0 -0.24858875424E-02 -0.37504682291E-01 -0.74932927709E-02  0.38330032457E-01  0.51100000000E-03 0. -1.
</event>
<event>
 8    1  0.1129676E+005  0.1043930E+01  0.7957747E-01            NaN
         13   -1    0    0    0    0  0.00000000000E+00  0.00000000000E+00  0.74505805969E-08  0.10566000000E+00  0.10566000000E+00 0.  1.
     999900   -1    0    0    0    0 -0.00000000000E+00 -0.00000000000E+00 -0.74505805969E-08  0.93827000000E+00  0.93827000000E+00 0. -1.
     999902    2    1    2    0    0  0.12340370214E-01 -0.12188458311E-01  0.14679585431E-01  0.10212070275E+01  0.10209541907E+01 0.  0.
     999903    2    3    3    0    0  0.29169252190E-01 -0.12315953114E+00 -0.34738521870E-01  0.13270270017E+00  0.19599141436E-01 0.  0.
         14    1    1    2    0    0 -0.12340370214E-01  0.12188458311E-01 -0.14679585431E-01  0.22722972549E-01  0.00000000000E+00 0. -1.
     999901    1    3    3    0    0 -0.16828881975E-01  0.11097107283E+00  0.49418107300E-01  0.88850432728E+00  0.88000000000E+00 0.  1.
        -11    1    4    4    0    0  0.15238246203E-01 -0.97092450022E-01 -0.23301584575E-01  0.10100679662E+00  0.51100000000E-03 0.  1.
         11    1    4    4    0    0  0.13931005986E-01 -0.26067081122E-01 -0.11436937295E-01  0.31695903547E-01  0.51100000000E-03 0. -1.
</event>
<event>
 8    1  0.1129676E+005  0.1043930E+01  0.7957747E-01            NaN
         13   -1    0    0    0    0  0.00000000000E+00  0.00000000000E+00  0.74505805969E-08  0.10566000000E+00  0.10566000000E+00 0. -1.
     999900   -1    0    0    0    0 -0.00000000000E+00 -0.00000000000E+00 -0.74505805969E-08  0.93827000000E+00  0.93827000000E+00 0.  1.
     999902    2    1    2    0    0  0.19830141861E-01  0.81497199089E-02 -0.88919857667E-02  0.10207196602E+01  0.10204557339E+01 0.  0.
     999903    2    3    3    0    0  0.46482240192E-02  0.70266879657E-01  0.10785915123E+00  0.13070850292E+00  0.22182783158E-01 0.  0.
         14    1    1    2    0    0 -0.19830141861E-01 -0.81497199089E-02  0.88919857667E-02  0.23210339758E-01  0.00000000000E+00 0. -1.
     999901    1    3    3    0    0  0.15181917842E-01 -0.62117159748E-01 -0.11675113700E+00  0.89001115732E+00  0.88000000000E+00 0.  1.
        -11    1    4    4    0    0 -0.89257029301E-02  0.29509247098E-01  0.47095744212E-01  0.56291509848E-01  0.51100000000E-03 0.  1.
         11    1    4    4    0    0  0.13573926949E-01  0.40757632559E-01  0.60763407018E-01  0.74416993074E-01  0.51100000000E-03 0. -1.
</event>
<event>
 8    1  0.1129676E+005  0.1043930E+01  0.7957747E-01            NaN
         13   -1    0    0    0    0  0.00000000000E+00  0.00000000000E+00  0.74505805969E-08  0.10566000000E+00  0.10566000000E+00 0. -1.
     999900   -1    0    0    0    0 -0.00000000000E+00 -0.00000000000E+00 -0.74505805969E-08  0.93827000000E+00  0.93827000000E+00 0. -1.
     999902    2    1    2    0    0 -0.20524867604E-01  0.12743956432E-01 -0.76676993562E-03  0.10197583937E+01  0.10194718804E+01 0.  0.
     999903    2    3    3    0    0 -0.11535227418E+00 -0.49355757328E-01 -0.33279508587E-01  0.13189258757E+00  0.23366450864E-01 0.  0.
         14    1    1    2    0    0  0.20524867604E-01 -0.12743956432E-01  0.76676993562E-03  0.24171606315E-01  0.00000000000E+00 0. -1.
     999901    1    3    3    0    0  0.94827406574E-01  0.62099713760E-01  0.32512738651E-01  0.88786580611E+00  0.88000000000E+00 0.  1.
        -11    1    4    4    0    0 -0.47213565513E-01 -0.26095601217E-01 -0.24861843145E-01  0.59400955690E-01  0.51100000000E-03 0. -1.
         11    1    4    4    0    0 -0.68138708665E-01 -0.23260156111E-01 -0.84176654420E-02  0.72491631884E-01  0.51100000000E-03 0.  1.
</event>
<event>
 8    1  0.1129676E+005  0.1043930E+01  0.7957747E-01            NaN
         13   -1    0    0    0    0  0.00000000000E+00  0.00000000000E+00  0.74505805969E-08  0.10566000000E+00  0.10566000000E+00 0. -1.
     999900   -1    0    0    0    0 -0.00000000000E+00 -0.00000000000E+00 -0.74505805969E-08  0.93827000000E+00  0.93827000000E+00 0. -1.
     999902    2    1    2    0    0  0.18991324539E-01 -0.71457485999E-03  0.14753197489E-01  0.10198709505E+01  0.10195871311E+01 0.  0.
     999903    2    3    3    0    0 -0.23985538727E-01 -0.94693670325E-01 -0.81530701745E-01  0.12860798686E+00  0.18723292729E-01 0.  0.
         14    1    1    2    0    0 -0.18991324539E-01  0.71457485999E-03 -0.14753197489E-01  0.24059049464E-01  0.00000000000E+00 0.  1.
     999901    1    3    3    0    0  0.42976863266E-01  0.93979095465E-01  0.96283899233E-01  0.89126296367E+00  0.88000000000E+00 0. -1.
        -11    1    4    4    0    0 -0.23600261151E-01 -0.75383935160E-01 -0.57144901805E-01  0.97496209823E-01  0.51100000000E-03 0.  1.
         11    1    4    4    0    0 -0.38527757635E-03 -0.19309735166E-01 -0.24385799939E-01  0.31111777041E-01  0.51100000000E-03 0. -1.
</event>
<event>
 8    1  0.1129676E+005  0.1043930E+01  0.7957747E-01            NaN
         13   -1    0    0    0    0  0.00000000000E+00  0.00000000000E+00  0.74505805969E-08  0.10566000000E+00  0.10566000000E+00 0. -1.
     999900   -1    0    0    0    0 -0.00000000000E+00 -0.00000000000E+00 -0.74505805969E-08  0.93827000000E+00  0.93827000000E+00 0. -1.
     999902    2    1    2    0    0 -0.23002924678E-01 -0.21836109138E-01  0.17900981988E-01  0.10075102888E+01  0.10068518196E+01 0.  0.
     999903    2    3    3    0    0  0.57224161838E-01  0.54249870407E-01  0.85484097666E-01  0.11802001950E+00  0.20088327760E-01 0.  0.
         14    1    1    2    0    0  0.23002924678E-01  0.21836109138E-01 -0.17900981988E-01  0.36419711176E-01  0.00000000000E+00 0.  1.
     999901    1    3    3    0    0 -0.80227086515E-01 -0.76085979545E-01 -0.67583115678E-01  0.88949026932E+00  0.88000000000E+00 0. -1.
        -11    1    4    4    0    0  0.20353913366E-01  0.80470421534E-02  0.28240556953E-01  0.35732714069E-01  0.51100000000E-03 0.  1.
         11    1    4    4    0    0  0.36870248472E-01  0.46202828253E-01  0.57243540713E-01  0.82287305433E-01  0.51100000000E-03 0. -1.
</event>
<event>
 8    1  0.1129676E+005  0.1043930E+01  0.7957747E-01            NaN
         13   -1    0    0    0    0  0.00000000000E+00  0.00000000000E+00  0.74505805969E-08  0.10566000000E+00  0.10566000000E+00 0. -1.
     999900   -1    0    0    0    0 -0.00000000000E+00 -0.00000000000E+00 -0.74505805969E-08  0.93827000000E+00  0.93827000000E+00 0.  1.
     999902    2    1    2    0    0  0.79791904040E-02 -0.18357662303E-01  0.13487657529E-01  0.10197931371E+01  0.10195074567E+01 0.  0.
     999903    2    3    3    0    0 -0.19203835715E-01  0.72129545460E-02 -0.12497442694E+00  0.12818530729E+00  0.19800292866E-01 0.  0.
         14    1    1    2    0    0 -0.79791904040E-02  0.18357662303E-01 -0.13487657529E-01  0.24136862894E-01  0.00000000000E+00 0. -1.
     999901    1    3    3    0    0  0.27183026119E-01 -0.25570616849E-01  0.13846208446E+00  0.89160782982E+00  0.88000000000E+00 0. -1.
        -11    1    4    4    0    0 -0.25665013504E-02 -0.63936004794E-02 -0.35313981066E-01  0.35983377218E-01  0.51100000000E-03 0.  1.
         11    1    4    4    0    0 -0.16637334365E-01  0.13606555025E-01 -0.89660445870E-01  0.92201930072E-01  0.51100000000E-03 0. -1.
</event>
<event>
 8    1  0.1129676E+005  0.1043930E+01  0.7957747E-01            NaN
         13   -1    0    0    0    0  0.00000000000E+00  0.00000000000E+00  0.74505805969E-08  0.10566000000E+00  0.10566000000E+00 0.  1.
     999900   -1    0    0    0    0 -0.00000000000E+00 -0.00000000000E+00 -0.74505805969E-08  0.93827000000E+00  0.93827000000E+00 0. -1.
     999902    2    1    2    0    0  0.13444837083E-01  0.13921041561E-01 -0.12589804241E-01  0.10208418599E+01  0.10205807370E+01 0.  0.
     999903    2    3    3    0    0  0.44923724792E-01 -0.10183304010E+00 -0.66249966867E-01  0.13108383614E+00  0.20144599338E-01 0.  0.
         14    1    1    2    0    0 -0.13444837083E-01 -0.13921041561E-01  0.12589804241E-01  0.23088140097E-01  0.00000000000E+00 0.  1.
     999901    1    3    3    0    0 -0.31478887710E-01  0.11575408166E+00  0.53660162626E-01  0.88975802376E+00  0.88000000000E+00 0.  1.
        -11    1    4    4    0    0  0.10897617243E-01 -0.27432046138E-01 -0.28304605228E-01  0.40898496489E-01  0.51100000000E-03 0. -1.
         11    1    4    4    0    0  0.34026107549E-01 -0.74400993962E-01 -0.37945361639E-01  0.90185339654E-01  0.51100000000E-03 0.  1.
</event>
<event>
 8    1  0.1129676E+005  0.1043930E+01  0.7957747E-01            NaN
         13   -1    0    0    0    0  0.00000000000E+00  0.00000000000E+00  0.74505805969E-08  0.10566000000E+00  0.10566000000E+00 0.  1.
     999900   -1    0    0    0    0 -0.00000000000E+00 -0.00000000000E+00 -0.74505805969E-08  0.93827000000E+00  0.93827000000E+00 0. -1.
     999902    2    1    2    0    0 -0.19507524479E-01  0.10362152564E-01  0.60007089949E-02  0.10210405652E+01  0.10207839681E+01 0.  0.
     999903    2    3    3    0    0  0.10258578709E-01  0.12960388958E+00 -0.13695405230E-01  0.13228157106E+00  0.20209979905E-01 0.  0.
         14    1    1    2    0    0  0.19507524479E-01 -0.10362152564E-01 -0.60007089949E-02  0.22889434801E-01  0.00000000000E+00 0. -1.
     999901    1    3    3    0    0 -0.29766103188E-01 -0.11924173701E+00  0.19696114225E-01  0.88875899414E+00  0.88000000000E+00 0.  1.
        -11    1    4    4    0    0  0.92130354410E-02  0.29811450171E-01  0.19305386742E-02  0.31266446615E-01  0.51100000000E-03 0.  1.
         11    1    4    4    0    0  0.10455432681E-02  0.99792439405E-01 -0.15625943905E-01  0.10101512445E+00  0.51100000000E-03 0. -1.
</event>
<event>
 8    1  0.1129676E+005  0.1043930E+01  0.7957747E-01            NaN
         13   -1    0    0    0    0  0.00000000000E+00  0.00000000000E+00  0.74505805969E-08  0.10566000000E+00  0.10566000000E+00 0. -1.
     999900   -1    0    0    0    0 -0.00000000000E+00 -0.00000000000E+00 -0.74505805969E-08  0.93827000000E+00  0.93827000000E+00 0.  1.
     999902    2    1    2    0    0 -0.23504480445E-01 -0.19905065502E-02 -0.13035606521E-02  0.10203053944E+01  0.10200318505E+01 0.  0.
     999903    2    3    3    0    0  0.11114032519E+00 -0.52742872825E-01  0.30809917685E-01  0.12804069053E+00  0.17640433225E-01 0.  0.
         14    1    1    2    0    0  0.23504480445E-01  0.19905065502E-02  0.13035606521E-02  0.23624605556E-01  0.00000000000E+00 0.  1.
     999901    1    3    3    0    0 -0.13464480564E+00  0.50752366275E-01 -0.32113478337E-01  0.89226470392E+00  0.88000000000E+00 0. -1.
        -11    1    4    4    0    0  0.65902345490E-01 -0.26970792672E-01  0.97408834040E-02  0.71872725905E-01  0.51100000000E-03 0.  1.
         11    1    4    4    0    0  0.45237979704E-01 -0.25772080153E-01  0.21069034281E-01  0.56167964621E-01  0.51100000000E-03 0. -1.
</event>
<event>
 8    1  0.1129676E+005  0.1043930E+01  0.7957747E-01            NaN
         13   -1    0    0    0    0  0.00000000000E+00  0.00000000000E+00  0.74505805969E-08  0.10566000000E+00  0.10566000000E+00 0.  1.
     999900   -1    0    0    0    0 -0.00000000000E+00 -0.00000000000E+00 -0.74505805969E-08  0.93827000000E+00  0.93827000000E+00 0.  1.
     999902    2    1    2    0    0 -0.19078601350E-01  0.12428509903E-01  0.61516839690E-02  0.10203439002E+01  0.10200712576E+01 0.  0.
     999903    2    3    3    0    0 -0.90376987646E-01  0.67084803900E-01 -0.67903901577E-01  0.13267560624E+00  0.17986267853E-01 0.  0.
         14    1    1    2    0    0  0.19078601350E-01 -0.12428509903E-01 -0.61516839690E-02  0.23586099795E-01  0.00000000000E+00 0. -1.
     999901    1    3    3    0    0  0.71298386296E-01 -0.54656293997E-01  0.74055585546E-01  0.88766829397E+00  0.88000000000E+00 0. -1.
        -11    1    4    4    0    0 -0.62095408970E-01  0.40465615506E-01 -0.35939592408E-01  0.82372454601E-01  0.51100000000E-03 0. -1.
         11    1    4    4    0    0 -0.28281578676E-01  0.26619188393E-01 -0.31964309168E-01  0.50303151638E-01  0.51100000000E-03 0.  1.
</event>
<event>
 8    1  0.1129676E+005  0.1043930E+01  0.7957747E-01            NaN
         13   -1    0    0    0    0  0.00000000000E+00  0.00000000000E+00  0.74505805969E-08  0.10566000000E+00  0.10566000000E+00 0.  1.
     999900   -1    0    0    0    0 -0.00000000000E+00 -0.00000000000E+00 -0.74505805969E-08  0.93827000000E+00  0.93827000000E+00 0. -1.
     999902    2    1    2    0    0 -0.14742403570E-01  0.17941742412E-01 -0.21602852092E-02  0.10206080915E+01  0.10203415923E+01 0.  0.
     999903    2    3    3    0    0  0.52670085726E-01 -0.64120380045E-01 -0.96884401377E-01  0.12917593265E+00  0.20353704280E-01 0.  0.
         14    1    1    2    0    0  0.14742403570E-01 -0.17941742412E-01  0.21602852092E-02  0.23321908498E-01  0.00000000000E+00 0.  1.
     999901    1    3    3    0    0 -0.67412489296E-01  0.82062122457E-01  0.94724116167E-01  0.89143215885E+00  0.88000000000E+00 0.  1.
        -11    1    4    4    0    0  0.14696033065E-01 -0.13015640980E-01 -0.11815713419E-01  0.22918387870E-01  0.51100000000E-03 0.  1.
         11    1    4    4    0    0  0.37974052661E-01 -0.51104739066E-01 -0.85068687958E-01  0.10625754478E+00  0.51100000000E-03 0. -1.
</event>
<event>
 8    1  0.1129676E+005  0.1043930E+01  0.7957747E-01            NaN
         13   -1    0    0    0    0  0.00000000000E+00  0.00000000000E+00  0.74505805969E-08  0.10566000000E+00  0.10566000000E+00 0.  1.
     999900   -1    0    0    0    0 -0.00000000000E+00 -0.00000000000E+00 -0.74505805969E-08  0.93827000000E+00  0.93827000000E+00 0. -1.
     999902    2    1    2    0    0  0.41800317324E-02 -0.15372695229E-01 -0.16594198955E-01  0.10209265250E+01  0.10206673354E+01 0.  0.
     999903    2    3    3    0    0 -0.62176483441E-01  0.86084484234E-01  0.69472400246E-01  0.12845568184E+00  0.19949794010E-01 0.  0.
         14    1    1    2    0    0 -0.41800317324E-02  0.15372695229E-01  0.16594198955E-01  0.23003475017E-01  0.00000000000E+00 0.  1.
     999901    1    3    3    0    0  0.66356515173E-01 -0.10145717946E+00 -0.86066599201E-01  0.89247084315E+00  0.88000000000E+00 0.  1.
        -11    1    4    4    0    0 -0.52906687769E-01  0.82526466674E-01  0.64425415674E-01  0.11730571435E+00  0.51100000000E-03 0.  1.
         11    1    4    4    0    0 -0.92697956721E-02  0.35580175598E-02  0.50469845723E-02  0.11149967490E-01  0.51100000000E-03 0. -1.
</event>
<event>
 8    1  0.1129676E+005  0.1043930E+01  0.7957747E-01            NaN
         13   -1    0    0    0    0  0.00000000000E+00  0.00000000000E+00  0.74505805969E-08  0.10566000000E+00  0.10566000000E+00 0. -1.
     999900   -1    0    0    0    0 -0.00000000000E+00 -0.00000000000E+00 -0.74505805969E-08  0.93827000000E+00  0.93827000000E+00 0. -1.
     999902    2    1    2    0    0  0.14711837591E-01 -0.17271006566E-01 -0.57780493219E-02  0.10205182148E+01  0.10202496337E+01 0.  0.
     999903    2    3    3    0    0 -0.82847893684E-01  0.61148785541E-01  0.73605899393E-01  0.12812291209E+00  0.19867176827E-01 0.  0.
         14    1    1    2    0    0 -0.14711837591E-01  0.17271006566E-01  0.57780493219E-02  0.23411785217E-01  0.00000000000E+00 0.  1.
     999901    1    3    3    0    0  0.97559731275E-01 -0.78419792107E-01 -0.79383948714E-01  0.89239530270E+00  0.88000000000E+00 0. -1.
        -11    1    4    4    0    0 -0.79475289414E-01  0.54147690306E-01  0.72088408279E-01  0.12018857567E+00  0.51100000000E-03 0. -1.
         11    1    4    4    0    0 -0.33726042705E-02  0.70010952355E-02  0.15174911138E-02  0.79343364147E-02  0.51100000000E-03 0.  1.
</event>
<event>
 8    1  0.1129676E+005  0.1043930E+01  0.7957747E-01            NaN
         13   -1    0    0    0    0  0.00000000000E+00  0.00000000000E+00  0.74505805969E-08  0.10566000000E+00  0.10566000000E+00 0. -1.
     999900   -1    0    0    0    0 -0.00000000000E+00 -0.00000000000E+00 -0.74505805969E-08  0.93827000000E+00  0.93827000000E+00 0. -1.
     999902    2    1    2    0    0 -0.20382047549E-02  0.12312049270E-02  0.22598084281E-01  0.10212068057E+01  0.10209539640E+01 0.  0.
     999903    2    3    3    0    0 -0.64818544903E-01 -0.55827803528E-01 -0.94969425577E-01  0.12934402429E+00  0.19811547545E-01 0.  0.
         14    1    1    2    0    0  0.20382047549E-02 -0.12312049270E-02 -0.22598084281E-01  0.22723194259E-01  0.00000000000E+00 0.  1.
     999901    1    3    3    0    0  0.62780340148E-01  0.57059008455E-01  0.11756750986E+00  0.89186278145E+00  0.88000000000E+00 0.  1.
        -11    1    4    4    0    0 -0.40656990307E-01 -0.43494146251E-01 -0.74429380726E-01  0.95313826149E-01  0.51100000000E-03 0.  1.
         11    1    4    4    0    0 -0.24161554596E-01 -0.12333657277E-01 -0.20540044851E-01  0.34030198145E-01  0.51100000000E-03 0. -1.
</event>
<event>
 8    1  0.1129676E+005  0.1043930E+01  0.7957747E-01            NaN
         13   -1    0    0    0    0  0.00000000000E+00  0.00000000000E+00  0.74505805969E-08  0.10566000000E+00  0.10566000000E+00 0. -1.
     999900   -1    0    0    0    0 -0.00000000000E+00 -0.00000000000E+00 -0.74505805969E-08  0.93827000000E+00  0.93827000000E+00 0.  1.
     999902    2    1    2    0    0  0.17225181722E-01  0.12775219617E-01 -0.75274485622E-02  0.10212017004E+01  0.10209487437E+01 0.  0.
     999903    2    3    3    0    0  0.33258913837E-01 -0.35295136607E-01 -0.12246252005E+00  0.13228218188E+00  0.12231304498E-01 0.  0.
         14    1    1    2    0    0 -0.17225181722E-01 -0.12775219617E-01  0.75274485622E-02  0.22728299617E-01  0.00000000000E+00 0.  1.
     999901    1    3    3    0    0 -0.16033732115E-01  0.48070356224E-01  0.11493507149E+00  0.88891951850E+00  0.88000000000E+00 0. -1.
        -11    1    4    4    0    0  0.14393707071E-01 -0.71236373403E-02 -0.41825536015E-01  0.44805821008E-01  0.51100000000E-03 0. -1.
         11    1    4    4    0    0  0.18865206766E-01 -0.28171499266E-01 -0.80636984032E-01  0.87476360875E-01  0.51100000000E-03 0.  1.
</event>
<event>
 8    1  0.1129676E+005  0.1043930E+01  0.7957747E-01            NaN
         13   -1    0    0    0    0  0.00000000000E+00  0.00000000000E+00  0.74505805969E-08  0.10566000000E+00  0.10566000000E+00 0. -1.
     999900   -1    0    0    0    0 -0.00000000000E+00 -0.00000000000E+00 -0.74505805969E-08  0.93827000000E+00  0.93827000000E+00 0. -1.
     999902    2    1    2    0    0  0.14976553198E-01 -0.13043057264E-01 -0.15769577638E-02  0.10240075181E+01  0.10238136998E+01 0.  0.
     999903    2    3    3    0    0 -0.12527878187E-01  0.61032673419E-01  0.11551394100E+00  0.13274213329E+00  0.19876328341E-01 0.  0.
         14    1    1    2    0    0 -0.14976553198E-01  0.13043057264E-01  0.15769577638E-02  0.19922481880E-01  0.00000000000E+00 0.  1.
     999901    1    3    3    0    0  0.27504431385E-01 -0.74075730683E-01 -0.11709089877E+00  0.89126538483E+00  0.88000000000E+00 0. -1.
        -11    1    4    4    0    0 -0.17064357366E-01  0.36268589743E-01  0.66793397308E-01  0.77898792925E-01  0.51100000000E-03 0.  1.
         11    1    4    4    0    0  0.45364791790E-02  0.24764083676E-01  0.48720543693E-01  0.54843340365E-01  0.51100000000E-03 0. -1.
</event>
<event>
 8    1  0.1129676E+005  0.1043930E+01  0.7957747E-01            NaN
         13   -1    0    0    0    0  0.00000000000E+00  0.00000000000E+00  0.74505805969E-08  0.10566000000E+00  0.10566000000E+00 0.  1.
     999900   -1    0    0    0    0 -0.00000000000E+00 -0.00000000000E+00 -0.74505805969E-08  0.93827000000E+00  0.93827000000E+00 0.  1.
     999902    2    1    2    0    0  0.10767440157E-01 -0.12580194483E-01 -0.16103855077E-01  0.10208316622E+01  0.10205703059E+01 0.  0.
     999903    2    3    3    0    0 -0.11314480729E+00 -0.41147995967E-02  0.58405160342E-01  0.12899227007E+00  0.20227802388E-01 0.  0.
         14    1    1    2    0    0 -0.10767440157E-01  0.12580194483E-01  0.16103855077E-01  0.23098337800E-01  0.00000000000E+00 0.  1.
     999901    1    3    3    0    0  0.12391224745E+00 -0.84653948868E-02 -0.74509015419E-01  0.89183939213E+00  0.88000000000E+00 0.  1.
        -11    1    4    4    0    0 -0.37480908949E-02  0.26524198835E-02 -0.34482592934E-03  0.46328762682E-02  0.51100000000E-03 0.  1.
         11    1    4    4    0    0 -0.10939671640E+00 -0.67672194802E-02  0.58749986271E-01  0.12435939380E+00  0.51100000000E-03 0. -1.
</event>
<event>
 8    1  0.1129676E+005  0.1043930E+01  0.7957747E-01            NaN
         13   -1    0    0    0    0  0.00000000000E+00  0.00000000000E+00  0.74505805969E-08  0.10566000000E+00  0.10566000000E+00 0.  1.
     999900   -1    0    0    0    0 -0.00000000000E+00 -0.00000000000E+00 -0.74505805969E-08  0.93827000000E+00  0.93827000000E+00 0.  1.
     999902    2    1    2    0    0 -0.82464532593E-02 -0.11861486427E-01 -0.18135101374E-01  0.10207442123E+01  0.10204808504E+01 0.  0.
     999903    2    3    3    0    0 -0.28168378067E-01 -0.41944177677E-01 -0.12223497578E+00  0.13387407787E+00  0.20690767481E-01 0.  0.
         14    1    1    2    0    0  0.82464532593E-02  0.11861486427E-01  0.18135101374E-01  0.23185787748E-01  0.00000000000E+00 0.  1.
     999901    1    3    3    0    0  0.19921924808E-01  0.30082691250E-01  0.10409987441E+00  0.88687013438E+00  0.88000000000E+00 0. -1.
        -11    1    4    4    0    0 -0.18694205999E-01 -0.21534634918E-01 -0.43751276646E-01  0.52226900810E-01  0.51100000000E-03 0.  1.
         11    1    4    4    0    0 -0.94741720682E-02 -0.20409542759E-01 -0.78483699133E-01  0.81647177065E-01  0.51100000000E-03 0. -1.
</event>
<event>
 8    1  0.1129676E+005  0.1043930E+01  0.7957747E-01            NaN
         13   -1    0    0    0    0  0.00000000000E+00  0.00000000000E+00  0.74505805969E-08  0.10566000000E+00  0.10566000000E+00 0.  1.
     999900   -1    0    0    0    0 -0.00000000000E+00 -0.00000000000E+00 -0.74505805969E-08  0.93827000000E+00  0.93827000000E+00 0.  1.
     999902    2    1    2    0    0 -0.32307298135E-02  0.22288125453E-01  0.35858792549E-02  0.10211252487E+01  0.10208705681E+01 0.  0.
     999903    2    3    3    0    0  0.97705899895E-01  0.87426978214E-01  0.59681411645E-02  0.13296031553E+00  0.21281621263E-01 0.  0.
         14    1    1    2    0    0  0.32307298135E-02 -0.22288125453E-01 -0.35858792549E-02  0.22804751289E-01  0.00000000000E+00 0. -1.
     999901    1    3    3    0    0 -0.10093662971E+00 -0.65138852760E-01 -0.23822619096E-02  0.88816493318E+00  0.88000000000E+00 0.  1.
        -11    1    4    4    0    0  0.70536163806E-01  0.52975426385E-01 -0.25937809315E-02  0.88253810261E-01  0.51100000000E-03 0. -1.
         11    1    4    4    0    0  0.27169736089E-01  0.34451551829E-01  0.85619220960E-02  0.44706505271E-01  0.51100000000E-03 0.  1.
</event>
<event>
 8    1  0.1129676E+005  0.1043930E+01  0.7957747E-01            NaN
         13   -1    0    0    0    0  0.00000000000E+00  0.00000000000E+00  0.74505805969E-08  0.10566000000E+00  0.10566000000E+00 0.  1.
     999900   -1    0    0    0    0 -0.00000000000E+00 -0.00000000000E+00 -0.74505805969E-08  0.93827000000E+00  0.93827000000E+00 0. -1.
     999902    2    1    2    0    0 -0.23277658449E-01 -0.29323883958E-02 -0.48394484606E-02  0.10199744464E+01  0.10196930925E+01 0.  0.
     999903    2    3    3    0    0  0.12324685650E+00  0.17034852362E-01  0.63194825476E-02  0.12756610610E+00  0.27444520991E-01 0.  0.
         14    1    1    2    0    0  0.23277658449E-01  0.29323883958E-02  0.48394484606E-02  0.23955553552E-01  0.00000000000E+00 0. -1.
     999901    1    3    3    0    0 -0.14652451495E+00 -0.19967240757E-01 -0.11158931008E-01  0.89240834035E+00  0.88000000000E+00 0. -1.
        -11    1    4    4    0    0  0.96907918950E-01  0.18958203705E-01 -0.49007745248E-02  0.98867775109E-01  0.51100000000E-03 0.  1.
         11    1    4    4    0    0  0.26338937552E-01 -0.19233513431E-02  0.11220257072E-01  0.28698330989E-01  0.51100000000E-03 0. -1.
</event>
<event>
 8    1  0.1129676E+005  0.1043930E+01  0.7957747E-01            NaN
         13   -1    0    0    0    0  0.00000000000E+00  0.00000000000E+00  0.74505805969E-08  0.10566000000E+00  0.10566000000E+00 0. -1.
     999900   -1    0    0    0    0 -0.00000000000E+00 -0.00000000000E+00 -0.74505805969E-08  0.93827000000E+00  0.93827000000E+00 0. -1.
     999902    2    1    2    0    0 -0.16563416171E-01  0.16823362838E-01 -0.38114958224E-02  0.10200155735E+01  0.10197351963E+01 0.  0.
     999903    2    3    3    0    0 -0.10162133870E+00 -0.34453630226E-02  0.80935206568E-01  0.13163070481E+00  0.20913339772E-01 0.  0.
         14    1    1    2    0    0  0.16563416171E-01 -0.16823362838E-01  0.38114958224E-02  0.23914426458E-01  0.00000000000E+00 0. -1.
     999901    1    3    3    0    0  0.85057922527E-01  0.20268725860E-01 -0.84746702391E-01  0.88838486874E+00  0.88000000000E+00 0. -1.
        -11    1    4    4    0    0 -0.23891121745E-01  0.61468186137E-02  0.26752440970E-01  0.36394000826E-01  0.51100000000E-03 0.  1.
         11    1    4    4    0    0 -0.77730216952E-01 -0.95921816363E-02  0.54182765599E-01  0.95236703980E-01  0.51100000000E-03 0. -1.
</event>
<event>
 8    1  0.1129676E+005  0.1043930E+01  0.7957747E-01            NaN
         13   -1    0    0    0    0  0.00000000000E+00  0.00000000000E+00  0.74505805969E-08  0.10566000000E+00  0.10566000000E+00 0. -1.
     999900   -1    0    0    0    0 -0.00000000000E+00 -0.00000000000E+00 -0.74505805969E-08  0.93827000000E+00  0.93827000000E+00 0. -1.
     999902    2    1    2    0    0 -0.21332498538E-01  0.96602423518E-02  0.29325783993E-02  0.10203292417E+01  0.10200562561E+01 0.  0.
     999903    2    3    3    0    0 -0.11605476728E+00 -0.38280872122E-01 -0.47590228961E-01  0.13250988355E+00  0.18971166677E-01 0.  0.
         14    1    1    2    0    0  0.21332498538E-01 -0.96602423518E-02 -0.29325783993E-02  0.23600758298E-01  0.00000000000E+00 0. -1.
     999901    1    3    3    0    0  0.94722268746E-01  0.47941114473E-01  0.50522807361E-01  0.88781935816E+00  0.88000000000E+00 0.  1.
        -11    1    4    4    0    0 -0.19136650898E-01 -0.11453471716E-01 -0.14650212875E-01  0.26688635788E-01  0.51100000000E-03 0.  1.
         11    1    4    4    0    0 -0.96918116386E-01 -0.26827400405E-01 -0.32940016086E-01  0.10582124776E+00  0.51100000000E-03 0. -1.
</event>
<event>
 8    1  0.1129676E+005  0.1043930E+01  0.7957747E-01            NaN
         13   -1    0    0    0    0  0.00000000000E+00  0.00000000000E+00  0.74505805969E-08  0.10566000000E+00  0.10566000000E+00 0.  1.
     999900   -1    0    0    0    0 -0.00000000000E+00 -0.00000000000E+00 -0.74505805969E-08  0.93827000000E+00  0.93827000000E+00 0.  1.
     999902    2    1    2    0    0  0.19270452433E-01 -0.12808006273E-01 -0.51938357751E-02  0.10202156311E+01  0.10199399799E+01 0.  0.
     999903    2    3    3    0    0 -0.85674459815E-01  0.79127804001E-01  0.47881800924E-01  0.12764482102E+00  0.19980266339E-01 0.  0.
         14    1    1    2    0    0 -0.19270452433E-01  0.12808006273E-01  0.51938357751E-02  0.23714368888E-01  0.00000000000E+00 0. -1.
     999901    1    3    3    0    0  0.10494491225E+00 -0.91935810274E-01 -0.53075636699E-01  0.89257081009E+00  0.88000000000E+00 0. -1.
        -11    1    4    4    0    0 -0.61153642176E-01  0.43499714871E-01  0.29195777630E-01  0.80527310259E-01  0.51100000000E-03 0.  1.
         11    1    4    4    0    0 -0.24520817640E-01  0.35628089130E-01  0.18686023294E-01  0.47117510761E-01  0.51100000000E-03 0. -1.
</event>
<event>
 8    1  0.1129676E+005  0.1043930E+01  0.7957747E-01            NaN
         13   -1    0    0    0    0  0.00000000000E+00  0.00000000000E+00  0.74505805969E-08  0.10566000000E+00  0.10566000000E+00 0. -1.
     999900   -1    0    0    0    0 -0.00000000000E+00 -0.00000000000E+00 -0.74505805969E-08  0.93827000000E+00  0.93827000000E+00 0.  1.
     999902    2    1    2    0    0  0.22003610907E-01  0.70206362106E-02 -0.15239638396E-02  0.10207832790E+01  0.10205208141E+01 0.  0.
     999903    2    3    3    0    0  0.45432462533E-01 -0.59569813648E-01  0.10615500199E+00  0.13141386266E+00  0.19698921298E-01 0.  0.
         14    1    1    2    0    0 -0.22003610907E-01 -0.70206362106E-02  0.15239638396E-02  0.23146720967E-01  0.00000000000E+00 0. -1.
     999901    1    3    3    0    0 -0.23428851626E-01  0.66590449859E-01 -0.10767896583E+00  0.88936941638E+00  0.88000000000E+00 0.  1.
        -11    1    4    4    0    0  0.24524478229E-01 -0.39190640712E-01  0.79015883608E-01  0.91548497176E-01  0.51100000000E-03 0. -1.
         11    1    4    4    0    0  0.20907984303E-01 -0.20379172936E-01  0.27139118387E-01  0.39865365482E-01  0.51100000000E-03 0.  1.
</event>
<event>
 8    1  0.1129676E+005  0.1043930E+01  0.7957747E-01            NaN
         13   -1    0    0    0    0  0.00000000000E+00  0.00000000000E+00  0.74505805969E-08  0.10566000000E+00  0.10566000000E+00 0.  1.
     999900   -1    0    0    0    0 -0.00000000000E+00 -0.00000000000E+00 -0.74505805969E-08  0.93827000000E+00  0.93827000000E+00 0.  1.
     999902    2    1    2    0    0 -0.20829803630E-01  0.16836120558E-02  0.97464934510E-02  0.10208711752E+01  0.10206107225E+01 0.  0.
     999903    2    3    3    0    0  0.10356210436E+00  0.74696253371E-01  0.27828929044E-02  0.12910176308E+00  0.18838285779E-01 0.  0.
         14    1    1    2    0    0  0.20829803630E-01 -0.16836120558E-02 -0.97464934510E-02  0.23058824849E-01  0.00000000000E+00 0. -1.
     999901    1    3    3    0    0 -0.12439190799E+00 -0.73012641316E-01  0.69636005466E-02  0.89176941207E+00  0.88000000000E+00 0. -1.
        -11    1    4    4    0    0  0.97626909807E-01  0.64016278944E-01  0.39921186251E-02  0.11681307983E+00  0.51100000000E-03 0. -1.
         11    1    4    4    0    0  0.59351945543E-02  0.10679974428E-01 -0.12092257207E-02  0.12288683250E-01  0.51100000000E-03 0.  1.
</event>
<event>
 8    1  0.1129676E+005  0.1043930E+01  0.7957747E-01            NaN
         13   -1    0    0    0    0  0.00000000000E+00  0.00000000000E+00  0.74505805969E-08  0.10566000000E+00  0.10566000000E+00 0. -1.
     999900   -1    0    0    0    0 -0.00000000000E+00 -0.00000000000E+00 -0.74505805969E-08  0.93827000000E+00  0.93827000000E+00 0.  1.
     999902    2    1    2    0    0 -0.17009931732E-01  0.30321592562E-02  0.23622102106E-01  0.10146633727E+01  0.10142412062E+01 0.  0.
     999903    2    3    3    0    0 -0.14616430508E-01  0.11495539367E+00 -0.42777044948E-01  0.12508966241E+00  0.19727277894E-01 0.  0.
         14    1    1    2    0    0  0.17009931732E-01 -0.30321592562E-02 -0.23622102106E-01  0.29266627329E-01  0.00000000000E+00 0.  1.
     999901    1    3    3    0    0 -0.23935012238E-02 -0.11192323442E+00  0.66399147054E-01  0.88957371026E+00  0.88000000000E+00 0.  1.
        -11    1    4    4    0    0 -0.90077204593E-03  0.17955221262E-02  0.17496703865E-02  0.27125186536E-02  0.51100000000E-03 0. -1.
         11    1    4    4    0    0 -0.13715658462E-01  0.11315987155E+00 -0.44526715334E-01  0.12237714376E+00  0.51100000000E-03 0.  1.
</event>
<event>
 8    1  0.1129676E+005  0.1043930E+01  0.7957747E-01            NaN
         13   -1    0    0    0    0  0.00000000000E+00  0.00000000000E+00  0.74505805969E-08  0.10566000000E+00  0.10566000000E+00 0. -1.
     999900   -1    0    0    0    0 -0.00000000000E+00 -0.00000000000E+00 -0.74505805969E-08  0.93827000000E+00  0.93827000000E+00 0. -1.
     999902    2    1    2    0    0  0.56762481006E-02  0.25297226177E-02  0.23334734472E-01  0.10197819334E+01  0.10194959845E+01 0.  0.
     999903    2    3    3    0    0 -0.11948456337E+00 -0.17953596554E-01 -0.39019899719E-01  0.12850594048E+00  0.19807363603E-01 0.  0.
         14    1    1    2    0    0 -0.56762481006E-02 -0.25297226177E-02 -0.23334734472E-01  0.24148066628E-01  0.00000000000E+00 0. -1.
     999901    1    3    3    0    0  0.12516081147E+00  0.20483319172E-01  0.62354634190E-01  0.89127599289E+00  0.88000000000E+00 0.  1.
        -11    1    4    4    0    0 -0.78115229197E-01 -0.44411345414E-02 -0.18563412626E-01  0.80415011769E-01  0.51100000000E-03 0.  1.
         11    1    4    4    0    0 -0.41369334172E-01 -0.13512462013E-01 -0.20456487093E-01  0.48090928715E-01  0.51100000000E-03 0. -1.
</event>
<event>
 8    1  0.1129676E+005  0.1043930E+01  0.7957747E-01            NaN
         13   -1    0    0    0    0  0.00000000000E+00  0.00000000000E+00  0.74505805969E-08  0.10566000000E+00  0.10566000000E+00 0. -1.
     999900   -1    0    0    0    0 -0.00000000000E+00 -0.00000000000E+00 -0.74505805969E-08  0.93827000000E+00  0.93827000000E+00 0. -1.
     999902    2    1    2    0    0 -0.65587288052E-02  0.21043141941E-01  0.55938064405E-02  0.10211896962E+01  0.10209364692E+01 0.  0.
     999903    2    3    3    0    0  0.28276212930E-01  0.73998898889E-01 -0.10390842561E+00  0.13214047137E+00  0.19717048600E-01 0.  0.
         14    1    1    2    0    0  0.65587288052E-02 -0.21043141941E-01 -0.55938064405E-02  0.22740303797E-01  0.00000000000E+00 0.  1.
     999901    1    3    3    0    0 -0.34834941735E-01 -0.52955756948E-01  0.10950223205E+00  0.88904922484E+00  0.88000000000E+00 0.  1.
        -11    1    4    4    0    0  0.12532623740E-01  0.57062629107E-01 -0.77033877357E-01  0.96683450911E-01  0.51100000000E-03 0.  1.
         11    1    4    4    0    0  0.15743589190E-01  0.16936269782E-01 -0.26874548253E-01  0.35457020455E-01  0.51100000000E-03 0. -1.
</event>
<event>
 8    1  0.1129676E+005  0.1043930E+01  0.7957747E-01            NaN
         13   -1    0    0    0    0  0.00000000000E+00  0.00000000000E+00  0.74505805969E-08  0.10566000000E+00  0.10566000000E+00 0.  1.
     999900   -1    0    0    0    0 -0.00000000000E+00 -0.00000000000E+00 -0.74505805969E-08  0.93827000000E+00  0.93827000000E+00 0. -1.
     999902    2    1    2    0    0  0.10906559518E-01  0.19435628099E-01 -0.11076592417E-01  0.10190425015E+01  0.10187385496E+01 0.  0.
     999903    2    3    3    0    0 -0.79965518219E-01  0.10064682227E+00 -0.13014260973E-01  0.13064127060E+00  0.19326242727E-01 0.  0.
         14    1    1    2    0    0 -0.10906559518E-01 -0.19435628099E-01  0.11076592417E-01  0.24887498462E-01  0.00000000000E+00 0. -1.
     999901    1    3    3    0    0  0.90872077737E-01 -0.81211194173E-01  0.19376685556E-02  0.88840123094E+00  0.88000000000E+00 0.  1.
        -11    1    4    4    0    0 -0.17766774223E-01  0.35037668142E-01  0.95586516430E-04  0.39288251589E-01  0.51100000000E-03 0.  1.
         11    1    4    4    0    0 -0.62198743996E-01  0.65609154130E-01 -0.13109847489E-01  0.91353019011E-01  0.51100000000E-03 0. -1.
</event>
<event>
 8    1  0.1129676E+005  0.1043930E+01  0.7957747E-01            NaN
         13   -1    0    0    0    0  0.00000000000E+00  0.00000000000E+00  0.74505805969E-08  0.10566000000E+00  0.10566000000E+00 0. -1.
     999900   -1    0    0    0    0 -0.00000000000E+00 -0.00000000000E+00 -0.74505805969E-08  0.93827000000E+00  0.93827000000E+00 0. -1.
     999902    2    1    2    0    0 -0.12892837253E-04  0.24601774318E-01 -0.16077130996E-01  0.10145408590E+01  0.10141150985E+01 0.  0.
     999903    2    3    3    0    0  0.49095688170E-01 -0.43055754302E-01  0.10186838165E+00  0.12274472882E+00  0.20613507651E-01 0.  0.
         14    1    1    2    0    0  0.12892837253E-04 -0.24601774318E-01  0.16077130996E-01  0.29389140969E-01  0.00000000000E+00 0. -1.
     999901    1    3    3    0    0 -0.49108581007E-01  0.67657528621E-01 -0.11794551265E+00  0.89179613021E+00  0.88000000000E+00 0. -1.
        -11    1    4    4    0    0  0.18261696829E-01 -0.49304443972E-02  0.35474860684E-01  0.40206040772E-01  0.51100000000E-03 0.  1.
         11    1    4    4    0    0  0.30833991341E-01 -0.38125309905E-01  0.66393520965E-01  0.82538688047E-01  0.51100000000E-03 0. -1.
</event>
<event>
 8    1  0.1129676E+005  0.1043930E+01  0.7957747E-01            NaN
         13   -1    0    0    0    0  0.00000000000E+00  0.00000000000E+00  0.74505805969E-08  0.10566000000E+00  0.10566000000E+00 0. -1.
     999900   -1    0    0    0    0 -0.00000000000E+00 -0.00000000000E+00 -0.74505805969E-08  0.93827000000E+00  0.93827000000E+00 0.  1.
     999902    2    1    2    0    0 -0.16259308073E-01  0.12774825229E-01  0.13507592087E-01  0.10192314919E+01  0.10189321949E+01 0.  0.
     999903    2    3    3    0    0 -0.63145658919E-01  0.12028010294E-01 -0.11046703232E+00  0.12930531792E+00  0.19617663972E-01 0.  0.
         14    1    1    2    0    0  0.16259308073E-01 -0.12774825229E-01 -0.13507592087E-01  0.24698508105E-01  0.00000000000E+00 0.  1.
     999901    1    3    3    0    0  0.46886350846E-01  0.74681493554E-03  0.12397462441E+00  0.88992617398E+00  0.88000000000E+00 0. -1.
        -11    1    4    4    0    0 -0.46883093361E-01  0.78067571428E-02 -0.96021332903E-01  0.10714162307E+00  0.51100000000E-03 0.  1.
         11    1    4    4    0    0 -0.16262565558E-01  0.42212531507E-02 -0.14445699421E-01  0.22163694851E-01  0.51100000000E-03 0. -1.
</event>
<event>
 7    1  0.1129676E+005  0.1043930E+01  0.7957747E-01            NaN
         13   -1    0    0    0    0  0.00000000000E+00  0.00000000000E+00  0.74505805969E-08  0.10566000000E+00  0.10566000000E+00 0.  1.
     999900   -1    0    0    0    0 -0.00000000000E+00 -0.00000000000E+00 -0.74505805969E-08  0.93827000000E+00  0.93827000000E+00 0.  1.
     999902    2    1    2    0    0 -0.46433499775E-02  0.22917387067E-01  0.40115162256E-02  0.10202053379E+01  0.10199294446E+01 0.  0.
         14    1    1    2    0    0  0.46433499775E-02 -0.22917387067E-01 -0.40115162256E-02  0.23724662093E-01  0.00000000000E+00 0.  1.
     999901    1    3    3    0    0  0.23741879204E-01  0.13878608256E+00 -0.21151553316E-01  0.89144413271E+00  0.88000000000E+00 0.  1.
        -11    1    3    3    0    0 -0.30580624457E-01 -0.81075716290E-01  0.33515933318E-01  0.92908693196E-01  0.51100000000E-03 0. -1.
         11    1    3    3    0    0  0.21953952749E-02 -0.34792979204E-01 -0.83528637761E-02  0.35852511998E-01  0.51100000000E-03 0.  1.
</event>
<event>
 7    1  0.1425207E+005  0.1043930E+01  0.7957747E-01            NaN
         13   -1    0    0    0    0  0.00000000000E+00  0.00000000000E+00  0.74505805969E-08  0.10566000000E+00  0.10566000000E+00 0.  1.
     999900   -1    0    0    0    0 -0.00000000000E+00 -0.00000000000E+00 -0.74505805969E-08  0.93827000000E+00  0.93827000000E+00 0.  1.
     999903    2    1    2    0    0  0.11423226569E-01  0.90956108034E-01 -0.32504825559E-01  0.99342235384E-01  0.20219108601E-01 0.  0.
         14    1    1    2    0    0  0.48190123702E-02 -0.55634827550E-01 -0.26385877567E-01  0.61763026576E-01  0.00000000000E+00 0.  1.
     999901    1    1    2    0    0 -0.16242238940E-01 -0.35321280483E-01  0.58890703127E-01  0.88282473804E+00  0.88000000000E+00 0. -1.
        -11    1    3    3    0    0  0.13460887264E-01  0.30368231554E-01 -0.10351844265E-01  0.34797223659E-01  0.51100000000E-03 0.  1.
         11    1    3    3    0    0 -0.20376606950E-02  0.60587876480E-01 -0.22152981294E-01  0.64545011726E-01  0.51100000000E-03 0. -1.
</event>
<event>
 8    1  0.1129676E+005  0.1043930E+01  0.7957747E-01            NaN
         13   -1    0    0    0    0  0.00000000000E+00  0.00000000000E+00  0.74505805969E-08  0.10566000000E+00  0.10566000000E+00 0.  1.
     999900   -1    0    0    0    0 -0.00000000000E+00 -0.00000000000E+00 -0.74505805969E-08  0.93827000000E+00  0.93827000000E+00 0. -1.
     999902    2    1    2    0    0 -0.22960166030E-01  0.12999371955E-01 -0.11489445911E-01  0.10151522262E+01  0.10147442447E+01 0.  0.
     999903    2    3    3    0    0  0.11048009924E+00  0.22840432260E-01  0.45369898634E-01  0.12322390181E+00  0.19954062270E-01 0.  0.
         14    1    1    2    0    0  0.22960166030E-01 -0.12999371955E-01  0.11489445911E-01  0.28777773762E-01  0.00000000000E+00 0. -1.
     999901    1    3    3    0    0 -0.13344026527E+00 -0.98410603046E-02 -0.56859344545E-01  0.89192832443E+00  0.88000000000E+00 0.  1.
        -11    1    4    4    0    0  0.27860070469E-01  0.47134986595E-02  0.24374364982E-02  0.28365521568E-01  0.51100000000E-03 0. -1.
         11    1    4    4    0    0  0.82620028767E-01  0.18126933600E-01  0.42932462135E-01  0.94858380238E-01  0.51100000000E-03 0.  1.
</event>
<event>
 8    1  0.1129676E+005  0.1043930E+01  0.7957747E-01            NaN
         13   -1    0    0    0    0  0.00000000000E+00  0.00000000000E+00  0.74505805969E-08  0.10566000000E+00  0.10566000000E+00 0. -1.
     999900   -1    0    0    0    0 -0.00000000000E+00 -0.00000000000E+00 -0.74505805969E-08  0.93827000000E+00  0.93827000000E+00 0.  1.
     999902    2    1    2    0    0  0.11207572051E-01  0.19535680466E-01 -0.76574293779E-02  0.10201415846E+01  0.10198641890E+01 0.  0.
     999903    2    3    3    0    0 -0.65858289034E-01  0.11165700024E+00  0.12637571728E-01  0.13175125846E+00  0.19851598176E-01 0.  0.
         14    1    1    2    0    0 -0.11207572051E-01 -0.19535680466E-01  0.76574293779E-02  0.23788415399E-01  0.00000000000E+00 0. -1.
     999901    1    3    3    0    0  0.77065861085E-01 -0.92121319777E-01 -0.20295001106E-01  0.88839032614E+00  0.88000000000E+00 0.  1.
        -11    1    4    4    0    0 -0.49915394696E-01  0.76380830797E-01  0.16915448381E-01  0.92800708272E-01  0.51100000000E-03 0.  1.
         11    1    4    4    0    0 -0.15942894338E-01  0.35276169445E-01 -0.42778766529E-02  0.38950550192E-01  0.51100000000E-03 0. -1.
</event>
<event>
 8    1  0.1129676E+005  0.1043930E+01  0.7957747E-01            NaN
         13   -1    0    0    0    0  0.00000000000E+00  0.00000000000E+00  0.74505805969E-08  0.10566000000E+00  0.10566000000E+00 0.  1.
     999900   -1    0    0    0    0 -0.00000000000E+00 -0.00000000000E+00 -0.74505805969E-08  0.93827000000E+00  0.93827000000E+00 0.  1.
     999902    2    1    2    0    0  0.14283612388E-01  0.37250300421E-02  0.20429536795E-01  0.10187255677E+01  0.10184137268E+01 0.  0.
     999903    2    3    3    0    0 -0.14028359724E-01  0.12590368697E+00  0.20114660974E-01  0.12983339705E+00  0.20089254209E-01 0.  0.
         14    1    1    2    0    0 -0.14283612388E-01 -0.37250300421E-02 -0.20429536795E-01  0.25204432256E-01  0.00000000000E+00 0. -1.
     999901    1    3    3    0    0  0.28311972112E-01 -0.12217865693E+00  0.31487582107E-03  0.88889217069E+00  0.88000000000E+00 0.  1.
        -11    1    4    4    0    0 -0.13457681884E-01  0.86850913598E-01  0.22425662403E-01  0.90704806100E-01  0.51100000000E-03 0. -1.
         11    1    4    4    0    0 -0.57067784043E-03  0.39052773371E-01 -0.23110014282E-02  0.39128590951E-01  0.51100000000E-03 0.  1.
</event>
<event>
 8    1  0.1129676E+005  0.1043930E+01  0.7957747E-01            NaN
         13   -1    0    0    0    0  0.00000000000E+00  0.00000000000E+00  0.74505805969E-08  0.10566000000E+00  0.10566000000E+00 0. -1.
     999900   -1    0    0    0    0 -0.00000000000E+00 -0.00000000000E+00 -0.74505805969E-08  0.93827000000E+00  0.93827000000E+00 0. -1.
     999902    2    1    2    0    0  0.22767669994E-01  0.59953552494E-02  0.33210521159E-02  0.10201531106E+01  0.10198759869E+01 0.  0.
     999903    2    3    3    0    0  0.60371732510E-01 -0.60259471364E-01  0.98430805849E-01  0.13175588369E+00  0.19875597357E-01 0.  0.
         14    1    1    2    0    0 -0.22767669994E-01 -0.59953552494E-02 -0.33210521159E-02  0.23776889382E-01  0.00000000000E+00 0.  1.
     999901    1    3    3    0    0 -0.37604062516E-01  0.66254826614E-01 -0.95109753733E-01  0.88839722693E+00  0.88000000000E+00 0. -1.
        -11    1    4    4    0    0  0.41674620890E-02 -0.13861212407E-01  0.13021351105E-01  0.19476079052E-01  0.51100000000E-03 0.  1.
         11    1    4    4    0    0  0.56204270421E-01 -0.46398258958E-01  0.85409454744E-01  0.11227980463E+00  0.51100000000E-03 0. -1.
</event>
<event>
 8    1  0.1129676E+005  0.1043930E+01  0.7957747E-01            NaN
         13   -1    0    0    0    0  0.00000000000E+00  0.00000000000E+00  0.74505805969E-08  0.10566000000E+00  0.10566000000E+00 0.  1.
     999900   -1    0    0    0    0 -0.00000000000E+00 -0.00000000000E+00 -0.74505805969E-08  0.93827000000E+00  0.93827000000E+00 0. -1.
     999902    2    1    2    0    0 -0.93834632378E-02 -0.23017917710E-02 -0.22849125164E-01  0.10191221354E+01  0.10188201493E+01 0.  0.
     999903    2    3    3    0    0 -0.23099824507E-01 -0.11500706383E+00  0.48992010406E-01  0.12892453612E+00  0.21473060029E-01 0.  0.
         14    1    1    2    0    0  0.93834632378E-02  0.23017917710E-02  0.22849125164E-01  0.24807864649E-01  0.00000000000E+00 0.  1.
     999901    1    3    3    0    0  0.13716361270E-01  0.11270527206E+00 -0.71841135570E-01  0.89019759923E+00  0.88000000000E+00 0. -1.
        -11    1    4    4    0    0 -0.26131841396E-01 -0.97676578305E-01  0.37202655981E-01  0.10773989891E+00  0.51100000000E-03 0. -1.
         11    1    4    4    0    0  0.30320168886E-02 -0.17330485525E-01  0.11789354425E-01  0.21184637210E-01  0.51100000000E-03 0.  1.
</event>
<event>
 8    1  0.1129676E+005  0.1043930E+01  0.7957747E-01            NaN
         13   -1    0    0    0    0  0.00000000000E+00  0.00000000000E+00  0.74505805969E-08  0.10566000000E+00  0.10566000000E+00 0.  1.
     999900   -1    0    0    0    0 -0.00000000000E+00 -0.00000000000E+00 -0.74505805969E-08  0.93827000000E+00  0.93827000000E+00 0. -1.
     999902    2    1    2    0    0  0.72120131928E-02  0.62293201021E-02 -0.21372294469E-01  0.10205293048E+01  0.10202609811E+01 0.  0.
     999903    2    3    3    0    0  0.10184815418E+00  0.80033251273E-01 -0.19014768159E-01  0.13238034359E+00  0.19611887766E-01 0.  0.
         14    1    1    2    0    0 -0.72120131928E-02 -0.62293201021E-02  0.21372294469E-01  0.23400695163E-01  0.00000000000E+00 0.  1.
     999901    1    3    3    0    0 -0.94636140985E-01 -0.73803931171E-01 -0.23575263099E-02  0.88814896125E+00  0.88000000000E+00 0. -1.
        -11    1    4    4    0    0  0.38738801635E-01  0.37431220226E-01  0.11014219721E-03  0.53870810761E-01  0.51100000000E-03 0.  1.
         11    1    4    4    0    0  0.63109352543E-01  0.42602031046E-01 -0.19124910357E-01  0.78509532828E-01  0.51100000000E-03 0. -1.
</event>
<event>
 8    1  0.1129676E+005  0.1043930E+01  0.7957747E-01            NaN
         13   -1    0    0    0    0  0.00000000000E+00  0.00000000000E+00  0.74505805969E-08  0.10566000000E+00  0.10566000000E+00 0. -1.
     999900   -1    0    0    0    0 -0.00000000000E+00 -0.00000000000E+00 -0.74505805969E-08  0.93827000000E+00  0.93827000000E+00 0. -1.
     999902    2    1    2    0    0 -0.11089720611E-01  0.30871367072E-02  0.18944197676E-01  0.10217625702E+01  0.10215220776E+01 0.  0.
     999903    2    3    3    0    0 -0.11091819619E+00 -0.13100373286E-01 -0.67117766199E-01  0.13179941278E+00  0.19794560957E-01 0.  0.
         14    1    1    2    0    0  0.11089720611E-01 -0.30871367072E-02 -0.18944197676E-01  0.22167429753E-01  0.00000000000E+00 0.  1.
     999901    1    3    3    0    0  0.99828475582E-01  0.16187509993E-01  0.86061963875E-01  0.88996315746E+00  0.88000000000E+00 0. -1.
        -11    1    4    4    0    0 -0.53985830214E-01  0.30119575191E-02 -0.35830104868E-01  0.64866010266E-01  0.51100000000E-03 0. -1.
         11    1    4    4    0    0 -0.56932365979E-01 -0.16112330805E-01 -0.31287661331E-01  0.66933402517E-01  0.51100000000E-03 0.  1.
</event>
<event>
 8    1  0.1129676E+005  0.1043930E+01  0.7957747E-01            NaN
         13   -1    0    0    0    0  0.00000000000E+00  0.00000000000E+00  0.74505805969E-08  0.10566000000E+00  0.10566000000E+00 0. -1.
     999900   -1    0    0    0    0 -0.00000000000E+00 -0.00000000000E+00 -0.74505805969E-08  0.93827000000E+00  0.93827000000E+00 0. -1.
     999902    2    1    2    0    0  0.15515844129E-02 -0.14594330062E-01  0.17973010696E-01  0.10207258840E+01  0.10204621009E+01 0.  0.
     999903    2    3    3    0    0 -0.12469889647E+00  0.38751538991E-02 -0.30559391391E-01  0.13020036514E+00  0.21293827327E-01 0.  0.
         14    1    1    2    0    0 -0.15515844129E-02  0.14594330062E-01 -0.17973010696E-01  0.23204115963E-01  0.00000000000E+00 0.  1.
     999901    1    3    3    0    0  0.12625048088E+00 -0.18469483961E-01  0.48532402087E-01  0.89052551890E+00  0.88000000000E+00 0. -1.
        -11    1    4    4    0    0 -0.10998565326E+00  0.23013021802E-02 -0.33716042987E-01  0.11506160346E+00  0.51100000000E-03 0. -1.
         11    1    4    4    0    0 -0.14713243205E-01  0.15738517188E-02  0.31566515967E-02  0.15138761678E-01  0.51100000000E-03 0.  1.
</event>
<event>
 8    1  0.1129676E+005  0.1043930E+01  0.7957747E-01            NaN
         13   -1    0    0    0    0  0.00000000000E+00  0.00000000000E+00  0.74505805969E-08  0.10566000000E+00  0.10566000000E+00 0.  1.
     999900   -1    0    0    0    0 -0.00000000000E+00 -0.00000000000E+00 -0.74505805969E-08  0.93827000000E+00  0.93827000000E+00 0. -1.
     999902    2    1    2    0    0  0.41865522570E-02 -0.19785914132E-01  0.66876755058E-02  0.10226289526E+01  0.10224070814E+01 0.  0.
     999903    2    3    3    0    0  0.54221325674E-01  0.18565964270E-01 -0.11689392122E+00  0.13176041223E+00  0.20297049678E-01 0.  0.
         14    1    1    2    0    0 -0.41865522570E-02  0.19785914132E-01 -0.66876755058E-02  0.21301047428E-01  0.00000000000E+00 0.  1.
     999901    1    3    3    0    0 -0.50034773417E-01 -0.38351878403E-01  0.12358159672E+00  0.89086854035E+00  0.88000000000E+00 0.  1.
        -11    1    4    4    0    0  0.14716013293E-01 -0.31567563211E-02 -0.38269745067E-01  0.41126155500E-01  0.51100000000E-03 0.  1.
         11    1    4    4    0    0  0.39505312381E-01  0.21722720592E-01 -0.78624176150E-01  0.90634256727E-01  0.51100000000E-03 0. -1.
</event>
<event>
 8    1  0.1129676E+005  0.1043930E+01  0.7957747E-01            NaN
         13   -1    0    0    0    0  0.00000000000E+00  0.00000000000E+00  0.74505805969E-08  0.10566000000E+00  0.10566000000E+00 0. -1.
     999900   -1    0    0    0    0 -0.00000000000E+00 -0.00000000000E+00 -0.74505805969E-08  0.93827000000E+00  0.93827000000E+00 0. -1.
     999902    2    1    2    0    0  0.19489638277E-01 -0.87719282628E-02  0.78585624605E-02  0.10211583130E+01  0.10209043787E+01 0.  0.
     999903    2    3    3    0    0  0.74976497007E-01  0.87824764053E-01 -0.59675926210E-01  0.13156817162E+00  0.20354442492E-01 0.  0.
         14    1    1    2    0    0 -0.19489638277E-01  0.87719282628E-02 -0.78585624605E-02  0.22771687016E-01  0.00000000000E+00 0.  1.
     999901    1    3    3    0    0 -0.55486858731E-01 -0.96596692315E-01  0.67534488671E-01  0.88959014137E+00  0.88000000000E+00 0.  1.
        -11    1    4    4    0    0  0.41605126703E-01  0.33456014672E-01 -0.29453803323E-01  0.60976053799E-01  0.51100000000E-03 0. -1.
         11    1    4    4    0    0  0.33371370305E-01  0.54368749381E-01 -0.30222122887E-01  0.70592117818E-01  0.51100000000E-03 0.  1.
</event>
<event>
 8    1  0.1129676E+005  0.1043930E+01  0.7957747E-01            NaN
         13   -1    0    0    0    0  0.00000000000E+00  0.00000000000E+00  0.74505805969E-08  0.10566000000E+00  0.10566000000E+00 0. -1.
     999900   -1    0    0    0    0 -0.00000000000E+00 -0.00000000000E+00 -0.74505805969E-08  0.93827000000E+00  0.93827000000E+00 0.  1.
     999902    2    1    2    0    0  0.89510368885E-02  0.40943638523E-02  0.21522109379E-01  0.10202638624E+01  0.10199893445E+01 0.  0.
     999903    2    3    3    0    0 -0.70041231577E-01  0.10255951007E+00 -0.31553900246E-01  0.12967292022E+00  0.19879396134E-01 0.  0.
         14    1    1    2    0    0 -0.89510368885E-02 -0.40943638523E-02 -0.21522109379E-01  0.23666137599E-01  0.00000000000E+00 0.  1.
     999901    1    3    3    0    0  0.78992268466E-01 -0.98465146220E-01  0.53076009625E-01  0.89059094218E+00  0.88000000000E+00 0.  1.
        -11    1    4    4    0    0 -0.13659165710E-01  0.14656327348E-01 -0.12199216652E-01  0.23461942527E-01  0.51100000000E-03 0. -1.
         11    1    4    4    0    0 -0.56382065868E-01  0.87903182724E-01 -0.19354683594E-01  0.10621097769E+00  0.51100000000E-03 0.  1.
</event>
<event>
 8    1  0.1129676E+005  0.1043930E+01  0.7957747E-01            NaN
         13   -1    0    0    0    0  0.00000000000E+00  0.00000000000E+00  0.74505805969E-08  0.10566000000E+00  0.10566000000E+00 0. -1.
     999900   -1    0    0    0    0 -0.00000000000E+00 -0.00000000000E+00 -0.74505805969E-08  0.93827000000E+00  0.93827000000E+00 0.  1.
     999902    2    1    2    0    0  0.27146302970E-03 -0.16346438398E-01 -0.16821683144E-01  0.10204726181E+01  0.10202029776E+01 0.  0.
     999903    2    3    3    0    0 -0.32976300634E-01  0.11517481946E+00 -0.46730021828E-01  0.12957545022E+00  0.15919388201E-01 0.  0.
         14    1    1    2    0    0 -0.27146302970E-03  0.16346438398E-01  0.16821683144E-01  0.23457381872E-01  0.00000000000E+00 0. -1.
     999901    1    3    3    0    0  0.33247763664E-01 -0.13152125785E+00  0.29908338684E-01  0.89089716790E+00  0.88000000000E+00 0. -1.
        -11    1    4    4    0    0 -0.93718880034E-02  0.46707020480E-01 -0.25846880347E-01  0.54200557114E-01  0.51100000000E-03 0.  1.
         11    1    4    4    0    0 -0.23604412630E-01  0.68467798976E-01 -0.20883141481E-01  0.75374893110E-01  0.51100000000E-03 0. -1.
</event>
<event>
 8    1  0.1129676E+005  0.1043930E+01  0.7957747E-01            NaN
         13   -1    0    0    0    0  0.00000000000E+00  0.00000000000E+00  0.74505805969E-08  0.10566000000E+00  0.10566000000E+00 0.  1.
     999900   -1    0    0    0    0 -0.00000000000E+00 -0.00000000000E+00 -0.74505805969E-08  0.93827000000E+00  0.93827000000E+00 0. -1.
     999902    2    1    2    0    0 -0.18326460504E-01  0.16210505168E-01  0.17332416037E-01  0.10139457995E+01  0.10135023592E+01 0.  0.
     999903    2    3    3    0    0  0.31038399426E-02 -0.70899047167E-01 -0.97194785109E-01  0.12200196066E+00  0.20033557878E-01 0.  0.
         14    1    1    2    0    0  0.18326460504E-01 -0.16210505168E-01 -0.17332416037E-01  0.29984200474E-01  0.00000000000E+00 0. -1.
     999901    1    3    3    0    0 -0.21430300446E-01  0.87109552336E-01  0.11452720115E+00  0.89194383886E+00  0.88000000000E+00 0.  1.
        -11    1    4    4    0    0  0.81250496486E-02 -0.66639080971E-01 -0.88694229069E-01  0.11123718324E+00  0.51100000000E-03 0.  1.
         11    1    4    4    0    0 -0.50212097060E-02 -0.42599661967E-02 -0.85005560398E-02  0.10764777420E-01  0.51100000000E-03 0. -1.
</event>
<event>
 8    1  0.1129676E+005  0.1043930E+01  0.7957747E-01            NaN
         13   -1    0    0    0    0  0.00000000000E+00  0.00000000000E+00  0.74505805969E-08  0.10566000000E+00  0.10566000000E+00 0.  1.
     999900   -1    0    0    0    0 -0.00000000000E+00 -0.00000000000E+00 -0.74505805969E-08  0.93827000000E+00  0.93827000000E+00 0. -1.
     999902    2    1    2    0    0 -0.22256333127E-01 -0.56135557837E-02  0.60505492084E-02  0.10201925714E+01  0.10199163775E+01 0.  0.
     999903    2    3    3    0    0  0.71918215625E-01 -0.69255858564E-01  0.81428477494E-01  0.12968652398E+00  0.14811950322E-01 0.  0.
         14    1    1    2    0    0  0.22256333127E-01  0.56135557837E-02 -0.60505492084E-02  0.23737428642E-01  0.00000000000E+00 0. -1.
     999901    1    3    3    0    0 -0.94174548752E-01  0.63642302780E-01 -0.75377928285E-01  0.89050604737E+00  0.88000000000E+00 0.  1.
        -11    1    4    4    0    0  0.56072768581E-01 -0.59598905039E-01  0.71319667391E-01  0.10854925581E+00  0.51100000000E-03 0. -1.
         11    1    4    4    0    0  0.15845447044E-01 -0.96569535241E-02  0.10108810103E-01  0.21137268179E-01  0.51100000000E-03 0.  1.
</event>
<event>
 8    1  0.1129676E+005  0.1043930E+01  0.7957747E-01            NaN
         13   -1    0    0    0    0  0.00000000000E+00  0.00000000000E+00  0.74505805969E-08  0.10566000000E+00  0.10566000000E+00 0.  1.
     999900   -1    0    0    0    0 -0.00000000000E+00 -0.00000000000E+00 -0.74505805969E-08  0.93827000000E+00  0.93827000000E+00 0.  1.
     999902    2    1    2    0    0  0.72783874549E-02  0.62308738669E-02  0.34561226987E-01  0.10080652942E+01  0.10074270992E+01 0.  0.
     999903    2    3    3    0    0  0.10960382873E+00  0.45026926131E-01 -0.54162524230E-02  0.12038639476E+00  0.20570000134E-01 0.  0.
         14    1    1    2    0    0 -0.72783874549E-02 -0.62308738669E-02 -0.34561226987E-01  0.35864705825E-01  0.00000000000E+00 0. -1.
     999901    1    3    3    0    0 -0.10232544127E+00 -0.38796052264E-01  0.39977479410E-01  0.88767889941E+00  0.88000000000E+00 0.  1.
        -11    1    4    4    0    0  0.11512782619E-01  0.11104846875E-01 -0.43667069386E-02  0.16588882972E-01  0.51100000000E-03 0. -1.
         11    1    4    4    0    0  0.98091046106E-01  0.33922079256E-01 -0.10495454844E-02  0.10379751179E+00  0.51100000000E-03 0.  1.
</event>
<event>
 8    1  0.1129676E+005  0.1043930E+01  0.7957747E-01            NaN
         13   -1    0    0    0    0  0.00000000000E+00  0.00000000000E+00  0.74505805969E-08  0.10566000000E+00  0.10566000000E+00 0.  1.
     999900   -1    0    0    0    0 -0.00000000000E+00 -0.00000000000E+00 -0.74505805969E-08  0.93827000000E+00  0.93827000000E+00 0.  1.
     999902    2    1    2    0    0 -0.64455643115E-02 -0.18759100607E-01  0.13073512529E-01  0.10201736138E+01  0.10198969734E+01 0.  0.
     999903    2    3    3    0    0  0.11732404106E+00 -0.38021738640E-01  0.39477234110E-01  0.13091149219E+00  0.19203738055E-01 0.  0.
         14    1    1    2    0    0  0.64455643115E-02  0.18759100607E-01 -0.13073512529E-01  0.23756386188E-01  0.00000000000E+00 0. -1.
     999901    1    3    3    0    0 -0.12376960537E+00  0.19262638033E-01 -0.26403721581E-01  0.88926212162E+00  0.88000000000E+00 0. -1.
        -11    1    4    4    0    0  0.77019780459E-01 -0.34317157039E-01  0.27748161328E-01  0.88769000373E-01  0.51100000000E-03 0. -1.
         11    1    4    4    0    0  0.40304260599E-01 -0.37045816008E-02  0.11729072782E-01  0.42142491817E-01  0.51100000000E-03 0.  1.
</event>
<event>
 8    1  0.1129676E+005  0.1043930E+01  0.7957747E-01            NaN
         13   -1    0    0    0    0  0.00000000000E+00  0.00000000000E+00  0.74505805969E-08  0.10566000000E+00  0.10566000000E+00 0. -1.
     999900   -1    0    0    0    0 -0.00000000000E+00 -0.00000000000E+00 -0.74505805969E-08  0.93827000000E+00  0.93827000000E+00 0.  1.
     999902    2    1    2    0    0 -0.18764916592E-02 -0.60677468983E-04 -0.23846803832E-01  0.10200094031E+01  0.10197288794E+01 0.  0.
     999903    2    3    3    0    0 -0.10234255874E+00 -0.44488285606E-01 -0.68308491613E-01  0.13206566351E+00  0.17946658936E-01 0.  0.
         14    1    1    2    0    0  0.18764916592E-02  0.60677468982E-04  0.23846803832E-01  0.23920596893E-01  0.00000000000E+00 0. -1.
     999901    1    3    3    0    0  0.10046606708E+00  0.44427608137E-01  0.44461687780E-01  0.88794373959E+00  0.88000000000E+00 0. -1.
        -11    1    4    4    0    0 -0.16605130114E-01 -0.40871824202E-02 -0.17711687648E-01  0.24625198610E-01  0.51100000000E-03 0. -1.
         11    1    4    4    0    0 -0.85737428629E-01 -0.40401103186E-01 -0.50596803965E-01  0.10744046490E+00  0.51100000000E-03 0.  1.
</event>
<event>
 8    1  0.1129676E+005  0.1043930E+01  0.7957747E-01            NaN
         13   -1    0    0    0    0  0.00000000000E+00  0.00000000000E+00  0.74505805969E-08  0.10566000000E+00  0.10566000000E+00 0. -1.
     999900   -1    0    0    0    0 -0.00000000000E+00 -0.00000000000E+00 -0.74505805969E-08  0.93827000000E+00  0.93827000000E+00 0.  1.
     999902    2    1    2    0    0 -0.18528378273E-01 -0.36962518305E-02  0.14434495538E-01  0.10201535886E+01  0.10198764761E+01 0.  0.
     999903    2    3    3    0    0 -0.59017131340E-01  0.63170462780E-01 -0.94904252183E-01  0.12994829854E+00  0.20154752570E-01 0.  0.
         14    1    1    2    0    0  0.18528378273E-01  0.36962518305E-02 -0.14434495538E-01  0.23776411429E-01  0.00000000000E+00 0.  1.
     999901    1    3    3    0    0  0.40488753067E-01 -0.66866714610E-01  0.10933874772E+00  0.89020529003E+00  0.88000000000E+00 0. -1.
        -11    1    4    4    0    0 -0.17409303287E-01  0.23622295748E-01 -0.45844441783E-01  0.54434094653E-01  0.51100000000E-03 0.  1.
         11    1    4    4    0    0 -0.41607828053E-01  0.39548167032E-01 -0.49059810400E-01  0.75514203885E-01  0.51100000000E-03 0. -1.
</event>
<event>
 8    1  0.1129676E+005  0.1043930E+01  0.7957747E-01            NaN
         13   -1    0    0    0    0  0.00000000000E+00  0.00000000000E+00  0.74505805969E-08  0.10566000000E+00  0.10566000000E+00 0. -1.
     999900   -1    0    0    0    0 -0.00000000000E+00 -0.00000000000E+00 -0.74505805969E-08  0.93827000000E+00  0.93827000000E+00 0.  1.
     999902    2    1    2    0    0 -0.18546992068E-01  0.10975110047E-03 -0.13171464285E-01  0.10211815840E+01  0.10209281743E+01 0.  0.
     999903    2    3    3    0    0 -0.12045110127E+00 -0.14672021854E-01 -0.53579869810E-01  0.13425667875E+00  0.20744091156E-01 0.  0.
         14    1    1    2    0    0  0.18546992068E-01 -0.10975110047E-03  0.13171464285E-01  0.22748416022E-01  0.00000000000E+00 0. -1.
     999901    1    3    3    0    0  0.10190410920E+00  0.14781772954E-01  0.40408405525E-01  0.88692490523E+00  0.88000000000E+00 0. -1.
        -11    1    4    4    0    0 -0.85288961335E-01 -0.70334825974E-02 -0.27773086783E-01  0.89973786591E-01  0.51100000000E-03 0.  1.
         11    1    4    4    0    0 -0.35162139931E-01 -0.76385392564E-02 -0.25806783028E-01  0.44282892156E-01  0.51100000000E-03 0. -1.
</event>
<event>
 8    1  0.1129676E+005  0.1043930E+01  0.7957747E-01            NaN
         13   -1    0    0    0    0  0.00000000000E+00  0.00000000000E+00  0.74505805969E-08  0.10566000000E+00  0.10566000000E+00 0. -1.
     999900   -1    0    0    0    0 -0.00000000000E+00 -0.00000000000E+00 -0.74505805969E-08  0.93827000000E+00  0.93827000000E+00 0. -1.
     999902    2    1    2    0    0  0.18612853969E-02 -0.85847832542E-02  0.22532173728E-01  0.10197460851E+01  0.10194592765E+01 0.  0.
     999903    2    3    3    0    0 -0.34782871156E-01  0.10291716458E+00  0.69330789141E-01  0.13072100729E+00  0.21895947829E-01 0.  0.
         14    1    1    2    0    0 -0.18612853969E-02  0.85847832542E-02 -0.22532173728E-01  0.24183914898E-01  0.00000000000E+00 0.  1.
     999901    1    3    3    0    0  0.36644156553E-01 -0.11150194784E+00 -0.46798615413E-01  0.88902507782E+00  0.88000000000E+00 0. -1.
        -11    1    4    4    0    0 -0.33208737931E-01  0.96147750541E-01  0.57122718497E-01  0.11666394601E+00  0.51100000000E-03 0. -1.
         11    1    4    4    0    0 -0.15741332242E-02  0.67694140429E-02  0.12208070644E-01  0.14057061277E-01  0.51100000000E-03 0.  1.
</event>
<event>
 8    1  0.1129676E+005  0.1043930E+01  0.7957747E-01            NaN
         13   -1    0    0    0    0  0.00000000000E+00  0.00000000000E+00  0.74505805969E-08  0.10566000000E+00  0.10566000000E+00 0.  1.
     999900   -1    0    0    0    0 -0.00000000000E+00 -0.00000000000E+00 -0.74505805969E-08  0.93827000000E+00  0.93827000000E+00 0.  1.
     999902    2    1    2    0    0  0.19066910781E-01 -0.12266986387E-01  0.35354270471E-02  0.10209838612E+01  0.10207259767E+01 0.  0.
     999903    2    3    3    0    0  0.62538762600E-01 -0.11526864924E+00 -0.15544191149E-01  0.13370533881E+00  0.20917395221E-01 0.  0.
         14    1    1    2    0    0 -0.19066910781E-01  0.12266986387E-01 -0.35354270471E-02  0.22946138807E-01  0.00000000000E+00 0. -1.
     999901    1    3    3    0    0 -0.43471851819E-01  0.10300166285E+00  0.19079618196E-01  0.88727852238E+00  0.88000000000E+00 0.  1.
        -11    1    4    4    0    0  0.43021285472E-01 -0.63074031562E-01 -0.15846334366E-01  0.77977765389E-01  0.51100000000E-03 0. -1.
         11    1    4    4    0    0  0.19517477128E-01 -0.52194617678E-01  0.30214321647E-03  0.55727573422E-01  0.51100000000E-03 0.  1.
</event>
<event>
 8    1  0.1129676E+005  0.1043930E+01  0.7957747E-01            NaN
         13   -1    0    0    0    0  0.00000000000E+00  0.00000000000E+00  0.74505805969E-08  0.10566000000E+00  0.10566000000E+00 0. -1.
     999900   -1    0    0    0    0 -0.00000000000E+00 -0.00000000000E+00 -0.74505805969E-08  0.93827000000E+00  0.93827000000E+00 0. -1.
     999902    2    1    2    0    0  0.12078004171E-01  0.12785122027E-01 -0.16116943147E-01  0.10200743217E+01  0.10197953365E+01 0.  0.
     999903    2    3    3    0    0 -0.10932281362E+00 -0.57357463245E-01  0.26985959995E-01  0.12793307668E+00  0.19931731114E-01 0.  0.
         14    1    1    2    0    0 -0.12078004171E-01 -0.12785122027E-01  0.16116943147E-01  0.23855678284E-01  0.00000000000E+00 0. -1.
     999901    1    3    3    0    0  0.12140081779E+00  0.70142585272E-01 -0.43102903141E-01  0.89214124503E+00  0.88000000000E+00 0.  1.
        -11    1    4    4    0    0 -0.29565165338E-01 -0.20601700517E-01  0.15988499834E-01  0.39426162806E-01  0.51100000000E-03 0. -1.
         11    1    4    4    0    0 -0.79757648281E-01 -0.36755762728E-01  0.10997460161E-01  0.88506913877E-01  0.51100000000E-03 0.  1.
</event>
<event>
 8    1  0.1129676E+005  0.1043930E+01  0.7957747E-01            NaN
         13   -1    0    0    0    0  0.00000000000E+00  0.00000000000E+00  0.74505805969E-08  0.10566000000E+00  0.10566000000E+00 0.  1.
     999900   -1    0    0    0    0 -0.00000000000E+00 -0.00000000000E+00 -0.74505805969E-08  0.93827000000E+00  0.93827000000E+00 0.  1.
     999902    2    1    2    0    0  0.11414606161E-02  0.23024251347E-01  0.28810624369E-02  0.10206981339E+01  0.10204337122E+01 0.  0.
     999903    2    3    3    0    0  0.35713532488E-01  0.69185857672E-01  0.10545007382E+00  0.13286564735E+00  0.21712274671E-01 0.  0.
         14    1    1    2    0    0 -0.11414606161E-02 -0.23024251347E-01 -0.28810624369E-02  0.23231866115E-01  0.00000000000E+00 0. -1.
     999901    1    3    3    0    0 -0.34572071872E-01 -0.46161606324E-01 -0.10256901139E+00  0.88783248654E+00  0.88000000000E+00 0.  1.
        -11    1    4    4    0    0  0.24983323518E-01  0.64322314742E-01  0.91364444444E-01  0.11449563073E+00  0.51100000000E-03 0.  1.
         11    1    4    4    0    0  0.10730208970E-01  0.48635429294E-02  0.14085629380E-01  0.18370016614E-01  0.51100000000E-03 0. -1.
</event>
<event>
 8    1  0.1129676E+005  0.1043930E+01  0.7957747E-01            NaN
         13   -1    0    0    0    0  0.00000000000E+00  0.00000000000E+00  0.74505805969E-08  0.10566000000E+00  0.10566000000E+00 0. -1.
     999900   -1    0    0    0    0 -0.00000000000E+00 -0.00000000000E+00 -0.74505805969E-08  0.93827000000E+00  0.93827000000E+00 0.  1.
     999902    2    1    2    0    0  0.82131015104E-02  0.14341520511E-01 -0.18410333873E-01  0.10191898577E+01  0.10188895384E+01 0.  0.
     999903    2    3    3    0    0 -0.95202245048E-01 -0.47712907467E-02  0.81942041350E-01  0.12726461832E+00  0.19888495613E-01 0.  0.
         14    1    1    2    0    0 -0.82131015104E-02 -0.14341520511E-01  0.18410333873E-01  0.24740142286E-01  0.00000000000E+00 0. -1.
     999901    1    3    3    0    0  0.10341534656E+00  0.19112811258E-01 -0.10035237522E+00  0.89192523940E+00  0.88000000000E+00 0.  1.
        -11    1    4    4    0    0 -0.80077593995E-01 -0.97694628137E-02  0.62051697664E-01  0.10177690194E+00  0.51100000000E-03 0. -1.
         11    1    4    4    0    0 -0.15124651053E-01  0.49981720670E-02  0.19890343685E-01  0.25487716383E-01  0.51100000000E-03 0.  1.
</event>
<event>
 8    1  0.1129676E+005  0.1043930E+01  0.7957747E-01            NaN
         13   -1    0    0    0    0  0.00000000000E+00  0.00000000000E+00  0.74505805969E-08  0.10566000000E+00  0.10566000000E+00 0.  1.
     999900   -1    0    0    0    0 -0.00000000000E+00 -0.00000000000E+00 -0.74505805969E-08  0.93827000000E+00  0.93827000000E+00 0. -1.
     999902    2    1    2    0    0 -0.81900160403E-03  0.14613306694E-01  0.19245542724E-01  0.10197512819E+01  0.10194645979E+01 0.  0.
     999903    2    3    3    0    0  0.10546541279E+00 -0.66091146639E-01 -0.25162203723E-01  0.12858259217E+00  0.20232487626E-01 0.  0.
         14    1    1    2    0    0  0.81900160403E-03 -0.14613306694E-01 -0.19245542724E-01  0.24178718140E-01  0.00000000000E+00 0. -1.
     999901    1    3    3    0    0 -0.10628441439E+00  0.80704453333E-01  0.44407746446E-01  0.89116868969E+00  0.88000000000E+00 0. -1.
        -11    1    4    4    0    0  0.71013272290E-01 -0.49958745257E-01 -0.25639573610E-01  0.90534026337E-01  0.51100000000E-03 0.  1.
         11    1    4    4    0    0  0.34452140499E-01 -0.16132401382E-01  0.47736988704E-03  0.38048565838E-01  0.51100000000E-03 0. -1.
</event>
<event>
 8    1  0.1129676E+005  0.1043930E+01  0.7957747E-01            NaN
         13   -1    0    0    0    0  0.00000000000E+00  0.00000000000E+00  0.74505805969E-08  0.10566000000E+00  0.10566000000E+00 0. -1.
     999900   -1    0    0    0    0 -0.00000000000E+00 -0.00000000000E+00 -0.74505805969E-08  0.93827000000E+00  0.93827000000E+00 0. -1.
     999902    2    1    2    0    0  0.22579088270E-01  0.18722309865E-02  0.11876836963E-01  0.10183491530E+01  0.10180278079E+01 0.  0.
     999903    2    3    3    0    0  0.52543401438E-01  0.10452197072E+00 -0.52067717363E-01  0.12957261465E+00  0.19808177053E-01 0.  0.
         14    1    1    2    0    0 -0.22579088270E-01 -0.18722309865E-02 -0.11876836963E-01  0.25580846980E-01  0.00000000000E+00 0.  1.
     999901    1    3    3    0    0 -0.29964313168E-01 -0.10264973973E+00  0.63944554326E-01  0.88877653837E+00  0.88000000000E+00 0. -1.
        -11    1    4    4    0    0  0.24309549082E-01  0.69211542589E-01 -0.34504087631E-01  0.81067780211E-01  0.51100000000E-03 0.  1.
         11    1    4    4    0    0  0.28233852355E-01  0.35310428129E-01 -0.17563629732E-01  0.48504834438E-01  0.51100000000E-03 0. -1.
</event>
<event>
 8    1  0.1129676E+005  0.1043930E+01  0.7957747E-01            NaN
         13   -1    0    0    0    0  0.00000000000E+00  0.00000000000E+00  0.74505805969E-08  0.10566000000E+00  0.10566000000E+00 0. -1.
     999900   -1    0    0    0    0 -0.00000000000E+00 -0.00000000000E+00 -0.74505805969E-08  0.93827000000E+00  0.93827000000E+00 0. -1.
     999902    2    1    2    0    0 -0.20218746983E-01  0.96694905178E-02 -0.79802712948E-02  0.10201396342E+01  0.10198621925E+01 0.  0.
     999903    2    3    3    0    0 -0.12675392228E+00 -0.21946753118E-01 -0.27503711455E-01  0.13293588353E+00  0.19164503617E-01 0.  0.
         14    1    1    2    0    0  0.20218746983E-01 -0.96694905178E-02  0.79802712948E-02  0.23790365831E-01  0.00000000000E+00 0. -1.
     999901    1    3    3    0    0  0.10653517530E+00  0.31616243635E-01  0.19523440160E-01  0.88720375064E+00  0.88000000000E+00 0.  1.
        -11    1    4    4    0    0 -0.40383782619E-01 -0.95098133419E-02 -0.17754166057E-01  0.45130455147E-01  0.51100000000E-03 0. -1.
         11    1    4    4    0    0 -0.86370139664E-01 -0.12436939776E-01 -0.97495453979E-02  0.87805428380E-01  0.51100000000E-03 0.  1.
</event>
<event>
 8    1  0.1129676E+005  0.1043930E+01  0.7957747E-01            NaN
         13   -1    0    0    0    0  0.00000000000E+00  0.00000000000E+00  0.74505805969E-08  0.10566000000E+00  0.10566000000E+00 0.  1.
     999900   -1    0    0    0    0 -0.00000000000E+00 -0.00000000000E+00 -0.74505805969E-08  0.93827000000E+00  0.93827000000E+00 0. -1.
     999902    2    1    2    0    0  0.11737758465E-01 -0.91313740342E-02 -0.17823823051E-01  0.10207169512E+01  0.10204529626E+01 0.  0.
     999903    2    3    3    0    0 -0.74207778581E-01 -0.95351214556E-01  0.44029239942E-01  0.13018548202E+00  0.20274053345E-01 0.  0.
         14    1    1    2    0    0 -0.11737758465E-01  0.91313740342E-02  0.17823823051E-01  0.23213048780E-01  0.00000000000E+00 0.  1.
     999901    1    3    3    0    0  0.85945537046E-01  0.86219840522E-01 -0.61853062992E-01  0.89053146920E+00  0.88000000000E+00 0.  1.
        -11    1    4    4    0    0 -0.72028359836E-01 -0.83099942757E-01  0.38036828676E-01  0.11636471357E+00  0.51100000000E-03 0.  1.
         11    1    4    4    0    0 -0.21794187443E-02 -0.12251271800E-01  0.59924112662E-02  0.13820768450E-01  0.51100000000E-03 0. -1.
</event>
<event>
 8    1  0.1129676E+005  0.1043930E+01  0.7957747E-01            NaN
         13   -1    0    0    0    0  0.00000000000E+00  0.00000000000E+00  0.74505805969E-08  0.10566000000E+00  0.10566000000E+00 0. -1.
     999900   -1    0    0    0    0 -0.00000000000E+00 -0.00000000000E+00 -0.74505805969E-08  0.93827000000E+00  0.93827000000E+00 0. -1.
     999902    2    1    2    0    0 -0.22824020913E-01  0.17690193326E-02 -0.33791416078E-02  0.10207894737E+01  0.10205271509E+01 0.  0.
     999903    2    3    3    0    0  0.86840706776E-01  0.40542511785E-01 -0.84435739905E-01  0.12944223027E+00  0.20997456738E-01 0.  0.
         14    1    1    2    0    0  0.22824020913E-01 -0.17690193326E-02  0.33791416078E-02  0.23140526313E-01  0.00000000000E+00 0.  1.
     999901    1    3    3    0    0 -0.10966472769E+00 -0.38773492452E-01  0.81056598297E-01  0.89134724341E+00  0.88000000000E+00 0.  1.
        -11    1    4    4    0    0  0.80524497315E-01  0.39326315411E-01 -0.70286654999E-01  0.11389130232E+00  0.51100000000E-03 0. -1.
         11    1    4    4    0    0  0.63162094607E-02  0.12161963732E-02 -0.14149084906E-01  0.15550927955E-01  0.51100000000E-03 0.  1.
</event>
<event>
 8    1  0.1129676E+005  0.1043930E+01  0.7957747E-01            NaN
         13   -1    0    0    0    0  0.00000000000E+00  0.00000000000E+00  0.74505805969E-08  0.10566000000E+00  0.10566000000E+00 0. -1.
     999900   -1    0    0    0    0 -0.00000000000E+00 -0.00000000000E+00 -0.74505805969E-08  0.93827000000E+00  0.93827000000E+00 0.  1.
     999902    2    1    2    0    0 -0.74718994356E-02 -0.21586993109E-01 -0.47883236787E-02  0.10205900001E+01  0.10203230825E+01 0.  0.
     999903    2    3    3    0    0  0.74275349398E-01 -0.52819652799E-01  0.91642574699E-01  0.13100750818E+00  0.21397720748E-01 0.  0.
         14    1    1    2    0    0  0.74718994356E-02  0.21586993109E-01  0.47883236787E-02  0.23339999921E-01  0.00000000000E+00 0.  1.
     999901    1    3    3    0    0 -0.81747248834E-01  0.31232659690E-01 -0.96430898377E-01  0.88958249189E+00  0.88000000000E+00 0.  1.
        -11    1    4    4    0    0  0.29475502637E-01 -0.10937772825E-01  0.39651063259E-01  0.50605415408E-01  0.51100000000E-03 0.  1.
         11    1    4    4    0    0  0.44799846761E-01 -0.41881879974E-01  0.51991511440E-01  0.80402092776E-01  0.51100000000E-03 0. -1.
</event>
<event>
 8    1  0.1129676E+005  0.1043930E+01  0.7957747E-01            NaN
         13   -1    0    0    0    0  0.00000000000E+00  0.00000000000E+00  0.74505805969E-08  0.10566000000E+00  0.10566000000E+00 0.  1.
     999900   -1    0    0    0    0 -0.00000000000E+00 -0.00000000000E+00 -0.74505805969E-08  0.93827000000E+00  0.93827000000E+00 0.  1.
     999902    2    1    2    0    0 -0.70793394275E-02  0.34516213413E-02 -0.23349062914E-01  0.10192883792E+01  0.10189904762E+01 0.  0.
     999903    2    3    3    0    0 -0.11558364577E+00 -0.20523784177E-01  0.50495751282E-01  0.12923160509E+00  0.19240113519E-01 0.  0.
         14    1    1    2    0    0  0.70793394275E-02 -0.34516213413E-02  0.23349062914E-01  0.24641620799E-01  0.00000000000E+00 0.  1.
     999901    1    3    3    0    0  0.10850430635E+00  0.23975405519E-01 -0.73844814196E-01  0.89005677412E+00  0.88000000000E+00 0.  1.
        -11    1    4    4    0    0 -0.51973714021E-01 -0.11356386588E-02  0.16494942110E-01  0.54542651755E-01  0.51100000000E-03 0. -1.
         11    1    4    4    0    0 -0.63609931753E-01 -0.19388145518E-01  0.34000809172E-01  0.74688953331E-01  0.51100000000E-03 0.  1.
</event>
<event>
 8    1  0.1129676E+005  0.1043930E+01  0.7957747E-01            NaN
         13   -1    0    0    0    0  0.00000000000E+00  0.00000000000E+00  0.74505805969E-08  0.10566000000E+00  0.10566000000E+00 0. -1.
     999900   -1    0    0    0    0 -0.00000000000E+00 -0.00000000000E+00 -0.74505805969E-08  0.93827000000E+00  0.93827000000E+00 0. -1.
     999902    2    1    2    0    0 -0.22219222760E-01  0.74112648820E-02  0.16995677832E-02  0.10204457662E+01  0.10201755008E+01 0.  0.
     999903    2    3    3    0    0  0.47552042129E-01  0.10036198050E+00  0.65487773046E-01  0.13051498232E+00  0.20292568871E-01 0.  0.
         14    1    1    2    0    0  0.22219222760E-01 -0.74112648820E-02 -0.16995677832E-02  0.23484233814E-01  0.00000000000E+00 0.  1.
     999901    1    3    3    0    0 -0.69771264889E-01 -0.92950715618E-01 -0.63788205262E-01  0.88993078386E+00  0.88000000000E+00 0. -1.
        -11    1    4    4    0    0  0.35357009045E-01  0.83228310833E-01  0.44445934490E-01  0.10076096479E+00  0.51100000000E-03 0. -1.
         11    1    4    4    0    0  0.12195033084E-01  0.17133669667E-01  0.21041838555E-01  0.29754017527E-01  0.51100000000E-03 0.  1.
</event>
<event>
 8    1  0.1129676E+005  0.1043930E+01  0.7957747E-01            NaN
         13   -1    0    0    0    0  0.00000000000E+00  0.00000000000E+00  0.74505805969E-08  0.10566000000E+00  0.10566000000E+00 0. -1.
     999900   -1    0    0    0    0 -0.00000000000E+00 -0.00000000000E+00 -0.74505805969E-08  0.93827000000E+00  0.93827000000E+00 0.  1.
     999902    2    1    2    0    0 -0.53383748565E-02 -0.61432356057E-02 -0.22003077898E-01  0.10204699696E+01  0.10202002675E+01 0.  0.
     999903    2    3    3    0    0 -0.18241859252E-01 -0.12600663461E+00  0.23300327673E-01  0.13109595778E+00  0.20804025620E-01 0.  0.
         14    1    1    2    0    0  0.53383748565E-02  0.61432356057E-02  0.22003077898E-01  0.23460030409E-01  0.00000000000E+00 0. -1.
     999901    1    3    3    0    0  0.12903484395E-01  0.11986339900E+00 -0.45303405571E-01  0.88937401181E+00  0.88000000000E+00 0.  1.
        -11    1    4    4    0    0 -0.67833289231E-02 -0.10210461213E+00  0.15797784540E-01  0.10354321072E+00  0.51100000000E-03 0.  1.
         11    1    4    4    0    0 -0.11458530329E-01 -0.23902022479E-01  0.75025431327E-02  0.27552747056E-01  0.51100000000E-03 0. -1.
</event>
<event>
 8    1  0.1129676E+005  0.1043930E+01  0.7957747E-01            NaN
         13   -1    0    0    0    0  0.00000000000E+00  0.00000000000E+00  0.74505805969E-08  0.10566000000E+00  0.10566000000E+00 0. -1.
     999900   -1    0    0    0    0 -0.00000000000E+00 -0.00000000000E+00 -0.74505805969E-08  0.93827000000E+00  0.93827000000E+00 0. -1.
     999902    2    1    2    0    0  0.23706719137E-01 -0.18150417963E-02 -0.69840499472E-02  0.10191493652E+01  0.10188480498E+01 0.  0.
     999903    2    3    3    0    0 -0.22038143424E-01 -0.83672943504E-01 -0.94496666143E-01  0.12985089642E+00  0.21090143415E-01 0.  0.
         14    1    1    2    0    0 -0.23706719137E-01  0.18150417963E-02  0.69840499472E-02  0.24780634831E-01  0.00000000000E+00 0.  1.
     999901    1    3    3    0    0  0.45744862561E-01  0.81857901707E-01  0.87512616195E-01  0.88929846875E+00  0.88000000000E+00 0.  1.
        -11    1    4    4    0    0 -0.12314518536E-01 -0.34444948308E-01 -0.25749601620E-01  0.44737064447E-01  0.51100000000E-03 0.  1.
         11    1    4    4    0    0 -0.97236248874E-02 -0.49227995195E-01 -0.68747064523E-01  0.85113831975E-01  0.51100000000E-03 0. -1.
</event>
<event>
 8    1  0.1129676E+005  0.1043930E+01  0.7957747E-01            NaN
         13   -1    0    0    0    0  0.00000000000E+00  0.00000000000E+00  0.74505805969E-08  0.10566000000E+00  0.10566000000E+00 0. -1.
     999900   -1    0    0    0    0 -0.00000000000E+00 -0.00000000000E+00 -0.74505805969E-08  0.93827000000E+00  0.93827000000E+00 0. -1.
     999902    2    1    2    0    0  0.26570063781E-02  0.21260544099E-01  0.89113314992E-02  0.10207247797E+01  0.10204609712E+01 0.  0.
     999903    2    3    3    0    0  0.32508814394E-01 -0.32384136452E-01  0.12144070067E+00  0.13143757016E+00  0.20553242179E-01 0.  0.
         14    1    1    2    0    0 -0.26570063781E-02 -0.21260544099E-01 -0.89113314992E-02  0.23205220261E-01  0.00000000000E+00 0.  1.
     999901    1    3    3    0    0 -0.29851808015E-01  0.53644680551E-01 -0.11252936917E+00  0.88928720958E+00  0.88000000000E+00 0.  1.
        -11    1    4    4    0    0  0.16943453900E-01 -0.25825237162E-01  0.57167833110E-01  0.64980349091E-01  0.51100000000E-03 0. -1.
         11    1    4    4    0    0  0.15565360493E-01 -0.65588992906E-02  0.64272867559E-01  0.66457221070E-01  0.51100000000E-03 0.  1.
</event>
<event>
 8    1  0.1129676E+005  0.1043930E+01  0.7957747E-01            NaN
         13   -1    0    0    0    0  0.00000000000E+00  0.00000000000E+00  0.74505805969E-08  0.10566000000E+00  0.10566000000E+00 0.  1.
     999900   -1    0    0    0    0 -0.00000000000E+00 -0.00000000000E+00 -0.74505805969E-08  0.93827000000E+00  0.93827000000E+00 0. -1.
     999902    2    1    2    0    0  0.19118065189E-01  0.52939303929E-02  0.94344204596E-02  0.10219633342E+01  0.10217272249E+01 0.  0.
     999903    2    3    3    0    0  0.41787005437E-01  0.86207139200E-01  0.91837970022E-01  0.13412822950E+00  0.19451080658E-01 0.  0.
         14    1    1    2    0    0 -0.19118065189E-01 -0.52939303929E-02 -0.94344204596E-02  0.21966665768E-01  0.00000000000E+00 0. -1.
     999901    1    3    3    0    0 -0.22668940248E-01 -0.80913208807E-01 -0.82403549563E-01  0.88783510473E+00  0.88000000000E+00 0. -1.
        -11    1    4    4    0    0  0.18537513536E-01  0.19268933820E-01  0.28538947686E-01  0.39110917589E-01  0.51100000000E-03 0.  1.
         11    1    4    4    0    0  0.23249491901E-01  0.66938205380E-01  0.63299022336E-01  0.95017311912E-01  0.51100000000E-03 0. -1.
</event>
<event>
 8    1  0.1129676E+005  0.1043930E+01  0.7957747E-01            NaN
         13   -1    0    0    0    0  0.00000000000E+00  0.00000000000E+00  0.74505805969E-08  0.10566000000E+00  0.10566000000E+00 0.  1.
     999900   -1    0    0    0    0 -0.00000000000E+00 -0.00000000000E+00 -0.74505805969E-08  0.93827000000E+00  0.93827000000E+00 0. -1.
     999902    2    1    2    0    0  0.16339856664E-01 -0.42432509845E-02 -0.16066256277E-01  0.10206250502E+01  0.10203589429E+01 0.  0.
     999903    2    3    3    0    0 -0.12462234037E+00 -0.11679927081E-01  0.21971567886E-01  0.12856422199E+00  0.19464351147E-01 0.  0.
         14    1    1    2    0    0 -0.16339856664E-01  0.42432509845E-02  0.16066256277E-01  0.23304949806E-01  0.00000000000E+00 0. -1.
     999901    1    3    3    0    0  0.14096219703E+00  0.74366760960E-02 -0.38037824163E-01  0.89206082820E+00  0.88000000000E+00 0. -1.
        -11    1    4    4    0    0 -0.77544806841E-01 -0.15624786499E-01  0.18179284692E-01  0.81166979333E-01  0.51100000000E-03 0.  1.
         11    1    4    4    0    0 -0.47077533528E-01  0.39448594189E-02  0.37922831945E-02  0.47397242660E-01  0.51100000000E-03 0. -1.
</event>
<event>
 8    1  0.1129676E+005  0.1043930E+01  0.7957747E-01            NaN
         13   -1    0    0    0    0  0.00000000000E+00  0.00000000000E+00  0.74505805969E-08  0.10566000000E+00  0.10566000000E+00 0. -1.
     999900   -1    0    0    0    0 -0.00000000000E+00 -0.00000000000E+00 -0.74505805969E-08  0.93827000000E+00  0.93827000000E+00 0. -1.
     999902    2    1    2    0    0  0.17492350057E-01  0.15652285569E-01 -0.36074810397E-02  0.10201815206E+01  0.10199050665E+01 0.  0.
     999903    2    3    3    0    0 -0.11088133081E+00  0.62608220532E-01 -0.13186669521E-01  0.12957699411E+00  0.20046205344E-01 0.  0.
         14    1    1    2    0    0 -0.17492350057E-01 -0.15652285569E-01  0.36074810397E-02  0.23748479393E-01  0.00000000000E+00 0.  1.
     999901    1    3    3    0    0  0.12837368087E+00 -0.46955934963E-01  0.95791884814E-02  0.89060452650E+00  0.88000000000E+00 0.  1.
        -11    1    4    4    0    0 -0.75030973878E-01  0.31436922208E-01 -0.99279983662E-02  0.81955801452E-01  0.51100000000E-03 0.  1.
         11    1    4    4    0    0 -0.35850356931E-01  0.31171298324E-01 -0.32586711550E-02  0.47621192656E-01  0.51100000000E-03 0. -1.
</event>
<event>
 8    1  0.1129676E+005  0.1043930E+01  0.7957747E-01            NaN
         13   -1    0    0    0    0  0.00000000000E+00  0.00000000000E+00  0.74505805969E-08  0.10566000000E+00  0.10566000000E+00 0. -1.
     999900   -1    0    0    0    0 -0.00000000000E+00 -0.00000000000E+00 -0.74505805969E-08  0.93827000000E+00  0.93827000000E+00 0. -1.
     999902    2    1    2    0    0  0.16400736901E-01 -0.10044693935E-01 -0.13737650699E-01  0.10202952143E+01  0.10200214318E+01 0.  0.
     999903    2    3    3    0    0 -0.74702946069E-01 -0.48178805520E-01  0.90451550779E-01  0.12866217253E+00  0.21696639116E-01 0.  0.
         14    1    1    2    0    0 -0.16400736901E-01  0.10044693935E-01  0.13737650699E-01  0.23634785675E-01  0.00000000000E+00 0. -1.
     999901    1    3    3    0    0  0.91103682970E-01  0.38134111586E-01 -0.10418920148E+00  0.89163304180E+00  0.88000000000E+00 0. -1.
        -11    1    4    4    0    0 -0.63550092459E-01 -0.31094226113E-01  0.65381993128E-01  0.96335514196E-01  0.51100000000E-03 0. -1.
         11    1    4    4    0    0 -0.11152853610E-01 -0.17084579407E-01  0.25069557651E-01  0.32326658333E-01  0.51100000000E-03 0.  1.
</event>
<event>
 8    1  0.1129676E+005  0.1043930E+01  0.7957747E-01            NaN
         13   -1    0    0    0    0  0.00000000000E+00  0.00000000000E+00  0.74505805969E-08  0.10566000000E+00  0.10566000000E+00 0.  1.
     999900   -1    0    0    0    0 -0.00000000000E+00 -0.00000000000E+00 -0.74505805969E-08  0.93827000000E+00  0.93827000000E+00 0. -1.
     999902    2    1    2    0    0  0.21190535122E-01 -0.87132296198E-02  0.48491967328E-02  0.10205104813E+01  0.10202417206E+01 0.  0.
     999903    2    3    3    0    0 -0.10945664071E+00  0.61825129475E-01  0.13101732182E-01  0.12803501997E+00  0.20450137471E-01 0.  0.
         14    1    1    2    0    0 -0.21190535122E-01  0.87132296198E-02 -0.48491967328E-02  0.23419518742E-01  0.00000000000E+00 0. -1.
     999901    1    3    3    0    0  0.13064717583E+00 -0.70538359095E-01 -0.82525354493E-02  0.89247546129E+00  0.88000000000E+00 0. -1.
        -11    1    4    4    0    0 -0.68924758032E-01  0.48460677957E-01  0.13615755701E-01  0.85350509677E-01  0.51100000000E-03 0. -1.
         11    1    4    4    0    0 -0.40531882679E-01  0.13364451518E-01 -0.51402351932E-03  0.42684510294E-01  0.51100000000E-03 0.  1.
</event>
<event>
 8    1  0.1129676E+005  0.1043930E+01  0.7957747E-01            NaN
         13   -1    0    0    0    0  0.00000000000E+00  0.00000000000E+00  0.74505805969E-08  0.10566000000E+00  0.10566000000E+00 0.  1.
     999900   -1    0    0    0    0 -0.00000000000E+00 -0.00000000000E+00 -0.74505805969E-08  0.93827000000E+00  0.93827000000E+00 0.  1.
     999902    2    1    2    0    0 -0.30951699415E-01  0.43741328087E-02 -0.10171024277E-01  0.10110576641E+01  0.10105231366E+01 0.  0.
     999903    2    3    3    0    0  0.70232321491E-01  0.34305795062E-01 -0.90295431677E-01  0.12113967282E+00  0.20299970255E-01 0.  0.
         14    1    1    2    0    0  0.30951699415E-01 -0.43741328087E-02  0.10171024277E-01  0.32872335928E-01  0.00000000000E+00 0. -1.
     999901    1    3    3    0    0 -0.10118402091E+00 -0.29931662253E-01  0.80124407400E-01  0.88991799125E+00  0.88000000000E+00 0. -1.
        -11    1    4    4    0    0  0.42953881103E-01  0.12924554697E-01 -0.40297507705E-01  0.60301163042E-01  0.51100000000E-03 0. -1.
         11    1    4    4    0    0  0.27278440388E-01  0.21381240365E-01 -0.49997923972E-01  0.60838509779E-01  0.51100000000E-03 0.  1.
</event>
<event>
 8    1  0.1129676E+005  0.1043930E+01  0.7957747E-01            NaN
         13   -1    0    0    0    0  0.00000000000E+00  0.00000000000E+00  0.74505805969E-08  0.10566000000E+00  0.10566000000E+00 0.  1.
     999900   -1    0    0    0    0 -0.00000000000E+00 -0.00000000000E+00 -0.74505805969E-08  0.93827000000E+00  0.93827000000E+00 0.  1.
     999902    2    1    2    0    0  0.20408350764E-01 -0.11259759571E-01 -0.81048923512E-02  0.10192526370E+01  0.10189538585E+01 0.  0.
     999903    2    3    3    0    0 -0.24161181512E-01  0.12183623155E+00 -0.23185040856E-01  0.12800160782E+00  0.20470356055E-01 0.  0.
         14    1    1    2    0    0 -0.20408350764E-01  0.11259759571E-01  0.81048923512E-02  0.24677363038E-01  0.00000000000E+00 0.  1.
     999901    1    3    3    0    0  0.44569532276E-01 -0.13309599112E+00  0.15080148505E-01  0.89125102914E+00  0.88000000000E+00 0. -1.
        -11    1    4    4    0    0 -0.78812796504E-02  0.44571097782E-01  0.14381269004E-02  0.45288261795E-01  0.51100000000E-03 0. -1.
         11    1    4    4    0    0 -0.16279901862E-01  0.77265133763E-01 -0.24623167757E-01  0.82713346030E-01  0.51100000000E-03 0.  1.
</event>
<event>
 8    1  0.1129676E+005  0.1043930E+01  0.7957747E-01            NaN
         13   -1    0    0    0    0  0.00000000000E+00  0.00000000000E+00  0.74505805969E-08  0.10566000000E+00  0.10566000000E+00 0.  1.
     999900   -1    0    0    0    0 -0.00000000000E+00 -0.00000000000E+00 -0.74505805969E-08  0.93827000000E+00  0.93827000000E+00 0.  1.
     999902    2    1    2    0    0  0.14632567953E-01  0.10238540216E-01  0.15963720452E-01  0.10199762921E+01  0.10196949820E+01 0.  0.
     999903    2    3    3    0    0  0.32657350206E-01  0.92882154663E-01  0.87324961838E-01  0.13304490438E+00  0.19537155470E-01 0.  0.
         14    1    1    2    0    0 -0.14632567953E-01 -0.10238540216E-01 -0.15963720452E-01  0.23953707883E-01  0.00000000000E+00 0. -1.
     999901    1    3    3    0    0 -0.18024782253E-01 -0.82643614447E-01 -0.71361241386E-01  0.88693138774E+00  0.88000000000E+00 0.  1.
        -11    1    4    4    0    0  0.20048449993E-01  0.33083312458E-01  0.40878108881E-01  0.56282562282E-01  0.51100000000E-03 0. -1.
         11    1    4    4    0    0  0.12608900213E-01  0.59798842205E-01  0.46446852957E-01  0.76762342097E-01  0.51100000000E-03 0.  1.
</event>
<event>
 7    1  0.1129676E+005  0.1043930E+01  0.7957747E-01            NaN
         13   -1    0    0    0    0  0.00000000000E+00  0.00000000000E+00  0.74505805969E-08  0.10566000000E+00  0.10566000000E+00 0. -1.
     999900   -1    0    0    0    0 -0.00000000000E+00 -0.00000000000E+00 -0.74505805969E-08  0.93827000000E+00  0.93827000000E+00 0. -1.
     999903    2    1    2    0    0  0.51644600110E-01  0.72812093520E-01  0.76471737226E-01  0.11959636173E+00  0.22058954212E-01 0.  0.
         14    1    1    2    0    0  0.20188609208E-01 -0.25777547784E-01 -0.19968840292E-01  0.38351225458E-01  0.00000000000E+00 0.  1.
     999901    1    1    2    0    0 -0.71833209318E-01 -0.47034545735E-01 -0.56502896934E-01  0.88598241281E+00  0.88000000000E+00 0. -1.
        -11    1    3    3    0    0  0.16392975646E-01  0.39747579410E-01  0.29109090760E-01  0.51924945887E-01  0.51100000000E-03 0.  1.
         11    1    3    3    0    0  0.35251624464E-01  0.33064514110E-01  0.47362646466E-01  0.67671415841E-01  0.51100000000E-03 0. -1.
</event>
<event>
 8    1  0.1129676E+005  0.1043930E+01  0.7957747E-01            NaN
         13   -1    0    0    0    0  0.00000000000E+00  0.00000000000E+00  0.74505805969E-08  0.10566000000E+00  0.10566000000E+00 0.  1.
     999900   -1    0    0    0    0 -0.00000000000E+00 -0.00000000000E+00 -0.74505805969E-08  0.93827000000E+00  0.93827000000E+00 0. -1.
     999902    2    1    2    0    0 -0.22506523510E-01  0.19531282292E-03  0.10360268344E-01  0.10191526533E+01  0.10188514189E+01 0.  0.
     999903    2    3    3    0    0 -0.10857122185E+00 -0.93870067940E-02 -0.70405615296E-01  0.13122130401E+00  0.19653342012E-01 0.  0.
         14    1    1    2    0    0  0.22506523510E-01 -0.19531282292E-03 -0.10360268344E-01  0.24777346665E-01  0.00000000000E+00 0. -1.
     999901    1    3    3    0    0  0.86064698336E-01  0.95823196169E-02  0.80765883639E-01  0.88793134932E+00  0.88000000000E+00 0.  1.
        -11    1    4    4    0    0 -0.50836430272E-01 -0.12345021290E-01 -0.40306357599E-01  0.66042454356E-01  0.51100000000E-03 0. -1.
         11    1    4    4    0    0 -0.57734791573E-01  0.29580144960E-02 -0.30099257696E-01  0.65178849657E-01  0.51100000000E-03 0.  1.
</event>
<event>
 8    1  0.1129676E+005  0.1043930E+01  0.7957747E-01            NaN
         13   -1    0    0    0    0  0.00000000000E+00  0.00000000000E+00  0.74505805969E-08  0.10566000000E+00  0.10566000000E+00 0. -1.
     999900   -1    0    0    0    0 -0.00000000000E+00 -0.00000000000E+00 -0.74505805969E-08  0.93827000000E+00  0.93827000000E+00 0. -1.
     999902    2    1    2    0    0  0.58319062703E-02 -0.22672313537E-01 -0.15522405478E-02  0.10204682357E+01  0.10201984933E+01 0.  0.
     999903    2    3    3    0    0 -0.10107977758E+00  0.66882735502E-01  0.37995174055E-01  0.12860826188E+00  0.20150186820E-01 0.  0.
         14    1    1    2    0    0 -0.58319062703E-02  0.22672313537E-01  0.15522405478E-02  0.23461764268E-01  0.00000000000E+00 0.  1.
     999901    1    3    3    0    0  0.10691168385E+00 -0.89555049039E-01 -0.39547414603E-01  0.89185997385E+00  0.88000000000E+00 0.  1.
        -11    1    4    4    0    0 -0.96212768348E-01  0.57699008912E-01  0.32302275882E-01  0.11674660839E+00  0.51100000000E-03 0. -1.
         11    1    4    4    0    0 -0.48670092335E-02  0.91837265894E-02  0.56928981726E-02  0.11861653491E-01  0.51100000000E-03 0.  1.
</event>
<event>
 8    1  0.1129676E+005  0.1043930E+01  0.7957747E-01            NaN
         13   -1    0    0    0    0  0.00000000000E+00  0.00000000000E+00  0.74505805969E-08  0.10566000000E+00  0.10566000000E+00 0.  1.
     999900   -1    0    0    0    0 -0.00000000000E+00 -0.00000000000E+00 -0.74505805969E-08  0.93827000000E+00  0.93827000000E+00 0. -1.
     999902    2    1    2    0    0  0.12547405233E-01 -0.21070041264E-01 -0.22850454463E-02  0.10193006385E+01  0.10190030354E+01 0.  0.
     999903    2    3    3    0    0  0.10548082348E+00  0.30539632534E-01  0.66939859877E-01  0.13020431850E+00  0.20330923227E-01 0.  0.
         14    1    1    2    0    0 -0.12547405233E-01  0.21070041264E-01  0.22850454463E-02  0.24629361535E-01  0.00000000000E+00 0.  1.
     999901    1    3    3    0    0 -0.92933418244E-01 -0.51609673798E-01 -0.69224905323E-01  0.88909631996E+00  0.88000000000E+00 0. -1.
        -11    1    4    4    0    0  0.14664883979E-01  0.38859747202E-03  0.16314856714E-01  0.21946423415E-01  0.51100000000E-03 0.  1.
         11    1    4    4    0    0  0.90815939498E-01  0.30151035062E-01  0.50625003163E-01  0.10825789509E+00  0.51100000000E-03 0. -1.
</event>
<event>
 8    1  0.1129676E+005  0.1043930E+01  0.7957747E-01            NaN
         13   -1    0    0    0    0  0.00000000000E+00  0.00000000000E+00  0.74505805969E-08  0.10566000000E+00  0.10566000000E+00 0.  1.
     999900   -1    0    0    0    0 -0.00000000000E+00 -0.00000000000E+00 -0.74505805969E-08  0.93827000000E+00  0.93827000000E+00 0.  1.
     999902    2    1    2    0    0  0.18618216203E-01 -0.16422209006E-01 -0.16972703592E-01  0.10138567629E+01  0.10134106453E+01 0.  0.
     999903    2    3    3    0    0 -0.68115656175E-02 -0.68802588953E-01 -0.10523270979E+00  0.12752713645E+00  0.20225074748E-01 0.  0.
         14    1    1    2    0    0 -0.18618216203E-01  0.16422209006E-01  0.16972703592E-01  0.30073237113E-01  0.00000000000E+00 0.  1.
     999901    1    3    3    0    0  0.25429781820E-01  0.52380379947E-01  0.88260006198E-01  0.88632962644E+00  0.88000000000E+00 0. -1.
        -11    1    4    4    0    0  0.13249873142E-02 -0.20401523124E-01 -0.47718428124E-01  0.51916155874E-01  0.51100000000E-03 0. -1.
         11    1    4    4    0    0 -0.81365529317E-02 -0.48401065829E-01 -0.57514281666E-01  0.75610980575E-01  0.51100000000E-03 0.  1.
</event>
<event>
 8    1  0.1129676E+005  0.1043930E+01  0.7957747E-01            NaN
         13   -1    0    0    0    0  0.00000000000E+00  0.00000000000E+00  0.74505805969E-08  0.10566000000E+00  0.10566000000E+00 0.  1.
     999900   -1    0    0    0    0 -0.00000000000E+00 -0.00000000000E+00 -0.74505805969E-08  0.93827000000E+00  0.93827000000E+00 0. -1.
     999902    2    1    2    0    0  0.22762252837E-01 -0.85274594886E-02  0.13874363849E-02  0.10195832816E+01  0.10192925514E+01 0.  0.
     999903    2    3    3    0    0 -0.98647785340E-01  0.45261940296E-01 -0.63333934878E-01  0.12727024634E+00  0.20161832897E-01 0.  0.
         14    1    1    2    0    0 -0.22762252837E-01  0.85274594886E-02 -0.13874363849E-02  0.24346718450E-01  0.00000000000E+00 0.  1.
     999901    1    3    3    0    0  0.12141003818E+00 -0.53789399785E-01  0.64721371262E-01  0.89231303521E+00  0.88000000000E+00 0.  1.
        -11    1    4    4    0    0 -0.82662905408E-01  0.45547403406E-01 -0.53413418504E-01  0.10844803495E+00  0.51100000000E-03 0.  1.
         11    1    4    4    0    0 -0.15984879932E-01 -0.28546310990E-03 -0.99205163735E-02  0.18822211393E-01  0.51100000000E-03 0. -1.
</event>
<event>
 8    1  0.1129676E+005  0.1043930E+01  0.7957747E-01            NaN
         13   -1    0    0    0    0  0.00000000000E+00  0.00000000000E+00  0.74505805969E-08  0.10566000000E+00  0.10566000000E+00 0. -1.
     999900   -1    0    0    0    0 -0.00000000000E+00 -0.00000000000E+00 -0.74505805969E-08  0.93827000000E+00  0.93827000000E+00 0. -1.
     999902    2    1    2    0    0 -0.64953996350E-02 -0.42048630696E-02  0.15516107531E-01  0.10265915836E+01  0.10264451563E+01 0.  0.
     999903    2    3    3    0    0 -0.34824798264E-01  0.36293545358E-01  0.12691989287E+00  0.13819219184E+00  0.21411087592E-01 0.  0.
         14    1    1    2    0    0  0.64953996350E-02  0.42048630696E-02 -0.15516107531E-01  0.17338416386E-01  0.00000000000E+00 0.  1.
     999901    1    3    3    0    0  0.28329398629E-01 -0.40498408427E-01 -0.11140378534E+00  0.88839939177E+00  0.88000000000E+00 0. -1.
        -11    1    4    4    0    0 -0.10820245452E-01  0.14864040125E-01  0.23269223285E-01  0.29660331653E-01  0.51100000000E-03 0. -1.
         11    1    4    4    0    0 -0.24004552812E-01  0.21429505233E-01  0.10365066958E+00  0.10853186019E+00  0.51100000000E-03 0.  1.
</event>
<event>
 8    1  0.1129676E+005  0.1043930E+01  0.7957747E-01            NaN
         13   -1    0    0    0    0  0.00000000000E+00  0.00000000000E+00  0.74505805969E-08  0.10566000000E+00  0.10566000000E+00 0.  1.
     999900   -1    0    0    0    0 -0.00000000000E+00 -0.00000000000E+00 -0.74505805969E-08  0.93827000000E+00  0.93827000000E+00 0.  1.
     999902    2    1    2    0    0  0.14315902138E-01 -0.25211239964E-02 -0.19034386007E-01  0.10199798649E+01  0.10196986397E+01 0.  0.
     999903    2    3    3    0    0  0.79648720779E-01  0.10114388650E+00 -0.17851920641E-01  0.13148889151E+00  0.19915647664E-01 0.  0.
         14    1    1    2    0    0 -0.14315902138E-01  0.25211239964E-02  0.19034386007E-01  0.23950135091E-01  0.00000000000E+00 0.  1.
     999901    1    3    3    0    0 -0.65332818641E-01 -0.10366501049E+00 -0.11824653661E-02  0.88849097340E+00  0.88000000000E+00 0.  1.
        -11    1    4    4    0    0  0.66498870422E-01  0.94416722820E-01 -0.15410188253E-01  0.11650902256E+00  0.51100000000E-03 0. -1.
         11    1    4    4    0    0  0.13149850357E-01  0.67271636758E-02 -0.24417323876E-02  0.14979868944E-01  0.51100000000E-03 0.  1.
</event>
<event>
 8    1  0.1129676E+005  0.1043930E+01  0.7957747E-01            NaN
         13   -1    0    0    0    0  0.00000000000E+00  0.00000000000E+00  0.74505805969E-08  0.10566000000E+00  0.10566000000E+00 0. -1.
     999900   -1    0    0    0    0 -0.00000000000E+00 -0.00000000000E+00 -0.74505805969E-08  0.93827000000E+00  0.93827000000E+00 0. -1.
     999902    2    1    2    0    0 -0.20081238742E-01 -0.95273510746E-02  0.55904944601E-02  0.10210110080E+01  0.10207537402E+01 0.  0.
     999903    2    3    3    0    0  0.10396296510E+00  0.72851977888E-01  0.37729872188E-02  0.12849959533E+00  0.19549981373E-01 0.  0.
         14    1    1    2    0    0  0.20081238742E-01  0.95273510746E-02 -0.55904944601E-02  0.22918992042E-01  0.00000000000E+00 0.  1.
     999901    1    3    3    0    0 -0.12404420384E+00 -0.82379328963E-01  0.18175072413E-02  0.89251141263E+00  0.88000000000E+00 0.  1.
        -11    1    4    4    0    0  0.15680544525E-01  0.15533417628E-01  0.70901251518E-02  0.23188306006E-01  0.51100000000E-03 0. -1.
         11    1    4    4    0    0  0.88282420575E-01  0.57318560261E-01 -0.33171379330E-02  0.10531128932E+00  0.51100000000E-03 0.  1.
</event>
<event>
 8    1  0.1129676E+005  0.1043930E+01  0.7957747E-01            NaN
         13   -1    0    0    0    0  0.00000000000E+00  0.00000000000E+00  0.74505805969E-08  0.10566000000E+00  0.10566000000E+00 0. -1.
     999900   -1    0    0    0    0 -0.00000000000E+00 -0.00000000000E+00 -0.74505805969E-08  0.93827000000E+00  0.93827000000E+00 0. -1.
     999902    2    1    2    0    0 -0.10071670603E-01  0.19625672507E-01  0.90024412886E-02  0.10201046035E+01  0.10198263345E+01 0.  0.
     999903    2    3    3    0    0  0.80201305397E-03  0.50241140759E-01  0.12066910696E+00  0.13245321464E+00  0.21401057061E-01 0.  0.
         14    1    1    2    0    0  0.10071670603E-01 -0.19625672507E-01 -0.90024412886E-02  0.23825396518E-01  0.00000000000E+00 0. -1.
     999901    1    3    3    0    0 -0.10873683657E-01 -0.30615468252E-01 -0.11166666567E+00  0.88765138884E+00  0.88000000000E+00 0. -1.
        -11    1    4    4    0    0 -0.50797285621E-02  0.47967268189E-02  0.70410709874E-02  0.99322722521E-02  0.51100000000E-03 0.  1.
         11    1    4    4    0    0  0.58817416161E-02  0.45444413940E-01  0.11362803597E+00  0.12252094239E+00  0.51100000000E-03 0. -1.
</event>
<event>
 8    1  0.1129676E+005  0.1043930E+01  0.7957747E-01            NaN
         13   -1    0    0    0    0  0.00000000000E+00  0.00000000000E+00  0.74505805969E-08  0.10566000000E+00  0.10566000000E+00 0. -1.
     999900   -1    0    0    0    0 -0.00000000000E+00 -0.00000000000E+00 -0.74505805969E-08  0.93827000000E+00  0.93827000000E+00 0. -1.
     999902    2    1    2    0    0  0.31933875094E-02  0.23111934382E-01 -0.49034234580E-02  0.10200888004E+01  0.10198101578E+01 0.  0.
     999903    2    3    3    0    0  0.12410272586E+00 -0.19919296645E-01 -0.28086075071E-01  0.13047754249E+00  0.20911636371E-01 0.  0.
         14    1    1    2    0    0 -0.31933875094E-02 -0.23111934382E-01  0.49034234580E-02  0.23841199556E-01  0.00000000000E+00 0. -1.
     999901    1    3    3    0    0 -0.12090933835E+00  0.43031231027E-01  0.23182651613E-01  0.88961125796E+00  0.88000000000E+00 0.  1.
        -11    1    4    4    0    0  0.94481878663E-01 -0.20035926661E-01 -0.28980825418E-01  0.10083854975E+00  0.51100000000E-03 0. -1.
         11    1    4    4    0    0  0.29620847200E-01  0.11663001532E-03  0.89475034713E-03  0.29638992739E-01  0.51100000000E-03 0.  1.
</event>
<event>
 8    1  0.1129676E+005  0.1043930E+01  0.7957747E-01            NaN
         13   -1    0    0    0    0  0.00000000000E+00  0.00000000000E+00  0.74505805969E-08  0.10566000000E+00  0.10566000000E+00 0.  1.
     999900   -1    0    0    0    0 -0.00000000000E+00 -0.00000000000E+00 -0.74505805969E-08  0.93827000000E+00  0.93827000000E+00 0. -1.
     999902    2    1    2    0    0 -0.18598792823E-01 -0.16449334686E-02 -0.13693653168E-01  0.10207753668E+01  0.10205127204E+01 0.  0.
     999903    2    3    3    0    0  0.10519720078E+00 -0.42557090672E-01  0.56614957682E-01  0.12839509283E+00  0.20062138766E-01 0.  0.
         14    1    1    2    0    0  0.18598792823E-01  0.16449334686E-02  0.13693653168E-01  0.23154633180E-01  0.00000000000E+00 0.  1.
     999901    1    3    3    0    0 -0.12379599360E+00  0.40912157203E-01 -0.70308610850E-01  0.89238027399E+00  0.88000000000E+00 0. -1.
        -11    1    4    4    0    0  0.92012089273E-01 -0.31567137610E-01  0.42458722416E-01  0.10614006303E+00  0.51100000000E-03 0.  1.
         11    1    4    4    0    0  0.13185111508E-01 -0.10989953062E-01  0.14156235266E-01  0.22255029807E-01  0.51100000000E-03 0. -1.
</event>
<event>
 8    1  0.1129676E+005  0.1043930E+01  0.7957747E-01            NaN
         13   -1    0    0    0    0  0.00000000000E+00  0.00000000000E+00  0.74505805969E-08  0.10566000000E+00  0.10566000000E+00 0. -1.
     999900   -1    0    0    0    0 -0.00000000000E+00 -0.00000000000E+00 -0.74505805969E-08  0.93827000000E+00  0.93827000000E+00 0.  1.
     999902    2    1    2    0    0  0.17685053091E-01 -0.14155520254E-01  0.72216406253E-02  0.10201541309E+01  0.10198770313E+01 0.  0.
     999903    2    3    3    0    0 -0.87882375076E-01  0.75449100467E-01  0.51402997208E-01  0.12823179002E+00  0.19627665188E-01 0.  0.
         14    1    1    2    0    0 -0.17685053091E-01  0.14155520254E-01 -0.72216406253E-02  0.23775869065E-01  0.00000000000E+00 0.  1.
     999901    1    3    3    0    0  0.10556742817E+00 -0.89604620721E-01 -0.44181356583E-01  0.89192234091E+00  0.88000000000E+00 0.  1.
        -11    1    4    4    0    0 -0.94782611968E-02  0.17078809558E-01  0.11349676203E-01  0.22596447556E-01  0.51100000000E-03 0. -1.
         11    1    4    4    0    0 -0.78404113880E-01  0.58370290909E-01  0.40053321004E-01  0.10563534247E+00  0.51100000000E-03 0.  1.
</event>
<event>
 8    1  0.1129676E+005  0.1043930E+01  0.7957747E-01            NaN
         13   -1    0    0    0    0  0.00000000000E+00  0.00000000000E+00  0.74505805969E-08  0.10566000000E+00  0.10566000000E+00 0. -1.
     999900   -1    0    0    0    0 -0.00000000000E+00 -0.00000000000E+00 -0.74505805969E-08  0.93827000000E+00  0.93827000000E+00 0.  1.
     999902    2    1    2    0    0  0.15536614146E-01 -0.75784759343E-02  0.16239546999E-01  0.10202120203E+01  0.10199362841E+01 0.  0.
     999903    2    3    3    0    0  0.39825259571E-01 -0.94857670538E-01 -0.77798841991E-01  0.13057680585E+00  0.20337488780E-01 0.  0.
         14    1    1    2    0    0 -0.15536614146E-01  0.75784759343E-02 -0.16239546999E-01  0.23717979748E-01  0.00000000000E+00 0. -1.
     999901    1    3    3    0    0 -0.24288645425E-01  0.87279194604E-01  0.94038388990E-01  0.88963521441E+00  0.88000000000E+00 0. -1.
        -11    1    4    4    0    0  0.74620815990E-02 -0.29654634857E-01 -0.13420388815E-01  0.33398323120E-01  0.51100000000E-03 0.  1.
         11    1    4    4    0    0  0.32363177972E-01 -0.65203035681E-01 -0.64378453176E-01  0.97178482726E-01  0.51100000000E-03 0. -1.
</event>
<event>
 8    1  0.1129676E+005  0.1043930E+01  0.7957747E-01            NaN
         13   -1    0    0    0    0  0.00000000000E+00  0.00000000000E+00  0.74505805969E-08  0.10566000000E+00  0.10566000000E+00 0.  1.
     999900   -1    0    0    0    0 -0.00000000000E+00 -0.00000000000E+00 -0.74505805969E-08  0.93827000000E+00  0.93827000000E+00 0. -1.
     999902    2    1    2    0    0  0.24305676678E-01 -0.34484539264E-02  0.74216932047E-02  0.10182835717E+01  0.10179605558E+01 0.  0.
     999903    2    3    3    0    0 -0.49413587832E-01  0.36405796835E-01 -0.10909391763E+00  0.12665653152E+00  0.19321216475E-01 0.  0.
         14    1    1    2    0    0 -0.24305676678E-01  0.34484539264E-02 -0.74216932047E-02  0.25646428276E-01  0.00000000000E+00 0. -1.
     999901    1    3    3    0    0  0.73719264511E-01 -0.39854250761E-01  0.11651561083E+00  0.89162704021E+00  0.88000000000E+00 0.  1.
        -11    1    4    4    0    0 -0.20449056349E-01  0.10266680952E-01 -0.58112517885E-01  0.62457141299E-01  0.51100000000E-03 0. -1.
         11    1    4    4    0    0 -0.28964531484E-01  0.26139115883E-01 -0.50981399745E-01  0.64199390216E-01  0.51100000000E-03 0.  1.
</event>
<event>
 8    1  0.1129676E+005  0.1043930E+01  0.7957747E-01            NaN
         13   -1    0    0    0    0  0.00000000000E+00  0.00000000000E+00  0.74505805969E-08  0.10566000000E+00  0.10566000000E+00 0.  1.
     999900   -1    0    0    0    0 -0.00000000000E+00 -0.00000000000E+00 -0.74505805969E-08  0.93827000000E+00  0.93827000000E+00 0.  1.
     999902    2    1    2    0    0  0.63346668152E-02 -0.15229933124E-01 -0.14689517777E-01  0.10218424289E+01  0.10216036847E+01 0.  0.
     999903    2    3    3    0    0 -0.81603336583E-01  0.95622517092E-01  0.24827540544E-01  0.12966365974E+00  0.19836521141E-01 0.  0.
         14    1    1    2    0    0 -0.63346668152E-02  0.15229933124E-01  0.14689517777E-01  0.22087571146E-01  0.00000000000E+00 0. -1.
     999901    1    3    3    0    0  0.87938003398E-01 -0.11085245022E+00 -0.39517058321E-01  0.89217876911E+00  0.88000000000E+00 0.  1.
        -11    1    4    4    0    0 -0.37861737345E-01  0.59214817207E-01  0.15778318202E-01  0.72035561898E-01  0.51100000000E-03 0.  1.
         11    1    4    4    0    0 -0.43741599238E-01  0.36407699885E-01  0.90492223423E-02  0.57628097841E-01  0.51100000000E-03 0. -1.
</event>
<event>
 8    1  0.1129676E+005  0.1043930E+01  0.7957747E-01            NaN
         13   -1    0    0    0    0  0.00000000000E+00  0.00000000000E+00  0.74505805969E-08  0.10566000000E+00  0.10566000000E+00 0.  1.
     999900   -1    0    0    0    0 -0.00000000000E+00 -0.00000000000E+00 -0.74505805969E-08  0.93827000000E+00  0.93827000000E+00 0. -1.
     999902    2    1    2    0    0 -0.14474675702E-01  0.15108117442E-01 -0.11411884871E-01  0.10200971956E+01  0.10198187515E+01 0.  0.
     999903    2    3    3    0    0  0.86658333913E-01  0.88969644077E-01  0.33331906839E-01  0.13010538797E+00  0.19777046327E-01 0.  0.
         14    1    1    2    0    0  0.14474675702E-01 -0.15108117442E-01  0.11411884871E-01  0.23832804401E-01  0.00000000000E+00 0. -1.
     999901    1    3    3    0    0 -0.10113300962E+00 -0.73861526635E-01 -0.44743791710E-01  0.88999180763E+00  0.88000000000E+00 0. -1.
        -11    1    4    4    0    0  0.80984136224E-01  0.74737143024E-01  0.26624974446E-01  0.11337204793E+00  0.51100000000E-03 0. -1.
         11    1    4    4    0    0  0.56741976886E-02  0.14232501053E-01  0.67069323929E-02  0.16733340036E-01  0.51100000000E-03 0.  1.
</event>
<event>
 8    1  0.1129676E+005  0.1043930E+01  0.7957747E-01            NaN
         13   -1    0    0    0    0  0.00000000000E+00  0.00000000000E+00  0.74505805969E-08  0.10566000000E+00  0.10566000000E+00 0. -1.
     999900   -1    0    0    0    0 -0.00000000000E+00 -0.00000000000E+00 -0.74505805969E-08  0.93827000000E+00  0.93827000000E+00 0.  1.
     999902    2    1    2    0    0 -0.72892776135E-02 -0.16536251806E-01  0.15486721866E-01  0.10201304255E+01  0.10198527665E+01 0.  0.
     999903    2    3    3    0    0 -0.92343930429E-01  0.75908777277E-01 -0.44615619531E-01  0.12917999545E+00  0.20183502297E-01 0.  0.
         14    1    1    2    0    0  0.72892776135E-02  0.16536251806E-01 -0.15486721866E-01  0.23799574494E-01  0.00000000000E+00 0.  1.
     999901    1    3    3    0    0  0.85054652815E-01 -0.92445029082E-01  0.60102341397E-01  0.89095043005E+00  0.88000000000E+00 0.  1.
        -11    1    4    4    0    0 -0.18577870883E-01  0.26702598433E-01 -0.10837092810E-01  0.34290957280E-01  0.51100000000E-03 0. -1.
         11    1    4    4    0    0 -0.73766059546E-01  0.49206178844E-01 -0.33778526721E-01  0.94889038175E-01  0.51100000000E-03 0.  1.
</event>
<event>
 8    1  0.1129676E+005  0.1043930E+01  0.7957747E-01            NaN
         13   -1    0    0    0    0  0.00000000000E+00  0.00000000000E+00  0.74505805969E-08  0.10566000000E+00  0.10566000000E+00 0. -1.
     999900   -1    0    0    0    0 -0.00000000000E+00 -0.00000000000E+00 -0.74505805969E-08  0.93827000000E+00  0.93827000000E+00 0. -1.
     999902    2    1    2    0    0  0.19142036529E-01 -0.10914637537E-01 -0.90512118712E-02  0.10201083436E+01  0.10198301631E+01 0.  0.
     999903    2    3    3    0    0 -0.27509533933E-01 -0.11233178313E+00 -0.59598419453E-01  0.13161702313E+00  0.19896361929E-01 0.  0.
         14    1    1    2    0    0 -0.19142036529E-01  0.10914637537E-01  0.90512118712E-02  0.23821656352E-01  0.00000000000E+00 0.  1.
     999901    1    3    3    0    0  0.46651570462E-01  0.10141714559E+00  0.50547207582E-01  0.88849132052E+00  0.88000000000E+00 0.  1.
        -11    1    4    4    0    0 -0.91403574777E-02 -0.62536072444E-01 -0.41177550130E-01  0.75433137594E-01  0.51100000000E-03 0.  1.
         11    1    4    4    0    0 -0.18369176456E-01 -0.49795710682E-01 -0.18420869323E-01  0.56183885534E-01  0.51100000000E-03 0. -1.
</event>
<event>
 8    1  0.1129676E+005  0.1043930E+01  0.7957747E-01            NaN
         13   -1    0    0    0    0  0.00000000000E+00  0.00000000000E+00  0.74505805969E-08  0.10566000000E+00  0.10566000000E+00 0. -1.
     999900   -1    0    0    0    0 -0.00000000000E+00 -0.00000000000E+00 -0.74505805969E-08  0.93827000000E+00  0.93827000000E+00 0.  1.
     999902    2    1    2    0    0  0.19750757573E-01 -0.10161908994E-01  0.12596750368E-01  0.10183950252E+01  0.10180748462E+01 0.  0.
     999903    2    3    3    0    0  0.52728675368E-01 -0.87920044119E-01 -0.78126244326E-01  0.12970805419E+00  0.14499031217E-01 0.  0.
         14    1    1    2    0    0 -0.19750757573E-01  0.10161908994E-01 -0.12596750368E-01  0.25534974818E-01  0.00000000000E+00 0. -1.
     999901    1    3    3    0    0 -0.32977917795E-01  0.77758135125E-01  0.90722994693E-01  0.88868697099E+00  0.88000000000E+00 0. -1.
        -11    1    4    4    0    0  0.17180953904E-01 -0.39131278676E-01 -0.26607508297E-01  0.50345434417E-01  0.51100000000E-03 0. -1.
         11    1    4    4    0    0  0.35547721464E-01 -0.48788765442E-01 -0.51518736029E-01  0.79362619776E-01  0.51100000000E-03 0.  1.
</event>
<event>
 8    1  0.1129676E+005  0.1043930E+01  0.7957747E-01            NaN
         13   -1    0    0    0    0  0.00000000000E+00  0.00000000000E+00  0.74505805969E-08  0.10566000000E+00  0.10566000000E+00 0. -1.
     999900   -1    0    0    0    0 -0.00000000000E+00 -0.00000000000E+00 -0.74505805969E-08  0.93827000000E+00  0.93827000000E+00 0.  1.
     999902    2    1    2    0    0  0.11709395251E-01 -0.10938161484E-01  0.17787016537E-01  0.10199898398E+01  0.10197088516E+01 0.  0.
     999903    2    3    3    0    0 -0.88676451132E-02  0.11982834595E+00  0.44182074343E-01  0.12969775674E+00  0.20784243723E-01 0.  0.
         14    1    1    2    0    0 -0.11709395251E-01  0.10938161484E-01 -0.17787016537E-01  0.23940160214E-01  0.00000000000E+00 0.  1.
     999901    1    3    3    0    0  0.20577040364E-01 -0.13076650743E+00 -0.26395057806E-01  0.89029208305E+00  0.88000000000E+00 0.  1.
        -11    1    4    4    0    0 -0.44104938403E-02  0.24045234267E-01  0.83215134578E-03  0.24465881217E-01  0.51100000000E-03 0. -1.
         11    1    4    4    0    0 -0.44571512728E-02  0.95783111684E-01  0.43349922997E-01  0.10523187552E+00  0.51100000000E-03 0.  1.
</event>
<event>
 8    1  0.1129676E+005  0.1043930E+01  0.7957747E-01            NaN
         13   -1    0    0    0    0  0.00000000000E+00  0.00000000000E+00  0.74505805969E-08  0.10566000000E+00  0.10566000000E+00 0. -1.
     999900   -1    0    0    0    0 -0.00000000000E+00 -0.00000000000E+00 -0.74505805969E-08  0.93827000000E+00  0.93827000000E+00 0.  1.
     999902    2    1    2    0    0 -0.22797378403E-01  0.75690171571E-02 -0.63057612051E-03  0.10199006823E+01  0.10196175723E+01 0.  0.
     999903    2    3    3    0    0  0.55331241959E-01  0.99118267826E-01 -0.59650889689E-01  0.12974971531E+00  0.19768222722E-01 0.  0.
         14    1    1    2    0    0  0.22797378403E-01 -0.75690171571E-02  0.63057612051E-03  0.24029317697E-01  0.00000000000E+00 0. -1.
     999901    1    3    3    0    0 -0.78128620362E-01 -0.91549250669E-01  0.59020313568E-01  0.89015096699E+00  0.88000000000E+00 0. -1.
        -11    1    4    4    0    0  0.24410291170E-01  0.27546904997E-01 -0.13873687398E-01  0.39337445430E-01  0.51100000000E-03 0. -1.
         11    1    4    4    0    0  0.30920950789E-01  0.71571362829E-01 -0.45777202291E-01  0.90412269883E-01  0.51100000000E-03 0.  1.
</event>
<event>
 8    1  0.1129676E+005  0.1043930E+01  0.7957747E-01            NaN
         13   -1    0    0    0    0  0.00000000000E+00  0.00000000000E+00  0.74505805969E-08  0.10566000000E+00  0.10566000000E+00 0.  1.
     999900   -1    0    0    0    0 -0.00000000000E+00 -0.00000000000E+00 -0.74505805969E-08  0.93827000000E+00  0.93827000000E+00 0.  1.
     999902    2    1    2    0    0 -0.25113850186E-02 -0.23067903742E-01  0.37723090863E-03  0.10207227266E+01  0.10204588708E+01 0.  0.
     999903    2    3    3    0    0 -0.49885662257E-01 -0.87522261971E-01 -0.84635076761E-01  0.13301456567E+00  0.19520574350E-01 0.  0.
         14    1    1    2    0    0  0.25113850186E-02  0.23067903742E-01 -0.37723090863E-03  0.23207273449E-01  0.00000000000E+00 0.  1.
     999901    1    3    3    0    0  0.47374277238E-01  0.64454358229E-01  0.85012307670E-01  0.88770816088E+00  0.88000000000E+00 0. -1.
        -11    1    4    4    0    0 -0.19930725787E-01 -0.41618876248E-01 -0.50643748663E-01  0.68515801755E-01  0.51100000000E-03 0.  1.
         11    1    4    4    0    0 -0.29954936470E-01 -0.45903385723E-01 -0.33991328098E-01  0.64498763916E-01  0.51100000000E-03 0. -1.
</event>
<event>
 7    1  0.1129676E+005  0.1043930E+01  0.7957747E-01            NaN
         13   -1    0    0    0    0  0.00000000000E+00  0.00000000000E+00  0.74505805969E-08  0.10566000000E+00  0.10566000000E+00 0.  1.
     999900   -1    0    0    0    0 -0.00000000000E+00 -0.00000000000E+00 -0.74505805969E-08  0.93827000000E+00  0.93827000000E+00 0.  1.
     999902    2    1    2    0    0  0.22261515598E-02 -0.52568923755E-02  0.22950280974E-01  0.10202803475E+01  0.10200062163E+01 0.  0.
         14    1    1    2    0    0 -0.22261515598E-02  0.52568923755E-02 -0.22950280974E-01  0.23649652534E-01  0.00000000000E+00 0. -1.
     999901    1    3    3    0    0  0.81137160542E-01  0.94034438950E-01  0.51419535416E-01  0.89020766294E+00  0.88000000000E+00 0. -1.
        -11    1    3    3    0    0 -0.28626996300E-01 -0.33429092373E-01 -0.11426084415E-01  0.45473351098E-01  0.51100000000E-03 0.  1.
         11    1    3    3    0    0 -0.50284012683E-01 -0.65862238953E-01 -0.17043170027E-01  0.84599333430E-01  0.51100000000E-03 0. -1.
</event>
<event>
 8    1  0.1129676E+005  0.1043930E+01  0.7957747E-01            NaN
         13   -1    0    0    0    0  0.00000000000E+00  0.00000000000E+00  0.74505805969E-08  0.10566000000E+00  0.10566000000E+00 0.  1.
     999900   -1    0    0    0    0 -0.00000000000E+00 -0.00000000000E+00 -0.74505805969E-08  0.93827000000E+00  0.93827000000E+00 0.  1.
     999902    2    1    2    0    0 -0.42738869927E-02  0.16322188874E-02  0.22972369818E-01  0.10205065070E+01  0.10202376541E+01 0.  0.
     999903    2    3    3    0    0 -0.12810755462E+00 -0.80615212539E-02 -0.16107119315E-01  0.13092460955E+00  0.20131577577E-01 0.  0.
         14    1    1    2    0    0  0.42738869927E-02 -0.16322188874E-02 -0.22972369818E-01  0.23423492984E-01  0.00000000000E+00 0. -1.
     999901    1    3    3    0    0  0.12383366763E+00  0.96937401413E-02  0.39079489133E-01  0.88958189747E+00  0.88000000000E+00 0.  1.
        -11    1    4    4    0    0 -0.13771173534E-01  0.27588897044E-02  0.33295805003E-02  0.14443127092E-01  0.51100000000E-03 0. -1.
         11    1    4    4    0    0 -0.11433638109E+00 -0.10820410958E-01 -0.19436699816E-01  0.11648148245E+00  0.51100000000E-03 0.  1.
</event>
<event>
 8    1  0.1129676E+005  0.1043930E+01  0.7957747E-01            NaN
         13   -1    0    0    0    0  0.00000000000E+00  0.00000000000E+00  0.74505805969E-08  0.10566000000E+00  0.10566000000E+00 0.  1.
     999900   -1    0    0    0    0 -0.00000000000E+00 -0.00000000000E+00 -0.74505805969E-08  0.93827000000E+00  0.93827000000E+00 0. -1.
     999902    2    1    2    0    0 -0.35802880735E-02 -0.14008879520E-01  0.15356689472E-01  0.10228374639E+01  0.10226199599E+01 0.  0.
     999903    2    3    3    0    0 -0.11234721510E+00 -0.70417520066E-01 -0.39424187220E-02  0.13413918285E+00  0.19931227664E-01 0.  0.
         14    1    1    2    0    0  0.35802880735E-02  0.14008879520E-01 -0.15356689472E-01  0.21092536112E-01  0.00000000000E+00 0. -1.
     999901    1    3    3    0    0  0.10876692703E+00  0.56408640546E-01  0.19299108194E-01  0.88869828104E+00  0.88000000000E+00 0.  1.
        -11    1    4    4    0    0 -0.47727758596E-01 -0.34780885801E-01  0.72389809995E-02  0.59500528775E-01  0.51100000000E-03 0.  1.
         11    1    4    4    0    0 -0.64619456509E-01 -0.35636634265E-01 -0.11181399722E-01  0.74638654074E-01  0.51100000000E-03 0. -1.
</event>
<event>
 8    1  0.1129676E+005  0.1043930E+01  0.7957747E-01            NaN
         13   -1    0    0    0    0  0.00000000000E+00  0.00000000000E+00  0.74505805969E-08  0.10566000000E+00  0.10566000000E+00 0.  1.
     999900   -1    0    0    0    0 -0.00000000000E+00 -0.00000000000E+00 -0.74505805969E-08  0.93827000000E+00  0.93827000000E+00 0.  1.
     999902    2    1    2    0    0  0.21734819927E-01  0.56668343085E-02 -0.51942934996E-02  0.10208758010E+01  0.10206154540E+01 0.  0.
     999903    2    3    3    0    0  0.94373749366E-01  0.92119192535E-01 -0.77066423695E-02  0.13365726181E+00  0.20310615353E-01 0.  0.
         14    1    1    2    0    0 -0.21734819927E-01 -0.56668343085E-02  0.51942934996E-02  0.23054199038E-01  0.00000000000E+00 0.  1.
     999901    1    3    3    0    0 -0.72638929439E-01 -0.86452358227E-01  0.25123488699E-02  0.88721853915E+00  0.88000000000E+00 0.  1.
        -11    1    4    4    0    0  0.49442132992E-01  0.42667902363E-01 -0.13144352492E-01  0.66619137868E-01  0.51100000000E-03 0.  1.
         11    1    4    4    0    0  0.44931616373E-01  0.49451290172E-01  0.54377101225E-02  0.67038123944E-01  0.51100000000E-03 0. -1.
</event>
<event>
 8    1  0.1129676E+005  0.1043930E+01  0.7957747E-01            NaN
         13   -1    0    0    0    0  0.00000000000E+00  0.00000000000E+00  0.74505805969E-08  0.10566000000E+00  0.10566000000E+00 0. -1.
     999900   -1    0    0    0    0 -0.00000000000E+00 -0.00000000000E+00 -0.74505805969E-08  0.93827000000E+00  0.93827000000E+00 0.  1.
     999902    2    1    2    0    0 -0.92884389085E-02 -0.11713815138E-01 -0.18501878990E-01  0.10201432792E+01  0.10198659235E+01 0.  0.
     999903    2    3    3    0    0  0.68444087303E-01 -0.97727367162E-01 -0.52691693931E-01  0.13188114430E+00  0.19518971147E-01 0.  0.
         14    1    1    2    0    0  0.92884389085E-02  0.11713815138E-01  0.18501878990E-01  0.23786720845E-01  0.00000000000E+00 0. -1.
     999901    1    3    3    0    0 -0.77732526211E-01  0.86013552024E-01  0.34189814941E-01  0.88826213485E+00  0.88000000000E+00 0.  1.
        -11    1    4    4    0    0  0.45084695655E-01 -0.60412403628E-01 -0.23132528163E-01  0.78852160875E-01  0.51100000000E-03 0.  1.
         11    1    4    4    0    0  0.23359391648E-01 -0.37314963534E-01 -0.29559165767E-01  0.53028983429E-01  0.51100000000E-03 0. -1.
</event>
<event>
 8    1  0.1129676E+005  0.1043930E+01  0.7957747E-01            NaN
         13   -1    0    0    0    0  0.00000000000E+00  0.00000000000E+00  0.74505805969E-08  0.10566000000E+00  0.10566000000E+00 0. -1.
     999900   -1    0    0    0    0 -0.00000000000E+00 -0.00000000000E+00 -0.74505805969E-08  0.93827000000E+00  0.93827000000E+00 0.  1.
     999902    2    1    2    0    0  0.13505291134E-01  0.71450639981E-03 -0.18702338394E-01  0.10208501198E+01  0.10205891858E+01 0.  0.
     999903    2    3    3    0    0  0.19599888995E-01 -0.10635227974E+00 -0.74175044276E-01  0.13260597437E+00  0.19683602093E-01 0.  0.
         14    1    1    2    0    0 -0.13505291134E-01 -0.71450639981E-03  0.18702338394E-01  0.23079880186E-01  0.00000000000E+00 0. -1.
     999901    1    3    3    0    0 -0.60945978607E-02  0.10706678614E+00  0.55472705882E-01  0.88824414544E+00  0.88000000000E+00 0. -1.
        -11    1    4    4    0    0  0.79504004267E-02 -0.10687919462E-01 -0.63951537473E-02  0.14785114197E-01  0.51100000000E-03 0.  1.
         11    1    4    4    0    0  0.11649488568E-01 -0.95664360276E-01 -0.67779890528E-01  0.11782086017E+00  0.51100000000E-03 0. -1.
</event>
<event>
 8    1  0.1129676E+005  0.1043930E+01  0.7957747E-01            NaN
         13   -1    0    0    0    0  0.00000000000E+00  0.00000000000E+00  0.74505805969E-08  0.10566000000E+00  0.10566000000E+00 0.  1.
     999900   -1    0    0    0    0 -0.00000000000E+00 -0.00000000000E+00 -0.74505805969E-08  0.93827000000E+00  0.93827000000E+00 0.  1.
     999902    2    1    2    0    0 -0.87334624178E-02 -0.11325988588E-03 -0.24994098146E-01  0.10174537628E+01  0.10171092214E+01 0.  0.
     999903    2    3    3    0    0 -0.33566725919E-01  0.11083655647E+00  0.48570806623E-01  0.12709521260E+00  0.19560226716E-01 0.  0.
         14    1    1    2    0    0  0.87334624178E-02  0.11325988588E-03  0.24994098146E-01  0.26476237190E-01  0.00000000000E+00 0.  1.
     999901    1    3    3    0    0  0.24833263501E-01 -0.11094981636E+00 -0.73564904769E-01  0.89035855021E+00  0.88000000000E+00 0. -1.
        -11    1    4    4    0    0 -0.22938321231E-01  0.45088423572E-01  0.25120295329E-01  0.56483828478E-01  0.51100000000E-03 0.  1.
         11    1    4    4    0    0 -0.10628404688E-01  0.65748132900E-01  0.23450511294E-01  0.70611384118E-01  0.51100000000E-03 0. -1.
</event>
<event>
 8    1  0.1129676E+005  0.1043930E+01  0.7957747E-01            NaN
         13   -1    0    0    0    0  0.00000000000E+00  0.00000000000E+00  0.74505805969E-08  0.10566000000E+00  0.10566000000E+00 0.  1.
     999900   -1    0    0    0    0 -0.00000000000E+00 -0.00000000000E+00 -0.74505805969E-08  0.93827000000E+00  0.93827000000E+00 0. -1.
     999902    2    1    2    0    0 -0.50089794697E-02  0.13307771930E-01  0.19049534964E-01  0.10201587684E+01  0.10198817781E+01 0.  0.
     999903    2    3    3    0    0 -0.92803232759E-01 -0.61058261147E-01 -0.62389650963E-01  0.12894023247E+00  0.19813221302E-01 0.  0.
         14    1    1    2    0    0  0.50089794697E-02 -0.13307771930E-01 -0.19049534964E-01  0.23771231592E-01  0.00000000000E+00 0. -1.
     999901    1    3    3    0    0  0.87794253290E-01  0.74366033077E-01  0.81439185927E-01  0.89121853593E+00  0.88000000000E+00 0.  1.
        -11    1    4    4    0    0 -0.22644904552E-01 -0.11621766430E-01 -0.23747194937E-01  0.34814473219E-01  0.51100000000E-03 0. -1.
         11    1    4    4    0    0 -0.70158328207E-01 -0.49436494717E-01 -0.38642456027E-01  0.94125759256E-01  0.51100000000E-03 0.  1.
</event>
<event>
 8    1  0.1129676E+005  0.1043930E+01  0.7957747E-01            NaN
         13   -1    0    0    0    0  0.00000000000E+00  0.00000000000E+00  0.74505805969E-08  0.10566000000E+00  0.10566000000E+00 0.  1.
     999900   -1    0    0    0    0 -0.00000000000E+00 -0.00000000000E+00 -0.74505805969E-08  0.93827000000E+00  0.93827000000E+00 0. -1.
     999902    2    1    2    0    0 -0.13428583448E-01  0.85354006317E-02  0.17870160568E-01  0.10200025564E+01  0.10197218702E+01 0.  0.
     999903    2    3    3    0    0  0.11543614013E+00  0.27579103110E-01 -0.44332538900E-01  0.12824140263E+00  0.19858851112E-01 0.  0.
         14    1    1    2    0    0  0.13428583448E-01 -0.85354006317E-02 -0.17870160568E-01  0.23927443576E-01  0.00000000000E+00 0. -1.
     999901    1    3    3    0    0 -0.12886472358E+00 -0.19043702478E-01  0.62202699468E-01  0.89176115379E+00  0.88000000000E+00 0.  1.
        -11    1    4    4    0    0  0.23320891060E-01  0.76891372656E-02 -0.11734833707E-02  0.24589123122E-01  0.51100000000E-03 0.  1.
         11    1    4    4    0    0  0.92115249071E-01  0.19889965844E-01 -0.43159055529E-01  0.10365227951E+00  0.51100000000E-03 0. -1.
</event>
<event>
 8    1  0.1129676E+005  0.1043930E+01  0.7957747E-01            NaN
         13   -1    0    0    0    0  0.00000000000E+00  0.00000000000E+00  0.74505805969E-08  0.10566000000E+00  0.10566000000E+00 0.  1.
     999900   -1    0    0    0    0 -0.00000000000E+00 -0.00000000000E+00 -0.74505805969E-08  0.93827000000E+00  0.93827000000E+00 0. -1.
     999902    2    1    2    0    0 -0.89379354646E-02 -0.15378262503E-01  0.13890432279E-01  0.10213618420E+01  0.10211124769E+01 0.  0.
     999903    2    3    3    0    0  0.11158235914E+00  0.50372104333E-01 -0.36326082739E-01  0.12930245464E+00  0.20287156587E-01 0.  0.
         14    1    1    2    0    0  0.89379354646E-02  0.15378262503E-01 -0.13890432279E-01  0.22568158030E-01  0.00000000000E+00 0. -1.
     999901    1    3    3    0    0 -0.12052029460E+00 -0.65750366837E-01  0.50216515018E-01  0.89205938733E+00  0.88000000000E+00 0.  1.
        -11    1    4    4    0    0  0.27142778349E-01  0.93994351168E-02 -0.18909481764E-03  0.28729369552E-01  0.51100000000E-03 0.  1.
         11    1    4    4    0    0  0.84439580787E-01  0.40972669216E-01 -0.36136987922E-01  0.10057308508E+00  0.51100000000E-03 0. -1.
</event>
<event>
 8    1  0.1129676E+005  0.1043930E+01  0.7957747E-01            NaN
         13   -1    0    0    0    0  0.00000000000E+00  0.00000000000E+00  0.74505805969E-08  0.10566000000E+00  0.10566000000E+00 0.  1.
     999900   -1    0    0    0    0 -0.00000000000E+00 -0.00000000000E+00 -0.74505805969E-08  0.93827000000E+00  0.93827000000E+00 0.  1.
     999902    2    1    2    0    0 -0.11307710013E-01 -0.12510748938E-01 -0.16885603125E-01  0.10200656597E+01  0.10197864695E+01 0.  0.
     999903    2    3    3    0    0 -0.11290546897E+00 -0.33773070580E-01 -0.58933531059E-01  0.13296802179E+00  0.17862489096E-01 0.  0.
         14    1    1    2    0    0  0.11307710013E-01  0.12510748938E-01  0.16885603125E-01  0.23864340293E-01  0.00000000000E+00 0.  1.
     999901    1    3    3    0    0  0.10159775896E+00  0.21262321642E-01  0.42047927934E-01  0.88709763791E+00  0.88000000000E+00 0. -1.
        -11    1    4    4    0    0 -0.19817165389E-01  0.93063522454E-03 -0.96247311523E-02  0.22056352752E-01  0.51100000000E-03 0. -1.
         11    1    4    4    0    0 -0.93088303582E-01 -0.34703705805E-01 -0.49308799906E-01  0.11091166904E+00  0.51100000000E-03 0.  1.
</event>
<event>
 8    1  0.1129676E+005  0.1043930E+01  0.7957747E-01            NaN
         13   -1    0    0    0    0  0.00000000000E+00  0.00000000000E+00  0.74505805969E-08  0.10566000000E+00  0.10566000000E+00 0. -1.
     999900   -1    0    0    0    0 -0.00000000000E+00 -0.00000000000E+00 -0.74505805969E-08  0.93827000000E+00  0.93827000000E+00 0. -1.
     999902    2    1    2    0    0 -0.94640037527E-02 -0.20922990676E-01 -0.39539727540E-02  0.10206282231E+01  0.10203621891E+01 0.  0.
     999903    2    3    3    0    0  0.12571694091E+00  0.15510664210E-01  0.17695387314E-01  0.12929776037E+00  0.18959276579E-01 0.  0.
         14    1    1    2    0    0  0.94640037527E-02  0.20922990676E-01  0.39539727540E-02  0.23301776893E-01  0.00000000000E+00 0. -1.
     999901    1    3    3    0    0 -0.13518094466E+00 -0.36433654886E-01 -0.21649360068E-01  0.89133046274E+00  0.88000000000E+00 0.  1.
        -11    1    4    4    0    0  0.84101252526E-01  0.18914872579E-01  0.14536685104E-01  0.87420646394E-01  0.51100000000E-03 0. -1.
         11    1    4    4    0    0  0.41615688385E-01 -0.34042083685E-02  0.31587022102E-02  0.41877113977E-01  0.51100000000E-03 0.  1.
</event>
<event>
 7    1  0.1129676E+005  0.1043930E+01  0.7957747E-01            NaN
         13   -1    0    0    0    0  0.00000000000E+00  0.00000000000E+00  0.74505805969E-08  0.10566000000E+00  0.10566000000E+00 0.  1.
     999900   -1    0    0    0    0 -0.00000000000E+00 -0.00000000000E+00 -0.74505805969E-08  0.93827000000E+00  0.93827000000E+00 0. -1.
     999903    2    1    2    0    0 -0.47069518323E-01 -0.48691799558E-01 -0.76237643159E-01  0.10383557372E+00  0.19575935135E-01 0.  0.
         14    1    1    2    0    0 -0.18843995341E-01 -0.42307847192E-01  0.22051956610E-01  0.51296577709E-01  0.00000000000E+00 0.  1.
     999901    1    1    2    0    0  0.65913513663E-01  0.90999646750E-01  0.54185686550E-01  0.88879784857E+00  0.88000000000E+00 0.  1.
        -11    1    3    3    0    0 -0.80736407777E-02 -0.15881527995E-01 -0.10608619994E-01  0.20741517448E-01  0.51100000000E-03 0. -1.
         11    1    3    3    0    0 -0.38995877545E-01 -0.32810271564E-01 -0.65629023165E-01  0.83094056275E-01  0.51100000000E-03 0.  1.
</event>
<event>
 8    1  0.1194293E+005  0.1043930E+01  0.7957747E-01            NaN
         13   -1    0    0    0    0  0.00000000000E+00  0.00000000000E+00  0.74505805969E-08  0.10566000000E+00  0.10566000000E+00 0. -1.
     999900   -1    0    0    0    0 -0.00000000000E+00 -0.00000000000E+00 -0.74505805969E-08  0.93827000000E+00  0.93827000000E+00 0.  1.
     999902    2    1    2    0    0 -0.16938605464E-01 -0.15545258254E-01  0.57883359799E-02  0.10202218528E+01  0.10199463480E+01 0.  0.
     999903    2    3    3    0    0 -0.93137548994E-01  0.46842721690E-01 -0.76576914374E-01  0.13090606329E+00  0.20088055761E-01 0.  0.
         14    1    1    2    0    0  0.16938605464E-01  0.15545258254E-01 -0.57883359799E-02  0.23708147179E-01  0.00000000000E+00 0.  1.
     999901    1    3    3    0    0  0.76198943529E-01 -0.62387979944E-01  0.82365250354E-01  0.88931578953E+00  0.88000000000E+00 0. -1.
        -11    1    4    4    0    0 -0.52758305796E-01  0.37334907379E-01 -0.44663092222E-01  0.78564540775E-01  0.51100000000E-03 0.  1.
         11    1    4    4    0    0 -0.40379243198E-01  0.95078143107E-02 -0.31913822152E-01  0.52341522518E-01  0.51100000000E-03 0. -1.
</event>
<event>
 8    1  0.1129676E+005  0.1043930E+01  0.7957747E-01            NaN
         13   -1    0    0    0    0  0.00000000000E+00  0.00000000000E+00  0.74505805969E-08  0.10566000000E+00  0.10566000000E+00 0. -1.
     999900   -1    0    0    0    0 -0.00000000000E+00 -0.00000000000E+00 -0.74505805969E-08  0.93827000000E+00  0.93827000000E+00 0.  1.
     999902    2    1    2    0    0  0.21419476835E-01  0.91928743539E-02  0.19485994631E-02  0.10205398318E+01  0.10202717522E+01 0.  0.
     999903    2    3    3    0    0  0.58992554360E-01  0.78786973088E-01 -0.86484799394E-01  0.13257837954E+00  0.20245927910E-01 0.  0.
         14    1    1    2    0    0 -0.21419476835E-01 -0.91928743539E-02 -0.19485994631E-02  0.23390168162E-01  0.00000000000E+00 0. -1.
     999901    1    3    3    0    0 -0.37573077524E-01 -0.69594098734E-01  0.88433398857E-01  0.88796145230E+00  0.88000000000E+00 0. -1.
        -11    1    4    4    0    0  0.44314500474E-01  0.45331106935E-01 -0.48043991626E-01  0.79543513001E-01  0.51100000000E-03 0. -1.
         11    1    4    4    0    0  0.14678053886E-01  0.33455866153E-01 -0.38440807768E-01  0.53034866539E-01  0.51100000000E-03 0.  1.
</event>
<event>
 7    1  0.1129676E+005  0.1043930E+01  0.7957747E-01            NaN
         13   -1    0    0    0    0  0.00000000000E+00  0.00000000000E+00  0.74505805969E-08  0.10566000000E+00  0.10566000000E+00 0. -1.
     999900   -1    0    0    0    0 -0.00000000000E+00 -0.00000000000E+00 -0.74505805969E-08  0.93827000000E+00  0.93827000000E+00 0. -1.
     999903    2    1    2    0    0 -0.56088483042E-01  0.92846429472E-01 -0.10941632222E-01  0.11082322627E+00  0.19891977520E-01 0.  0.
         14    1    1    2    0    0  0.39463222149E-01 -0.18426761345E-01  0.23968737343E-01  0.49713094914E-01  0.00000000000E+00 0. -1.
     999901    1    1    2    0    0  0.16625260892E-01 -0.74419668128E-01 -0.13027105121E-01  0.88339367882E+00  0.88000000000E+00 0.  1.
        -11    1    3    3    0    0 -0.75425362243E-02  0.27516090614E-01 -0.67384861976E-02  0.29320528860E-01  0.51100000000E-03 0.  1.
         11    1    3    3    0    0 -0.48545946817E-01  0.65330338858E-01 -0.42031460241E-02  0.81502697411E-01  0.51100000000E-03 0. -1.
</event>
<event>
 8    1  0.1129676E+005  0.1043930E+01  0.7957747E-01            NaN
         13   -1    0    0    0    0  0.00000000000E+00  0.00000000000E+00  0.74505805969E-08  0.10566000000E+00  0.10566000000E+00 0. -1.
     999900   -1    0    0    0    0 -0.00000000000E+00 -0.00000000000E+00 -0.74505805969E-08  0.93827000000E+00  0.93827000000E+00 0.  1.
     999902    2    1    2    0    0  0.14168393229E-01  0.94013390333E-02 -0.16424745720E-01  0.10202889168E+01  0.10200149866E+01 0.  0.
     999903    2    3    3    0    0  0.10104015365E+00  0.34145918216E-01 -0.78106484963E-01  0.13351745025E+00  0.18741135170E-01 0.  0.
         14    1    1    2    0    0 -0.14168393229E-01 -0.94013390333E-02  0.16424745720E-01  0.23641083188E-01  0.00000000000E+00 0. -1.
     999901    1    3    3    0    0 -0.86871760418E-01 -0.24744579183E-01  0.61681739242E-01  0.88677146656E+00  0.88000000000E+00 0.  1.
        -11    1    4    4    0    0  0.46052570978E-01  0.23674519810E-01 -0.30981625233E-01  0.60344381718E-01  0.51100000000E-03 0. -1.
         11    1    4    4    0    0  0.54987582669E-01  0.10471398406E-01 -0.47124859730E-01  0.73173068529E-01  0.51100000000E-03 0.  1.
</event>
<event>
 8    1  0.1129676E+005  0.1043930E+01  0.7957747E-01            NaN
         13   -1    0    0    0    0  0.00000000000E+00  0.00000000000E+00  0.74505805969E-08  0.10566000000E+00  0.10566000000E+00 0. -1.
     999900   -1    0    0    0    0 -0.00000000000E+00 -0.00000000000E+00 -0.74505805969E-08  0.93827000000E+00  0.93827000000E+00 0.  1.
     999902    2    1    2    0    0  0.73068623132E-02 -0.88932035979E-02  0.25597662960E-01  0.10158636562E+01  0.10154758728E+01 0.  0.
     999903    2    3    3    0    0 -0.35690096364E-01  0.14920698216E-01 -0.11540643047E+00  0.12328425088E+00  0.19594695927E-01 0.  0.
         14    1    1    2    0    0 -0.73068623132E-02  0.88932035979E-02 -0.25597662960E-01  0.28066343833E-01  0.00000000000E+00 0.  1.
     999901    1    3    3    0    0  0.42996958677E-01 -0.23813901814E-01  0.14100409343E+00  0.89257940528E+00  0.88000000000E+00 0. -1.
        -11    1    4    4    0    0 -0.14611633687E-01  0.10533796931E-01 -0.28261828385E-01  0.33517947155E-01  0.51100000000E-03 0. -1.
         11    1    4    4    0    0 -0.21078462676E-01  0.43869012850E-02 -0.87144602083E-01  0.89766303728E-01  0.51100000000E-03 0.  1.
</event>
<event>
 8    1  0.1129676E+005  0.1043930E+01  0.7957747E-01            NaN
         13   -1    0    0    0    0  0.00000000000E+00  0.00000000000E+00  0.74505805969E-08  0.10566000000E+00  0.10566000000E+00 0.  1.
     999900   -1    0    0    0    0 -0.00000000000E+00 -0.00000000000E+00 -0.74505805969E-08  0.93827000000E+00  0.93827000000E+00 0.  1.
     999902    2    1    2    0    0 -0.17035353120E-01  0.87155037254E-02 -0.14129110323E-01  0.10201435539E+01  0.10198662047E+01 0.  0.
     999903    2    3    3    0    0  0.46970242095E-01  0.53144692707E-01 -0.10720943578E+00  0.13181106204E+00  0.29150144949E-01 0.  0.
         14    1    1    2    0    0  0.17035353120E-01 -0.87155037254E-02  0.14129110323E-01  0.23786446133E-01  0.00000000000E+00 0.  1.
     999901    1    3    3    0    0 -0.64005595215E-01 -0.44429188982E-01  0.93080325454E-01  0.88833249183E+00  0.88000000000E+00 0.  1.
        -11    1    4    4    0    0  0.36750794653E-01  0.39307864270E-01 -0.99139923996E-01  0.11280387738E+00  0.51100000000E-03 0.  1.
         11    1    4    4    0    0  0.10219447442E-01  0.13836828438E-01 -0.80695117808E-02  0.19007184658E-01  0.51100000000E-03 0. -1.
</event>
<event>
 8    1  0.1129676E+005  0.1043930E+01  0.7957747E-01            NaN
         13   -1    0    0    0    0  0.00000000000E+00  0.00000000000E+00  0.74505805969E-08  0.10566000000E+00  0.10566000000E+00 0. -1.
     999900   -1    0    0    0    0 -0.00000000000E+00 -0.00000000000E+00 -0.74505805969E-08  0.93827000000E+00  0.93827000000E+00 0. -1.
     999902    2    1    2    0    0 -0.18691865483E-01 -0.11429238974E-01  0.10211676147E-01  0.10197578741E+01  0.10194713484E+01 0.  0.
     999903    2    3    3    0    0 -0.68816669107E-01  0.32414916596E-01 -0.10372296652E+00  0.12991749030E+00  0.18265807860E-01 0.  0.
         14    1    1    2    0    0  0.18691865483E-01  0.11429238974E-01 -0.10211676147E-01  0.24172125858E-01  0.00000000000E+00 0.  1.
     999901    1    3    3    0    0  0.50124803623E-01 -0.43844155570E-01  0.11393464267E+00  0.88984038384E+00  0.88000000000E+00 0.  1.
        -11    1    4    4    0    0 -0.45250417493E-01  0.15736540605E-01 -0.76298273115E-01  0.90093987562E-01  0.51100000000E-03 0. -1.
         11    1    4    4    0    0 -0.23566251614E-01  0.16678375991E-01 -0.27424693407E-01  0.39823502738E-01  0.51100000000E-03 0.  1.
</event>
<event>
 8    1  0.1129676E+005  0.1043930E+01  0.7957747E-01            NaN
         13   -1    0    0    0    0  0.00000000000E+00  0.00000000000E+00  0.74505805969E-08  0.10566000000E+00  0.10566000000E+00 0.  1.
     999900   -1    0    0    0    0 -0.00000000000E+00 -0.00000000000E+00 -0.74505805969E-08  0.93827000000E+00  0.93827000000E+00 0.  1.
     999902    2    1    2    0    0  0.16638500900E-01 -0.22600983829E-01  0.66427757818E-02  0.10150895657E+01  0.10146797799E+01 0.  0.
     999903    2    3    3    0    0 -0.22038608442E-01 -0.51332144361E-01 -0.11096924463E+00  0.12595853724E+00  0.20753085154E-01 0.  0.
         14    1    1    2    0    0 -0.16638500900E-01  0.22600983829E-01 -0.66427757818E-02  0.28840434330E-01  0.00000000000E+00 0. -1.
     999901    1    3    3    0    0  0.38677109342E-01  0.28731160532E-01  0.11761202041E+00  0.88913102843E+00  0.88000000000E+00 0. -1.
        -11    1    4    4    0    0 -0.32001205316E-03 -0.26591748841E-01 -0.46566578751E-01  0.53627706381E-01  0.51100000000E-03 0.  1.
         11    1    4    4    0    0 -0.21718596389E-01 -0.24740395520E-01 -0.64402665878E-01  0.72330830859E-01  0.51100000000E-03 0. -1.
</event>
<event>
 8    1  0.1129676E+005  0.1043930E+01  0.7957747E-01            NaN
         13   -1    0    0    0    0  0.00000000000E+00  0.00000000000E+00  0.74505805969E-08  0.10566000000E+00  0.10566000000E+00 0. -1.
     999900   -1    0    0    0    0 -0.00000000000E+00 -0.00000000000E+00 -0.74505805969E-08  0.93827000000E+00  0.93827000000E+00 0. -1.
     999902    2    1    2    0    0  0.19425870622E-01 -0.27020248620E-02 -0.18219836106E-01  0.10171600950E+01  0.10168077650E+01 0.  0.
     999903    2    3    3    0    0 -0.23225669751E-01  0.11198179713E+00  0.49257088696E-01  0.12613559008E+00  0.20113967181E-01 0.  0.
         14    1    1    2    0    0 -0.19425870622E-01  0.27020248620E-02  0.18219836106E-01  0.26769905034E-01  0.00000000000E+00 0. -1.
     999901    1    3    3    0    0  0.42651540373E-01 -0.11468382199E+00 -0.67476924803E-01  0.89102450488E+00  0.88000000000E+00 0.  1.
        -11    1    4    4    0    0 -0.11960512021E-01  0.25372384870E-01  0.18183341823E-01  0.33432122318E-01  0.51100000000E-03 0. -1.
         11    1    4    4    0    0 -0.11265157731E-01  0.86609412255E-01  0.31073746873E-01  0.92703467765E-01  0.51100000000E-03 0.  1.
</event>
<event>
 8    1  0.1129676E+005  0.1043930E+01  0.7957747E-01            NaN
         13   -1    0    0    0    0  0.00000000000E+00  0.00000000000E+00  0.74505805969E-08  0.10566000000E+00  0.10566000000E+00 0.  1.
     999900   -1    0    0    0    0 -0.00000000000E+00 -0.00000000000E+00 -0.74505805969E-08  0.93827000000E+00  0.93827000000E+00 0. -1.
     999902    2    1    2    0    0 -0.16920258419E-01 -0.95287344465E-02 -0.14187555102E-01  0.10198804960E+01  0.10195969044E+01 0.  0.
     999903    2    3    3    0    0 -0.63779229217E-02 -0.75605303907E-01 -0.10678711522E+00  0.13249561192E+00  0.19868551087E-01 0.  0.
         14    1    1    2    0    0  0.16920258419E-01  0.95287344465E-02  0.14187555102E-01  0.24049504047E-01  0.00000000000E+00 0. -1.
     999901    1    3    3    0    0 -0.10542335497E-01  0.66076569460E-01  0.92599560119E-01  0.88738488403E+00  0.88000000000E+00 0.  1.
        -11    1    4    4    0    0 -0.64526153724E-02 -0.60888285715E-01 -0.97348299173E-01  0.11500422625E+00  0.51100000000E-03 0.  1.
         11    1    4    4    0    0  0.74692450786E-04 -0.14717018192E-01 -0.94388160484E-02  0.17491385675E-01  0.51100000000E-03 0. -1.
</event>
<event>
 8    1  0.1129676E+005  0.1043930E+01  0.7957747E-01            NaN
         13   -1    0    0    0    0  0.00000000000E+00  0.00000000000E+00  0.74505805969E-08  0.10566000000E+00  0.10566000000E+00 0. -1.
     999900   -1    0    0    0    0 -0.00000000000E+00 -0.00000000000E+00 -0.74505805969E-08  0.93827000000E+00  0.93827000000E+00 0. -1.
     999902    2    1    2    0    0  0.81286848228E-02  0.15081300981E-01 -0.15267035649E-01  0.10209821562E+01  0.10207242330E+01 0.  0.
     999903    2    3    3    0    0  0.29627153140E-01  0.11705321973E+00 -0.54648009584E-01  0.13395830229E+00  0.19472990229E-01 0.  0.
         14    1    1    2    0    0 -0.81286848228E-02 -0.15081300981E-01  0.15267035649E-01  0.22947843771E-01  0.00000000000E+00 0.  1.
     999901    1    3    3    0    0 -0.21498468317E-01 -0.10197191875E+00  0.39380973936E-01  0.88702385394E+00  0.88000000000E+00 0.  1.
        -11    1    4    4    0    0  0.28625678397E-01  0.85705231956E-01 -0.46127433340E-01  0.10145352372E+00  0.51100000000E-03 0. -1.
         11    1    4    4    0    0  0.10014747434E-02  0.31347987772E-01 -0.85205762448E-02  0.32504778565E-01  0.51100000000E-03 0.  1.
</event>
<event>
 8    1  0.1129676E+005  0.1043930E+01  0.7957747E-01            NaN
         13   -1    0    0    0    0  0.00000000000E+00  0.00000000000E+00  0.74505805969E-08  0.10566000000E+00  0.10566000000E+00 0.  1.
     999900   -1    0    0    0    0 -0.00000000000E+00 -0.00000000000E+00 -0.74505805969E-08  0.93827000000E+00  0.93827000000E+00 0.  1.
     999902    2    1    2    0    0  0.16905224373E-01 -0.16399858932E-01 -0.20862677649E-02  0.10202848208E+01  0.10200107946E+01 0.  0.
     999903    2    3    3    0    0  0.82296637770E-01 -0.63997874264E-01 -0.79106329341E-01  0.13322580483E+00  0.24956747224E-01 0.  0.
         14    1    1    2    0    0 -0.16905224373E-01  0.16399858932E-01  0.20862677649E-02  0.23645179155E-01  0.00000000000E+00 0.  1.
     999901    1    3    3    0    0 -0.65391413398E-01  0.47598015332E-01  0.77020061576E-01  0.88705901602E+00  0.88000000000E+00 0. -1.
        -11    1    4    4    0    0  0.25006309286E-01 -0.23137080974E-01 -0.12386238858E-01  0.36253552298E-01  0.51100000000E-03 0.  1.
         11    1    4    4    0    0  0.57290328484E-01 -0.40860793290E-01 -0.66720090482E-01  0.96972252532E-01  0.51100000000E-03 0. -1.
</event>
<event>
 8    1  0.1129676E+005  0.1043930E+01  0.7957747E-01            NaN
         13   -1    0    0    0    0  0.00000000000E+00  0.00000000000E+00  0.74505805969E-08  0.10566000000E+00  0.10566000000E+00 0.  1.
     999900   -1    0    0    0    0 -0.00000000000E+00 -0.00000000000E+00 -0.74505805969E-08  0.93827000000E+00  0.93827000000E+00 0. -1.
     999902    2    1    2    0    0 -0.91620253265E-02  0.19223238522E-01  0.85607465229E-02  0.10209787040E+01  0.10207207023E+01 0.  0.
     999903    2    3    3    0    0  0.12144622342E+00 -0.38547318349E-01 -0.92859388521E-02  0.12928679753E+00  0.19843548541E-01 0.  0.
         14    1    1    2    0    0  0.91620253265E-02 -0.19223238522E-01 -0.85607465229E-02  0.22951296006E-01  0.00000000000E+00 0.  1.
     999901    1    3    3    0    0 -0.13060824875E+00  0.57770556870E-01  0.17846685375E-01  0.89169190647E+00  0.88000000000E+00 0. -1.
        -11    1    4    4    0    0  0.10050261279E+00 -0.30487801093E-01 -0.15082378739E-01  0.10610381926E+00  0.51100000000E-03 0. -1.
         11    1    4    4    0    0  0.20943610634E-01 -0.80595172552E-02  0.57964398864E-02  0.23182978263E-01  0.51100000000E-03 0.  1.
</event>
<event>
 8    1  0.1129676E+005  0.1043930E+01  0.7957747E-01            NaN
         13   -1    0    0    0    0  0.00000000000E+00  0.00000000000E+00  0.74505805969E-08  0.10566000000E+00  0.10566000000E+00 0.  1.
     999900   -1    0    0    0    0 -0.00000000000E+00 -0.00000000000E+00 -0.74505805969E-08  0.93827000000E+00  0.93827000000E+00 0. -1.
     999902    2    1    2    0    0 -0.16671507825E-01  0.81102825177E-02  0.14937169774E-01  0.10201217053E+01  0.10198438404E+01 0.  0.
     999903    2    3    3    0    0 -0.77888310578E-01 -0.59560857514E-01 -0.83040744526E-01  0.12999443809E+00  0.19715577886E-01 0.  0.
         14    1    1    2    0    0  0.16671507825E-01 -0.81102825177E-02 -0.14937169774E-01  0.23808294700E-01  0.00000000000E+00 0.  1.
     999901    1    3    3    0    0  0.61216802754E-01  0.67671140032E-01  0.97977914300E-01  0.89012726721E+00  0.88000000000E+00 0.  1.
        -11    1    4    4    0    0 -0.58091969953E-01 -0.33109469062E-01 -0.58339213235E-01  0.88739161798E-01  0.51100000000E-03 0.  1.
         11    1    4    4    0    0 -0.19796340625E-01 -0.26451388452E-01 -0.24701531291E-01  0.41255276297E-01  0.51100000000E-03 0. -1.
</event>
<event>
 8    1  0.1129676E+005  0.1043930E+01  0.7957747E-01            NaN
         13   -1    0    0    0    0  0.00000000000E+00  0.00000000000E+00  0.74505805969E-08  0.10566000000E+00  0.10566000000E+00 0. -1.
     999900   -1    0    0    0    0 -0.00000000000E+00 -0.00000000000E+00 -0.74505805969E-08  0.93827000000E+00  0.93827000000E+00 0.  1.
     999902    2    1    2    0    0 -0.46020996358E-02 -0.12766536806E-01 -0.20230090574E-01  0.10195697794E+01  0.10192787228E+01 0.  0.
     999903    2    3    3    0    0  0.42356332906E-01  0.57825855428E-01 -0.10825741265E+00  0.13112327585E+00  0.18323689121E-01 0.  0.
         14    1    1    2    0    0  0.46020996358E-02  0.12766536806E-01  0.20230090574E-01  0.24360220601E-01  0.00000000000E+00 0. -1.
     999901    1    3    3    0    0 -0.46958432542E-01 -0.70592392234E-01  0.88027322080E-01  0.88844650354E+00  0.88000000000E+00 0. -1.
        -11    1    4    4    0    0  0.29104644898E-01  0.24270813889E-01 -0.56092710326E-01  0.67696425564E-01  0.51100000000E-03 0. -1.
         11    1    4    4    0    0  0.13251688009E-01  0.33555041539E-01 -0.52164702328E-01  0.63426850290E-01  0.51100000000E-03 0.  1.
</event>
<event>
 8    1  0.1129676E+005  0.1043930E+01  0.7957747E-01            NaN
         13   -1    0    0    0    0  0.00000000000E+00  0.00000000000E+00  0.74505805969E-08  0.10566000000E+00  0.10566000000E+00 0. -1.
     999900   -1    0    0    0    0 -0.00000000000E+00 -0.00000000000E+00 -0.74505805969E-08  0.93827000000E+00  0.93827000000E+00 0.  1.
     999902    2    1    2    0    0 -0.89277805908E-03 -0.16184003671E-01  0.19824778324E-01  0.10183225623E+01  0.10180005403E+01 0.  0.
     999903    2    3    3    0    0  0.60491928134E-01  0.61857164549E-01 -0.89287617392E-01  0.12604232554E+00  0.20707656401E-01 0.  0.
         14    1    1    2    0    0  0.89277805908E-03  0.16184003671E-01 -0.19824778324E-01  0.25607437652E-01  0.00000000000E+00 0.  1.
     999901    1    3    3    0    0 -0.61384706194E-01 -0.78041168220E-01  0.10911239572E+00  0.89228023680E+00  0.88000000000E+00 0. -1.
        -11    1    4    4    0    0  0.38364938609E-01  0.51761606685E-01 -0.68538901724E-01  0.94068988575E-01  0.51100000000E-03 0.  1.
         11    1    4    4    0    0  0.22126989526E-01  0.10095557864E-01 -0.20748715668E-01  0.31973336969E-01  0.51100000000E-03 0. -1.
</event>
<event>
 8    1  0.1129676E+005  0.1043930E+01  0.7957747E-01            NaN
         13   -1    0    0    0    0  0.00000000000E+00  0.00000000000E+00  0.74505805969E-08  0.10566000000E+00  0.10566000000E+00 0.  1.
     999900   -1    0    0    0    0 -0.00000000000E+00 -0.00000000000E+00 -0.74505805969E-08  0.93827000000E+00  0.93827000000E+00 0. -1.
     999902    2    1    2    0    0 -0.20319885991E-01  0.33487950395E-02 -0.92585950646E-02  0.10213505009E+01  0.10211008824E+01 0.  0.
     999903    2    3    3    0    0 -0.24701974381E-01 -0.12270293443E+00 -0.36629278108E-01  0.13193642669E+00  0.19982968150E-01 0.  0.
         14    1    1    2    0    0  0.20319885991E-01 -0.33487950395E-02  0.92585950646E-02  0.22579499053E-01  0.00000000000E+00 0.  1.
     999901    1    3    3    0    0  0.43820883897E-02  0.12605172947E+00  0.27370683044E-01  0.88941407426E+00  0.88000000000E+00 0.  1.
        -11    1    4    4    0    0 -0.87862042987E-02 -0.47689146090E-01 -0.42000206726E-02  0.48676003692E-01  0.51100000000E-03 0. -1.
         11    1    4    4    0    0 -0.15915770082E-01 -0.75013788341E-01 -0.32429257436E-01  0.83260422995E-01  0.51100000000E-03 0.  1.
</event>
<event>
 8    1  0.1129676E+005  0.1043930E+01  0.7957747E-01            NaN
         13   -1    0    0    0    0  0.00000000000E+00  0.00000000000E+00  0.74505805969E-08  0.10566000000E+00  0.10566000000E+00 0.  1.
     999900   -1    0    0    0    0 -0.00000000000E+00 -0.00000000000E+00 -0.74505805969E-08  0.93827000000E+00  0.93827000000E+00 0.  1.
     999902    2    1    2    0    0  0.16771919365E-01  0.12134602849E-01  0.10584075662E-01  0.10206798705E+01  0.10204150280E+01 0.  0.
     999903    2    3    3    0    0  0.40211512087E-01 -0.53966395621E-01  0.11080493664E+00  0.13221885417E+00  0.25976024606E-01 0.  0.
         14    1    1    2    0    0 -0.16771919365E-01 -0.12134602849E-01 -0.10584075662E-01  0.23250129529E-01  0.00000000000E+00 0.  1.
     999901    1    3    3    0    0 -0.23439592722E-01  0.66100998470E-01 -0.10022086098E+00  0.88846101630E+00  0.88000000000E+00 0.  1.
        -11    1    4    4    0    0  0.92804916707E-02 -0.37705990475E-03  0.82026923441E-02  0.12402216839E-01  0.51100000000E-03 0. -1.
         11    1    4    4    0    0  0.30931020417E-01 -0.53589335716E-01  0.10260224430E+00  0.11981663733E+00  0.51100000000E-03 0.  1.
</event>
<event>
 8    1  0.1129676E+005  0.1043930E+01  0.7957747E-01            NaN
         13   -1    0    0    0    0  0.00000000000E+00  0.00000000000E+00  0.74505805969E-08  0.10566000000E+00  0.10566000000E+00 0. -1.
     999900   -1    0    0    0    0 -0.00000000000E+00 -0.00000000000E+00 -0.74505805969E-08  0.93827000000E+00  0.93827000000E+00 0.  1.
     999902    2    1    2    0    0 -0.17288306853E-01  0.36597964634E-02  0.15388989211E-01  0.10204971032E+01  0.10202280318E+01 0.  0.
     999903    2    3    3    0    0  0.92939631297E-01 -0.13223688450E-01 -0.84392769458E-01  0.12786523631E+00  0.20365120108E-01 0.  0.
         14    1    1    2    0    0  0.17288306853E-01 -0.36597964634E-02 -0.15388989211E-01  0.23432896811E-01  0.00000000000E+00 0.  1.
     999901    1    3    3    0    0 -0.11022793815E+00  0.16883484913E-01  0.99781758669E-01  0.89263186688E+00  0.88000000000E+00 0. -1.
        -11    1    4    4    0    0  0.80818388938E-01 -0.17522466074E-01 -0.68281883737E-01  0.10724423330E+00  0.51100000000E-03 0. -1.
         11    1    4    4    0    0  0.12121242360E-01  0.42987776241E-02 -0.16110885721E-01  0.20621003009E-01  0.51100000000E-03 0.  1.
</event>
<event>
 8    1  0.1129676E+005  0.1043930E+01  0.7957747E-01            NaN
         13   -1    0    0    0    0  0.00000000000E+00  0.00000000000E+00  0.74505805969E-08  0.10566000000E+00  0.10566000000E+00 0. -1.
     999900   -1    0    0    0    0 -0.00000000000E+00 -0.00000000000E+00 -0.74505805969E-08  0.93827000000E+00  0.93827000000E+00 0. -1.
     999902    2    1    2    0    0  0.20663421087E-01 -0.99955430068E-02  0.49536218846E-02  0.10204475338E+01  0.10201773096E+01 0.  0.
     999903    2    3    3    0    0  0.74873708068E-01  0.39055851805E-01  0.10026030563E+00  0.13228754901E+00  0.17788620463E-01 0.  0.
         14    1    1    2    0    0 -0.20663421087E-01  0.99955430068E-02 -0.49536218846E-02  0.23482466242E-01  0.00000000000E+00 0. -1.
     999901    1    3    3    0    0 -0.54210286981E-01 -0.49051394811E-01 -0.95306683741E-01  0.88815998475E+00  0.88000000000E+00 0. -1.
        -11    1    4    4    0    0  0.57735756329E-01  0.24330719395E-01  0.82204918851E-01  0.10336010483E+00  0.51100000000E-03 0.  1.
         11    1    4    4    0    0  0.17137951739E-01  0.14725132410E-01  0.18055386775E-01  0.28927444182E-01  0.51100000000E-03 0. -1.
</event>
<event>
 8    1  0.1129676E+005  0.1043930E+01  0.7957747E-01            NaN
         13   -1    0    0    0    0  0.00000000000E+00  0.00000000000E+00  0.74505805969E-08  0.10566000000E+00  0.10566000000E+00 0.  1.
     999900   -1    0    0    0    0 -0.00000000000E+00 -0.00000000000E+00 -0.74505805969E-08  0.93827000000E+00  0.93827000000E+00 0.  1.
     999902    2    1    2    0    0 -0.16486108813E-01 -0.97073417447E-02  0.13448774391E-01  0.10205442394E+01  0.10202762620E+01 0.  0.
     999903    2    3    3    0    0  0.25785968342E-01  0.84483824112E-01 -0.91091524519E-01  0.12836287982E+00  0.19414694872E-01 0.  0.
         14    1    1    2    0    0  0.16486108813E-01  0.97073417447E-02 -0.13448774391E-01  0.23385760629E-01  0.00000000000E+00 0. -1.
     999901    1    3    3    0    0 -0.42272077155E-01 -0.94191165857E-01  0.10454029891E+00  0.89218135955E+00  0.88000000000E+00 0. -1.
        -11    1    4    4    0    0  0.15962147354E-01  0.72607932457E-01 -0.69058554133E-01  0.10146943887E+00  0.51100000000E-03 0.  1.
         11    1    4    4    0    0  0.98238209878E-02  0.11875891655E-01 -0.22032970386E-01  0.26893440956E-01  0.51100000000E-03 0. -1.
</event>
<event>
 8    1  0.1129676E+005  0.1043930E+01  0.7957747E-01            NaN
         13   -1    0    0    0    0  0.00000000000E+00  0.00000000000E+00  0.74505805969E-08  0.10566000000E+00  0.10566000000E+00 0. -1.
     999900   -1    0    0    0    0 -0.00000000000E+00 -0.00000000000E+00 -0.74505805969E-08  0.93827000000E+00  0.93827000000E+00 0.  1.
     999902    2    1    2    0    0  0.26349353204E-01 -0.13783707603E-01 -0.17344544047E-01  0.10095045411E+01  0.10089173932E+01 0.  0.
     999903    2    3    3    0    0  0.76675947498E-01 -0.90350405379E-01 -0.33645529701E-01  0.12459723106E+00  0.18709667069E-01 0.  0.
         14    1    1    2    0    0 -0.26349353204E-01  0.13783707603E-01  0.17344544047E-01  0.34425458860E-01  0.00000000000E+00 0. -1.
     999901    1    3    3    0    0 -0.50326594294E-01  0.76566697776E-01  0.16300985654E-01  0.88490731008E+00  0.88000000000E+00 0.  1.
        -11    1    4    4    0    0  0.46789740250E-01 -0.45043389902E-01 -0.25192710018E-01  0.69664341852E-01  0.51100000000E-03 0. -1.
         11    1    4    4    0    0  0.29886207248E-01 -0.45307015477E-01 -0.84528196827E-02  0.54932889207E-01  0.51100000000E-03 0.  1.
</event>
<event>
 8    1  0.1129676E+005  0.1043930E+01  0.7957747E-01            NaN
         13   -1    0    0    0    0  0.00000000000E+00  0.00000000000E+00  0.74505805969E-08  0.10566000000E+00  0.10566000000E+00 0.  1.
     999900   -1    0    0    0    0 -0.00000000000E+00 -0.00000000000E+00 -0.74505805969E-08  0.93827000000E+00  0.93827000000E+00 0. -1.
     999902    2    1    2    0    0 -0.21146935145E-01  0.44841480997E-02 -0.61027535639E-02  0.10214679420E+01  0.10212209420E+01 0.  0.
     999903    2    3    3    0    0  0.89693084610E-02  0.68084178838E-01 -0.11179169787E+00  0.13235484174E+00  0.17450401629E-01 0.  0.
         14    1    1    2    0    0  0.21146935145E-01 -0.44841480997E-02  0.61027535639E-02  0.22462058038E-01  0.00000000000E+00 0. -1.
     999901    1    3    3    0    0 -0.30116243606E-01 -0.63600030738E-01  0.10568894431E+00  0.88911310022E+00  0.88000000000E+00 0.  1.
        -11    1    4    4    0    0  0.16007658433E-02  0.23611360071E-02 -0.14011499077E-01  0.14308062130E-01  0.51100000000E-03 0. -1.
         11    1    4    4    0    0  0.73685426176E-02  0.65723042831E-01 -0.97780198793E-01  0.11804677961E+00  0.51100000000E-03 0.  1.
</event>
<event>
 8    1  0.1129676E+005  0.1043930E+01  0.7957747E-01            NaN
         13   -1    0    0    0    0  0.00000000000E+00  0.00000000000E+00  0.74505805969E-08  0.10566000000E+00  0.10566000000E+00 0. -1.
     999900   -1    0    0    0    0 -0.00000000000E+00 -0.00000000000E+00 -0.74505805969E-08  0.93827000000E+00  0.93827000000E+00 0.  1.
     999902    2    1    2    0    0 -0.99573861189E-02 -0.22143476701E-01 -0.28478320910E-02  0.10194842796E+01  0.10191911514E+01 0.  0.
     999903    2    3    3    0    0 -0.87599073488E-01  0.85253767623E-01 -0.36072847756E-01  0.12894157911E+00  0.19567266275E-01 0.  0.
         14    1    1    2    0    0  0.99573861189E-02  0.22143476701E-01  0.28478320910E-02  0.24445720410E-01  0.00000000000E+00 0.  1.
     999901    1    3    3    0    0  0.77641687369E-01 -0.10739724432E+00  0.33225015665E-01  0.89054270048E+00  0.88000000000E+00 0. -1.
        -11    1    4    4    0    0 -0.51060939995E-01  0.42892167399E-01 -0.28361933548E-01  0.72468048221E-01  0.51100000000E-03 0.  1.
         11    1    4    4    0    0 -0.36538133492E-01  0.42361600223E-01 -0.77109142074E-02  0.56473530893E-01  0.51100000000E-03 0. -1.
</event>
<event>
 8    1  0.1129676E+005  0.1043930E+01  0.7957747E-01            NaN
         13   -1    0    0    0    0  0.00000000000E+00  0.00000000000E+00  0.74505805969E-08  0.10566000000E+00  0.10566000000E+00 0.  1.
     999900   -1    0    0    0    0 -0.00000000000E+00 -0.00000000000E+00 -0.74505805969E-08  0.93827000000E+00  0.93827000000E+00 0.  1.
     999902    2    1    2    0    0 -0.58633323297E-02  0.70066806627E-03  0.22985713197E-01  0.10201978991E+01  0.10199218307E+01 0.  0.
     999903    2    3    3    0    0  0.30564592608E-01  0.23975024598E-01 -0.11975801346E+00  0.12764848261E+00  0.21051299230E-01 0.  0.
         14    1    1    2    0    0  0.58633323297E-02 -0.70066806627E-03 -0.22985713197E-01  0.23732100895E-01  0.00000000000E+00 0. -1.
     999901    1    3    3    0    0 -0.36427924938E-01 -0.23274356532E-01  0.14274372665E+00  0.89254941650E+00  0.88000000000E+00 0. -1.
        -11    1    4    4    0    0  0.53892872374E-02 -0.37411072105E-02 -0.22033527807E-01  0.22995168377E-01  0.51100000000E-03 0.  1.
         11    1    4    4    0    0  0.25175305371E-01  0.27716131809E-01 -0.97724485651E-01  0.10465331423E+00  0.51100000000E-03 0. -1.
</event>
<event>
 8    1  0.1129676E+005  0.1043930E+01  0.7957747E-01            NaN
         13   -1    0    0    0    0  0.00000000000E+00  0.00000000000E+00  0.74505805969E-08  0.10566000000E+00  0.10566000000E+00 0. -1.
     999900   -1    0    0    0    0 -0.00000000000E+00 -0.00000000000E+00 -0.74505805969E-08  0.93827000000E+00  0.93827000000E+00 0. -1.
     999902    2    1    2    0    0  0.18009136217E-01  0.14014674758E-01 -0.73054190051E-02  0.10199694232E+01  0.10196879498E+01 0.  0.
     999903    2    3    3    0    0 -0.10183195068E+00  0.41970363895E-02  0.74957149306E-01  0.12799105891E+00  0.19384933197E-01 0.  0.
         14    1    1    2    0    0 -0.18009136217E-01 -0.14014674758E-01  0.73054190051E-02  0.23960576845E-01  0.00000000000E+00 0. -1.
     999901    1    3    3    0    0  0.11984108690E+00  0.98176383689E-02 -0.82262568311E-01  0.89197836424E+00  0.88000000000E+00 0.  1.
        -11    1    4    4    0    0 -0.60417023480E-01  0.67267135280E-02  0.33847928573E-01  0.69580232758E-01  0.51100000000E-03 0. -1.
         11    1    4    4    0    0 -0.41414927203E-01 -0.25296771385E-02  0.41109220734E-01  0.58410826154E-01  0.51100000000E-03 0.  1.
</event>
<event>
 8    1  0.1129676E+005  0.1043930E+01  0.7957747E-01            NaN
         13   -1    0    0    0    0  0.00000000000E+00  0.00000000000E+00  0.74505805969E-08  0.10566000000E+00  0.10566000000E+00 0.  1.
     999900   -1    0    0    0    0 -0.00000000000E+00 -0.00000000000E+00 -0.74505805969E-08  0.93827000000E+00  0.93827000000E+00 0. -1.
     999902    2    1    2    0    0 -0.32042138778E-02 -0.21316232956E-01 -0.10532425940E-01  0.10199387355E+01  0.10196565321E+01 0.  0.
     999903    2    3    3    0    0  0.96037995476E-01 -0.44642855685E-01 -0.76150348616E-01  0.13162636975E+00  0.17616596743E-01 0.  0.
         14    1    1    2    0    0  0.32042138778E-02  0.21316232956E-01  0.10532425940E-01  0.23991264456E-01  0.00000000000E+00 0.  1.
     999901    1    3    3    0    0 -0.99242209354E-01  0.23326622729E-01  0.65617922676E-01  0.88831236579E+00  0.88000000000E+00 0.  1.
        -11    1    4    4    0    0  0.19174697283E-01 -0.14599077292E-01 -0.11073273126E-01  0.26526978199E-01  0.51100000000E-03 0. -1.
         11    1    4    4    0    0  0.76863298193E-01 -0.30043778393E-01 -0.65077075490E-01  0.10509939155E+00  0.51100000000E-03 0.  1.
</event>
<event>
 8    1  0.1129676E+005  0.1043930E+01  0.7957747E-01            NaN
         13   -1    0    0    0    0  0.00000000000E+00  0.00000000000E+00  0.74505805969E-08  0.10566000000E+00  0.10566000000E+00 0.  1.
     999900   -1    0    0    0    0 -0.00000000000E+00 -0.00000000000E+00 -0.74505805969E-08  0.93827000000E+00  0.93827000000E+00 0.  1.
     999902    2    1    2    0    0  0.21432439909E-01 -0.81556261883E-02 -0.32943725923E-02  0.10207628549E+01  0.10204999213E+01 0.  0.
     999903    2    3    3    0    0  0.12820184834E+00  0.28645194027E-01  0.12636877507E-01  0.13340283124E+00  0.19502913942E-01 0.  0.
         14    1    1    2    0    0 -0.21432439909E-01  0.81556261883E-02  0.32943725923E-02  0.23167145050E-01  0.00000000000E+00 0.  1.
     999901    1    3    3    0    0 -0.10676940843E+00 -0.36800820216E-01 -0.15931250099E-01  0.88736002371E+00  0.88000000000E+00 0. -1.
        -11    1    4    4    0    0  0.47156579623E-01  0.11369847963E-02  0.60959838884E-02  0.47565301185E-01  0.51100000000E-03 0. -1.
         11    1    4    4    0    0  0.81045268714E-01  0.27508209231E-01  0.65408936187E-02  0.85837530058E-01  0.51100000000E-03 0.  1.
</event>
<event>
 8    1  0.1129676E+005  0.1043930E+01  0.7957747E-01            NaN
         13   -1    0    0    0    0  0.00000000000E+00  0.00000000000E+00  0.74505805969E-08  0.10566000000E+00  0.10566000000E+00 0. -1.
     999900   -1    0    0    0    0 -0.00000000000E+00 -0.00000000000E+00 -0.74505805969E-08  0.93827000000E+00  0.93827000000E+00 0.  1.
     999902    2    1    2    0    0 -0.12228958751E-01  0.14822022516E-01 -0.12594722054E-01  0.10209546478E+01  0.10206960988E+01 0.  0.
     999903    2    3    3    0    0 -0.11773499608E+00  0.58248716314E-01 -0.13268065413E-01  0.13358896502E+00  0.20384498065E-01 0.  0.
         14    1    1    2    0    0  0.12228958751E-01 -0.14822022516E-01  0.12594722054E-01  0.22975352167E-01  0.00000000000E+00 0. -1.
     999901    1    3    3    0    0  0.10550603733E+00 -0.43426693798E-01  0.67334335918E-03  0.88736568281E+00  0.88000000000E+00 0. -1.
        -11    1    4    4    0    0 -0.76351090810E-01  0.32908839179E-01  0.50341124676E-03  0.83144424395E-01  0.51100000000E-03 0.  1.
         11    1    4    4    0    0 -0.41383905266E-01  0.25339877135E-01 -0.13771476660E-01  0.50444540623E-01  0.51100000000E-03 0. -1.
</event>
<event>
 8    1  0.1129676E+005  0.1043930E+01  0.7957747E-01            NaN
         13   -1    0    0    0    0  0.00000000000E+00  0.00000000000E+00  0.74505805969E-08  0.10566000000E+00  0.10566000000E+00 0.  1.
     999900   -1    0    0    0    0 -0.00000000000E+00 -0.00000000000E+00 -0.74505805969E-08  0.93827000000E+00  0.93827000000E+00 0. -1.
     999902    2    1    2    0    0  0.23423616196E-01 -0.32564465609E-02  0.17983237655E-03  0.10202804212E+01  0.10200062918E+01 0.  0.
     999903    2    3    3    0    0  0.11872463913E-01 -0.44010054747E-01 -0.12104458585E+00  0.13096065567E+00  0.20519777086E-01 0.  0.
         14    1    1    2    0    0 -0.23423616196E-01  0.32564465609E-02 -0.17983237655E-03  0.23649578846E-01  0.00000000000E+00 0.  1.
     999901    1    3    3    0    0  0.11551152283E-01  0.40753608186E-01  0.12122441823E+00  0.88931976548E+00  0.88000000000E+00 0.  1.
        -11    1    4    4    0    0  0.78100059717E-02 -0.30632295826E-01 -0.10508031044E+00  0.10973361610E+00  0.51100000000E-03 0. -1.
         11    1    4    4    0    0  0.40624579411E-02 -0.13377758921E-01 -0.15964275417E-01  0.21227039569E-01  0.51100000000E-03 0.  1.
</event>
<event>
 8    1  0.1129676E+005  0.1043930E+01  0.7957747E-01            NaN
         13   -1    0    0    0    0  0.00000000000E+00  0.00000000000E+00  0.74505805969E-08  0.10566000000E+00  0.10566000000E+00 0. -1.
     999900   -1    0    0    0    0 -0.00000000000E+00 -0.00000000000E+00 -0.74505805969E-08  0.93827000000E+00  0.93827000000E+00 0.  1.
     999902    2    1    2    0    0  0.64067563326E-02  0.60970097270E-02 -0.21113938133E-01  0.10210385510E+01  0.10207819082E+01 0.  0.
     999903    2    3    3    0    0 -0.12156785118E-01  0.62421681652E-01  0.11062460351E+00  0.12925824335E+00  0.20630967197E-01 0.  0.
         14    1    1    2    0    0 -0.64067563326E-02 -0.60970097270E-02  0.21113938133E-01  0.22891449010E-01  0.00000000000E+00 0. -1.
     999901    1    3    3    0    0  0.18563541450E-01 -0.56324671925E-01 -0.13173854164E+00  0.89178030764E+00  0.88000000000E+00 0.  1.
        -11    1    4    4    0    0 -0.90744347999E-02  0.42841300230E-01  0.55642524459E-01  0.70810126547E-01  0.51100000000E-03 0.  1.
         11    1    4    4    0    0 -0.30823503178E-02  0.19580381422E-01  0.54982079051E-01  0.58448116804E-01  0.51100000000E-03 0. -1.
</event>
<event>
 8    1  0.1129676E+005  0.1043930E+01  0.7957747E-01            NaN
         13   -1    0    0    0    0  0.00000000000E+00  0.00000000000E+00  0.74505805969E-08  0.10566000000E+00  0.10566000000E+00 0.  1.
     999900   -1    0    0    0    0 -0.00000000000E+00 -0.00000000000E+00 -0.74505805969E-08  0.93827000000E+00  0.93827000000E+00 0. -1.
     999902    2    1    2    0    0 -0.85871150388E-02 -0.14928163644E-01  0.14638646230E-01  0.10213273767E+01  0.10210772409E+01 0.  0.
     999903    2    3    3    0    0 -0.12778770359E+00  0.26665157996E-01  0.81504410102E-02  0.13229369824E+00  0.19861144641E-01 0.  0.
         14    1    1    2    0    0  0.85871150388E-02  0.14928163644E-01 -0.14638646230E-01  0.22602623253E-01  0.00000000000E+00 0. -1.
     999901    1    3    3    0    0  0.11920058855E+00 -0.41593321640E-01  0.64882052202E-02  0.88903367851E+00  0.88000000000E+00 0.  1.
        -11    1    4    4    0    0 -0.64766012975E-01  0.72752692430E-02 -0.37763294549E-02  0.65284667146E-01  0.51100000000E-03 0.  1.
         11    1    4    4    0    0 -0.63021690610E-01  0.19389888753E-01  0.11926770465E-01  0.67009031093E-01  0.51100000000E-03 0. -1.
</event>
<event>
 8    1  0.1129676E+005  0.1043930E+01  0.7957747E-01            NaN
         13   -1    0    0    0    0  0.00000000000E+00  0.00000000000E+00  0.74505805969E-08  0.10566000000E+00  0.10566000000E+00 0.  1.
     999900   -1    0    0    0    0 -0.00000000000E+00 -0.00000000000E+00 -0.74505805969E-08  0.93827000000E+00  0.93827000000E+00 0. -1.
     999902    2    1    2    0    0 -0.10522268754E-01 -0.15583195303E-01  0.15759024149E-01  0.10193963301E+01  0.10191010631E+01 0.  0.
     999903    2    3    3    0    0 -0.12588705580E+00 -0.29017630822E-01  0.16180798111E-01  0.13176482097E+00  0.20262677554E-01 0.  0.
         14    1    1    2    0    0  0.10522268754E-01  0.15583195303E-01 -0.15759024149E-01  0.24533669879E-01  0.00000000000E+00 0. -1.
     999901    1    3    3    0    0  0.11536478704E+00  0.13434435519E-01 -0.42177396230E-03  0.88763150915E+00  0.88000000000E+00 0.  1.
        -11    1    4    4    0    0 -0.45632030361E-01 -0.13848511541E-01  0.15294515210E-01  0.50082399935E-01  0.51100000000E-03 0. -1.
         11    1    4    4    0    0 -0.80255025436E-01 -0.15169119281E-01  0.88628290061E-03  0.81682421034E-01  0.51100000000E-03 0.  1.
</event>
<event>
 8    1  0.1129676E+005  0.1043930E+01  0.7957747E-01            NaN
         13   -1    0    0    0    0  0.00000000000E+00  0.00000000000E+00  0.74505805969E-08  0.10566000000E+00  0.10566000000E+00 0.  1.
     999900   -1    0    0    0    0 -0.00000000000E+00 -0.00000000000E+00 -0.74505805969E-08  0.93827000000E+00  0.93827000000E+00 0.  1.
     999902    2    1    2    0    0 -0.84348402166E-03 -0.21773181062E-01  0.87750358877E-02  0.10204399141E+01  0.10201695125E+01 0.  0.
     999903    2    3    3    0    0  0.30275389177E-01  0.67839646400E-01 -0.10276078762E+00  0.12834177882E+00  0.19824628727E-01 0.  0.
         14    1    1    2    0    0  0.84348402166E-03  0.21773181062E-01 -0.87750358877E-02  0.23490085859E-01  0.00000000000E+00 0. -1.
     999901    1    3    3    0    0 -0.31118873199E-01 -0.89612827462E-01  0.11153582351E+00  0.89209813532E+00  0.88000000000E+00 0. -1.
        -11    1    4    4    0    0  0.12941517062E-01  0.36394690909E-01 -0.68871055295E-01  0.78965434012E-01  0.51100000000E-03 0. -1.
         11    1    4    4    0    0  0.17333872115E-01  0.31444955491E-01 -0.33889732329E-01  0.49376344809E-01  0.51100000000E-03 0.  1.
</event>
<event>
 8    1  0.1129676E+005  0.1043930E+01  0.7957747E-01            NaN
         13   -1    0    0    0    0  0.00000000000E+00  0.00000000000E+00  0.74505805969E-08  0.10566000000E+00  0.10566000000E+00 0. -1.
     999900   -1    0    0    0    0 -0.00000000000E+00 -0.00000000000E+00 -0.74505805969E-08  0.93827000000E+00  0.93827000000E+00 0. -1.
     999902    2    1    2    0    0  0.18849589627E-02  0.15973380253E-02 -0.23125672536E-01  0.10206727153E+01  0.10204077080E+01 0.  0.
     999903    2    3    3    0    0 -0.55276896903E-01 -0.11428095130E+00 -0.26651312194E-01  0.13123036992E+00  0.19885833853E-01 0.  0.
         14    1    1    2    0    0 -0.18849589627E-02 -0.15973380253E-02  0.23125672536E-01  0.23257284650E-01  0.00000000000E+00 0. -1.
     999901    1    3    3    0    0  0.57161855865E-01  0.11587828932E+00  0.35256396577E-02  0.88944234543E+00  0.88000000000E+00 0. -1.
        -11    1    4    4    0    0 -0.36084946025E-01 -0.67541172328E-01 -0.65781049426E-02  0.76860040819E-01  0.51100000000E-03 0. -1.
         11    1    4    4    0    0 -0.19191950878E-01 -0.46739778969E-01 -0.20073207251E-01  0.54370329104E-01  0.51100000000E-03 0.  1.
</event>
<event>
 8    1  0.1129676E+005  0.1043930E+01  0.7957747E-01            NaN
         13   -1    0    0    0    0  0.00000000000E+00  0.00000000000E+00  0.74505805969E-08  0.10566000000E+00  0.10566000000E+00 0. -1.
     999900   -1    0    0    0    0 -0.00000000000E+00 -0.00000000000E+00 -0.74505805969E-08  0.93827000000E+00  0.93827000000E+00 0. -1.
     999902    2    1    2    0    0 -0.89332941733E-02 -0.82074749607E-02  0.20479502075E-01  0.10201271347E+01  0.10198493980E+01 0.  0.
     999903    2    3    3    0    0  0.78361649970E-01  0.21432327689E-01  0.10161220407E+00  0.13159945339E+00  0.19836412472E-01 0.  0.
         14    1    1    2    0    0  0.89332941733E-02  0.82074749607E-02 -0.20479502075E-01  0.23802865274E-01  0.00000000000E+00 0.  1.
     999901    1    3    3    0    0 -0.87294944143E-01 -0.29639802650E-01 -0.81132701994E-01  0.88852768134E+00  0.88000000000E+00 0. -1.
        -11    1    4    4    0    0  0.50865395323E-01  0.11293156514E-01  0.49833529951E-01  0.72100385948E-01  0.51100000000E-03 0. -1.
         11    1    4    4    0    0  0.27496254647E-01  0.10139171176E-01  0.51778674117E-01  0.59499067439E-01  0.51100000000E-03 0.  1.
</event>
<event>
 8    1  0.1129676E+005  0.1043930E+01  0.7957747E-01            NaN
         13   -1    0    0    0    0  0.00000000000E+00  0.00000000000E+00  0.74505805969E-08  0.10566000000E+00  0.10566000000E+00 0. -1.
     999900   -1    0    0    0    0 -0.00000000000E+00 -0.00000000000E+00 -0.74505805969E-08  0.93827000000E+00  0.93827000000E+00 0. -1.
     999902    2    1    2    0    0 -0.11688136562E-01 -0.21262257309E-01  0.72359413681E-02  0.10186109366E+01  0.10182962169E+01 0.  0.
     999903    2    3    3    0    0  0.20012954628E-01 -0.93553474392E-01 -0.86097176002E-01  0.13016169777E+00  0.19405487007E-01 0.  0.
         14    1    1    2    0    0  0.11688136562E-01  0.21262257309E-01 -0.72359413681E-02  0.25319063365E-01  0.00000000000E+00 0.  1.
     999901    1    3    3    0    0 -0.31701091190E-01  0.72291217083E-01  0.93333117370E-01  0.88844923887E+00  0.88000000000E+00 0.  1.
        -11    1    4    4    0    0  0.21217978039E-02 -0.55739526007E-01 -0.49308077055E-01  0.74450952776E-01  0.51100000000E-03 0. -1.
         11    1    4    4    0    0  0.17891156824E-01 -0.37813948385E-01 -0.36789098946E-01  0.55710744990E-01  0.51100000000E-03 0.  1.
</event>
<event>
 8    1  0.1129676E+005  0.1043930E+01  0.7957747E-01            NaN
         13   -1    0    0    0    0  0.00000000000E+00  0.00000000000E+00  0.74505805969E-08  0.10566000000E+00  0.10566000000E+00 0. -1.
     999900   -1    0    0    0    0 -0.00000000000E+00 -0.00000000000E+00 -0.74505805969E-08  0.93827000000E+00  0.93827000000E+00 0.  1.
     999902    2    1    2    0    0 -0.42505575120E-02 -0.18948949148E-01 -0.17909466612E-01  0.10175126022E+01  0.10171696106E+01 0.  0.
     999903    2    3    3    0    0 -0.51436012181E-01 -0.11855353474E+00 -0.50897313114E-02  0.13054479769E+00  0.17760486791E-01 0.  0.
         14    1    1    2    0    0  0.42505575120E-02  0.18948949148E-01  0.17909466612E-01  0.26417397815E-01  0.00000000000E+00 0. -1.
     999901    1    3    3    0    0  0.47185454669E-01  0.99604585587E-01 -0.12819735300E-01  0.88696780450E+00  0.88000000000E+00 0.  1.
        -11    1    4    4    0    0 -0.46599496538E-02 -0.29274754145E-01 -0.16878612520E-02  0.29695729619E-01  0.51100000000E-03 0.  1.
         11    1    4    4    0    0 -0.46776062527E-01 -0.89278780591E-01 -0.34018700594E-02  0.10084906807E+00  0.51100000000E-03 0. -1.
</event>
<event>
 8    1  0.1129676E+005  0.1043930E+01  0.7957747E-01            NaN
         13   -1    0    0    0    0  0.00000000000E+00  0.00000000000E+00  0.74505805969E-08  0.10566000000E+00  0.10566000000E+00 0. -1.
     999900   -1    0    0    0    0 -0.00000000000E+00 -0.00000000000E+00 -0.74505805969E-08  0.93827000000E+00  0.93827000000E+00 0.  1.
     999902    2    1    2    0    0 -0.53073387911E-04  0.13593863528E-02  0.22723303788E-01  0.10211660091E+01  0.10209122483E+01 0.  0.
     999903    2    3    3    0    0  0.79388970232E-01  0.79870962478E-01 -0.61981425038E-01  0.13007117856E+00  0.19870460484E-01 0.  0.
         14    1    1    2    0    0  0.53073387911E-04 -0.13593863528E-02 -0.22723303788E-01  0.22763990931E-01  0.00000000000E+00 0.  1.
     999901    1    3    3    0    0 -0.79442043620E-01 -0.78511576125E-01  0.84704728826E-01  0.89109483051E+00  0.88000000000E+00 0. -1.
        -11    1    4    4    0    0  0.41167754618E-01  0.37488628012E-01 -0.41455040302E-01  0.69418749182E-01  0.51100000000E-03 0.  1.
         11    1    4    4    0    0  0.38221215613E-01  0.42382334467E-01 -0.20526384736E-01  0.60652429375E-01  0.51100000000E-03 0. -1.
</event>
<event>
 8    1  0.1129676E+005  0.1043930E+01  0.7957747E-01            NaN
         13   -1    0    0    0    0  0.00000000000E+00  0.00000000000E+00  0.74505805969E-08  0.10566000000E+00  0.10566000000E+00 0.  1.
     999900   -1    0    0    0    0 -0.00000000000E+00 -0.00000000000E+00 -0.74505805969E-08  0.93827000000E+00  0.93827000000E+00 0.  1.
     999902    2    1    2    0    0 -0.23218204445E-01  0.19661277699E-02  0.39317700402E-02  0.10202993104E+01  0.10200256238E+01 0.  0.
     999903    2    3    3    0    0 -0.75423634869E-01  0.67104541047E-01  0.83923329158E-01  0.13273687913E+00  0.19601269794E-01 0.  0.
         14    1    1    2    0    0  0.23218204445E-01 -0.19661277699E-02 -0.39317700402E-02  0.23630689615E-01  0.00000000000E+00 0. -1.
     999901    1    3    3    0    0  0.52205430424E-01 -0.65138413277E-01 -0.79991559118E-01  0.88756243126E+00  0.88000000000E+00 0.  1.
        -11    1    4    4    0    0 -0.39401360083E-01  0.24722471305E-01  0.45953178401E-01  0.65388251926E-01  0.51100000000E-03 0.  1.
         11    1    4    4    0    0 -0.36022274786E-01  0.42382069742E-01  0.37970150757E-01  0.67348627201E-01  0.51100000000E-03 0. -1.
</event>
<event>
 8    1  0.1129676E+005  0.1043930E+01  0.7957747E-01            NaN
         13   -1    0    0    0    0  0.00000000000E+00  0.00000000000E+00  0.74505805969E-08  0.10566000000E+00  0.10566000000E+00 0. -1.
     999900   -1    0    0    0    0 -0.00000000000E+00 -0.00000000000E+00 -0.74505805969E-08  0.93827000000E+00  0.93827000000E+00 0.  1.
     999902    2    1    2    0    0  0.99021144723E-02 -0.13594895288E-01 -0.15509952965E-01  0.10210513705E+01  0.10207950183E+01 0.  0.
     999903    2    3    3    0    0  0.72362291904E-01 -0.10507054651E+00  0.31333898765E-01  0.13287153789E+00  0.19922633737E-01 0.  0.
         14    1    1    2    0    0 -0.99021144723E-02  0.13594895288E-01  0.15509952965E-01  0.22878629546E-01  0.00000000000E+00 0. -1.
     999901    1    3    3    0    0 -0.62460177431E-01  0.91475651225E-01 -0.46843851730E-01  0.88817983257E+00  0.88000000000E+00 0. -1.
        -11    1    4    4    0    0  0.25808001983E-01 -0.32909661291E-01  0.11372542717E-02  0.41840808321E-01  0.51100000000E-03 0. -1.
         11    1    4    4    0    0  0.46554289920E-01 -0.72160885222E-01  0.30196644493E-01  0.91030729567E-01  0.51100000000E-03 0.  1.
</event>
<event>
 8    1  0.1129676E+005  0.1043930E+01  0.7957747E-01            NaN
         13   -1    0    0    0    0  0.00000000000E+00  0.00000000000E+00  0.74505805969E-08  0.10566000000E+00  0.10566000000E+00 0.  1.
     999900   -1    0    0    0    0 -0.00000000000E+00 -0.00000000000E+00 -0.74505805969E-08  0.93827000000E+00  0.93827000000E+00 0. -1.
     999902    2    1    2    0    0 -0.12399430950E-01  0.75597289522E-02 -0.28376643339E-01  0.10120532173E+01  0.10115510789E+01 0.  0.
     999903    2    3    3    0    0 -0.14168998652E-01  0.61583328506E-02 -0.12397390511E+00  0.12687304819E+00  0.22103294419E-01 0.  0.
         14    1    1    2    0    0  0.12399430950E-01 -0.75597289522E-02  0.28376643339E-01  0.31876782725E-01  0.00000000000E+00 0.  1.
     999901    1    3    3    0    0  0.17695677020E-02  0.14013961016E-02  0.95597261766E-01  0.88518016908E+00  0.88000000000E+00 0.  1.
        -11    1    4    4    0    0  0.18615700627E-02  0.60210527050E-02 -0.76540643096E-01  0.76801365127E-01  0.51100000000E-03 0.  1.
         11    1    4    4    0    0 -0.16030568714E-01  0.13728014565E-03 -0.47433262009E-01  0.50071683065E-01  0.51100000000E-03 0. -1.
</event>
<event>
 8    1  0.1129676E+005  0.1043930E+01  0.7957747E-01            NaN
         13   -1    0    0    0    0  0.00000000000E+00  0.00000000000E+00  0.74505805969E-08  0.10566000000E+00  0.10566000000E+00 0. -1.
     999900   -1    0    0    0    0 -0.00000000000E+00 -0.00000000000E+00 -0.74505805969E-08  0.93827000000E+00  0.93827000000E+00 0.  1.
     999902    2    1    2    0    0  0.14434971987E-01 -0.18250039213E-01 -0.60607445538E-02  0.10198849387E+01  0.10196014531E+01 0.  0.
     999903    2    3    3    0    0 -0.99084390600E-01 -0.41766183919E-01  0.68366156450E-01  0.12916667892E+00  0.21165278538E-01 0.  0.
         14    1    1    2    0    0 -0.14434971987E-01  0.18250039213E-01  0.60607445538E-02  0.24045061283E-01  0.00000000000E+00 0. -1.
     999901    1    3    3    0    0  0.11351936259E+00  0.23516144706E-01 -0.74426901004E-01  0.89071825980E+00  0.88000000000E+00 0.  1.
        -11    1    4    4    0    0 -0.51854855630E-01 -0.29907835217E-01  0.28850790336E-01  0.66453245849E-01  0.51100000000E-03 0. -1.
         11    1    4    4    0    0 -0.47229534970E-01 -0.11858348702E-01  0.39515366113E-01  0.62713433071E-01  0.51100000000E-03 0.  1.
</event>
<event>
 8    1  0.1129676E+005  0.1043930E+01  0.7957747E-01            NaN
         13   -1    0    0    0    0  0.00000000000E+00  0.00000000000E+00  0.74505805969E-08  0.10566000000E+00  0.10566000000E+00 0. -1.
     999900   -1    0    0    0    0 -0.00000000000E+00 -0.00000000000E+00 -0.74505805969E-08  0.93827000000E+00  0.93827000000E+00 0.  1.
     999902    2    1    2    0    0  0.69169337796E-02  0.38932412189E-02 -0.12791172761E-01  0.10288762496E+01  0.10287661161E+01 0.  0.
     999903    2    3    3    0    0  0.13628127338E+00  0.13391701860E-01  0.12920193738E-01  0.13899624226E+00  0.20027501212E-01 0.  0.
         14    1    1    2    0    0 -0.69169337796E-02 -0.38932412189E-02  0.12791172761E-01  0.15053750387E-01  0.00000000000E+00 0. -1.
     999901    1    3    3    0    0 -0.12936433960E+00 -0.94984606415E-02 -0.25711366499E-01  0.88988000735E+00  0.88000000000E+00 0.  1.
        -11    1    4    4    0    0  0.98815831783E-01  0.15536814398E-01  0.16153322924E-01  0.10132695680E+00  0.51100000000E-03 0.  1.
         11    1    4    4    0    0  0.37465441595E-01 -0.21451125371E-02 -0.32331291856E-02  0.37669285460E-01  0.51100000000E-03 0. -1.
</event>
<event>
 8    1  0.1129676E+005  0.1043930E+01  0.7957747E-01            NaN
         13   -1    0    0    0    0  0.00000000000E+00  0.00000000000E+00  0.74505805969E-08  0.10566000000E+00  0.10566000000E+00 0.  1.
     999900   -1    0    0    0    0 -0.00000000000E+00 -0.00000000000E+00 -0.74505805969E-08  0.93827000000E+00  0.93827000000E+00 0. -1.
     999902    2    1    2    0    0  0.19339245582E-01 -0.52226238510E-03 -0.17027419881E-01  0.10181576853E+01  0.10178314497E+01 0.  0.
     999903    2    3    3    0    0  0.23593909988E-01  0.56343443829E-01 -0.11413364278E+00  0.13098158708E+00  0.19960748679E-01 0.  0.
         14    1    1    2    0    0 -0.19339245582E-01  0.52226238510E-03  0.17027419881E-01  0.25772314709E-01  0.00000000000E+00 0.  1.
     999901    1    3    3    0    0 -0.42546644059E-02 -0.56865706214E-01  0.97106222901E-01  0.88717609821E+00  0.88000000000E+00 0.  1.
        -11    1    4    4    0    0  0.16465170194E-01  0.51866996255E-01 -0.10653666144E+00  0.11963113509E+00  0.51100000000E-03 0.  1.
         11    1    4    4    0    0  0.71287397935E-02  0.44764475739E-02 -0.75969813407E-02  0.11350451992E-01  0.51100000000E-03 0. -1.
</event>
<event>
 8    1  0.1129676E+005  0.1043930E+01  0.7957747E-01            NaN
         13   -1    0    0    0    0  0.00000000000E+00  0.00000000000E+00  0.74505805969E-08  0.10566000000E+00  0.10566000000E+00 0. -1.
     999900   -1    0    0    0    0 -0.00000000000E+00 -0.00000000000E+00 -0.74505805969E-08  0.93827000000E+00  0.93827000000E+00 0. -1.
     999902    2    1    2    0    0  0.17021076029E-01 -0.30264680337E-02  0.15426362314E-01  0.10207599937E+01  0.10204969944E+01 0.  0.
     999903    2    3    3    0    0  0.12186174354E+00 -0.73979265497E-02 -0.48290761985E-01  0.13223844239E+00  0.15811201623E-01 0.  0.
         14    1    1    2    0    0 -0.17021076029E-01  0.30264680337E-02 -0.15426362314E-01  0.23170006305E-01  0.00000000000E+00 0.  1.
     999901    1    3    3    0    0 -0.10484066751E+00  0.43714585160E-02  0.63717124299E-01  0.88852155131E+00  0.88000000000E+00 0.  1.
        -11    1    4    4    0    0  0.68685338662E-01 -0.50630546053E-02 -0.18838084650E-01  0.71403395041E-01  0.51100000000E-03 0.  1.
         11    1    4    4    0    0  0.53176404873E-01 -0.23348719444E-02 -0.29452677335E-01  0.60835047344E-01  0.51100000000E-03 0. -1.
</event>
<event>
 8    1  0.1129676E+005  0.1043930E+01  0.7957747E-01            NaN
         13   -1    0    0    0    0  0.00000000000E+00  0.00000000000E+00  0.74505805969E-08  0.10566000000E+00  0.10566000000E+00 0. -1.
     999900   -1    0    0    0    0 -0.00000000000E+00 -0.00000000000E+00 -0.74505805969E-08  0.93827000000E+00  0.93827000000E+00 0.  1.
     999902    2    1    2    0    0 -0.11710795848E-02 -0.27348711440E-01  0.15253623152E-02  0.10165137607E+01  0.10161439739E+01 0.  0.
     999903    2    3    3    0    0  0.29937179439E-01  0.10120341841E+00  0.63276216390E-01  0.12448991473E+00  0.18854514052E-01 0.  0.
         14    1    1    2    0    0  0.11710795848E-02  0.27348711440E-01 -0.15253623152E-02  0.27416239257E-01  0.00000000000E+00 0.  1.
     999901    1    3    3    0    0 -0.31108259024E-01 -0.12855212985E+00 -0.61750854075E-01  0.89202384601E+00  0.88000000000E+00 0.  1.
        -11    1    4    4    0    0  0.21307713727E-01  0.86639379083E-01  0.59180485420E-01  0.10706536157E+00  0.51100000000E-03 0. -1.
         11    1    4    4    0    0  0.86294657116E-02  0.14564039324E-01  0.40957309705E-02  0.17424553167E-01  0.51100000000E-03 0.  1.
</event>
<event>
 8    1  0.1129676E+005  0.1043930E+01  0.7957747E-01            NaN
         13   -1    0    0    0    0  0.00000000000E+00  0.00000000000E+00  0.74505805969E-08  0.10566000000E+00  0.10566000000E+00 0.  1.
     999900   -1    0    0    0    0 -0.00000000000E+00 -0.00000000000E+00 -0.74505805969E-08  0.93827000000E+00  0.93827000000E+00 0. -1.
     999902    2    1    2    0    0 -0.15064753903E-01 -0.96246224773E-02 -0.15479734200E-01  0.10202825405E+01  0.10200084608E+01 0.  0.
     999903    2    3    3    0    0  0.93488031810E-01  0.50409509020E-01  0.67947660427E-01  0.12767516078E+00  0.20073151996E-01 0.  0.
         14    1    1    2    0    0  0.15064753903E-01  0.96246224773E-02  0.15479734200E-01  0.23647459459E-01  0.00000000000E+00 0.  1.
     999901    1    3    3    0    0 -0.10855278571E+00 -0.60034131497E-01 -0.83427394627E-01  0.89260737976E+00  0.88000000000E+00 0.  1.
        -11    1    4    4    0    0  0.58435398533E-01  0.27956794709E-01  0.30179475599E-01  0.71465656371E-01  0.51100000000E-03 0. -1.
         11    1    4    4    0    0  0.35052633277E-01  0.22452714311E-01  0.37768184828E-01  0.56209504408E-01  0.51100000000E-03 0.  1.
</event>
<event>
 8    1  0.1129676E+005  0.1043930E+01  0.7957747E-01            NaN
         13   -1    0    0    0    0  0.00000000000E+00  0.00000000000E+00  0.74505805969E-08  0.10566000000E+00  0.10566000000E+00 0. -1.
     999900   -1    0    0    0    0 -0.00000000000E+00 -0.00000000000E+00 -0.74505805969E-08  0.93827000000E+00  0.93827000000E+00 0.  1.
     999902    2    1    2    0    0  0.21131985018E-02  0.22543781516E-01 -0.75081579797E-02  0.10200750188E+01  0.10197960501E+01 0.  0.
     999903    2    3    3    0    0 -0.11665787742E+00  0.56229382643E-01  0.11147308465E-01  0.13126158806E+00  0.18290384825E-01 0.  0.
         14    1    1    2    0    0 -0.21131985018E-02 -0.22543781516E-01  0.75081579797E-02  0.23854981224E-01  0.00000000000E+00 0. -1.
     999901    1    3    3    0    0  0.11877107592E+00 -0.33685601127E-01 -0.18655466445E-01  0.88881343072E+00  0.88000000000E+00 0.  1.
        -11    1    4    4    0    0 -0.52004282111E-01  0.18988215987E-01 -0.24489427491E-02  0.55418915055E-01  0.51100000000E-03 0.  1.
         11    1    4    4    0    0 -0.64653595307E-01  0.37241166655E-01  0.13596251214E-01  0.75842673002E-01  0.51100000000E-03 0. -1.
</event>
<event>
 8    1  0.1129676E+005  0.1043930E+01  0.7957747E-01            NaN
         13   -1    0    0    0    0  0.00000000000E+00  0.00000000000E+00  0.74505805969E-08  0.10566000000E+00  0.10566000000E+00 0.  1.
     999900   -1    0    0    0    0 -0.00000000000E+00 -0.00000000000E+00 -0.74505805969E-08  0.93827000000E+00  0.93827000000E+00 0.  1.
     999902    2    1    2    0    0 -0.18644466999E-01 -0.10590074565E-01  0.10827447634E-01  0.10199091871E+01  0.10196262798E+01 0.  0.
     999903    2    3    3    0    0  0.40738095753E-01 -0.53874389249E-01 -0.10807869752E+00  0.12887692507E+00  0.19136736856E-01 0.  0.
         14    1    1    2    0    0  0.18644466999E-01  0.10590074565E-01 -0.10827447634E-01  0.24020812877E-01  0.00000000000E+00 0. -1.
     999901    1    3    3    0    0 -0.59382562752E-01  0.43284314684E-01  0.11890614515E+00  0.89103226205E+00  0.88000000000E+00 0. -1.
        -11    1    4    4    0    0  0.27827522809E-01 -0.28381199501E-01 -0.47822243737E-01  0.62185943973E-01  0.51100000000E-03 0.  1.
         11    1    4    4    0    0  0.12910572944E-01 -0.25493189748E-01 -0.60256453779E-01  0.66690981102E-01  0.51100000000E-03 0. -1.
</event>
<event>
 8    1  0.1129676E+005  0.1043930E+01  0.7957747E-01            NaN
         13   -1    0    0    0    0  0.00000000000E+00  0.00000000000E+00  0.74505805969E-08  0.10566000000E+00  0.10566000000E+00 0.  1.
     999900   -1    0    0    0    0 -0.00000000000E+00 -0.00000000000E+00 -0.74505805969E-08  0.93827000000E+00  0.93827000000E+00 0. -1.
     999902    2    1    2    0    0 -0.60648300036E-02  0.22271619011E-01  0.58545725294E-02  0.10201164913E+01  0.10198385032E+01 0.  0.
     999903    2    3    3    0    0  0.82497923923E-01 -0.66745547115E-01  0.70294750129E-01  0.12887019890E+00  0.20132082816E-01 0.  0.
         14    1    1    2    0    0  0.60648300036E-02 -0.22271619011E-01 -0.58545725294E-02  0.23813508684E-01  0.00000000000E+00 0. -1.
     999901    1    3    3    0    0 -0.88562753927E-01  0.89017166127E-01 -0.64440177600E-01  0.89124629241E+00  0.88000000000E+00 0. -1.
        -11    1    4    4    0    0  0.43705446928E-01 -0.30932289400E-01  0.24117763835E-01  0.58727338371E-01  0.51100000000E-03 0.  1.
         11    1    4    4    0    0  0.38792476995E-01 -0.35813257715E-01  0.46176986294E-01  0.70142860533E-01  0.51100000000E-03 0. -1.
</event>
<event>
 8    1  0.1129676E+005  0.1043930E+01  0.7957747E-01            NaN
         13   -1    0    0    0    0  0.00000000000E+00  0.00000000000E+00  0.74505805969E-08  0.10566000000E+00  0.10566000000E+00 0. -1.
     999900   -1    0    0    0    0 -0.00000000000E+00 -0.00000000000E+00 -0.74505805969E-08  0.93827000000E+00  0.93827000000E+00 0.  1.
     999902    2    1    2    0    0 -0.27724626771E-02  0.13522228716E-01 -0.13265516774E-01  0.10247855190E+01  0.10246066800E+01 0.  0.
     999903    2    3    3    0    0 -0.55871107251E-01 -0.79214980783E-01 -0.91591795676E-01  0.13486717325E+00  0.20087398508E-01 0.  0.
         14    1    1    2    0    0  0.27724626771E-02 -0.13522228716E-01  0.13265516774E-01  0.19144481033E-01  0.00000000000E+00 0. -1.
     999901    1    3    3    0    0  0.53098644573E-01  0.92737209499E-01  0.78326278901E-01  0.88991834572E+00  0.88000000000E+00 0. -1.
        -11    1    4    4    0    0 -0.33946307535E-01 -0.51752745397E-01 -0.45082959500E-01  0.76573055376E-01  0.51100000000E-03 0.  1.
         11    1    4    4    0    0 -0.21924799716E-01 -0.27462235386E-01 -0.46508836176E-01  0.58294117872E-01  0.51100000000E-03 0. -1.
</event>
<event>
 8    1  0.1129676E+005  0.1043930E+01  0.7957747E-01            NaN
         13   -1    0    0    0    0  0.00000000000E+00  0.00000000000E+00  0.74505805969E-08  0.10566000000E+00  0.10566000000E+00 0. -1.
     999900   -1    0    0    0    0 -0.00000000000E+00 -0.00000000000E+00 -0.74505805969E-08  0.93827000000E+00  0.93827000000E+00 0.  1.
     999902    2    1    2    0    0 -0.22118098983E-01  0.82786363234E-02 -0.44858255998E-02  0.10198910992E+01  0.10196077606E+01 0.  0.
     999903    2    3    3    0    0  0.88228125546E-01 -0.91091125849E-01 -0.85487340141E-02  0.12744101870E+00  0.92917731305E-02 0.  0.
         14    1    1    2    0    0  0.22118098983E-01 -0.82786363234E-02  0.44858255998E-02  0.24038900834E-01  0.00000000000E+00 0. -1.
     999901    1    3    3    0    0 -0.11034622453E+00  0.99369762172E-01  0.40629084143E-02  0.89245008047E+00  0.88000000000E+00 0. -1.
        -11    1    4    4    0    0  0.56260053154E-01 -0.64227725720E-01 -0.64557980924E-02  0.85629041698E-01  0.51100000000E-03 0. -1.
         11    1    4    4    0    0  0.31968072392E-01 -0.26863400129E-01 -0.20929359217E-02  0.41811977001E-01  0.51100000000E-03 0.  1.
</event>
<event>
 8    1  0.1129676E+005  0.1043930E+01  0.7957747E-01            NaN
         13   -1    0    0    0    0  0.00000000000E+00  0.00000000000E+00  0.74505805969E-08  0.10566000000E+00  0.10566000000E+00 0. -1.
     999900   -1    0    0    0    0 -0.00000000000E+00 -0.00000000000E+00 -0.74505805969E-08  0.93827000000E+00  0.93827000000E+00 0.  1.
     999902    2    1    2    0    0 -0.17010300783E-01  0.85201270266E-02 -0.13669280739E-01  0.10205036872E+01  0.10202347688E+01 0.  0.
     999903    2    3    3    0    0 -0.10935946576E+00 -0.60275104906E-01 -0.39744869535E-01  0.13261794646E+00  0.20378519254E-01 0.  0.
         14    1    1    2    0    0  0.17010300783E-01 -0.85201270266E-02  0.13669280739E-01  0.23426312839E-01  0.00000000000E+00 0.  1.
     999901    1    3    3    0    0  0.92349164974E-01  0.68795231932E-01  0.26075588796E-01  0.88788574070E+00  0.88000000000E+00 0.  1.
        -11    1    4    4    0    0 -0.54153593317E-01 -0.19611131842E-01 -0.23114437164E-01  0.62062440233E-01  0.51100000000E-03 0.  1.
         11    1    4    4    0    0 -0.55205872440E-01 -0.40663973064E-01 -0.16630432371E-01  0.70555506228E-01  0.51100000000E-03 0. -1.
</event>
<event>
 8    1  0.1129676E+005  0.1043930E+01  0.7957747E-01            NaN
         13   -1    0    0    0    0  0.00000000000E+00  0.00000000000E+00  0.74505805969E-08  0.10566000000E+00  0.10566000000E+00 0. -1.
     999900   -1    0    0    0    0 -0.00000000000E+00 -0.00000000000E+00 -0.74505805969E-08  0.93827000000E+00  0.93827000000E+00 0. -1.
     999902    2    1    2    0    0 -0.22039344636E-01 -0.26142470682E-02 -0.59530823828E-02  0.10209516147E+01  0.10206929967E+01 0.  0.
     999903    2    3    3    0    0 -0.59675385266E-01 -0.69458002074E-01  0.92930277485E-01  0.13209702707E+00  0.20688702952E-01 0.  0.
         14    1    1    2    0    0  0.22039344636E-01  0.26142470682E-02  0.59530823828E-02  0.22978385269E-01  0.00000000000E+00 0. -1.
     999901    1    3    3    0    0  0.37636040630E-01  0.66843755006E-01 -0.98883359868E-01  0.88885458766E+00  0.88000000000E+00 0. -1.
        -11    1    4    4    0    0 -0.36725283889E-01 -0.34772816206E-01  0.63318049158E-01  0.81039075104E-01  0.51100000000E-03 0.  1.
         11    1    4    4    0    0 -0.22950101377E-01 -0.34685185868E-01  0.29612228327E-01  0.51057951971E-01  0.51100000000E-03 0. -1.
</event>
<event>
 8    1  0.1129676E+005  0.1043930E+01  0.7957747E-01            NaN
         13   -1    0    0    0    0  0.00000000000E+00  0.00000000000E+00  0.74505805969E-08  0.10566000000E+00  0.10566000000E+00 0.  1.
     999900   -1    0    0    0    0 -0.00000000000E+00 -0.00000000000E+00 -0.74505805969E-08  0.93827000000E+00  0.93827000000E+00 0. -1.
     999902    2    1    2    0    0  0.10114753038E-01  0.41186668349E-02  0.21457439008E-01  0.10198531785E+01  0.10195689346E+01 0.  0.
     999903    2    3    3    0    0 -0.10454061429E+00  0.54434970529E-01 -0.46595235160E-01  0.12838879325E+00  0.20510003427E-01 0.  0.
         14    1    1    2    0    0 -0.10114753038E-01 -0.41186668349E-02 -0.21457439008E-01  0.24076821516E-01  0.00000000000E+00 0. -1.
     999901    1    3    3    0    0  0.11465536733E+00 -0.50316303694E-01  0.68052674167E-01  0.89146438523E+00  0.88000000000E+00 0.  1.
        -11    1    4    4    0    0 -0.60590492159E-02  0.95042525659E-02 -0.59996842366E-02  0.12778897690E-01  0.51100000000E-03 0.  1.
         11    1    4    4    0    0 -0.98481565075E-01  0.44930717963E-01 -0.40595550923E-01  0.11560989556E+00  0.51100000000E-03 0. -1.
</event>
<event>
 8    1  0.1129676E+005  0.1043930E+01  0.7957747E-01            NaN
         13   -1    0    0    0    0  0.00000000000E+00  0.00000000000E+00  0.74505805969E-08  0.10566000000E+00  0.10566000000E+00 0.  1.
     999900   -1    0    0    0    0 -0.00000000000E+00 -0.00000000000E+00 -0.74505805969E-08  0.93827000000E+00  0.93827000000E+00 0.  1.
     999902    2    1    2    0    0 -0.23897203801E-01 -0.23182822624E-03  0.47427848176E-02  0.10195655977E+01  0.10192744399E+01 0.  0.
     999903    2    3    3    0    0 -0.75482006121E-01 -0.35289706209E-01  0.10066794044E+00  0.13215831680E+00  0.19720290381E-01 0.  0.
         14    1    1    2    0    0  0.23897203801E-01  0.23182822624E-03 -0.47427848176E-02  0.24364402345E-01  0.00000000000E+00 0. -1.
     999901    1    3    3    0    0  0.51584802321E-01  0.35057877983E-01 -0.95925155626E-01  0.88740728086E+00  0.88000000000E+00 0. -1.
        -11    1    4    4    0    0 -0.24970221415E-01 -0.21798984525E-01  0.34819014851E-01  0.48076320575E-01  0.51100000000E-03 0. -1.
         11    1    4    4    0    0 -0.50511784706E-01 -0.13490721684E-01  0.65848925593E-01  0.84081996221E-01  0.51100000000E-03 0.  1.
</event>
<event>
 8    1  0.1129676E+005  0.1043930E+01  0.7957747E-01            NaN
         13   -1    0    0    0    0  0.00000000000E+00  0.00000000000E+00  0.74505805969E-08  0.10566000000E+00  0.10566000000E+00 0. -1.
     999900   -1    0    0    0    0 -0.00000000000E+00 -0.00000000000E+00 -0.74505805969E-08  0.93827000000E+00  0.93827000000E+00 0. -1.
     999902    2    1    2    0    0  0.21725888310E-01 -0.90387543850E-02  0.23703644890E-02  0.10202798006E+01  0.10200056566E+01 0.  0.
     999903    2    3    3    0    0 -0.71590427945E-01  0.49206120560E-01 -0.92455581499E-01  0.12837601635E+00  0.19645237307E-01 0.  0.
         14    1    1    2    0    0 -0.21725888310E-01  0.90387543850E-02 -0.23703644890E-02  0.23650199397E-01  0.00000000000E+00 0. -1.
     999901    1    3    3    0    0  0.93316316256E-01 -0.58244874945E-01  0.94825945988E-01  0.89190378426E+00  0.88000000000E+00 0.  1.
        -11    1    4    4    0    0 -0.54509380862E-01  0.44273050821E-01 -0.81074274435E-01  0.10725984676E+00  0.51100000000E-03 0.  1.
         11    1    4    4    0    0 -0.17081047083E-01  0.49330697392E-02 -0.11381307064E-01  0.21116169586E-01  0.51100000000E-03 0. -1.
</event>
<event>
 8    1  0.1129676E+005  0.1043930E+01  0.7957747E-01            NaN
         13   -1    0    0    0    0  0.00000000000E+00  0.00000000000E+00  0.74505805969E-08  0.10566000000E+00  0.10566000000E+00 0.  1.
     999900   -1    0    0    0    0 -0.00000000000E+00 -0.00000000000E+00 -0.74505805969E-08  0.93827000000E+00  0.93827000000E+00 0.  1.
     999902    2    1    2    0    0  0.14217683802E-01 -0.10217840397E-01  0.18868529411E-01  0.10181895999E+01  0.10178641821E+01 0.  0.
     999903    2    3    3    0    0 -0.56049214426E-01 -0.11411398525E+00 -0.52756514689E-02  0.12896814977E+00  0.21010356726E-01 0.  0.
         14    1    1    2    0    0 -0.14217683802E-01  0.10217840397E-01 -0.18868529411E-01  0.25740400098E-01  0.00000000000E+00 0.  1.
     999901    1    3    3    0    0  0.70266898228E-01  0.10389614485E+00  0.24144180880E-01  0.88922145013E+00  0.88000000000E+00 0. -1.
        -11    1    4    4    0    0 -0.78189772444E-02 -0.35470885293E-01 -0.53109668883E-02  0.36712226831E-01  0.51100000000E-03 0.  1.
         11    1    4    4    0    0 -0.48230237182E-01 -0.78643099957E-01  0.35315419394E-04  0.92255922941E-01  0.51100000000E-03 0. -1.
</event>
<event>
 8    1  0.1129676E+005  0.1043930E+01  0.7957747E-01            NaN
         13   -1    0    0    0    0  0.00000000000E+00  0.00000000000E+00  0.74505805969E-08  0.10566000000E+00  0.10566000000E+00 0.  1.
     999900   -1    0    0    0    0 -0.00000000000E+00 -0.00000000000E+00 -0.74505805969E-08  0.93827000000E+00  0.93827000000E+00 0.  1.
     999902    2    1    2    0    0 -0.87454798317E-02 -0.14363851465E-01  0.14017734478E-01  0.10220370667E+01  0.10218025569E+01 0.  0.
     999903    2    3    3    0    0 -0.61162860423E-01 -0.11548922917E+00  0.25805469459E-01  0.13461784536E+00  0.19426386308E-01 0.  0.
         14    1    1    2    0    0  0.87454798317E-02  0.14363851465E-01 -0.14017734478E-01  0.21892933250E-01  0.00000000000E+00 0. -1.
     999901    1    3    3    0    0  0.52417380591E-01  0.10112537770E+00 -0.11787734981E-01  0.88741922139E+00  0.88000000000E+00 0. -1.
        -11    1    4    4    0    0 -0.34263629911E-01 -0.69150773474E-01  0.56942149924E-02  0.77385470290E-01  0.51100000000E-03 0.  1.
         11    1    4    4    0    0 -0.26899230512E-01 -0.46338455695E-01  0.20111254467E-01  0.57232375065E-01  0.51100000000E-03 0. -1.
</event>
<event>
 8    1  0.1129676E+005  0.1043930E+01  0.7957747E-01            NaN
         13   -1    0    0    0    0  0.00000000000E+00  0.00000000000E+00  0.74505805969E-08  0.10566000000E+00  0.10566000000E+00 0.  1.
     999900   -1    0    0    0    0 -0.00000000000E+00 -0.00000000000E+00 -0.74505805969E-08  0.93827000000E+00  0.93827000000E+00 0.  1.
     999902    2    1    2    0    0  0.23947114910E-02  0.83047116124E-02  0.21864581008E-01  0.10204190923E+01  0.10201482055E+01 0.  0.
     999903    2    3    3    0    0 -0.12363615039E+00 -0.27798764414E-01 -0.19816006820E-01  0.12973143070E+00  0.19465379533E-01 0.  0.
         14    1    1    2    0    0 -0.23947114910E-02 -0.83047116124E-02 -0.21864581008E-01  0.23510907697E-01  0.00000000000E+00 0. -1.
     999901    1    3    3    0    0  0.12603086188E+00  0.36103476027E-01  0.41680587827E-01  0.89068766160E+00  0.88000000000E+00 0. -1.
        -11    1    4    4    0    0 -0.69043406682E-01 -0.61411810911E-02 -0.75242825377E-02  0.69725046147E-01  0.51100000000E-03 0. -1.
         11    1    4    4    0    0 -0.54592743705E-01 -0.21657583323E-01 -0.12291724282E-01  0.60006384556E-01  0.51100000000E-03 0.  1.
</event>
<event>
 8    1  0.1129676E+005  0.1043930E+01  0.7957747E-01            NaN
         13   -1    0    0    0    0  0.00000000000E+00  0.00000000000E+00  0.74505805969E-08  0.10566000000E+00  0.10566000000E+00 0.  1.
     999900   -1    0    0    0    0 -0.00000000000E+00 -0.00000000000E+00 -0.74505805969E-08  0.93827000000E+00  0.93827000000E+00 0. -1.
     999902    2    1    2    0    0 -0.19631750474E-01 -0.12051339822E-01 -0.46036614320E-02  0.10204388502E+01  0.10201684238E+01 0.  0.
     999903    2    3    3    0    0  0.11152077854E+00 -0.49341346253E-01 -0.41179511114E-01  0.12918730145E+00  0.11052340296E-01 0.  0.
         14    1    1    2    0    0  0.19631750474E-01  0.12051339822E-01  0.46036614320E-02  0.23491149754E-01  0.00000000000E+00 0.  1.
     999901    1    3    3    0    0 -0.13115252901E+00  0.37290006431E-01  0.36575849682E-01  0.89125154879E+00  0.88000000000E+00 0.  1.
        -11    1    4    4    0    0  0.54645429280E-01 -0.21571701802E-01 -0.14600039790E-01  0.60538281630E-01  0.51100000000E-03 0. -1.
         11    1    4    4    0    0  0.56875349255E-01 -0.27769644451E-01 -0.26579471324E-01  0.68649019823E-01  0.51100000000E-03 0.  1.
</event>
<event>
 8    1  0.1129676E+005  0.1043930E+01  0.7957747E-01            NaN
         13   -1    0    0    0    0  0.00000000000E+00  0.00000000000E+00  0.74505805969E-08  0.10566000000E+00  0.10566000000E+00 0. -1.
     999900   -1    0    0    0    0 -0.00000000000E+00 -0.00000000000E+00 -0.74505805969E-08  0.93827000000E+00  0.93827000000E+00 0. -1.
     999902    2    1    2    0    0  0.99964293141E-02 -0.99700475684E-02  0.18949789612E-01  0.10202989828E+01  0.10200252886E+01 0.  0.
     999903    2    3    3    0    0  0.10913269992E+00 -0.13118357472E-01  0.72263530246E-01  0.13312353964E+00  0.20440682655E-01 0.  0.
         14    1    1    2    0    0 -0.99964293141E-02  0.99700475684E-02 -0.18949789612E-01  0.23631017200E-01  0.00000000000E+00 0.  1.
     999901    1    3    3    0    0 -0.99136270610E-01  0.31483099033E-02 -0.53313740634E-01  0.88717544316E+00  0.88000000000E+00 0.  1.
        -11    1    4    4    0    0  0.68260289972E-01 -0.17656026222E-01  0.49126748250E-01  0.85935446491E-01  0.51100000000E-03 0.  1.
         11    1    4    4    0    0  0.40872409951E-01  0.45376687500E-02  0.23136781996E-01  0.47188093149E-01  0.51100000000E-03 0. -1.
</event>
<event>
 8    1  0.1129676E+005  0.1043930E+01  0.7957747E-01            NaN
         13   -1    0    0    0    0  0.00000000000E+00  0.00000000000E+00  0.74505805969E-08  0.10566000000E+00  0.10566000000E+00 0. -1.
     999900   -1    0    0    0    0 -0.00000000000E+00 -0.00000000000E+00 -0.74505805969E-08  0.93827000000E+00  0.93827000000E+00 0.  1.
     999902    2    1    2    0    0 -0.72771224617E-02  0.18108205015E-01  0.12947672368E-01  0.10205097989E+01  0.10202410224E+01 0.  0.
     999903    2    3    3    0    0  0.82981670744E-01  0.16813726699E-01 -0.95685238303E-01  0.12924696745E+00  0.19505247542E-01 0.  0.
         14    1    1    2    0    0  0.72771224617E-02 -0.18108205015E-01 -0.12947672368E-01  0.23420201108E-01  0.00000000000E+00 0.  1.
     999901    1    3    3    0    0 -0.90258793205E-01  0.12944783158E-02  0.10863291067E+00  0.89126283144E+00  0.88000000000E+00 0. -1.
        -11    1    4    4    0    0  0.33070159322E-01  0.14901340037E-02 -0.25601721335E-01  0.41851704783E-01  0.51100000000E-03 0.  1.
         11    1    4    4    0    0  0.49911511422E-01  0.15323592695E-01 -0.70083516967E-01  0.87395262669E-01  0.51100000000E-03 0. -1.
</event>
<event>
 8    1  0.1129676E+005  0.1043930E+01  0.7957747E-01            NaN
         13   -1    0    0    0    0  0.00000000000E+00  0.00000000000E+00  0.74505805969E-08  0.10566000000E+00  0.10566000000E+00 0.  1.
     999900   -1    0    0    0    0 -0.00000000000E+00 -0.00000000000E+00 -0.74505805969E-08  0.93827000000E+00  0.93827000000E+00 0. -1.
     999902    2    1    2    0    0  0.11332222057E-01 -0.18630553408E-01  0.82157800832E-02  0.10206273002E+01  0.10203612449E+01 0.  0.
     999903    2    3    3    0    0  0.10248305972E+00  0.77025943643E-01 -0.13523043108E-01  0.13049741242E+00  0.20271369713E-01 0.  0.
         14    1    1    2    0    0 -0.11332222057E-01  0.18630553408E-01 -0.82157800832E-02  0.23302699831E-01  0.00000000000E+00 0. -1.
     999901    1    3    3    0    0 -0.91150837659E-01 -0.95656497050E-01  0.21738823192E-01  0.89012988775E+00  0.88000000000E+00 0.  1.
        -11    1    4    4    0    0  0.77252783575E-01  0.50719787484E-01 -0.16673546632E-01  0.93908240803E-01  0.51100000000E-03 0. -1.
         11    1    4    4    0    0  0.25230276142E-01  0.26306156159E-01  0.31505035232E-02  0.36589171615E-01  0.51100000000E-03 0.  1.
</event>
<event>
 8    1  0.1129676E+005  0.1043930E+01  0.7957747E-01            NaN
         13   -1    0    0    0    0  0.00000000000E+00  0.00000000000E+00  0.74505805969E-08  0.10566000000E+00  0.10566000000E+00 0. -1.
     999900   -1    0    0    0    0 -0.00000000000E+00 -0.00000000000E+00 -0.74505805969E-08  0.93827000000E+00  0.93827000000E+00 0.  1.
     999902    2    1    2    0    0 -0.15784278132E-01 -0.82548844926E-02  0.16707530910E-01  0.10195081216E+01  0.10192155719E+01 0.  0.
     999903    2    3    3    0    0 -0.90807861172E-01 -0.51283226348E-01 -0.75809945576E-01  0.13044149889E+00  0.19793934140E-01 0.  0.
         14    1    1    2    0    0  0.15784278132E-01  0.82548844926E-02 -0.16707530910E-01  0.24421878372E-01  0.00000000000E+00 0.  1.
     999901    1    3    3    0    0  0.75023583040E-01  0.43028341855E-01  0.92517476485E-01  0.88906662274E+00  0.88000000000E+00 0. -1.
        -11    1    4    4    0    0 -0.50320661975E-01 -0.33314091800E-01 -0.54357391472E-01  0.81221825039E-01  0.51100000000E-03 0. -1.
         11    1    4    4    0    0 -0.40487199197E-01 -0.17969134547E-01 -0.21452554103E-01  0.49219673848E-01  0.51100000000E-03 0.  1.
</event>
<event>
 8    1  0.1129676E+005  0.1043930E+01  0.7957747E-01            NaN
         13   -1    0    0    0    0  0.00000000000E+00  0.00000000000E+00  0.74505805969E-08  0.10566000000E+00  0.10566000000E+00 0. -1.
     999900   -1    0    0    0    0 -0.00000000000E+00 -0.00000000000E+00 -0.74505805969E-08  0.93827000000E+00  0.93827000000E+00 0.  1.
     999902    2    1    2    0    0  0.39615511813E-02  0.11408187962E-01 -0.20729014896E-01  0.10199397374E+01  0.10196575578E+01 0.  0.
     999903    2    3    3    0    0 -0.11539632794E-01 -0.11378391189E+00 -0.58822418943E-01  0.13012826525E+00  0.19832970389E-01 0.  0.
         14    1    1    2    0    0 -0.39615511813E-02 -0.11408187962E-01  0.20729014896E-01  0.23990262585E-01  0.00000000000E+00 0. -1.
     999901    1    3    3    0    0  0.15501183976E-01  0.12519209986E+00  0.38093404047E-01  0.88981147217E+00  0.88000000000E+00 0.  1.
        -11    1    4    4    0    0 -0.43184468576E-02 -0.93976730692E-01 -0.41442938541E-01  0.10280103682E+00  0.51100000000E-03 0. -1.
         11    1    4    4    0    0 -0.72211859367E-02 -0.19807181203E-01 -0.17379480402E-01  0.27327228428E-01  0.51100000000E-03 0.  1.
</event>
<event>
 8    1  0.1129676E+005  0.1043930E+01  0.7957747E-01            NaN
         13   -1    0    0    0    0  0.00000000000E+00  0.00000000000E+00  0.74505805969E-08  0.10566000000E+00  0.10566000000E+00 0.  1.
     999900   -1    0    0    0    0 -0.00000000000E+00 -0.00000000000E+00 -0.74505805969E-08  0.93827000000E+00  0.93827000000E+00 0. -1.
     999902    2    1    2    0    0 -0.40959848657E-02 -0.78551562847E-02 -0.21566534644E-01  0.10206148549E+01  0.10203485121E+01 0.  0.
     999903    2    3    3    0    0 -0.12190446687E+00  0.84004344735E-02 -0.46413971484E-01  0.13226780690E+00  0.20229919660E-01 0.  0.
         14    1    1    2    0    0  0.40959848657E-02  0.78551562847E-02  0.21566534644E-01  0.23315145053E-01  0.00000000000E+00 0.  1.
     999901    1    3    3    0    0  0.11780848201E+00 -0.16255590758E-01  0.24847436840E-01  0.88834704805E+00  0.88000000000E+00 0. -1.
        -11    1    4    4    0    0 -0.45308608258E-01  0.84303011215E-02 -0.87545818418E-02  0.46913151499E-01  0.51100000000E-03 0.  1.
         11    1    4    4    0    0 -0.76595858614E-01 -0.29866647977E-04 -0.37659389642E-01  0.85354655398E-01  0.51100000000E-03 0. -1.
</event>
<event>
 8    1  0.1129676E+005  0.1043930E+01  0.7957747E-01            NaN
         13   -1    0    0    0    0  0.00000000000E+00  0.00000000000E+00  0.74505805969E-08  0.10566000000E+00  0.10566000000E+00 0. -1.
     999900   -1    0    0    0    0 -0.00000000000E+00 -0.00000000000E+00 -0.74505805969E-08  0.93827000000E+00  0.93827000000E+00 0.  1.
     999902    2    1    2    0    0 -0.13189111100E-01 -0.86129346292E-02 -0.19213358732E-01  0.10190847097E+01  0.10187818006E+01 0.  0.
     999903    2    3    3    0    0 -0.10337543523E+00 -0.50132892734E-01 -0.62178535668E-01  0.13245993769E+00  0.21901535378E-01 0.  0.
         14    1    1    2    0    0  0.13189111100E-01  0.86129346292E-02  0.19213358732E-01  0.24845290264E-01  0.00000000000E+00 0. -1.
     999901    1    3    3    0    0  0.90186324129E-01  0.41519958105E-01  0.42965176936E-01  0.88662477205E+00  0.88000000000E+00 0.  1.
        -11    1    4    4    0    0 -0.13589328794E-01 -0.12067624515E-01 -0.31167116676E-02  0.18446474762E-01  0.51100000000E-03 0. -1.
         11    1    4    4    0    0 -0.89786106434E-01 -0.38065268219E-01 -0.59061824000E-01  0.11401346293E+00  0.51100000000E-03 0.  1.
</event>
<event>
 8    1  0.1129676E+005  0.1043930E+01  0.7957747E-01            NaN
         13   -1    0    0    0    0  0.00000000000E+00  0.00000000000E+00  0.74505805969E-08  0.10566000000E+00  0.10566000000E+00 0. -1.
     999900   -1    0    0    0    0 -0.00000000000E+00 -0.00000000000E+00 -0.74505805969E-08  0.93827000000E+00  0.93827000000E+00 0. -1.
     999902    2    1    2    0    0  0.18973840161E-01 -0.13688969309E-01  0.77416012089E-03  0.10205207323E+01  0.10202522096E+01 0.  0.
     999903    2    3    3    0    0 -0.47660375849E-01  0.11506553149E+00 -0.23324807519E-01  0.12833319568E+00  0.20341447953E-01 0.  0.
         14    1    1    2    0    0 -0.18973840161E-01  0.13688969309E-01 -0.77416012089E-03  0.23409267718E-01  0.00000000000E+00 0. -1.
     999901    1    3    3    0    0  0.66634216010E-01 -0.12875450080E+00  0.24098967640E-01  0.89218753660E+00  0.88000000000E+00 0.  1.
        -11    1    4    4    0    0 -0.29413609878E-01  0.45309258117E-01 -0.78941406608E-02  0.54595493357E-01  0.51100000000E-03 0. -1.
         11    1    4    4    0    0 -0.18246765971E-01  0.69756273376E-01 -0.15430666858E-01  0.73737702327E-01  0.51100000000E-03 0.  1.
</event>
<event>
 8    1  0.1129676E+005  0.1043930E+01  0.7957747E-01            NaN
         13   -1    0    0    0    0  0.00000000000E+00  0.00000000000E+00  0.74505805969E-08  0.10566000000E+00  0.10566000000E+00 0. -1.
     999900   -1    0    0    0    0 -0.00000000000E+00 -0.00000000000E+00 -0.74505805969E-08  0.93827000000E+00  0.93827000000E+00 0.  1.
     999902    2    1    2    0    0 -0.16527179608E-02  0.89776521914E-02 -0.20575620105E-01  0.10214203163E+01  0.10211722562E+01 0.  0.
     999903    2    3    3    0    0 -0.45751615673E-01  0.11533317658E+00  0.39902721480E-01  0.13186208883E+00  0.20010780361E-01 0.  0.
         14    1    1    2    0    0  0.16527179608E-02 -0.89776521914E-02  0.20575620105E-01  0.22509683654E-01  0.00000000000E+00 0. -1.
     999901    1    3    3    0    0  0.44098897713E-01 -0.10635552439E+00 -0.60478341585E-01  0.88955822752E+00  0.88000000000E+00 0. -1.
        -11    1    4    4    0    0 -0.27958206555E-01  0.88888144089E-01  0.23930369660E-01  0.96206482039E-01  0.51100000000E-03 0. -1.
         11    1    4    4    0    0 -0.17793409118E-01  0.26445032493E-01  0.15972351820E-01  0.35655606786E-01  0.51100000000E-03 0.  1.
</event>
<event>
 7    1  0.1575546E+005  0.1043930E+01  0.7957747E-01            NaN
         13   -1    0    0    0    0  0.00000000000E+00  0.00000000000E+00  0.74505805969E-08  0.10566000000E+00  0.10566000000E+00 0.  1.
     999900   -1    0    0    0    0 -0.00000000000E+00 -0.00000000000E+00 -0.74505805969E-08  0.93827000000E+00  0.93827000000E+00 0.  1.
     999903    2    1    2    0    0  0.19589163615E-01  0.42754460788E-01 -0.97482420328E-01  0.11023889486E+00  0.20931135138E-01 0.  0.
         14    1    1    2    0    0  0.14112825682E-01 -0.43412939240E-01  0.19368176284E-01  0.49588117476E-01  0.00000000000E+00 0.  1.
     999901    1    1    2    0    0 -0.33701989298E-01  0.65847845258E-03  0.78114244045E-01  0.88410298767E+00  0.88000000000E+00 0. -1.
        -11    1    3    3    0    0  0.21762279513E-01  0.28410385518E-01 -0.57795890702E-01  0.67980680475E-01  0.51100000000E-03 0. -1.
         11    1    3    3    0    0 -0.21731158974E-02  0.14344075269E-01 -0.39686529627E-01  0.42258214383E-01  0.51100000000E-03 0.  1.
</event>
<event>
 8    1  0.1129676E+005  0.1043930E+01  0.7957747E-01            NaN
         13   -1    0    0    0    0  0.00000000000E+00  0.00000000000E+00  0.74505805969E-08  0.10566000000E+00  0.10566000000E+00 0.  1.
     999900   -1    0    0    0    0 -0.00000000000E+00 -0.00000000000E+00 -0.74505805969E-08  0.93827000000E+00  0.93827000000E+00 0. -1.
     999902    2    1    2    0    0  0.19369668954E-01  0.69219059167E-02 -0.11390797015E-02  0.10233291660E+01  0.10231217854E+01 0.  0.
     999903    2    3    3    0    0 -0.11098684795E+00  0.71365207034E-02  0.65496929568E-01  0.13123431387E+00  0.23739987534E-01 0.  0.
         14    1    1    2    0    0 -0.19369668954E-01 -0.69219059167E-02  0.11390797015E-02  0.20600833951E-01  0.00000000000E+00 0.  1.
     999901    1    3    3    0    0  0.13035651690E+00 -0.21461478675E-03 -0.66636009269E-01  0.89209485218E+00  0.88000000000E+00 0.  1.
        -11    1    4    4    0    0 -0.51783626804E-02  0.52589950609E-02  0.75972242289E-02  0.10604310731E-01  0.51100000000E-03 0. -1.
         11    1    4    4    0    0 -0.10580848527E+00  0.18775256425E-02  0.57899705339E-01  0.12063000314E+00  0.51100000000E-03 0.  1.
</event>
<event>
 8    1  0.1129676E+005  0.1043930E+01  0.7957747E-01            NaN
         13   -1    0    0    0    0  0.00000000000E+00  0.00000000000E+00  0.74505805969E-08  0.10566000000E+00  0.10566000000E+00 0. -1.
     999900   -1    0    0    0    0 -0.00000000000E+00 -0.00000000000E+00 -0.74505805969E-08  0.93827000000E+00  0.93827000000E+00 0.  1.
     999902    2    1    2    0    0  0.23269714275E-01  0.87772592700E-02 -0.31854820782E-02  0.10188567637E+01  0.10185482010E+01 0.  0.
     999903    2    3    3    0    0 -0.84177705971E-02  0.12676701901E+00 -0.20675640131E-01  0.13024459535E+00  0.19885586546E-01 0.  0.
         14    1    1    2    0    0 -0.23269714275E-01 -0.87772592700E-02  0.31854820782E-02  0.25073236305E-01  0.00000000000E+00 0.  1.
     999901    1    3    3    0    0  0.31687484872E-01 -0.11798975974E+00  0.17490158053E-01  0.88861216834E+00  0.88000000000E+00 0. -1.
        -11    1    4    4    0    0 -0.41888085752E-02  0.81595805201E-01 -0.36585338704E-02  0.81786719795E-01  0.51100000000E-03 0.  1.
         11    1    4    4    0    0 -0.42289620219E-02  0.45171213810E-01 -0.17017106260E-01  0.48457875555E-01  0.51100000000E-03 0. -1.
</event>
<event>
 8    1  0.1129676E+005  0.1043930E+01  0.7957747E-01            NaN
         13   -1    0    0    0    0  0.00000000000E+00  0.00000000000E+00  0.74505805969E-08  0.10566000000E+00  0.10566000000E+00 0.  1.
     999900   -1    0    0    0    0 -0.00000000000E+00 -0.00000000000E+00 -0.74505805969E-08  0.93827000000E+00  0.93827000000E+00 0. -1.
     999902    2    1    2    0    0  0.25316247873E-01 -0.17370736015E-01  0.10540379154E-01  0.10114684155E+01  0.10109473780E+01 0.  0.
     999903    2    3    3    0    0 -0.43069801365E-01  0.10903859862E+00  0.13680543006E-01  0.11980377436E+00  0.20527136063E-01 0.  0.
         14    1    1    2    0    0 -0.25316247873E-01  0.17370736015E-01 -0.10540379154E-01  0.32461584508E-01  0.00000000000E+00 0. -1.
     999901    1    3    3    0    0  0.68386049238E-01 -0.12640933464E+00 -0.31401638524E-02  0.89166464113E+00  0.88000000000E+00 0.  1.
        -11    1    4    4    0    0 -0.10451960635E-01  0.20887196699E-01  0.10872279145E-01  0.25767926611E-01  0.51100000000E-03 0. -1.
         11    1    4    4    0    0 -0.32617840729E-01  0.88151401925E-01  0.28082638614E-02  0.94035847750E-01  0.51100000000E-03 0.  1.
</event>
<event>
 8    1  0.1129676E+005  0.1043930E+01  0.7957747E-01            NaN
         13   -1    0    0    0    0  0.00000000000E+00  0.00000000000E+00  0.74505805969E-08  0.10566000000E+00  0.10566000000E+00 0. -1.
     999900   -1    0    0    0    0 -0.00000000000E+00 -0.00000000000E+00 -0.74505805969E-08  0.93827000000E+00  0.93827000000E+00 0. -1.
     999902    2    1    2    0    0 -0.72169201605E-02 -0.17381022648E-01  0.14828119853E-01  0.10199705129E+01  0.10196890654E+01 0.  0.
     999903    2    3    3    0    0  0.13986831761E-01  0.24854801892E-02  0.12971474625E+00  0.13202726359E+00  0.20086658804E-01 0.  0.
         14    1    1    2    0    0  0.72169201605E-02  0.17381022648E-01 -0.14828119853E-01  0.23959487125E-01  0.00000000000E+00 0. -1.
     999901    1    3    3    0    0 -0.21203751922E-01 -0.19866502838E-01 -0.11488662640E+00  0.88794324929E+00  0.88000000000E+00 0. -1.
        -11    1    4    4    0    0  0.10093850113E-02 -0.75475337303E-02  0.55311229473E-01  0.55835269770E-01  0.51100000000E-03 0. -1.
         11    1    4    4    0    0  0.12977446750E-01  0.10033013919E-01  0.74403516775E-01  0.76191993818E-01  0.51100000000E-03 0.  1.
</event>
<event>
 8    1  0.1129676E+005  0.1043930E+01  0.7957747E-01            NaN
         13   -1    0    0    0    0  0.00000000000E+00  0.00000000000E+00  0.74505805969E-08  0.10566000000E+00  0.10566000000E+00 0.  1.
     999900   -1    0    0    0    0 -0.00000000000E+00 -0.00000000000E+00 -0.74505805969E-08  0.93827000000E+00  0.93827000000E+00 0.  1.
     999902    2    1    2    0    0  0.56510234368E-02 -0.22145043678E-01  0.38532642961E-02  0.10207527553E+01  0.10204895898E+01 0.  0.
     999903    2    3    3    0    0 -0.35929392125E-01  0.27013309176E-01 -0.12003489625E+00  0.12974559994E+00  0.20122233851E-01 0.  0.
         14    1    1    2    0    0 -0.56510234368E-02  0.22145043678E-01 -0.38532642961E-02  0.23177244683E-01  0.00000000000E+00 0. -1.
     999901    1    3    3    0    0  0.41580415562E-01 -0.49158352854E-01  0.12388816054E+00  0.89100715538E+00  0.88000000000E+00 0. -1.
        -11    1    4    4    0    0 -0.20135903974E-01  0.34362292728E-02 -0.58894157846E-01  0.62338152442E-01  0.51100000000E-03 0. -1.
         11    1    4    4    0    0 -0.15793488151E-01  0.23577079904E-01 -0.61140738401E-01  0.67407447496E-01  0.51100000000E-03 0.  1.
</event>
<event>
 8    1  0.1129676E+005  0.1043930E+01  0.7957747E-01            NaN
         13   -1    0    0    0    0  0.00000000000E+00  0.00000000000E+00  0.74505805969E-08  0.10566000000E+00  0.10566000000E+00 0.  1.
     999900   -1    0    0    0    0 -0.00000000000E+00 -0.00000000000E+00 -0.74505805969E-08  0.93827000000E+00  0.93827000000E+00 0. -1.
     999902    2    1    2    0    0  0.15739596021E-01 -0.17318484646E-01 -0.14245343564E-01  0.10165330183E+01  0.10161637578E+01 0.  0.
     999903    2    3    3    0    0 -0.94946334628E-02 -0.12170787028E+00 -0.42121403112E-01  0.12956572190E+00  0.10493328317E-01 0.  0.
         14    1    1    2    0    0 -0.15739596021E-01  0.17318484646E-01  0.14245343564E-01  0.27396981706E-01  0.00000000000E+00 0. -1.
     999901    1    3    3    0    0  0.25234229484E-01  0.10438938563E+00  0.27876059548E-01  0.88696729639E+00  0.88000000000E+00 0.  1.
        -11    1    4    4    0    0 -0.93182070644E-02 -0.10349232402E+00 -0.39443342351E-01  0.11114642815E+00  0.51100000000E-03 0.  1.
         11    1    4    4    0    0 -0.17642639837E-03 -0.18215546266E-01 -0.26780607610E-02  0.18419293756E-01  0.51100000000E-03 0. -1.
</event>
<event>
 8    1  0.1129676E+005  0.1043930E+01  0.7957747E-01            NaN
         13   -1    0    0    0    0  0.00000000000E+00  0.00000000000E+00  0.74505805969E-08  0.10566000000E+00  0.10566000000E+00 0.  1.
     999900   -1    0    0    0    0 -0.00000000000E+00 -0.00000000000E+00 -0.74505805969E-08  0.93827000000E+00  0.93827000000E+00 0.  1.
     999902    2    1    2    0    0 -0.80142128044E-02 -0.71176806432E-02 -0.21153681737E-01  0.10202157166E+01  0.10199400675E+01 0.  0.
     999903    2    3    3    0    0 -0.12111627023E+00  0.43470885639E-02 -0.51753472465E-01  0.13237571780E+00  0.12524402553E-01 0.  0.
         14    1    1    2    0    0  0.80142128044E-02  0.71176806432E-02  0.21153681737E-01  0.23714283368E-01  0.00000000000E+00 0.  1.
     999901    1    3    3    0    0  0.11310205742E+00 -0.11464769207E-01  0.30599790728E-01  0.88783999883E+00  0.88000000000E+00 0.  1.
        -11    1    4    4    0    0 -0.52504239027E-01  0.16312324319E-02 -0.15752530205E-01  0.54843042985E-01  0.51100000000E-03 0.  1.
         11    1    4    4    0    0 -0.68612031200E-01  0.27158561320E-02 -0.36000942261E-01  0.77532674819E-01  0.51100000000E-03 0. -1.
</event>
<event>
 8    1  0.1129676E+005  0.1043930E+01  0.7957747E-01            NaN
         13   -1    0    0    0    0  0.00000000000E+00  0.00000000000E+00  0.74505805969E-08  0.10566000000E+00  0.10566000000E+00 0. -1.
     999900   -1    0    0    0    0 -0.00000000000E+00 -0.00000000000E+00 -0.74505805969E-08  0.93827000000E+00  0.93827000000E+00 0. -1.
     999902    2    1    2    0    0 -0.14758625017E-01 -0.27122259401E-02  0.17734812430E-01  0.10206986257E+01  0.10204342153E+01 0.  0.
     999903    2    3    3    0    0 -0.12756599203E+00  0.26878116478E-01 -0.12766840209E-01  0.13248049860E+00  0.19813501294E-01 0.  0.
         14    1    1    2    0    0  0.14758625017E-01  0.27122259401E-02 -0.17734812430E-01  0.23231374343E-01  0.00000000000E+00 0.  1.
     999901    1    3    3    0    0  0.11280736701E+00 -0.29590342418E-01  0.30501652639E-01  0.88821812706E+00  0.88000000000E+00 0. -1.
        -11    1    4    4    0    0 -0.88872106093E-01  0.26530774207E-01 -0.13787193952E-01  0.93768230544E-01  0.51100000000E-03 0. -1.
         11    1    4    4    0    0 -0.38693885934E-01  0.34734227086E-03  0.10203537430E-02  0.38712268057E-01  0.51100000000E-03 0.  1.
</event>
<event>
 8    1  0.1129676E+005  0.1043930E+01  0.7957747E-01            NaN
         13   -1    0    0    0    0  0.00000000000E+00  0.00000000000E+00  0.74505805969E-08  0.10566000000E+00  0.10566000000E+00 0. -1.
     999900   -1    0    0    0    0 -0.00000000000E+00 -0.00000000000E+00 -0.74505805969E-08  0.93827000000E+00  0.93827000000E+00 0. -1.
     999902    2    1    2    0    0 -0.39883576574E-02 -0.99254092855E-02 -0.20445103211E-01  0.10208557071E+01  0.10205949009E+01 0.  0.
     999903    2    3    3    0    0  0.12412346201E+00 -0.33687543634E-01 -0.17084963295E-01  0.13125547786E+00  0.19865046693E-01 0.  0.
         14    1    1    2    0    0  0.39883576574E-02  0.99254092855E-02  0.20445103211E-01  0.23074292873E-01  0.00000000000E+00 0. -1.
     999901    1    3    3    0    0 -0.12811181967E+00  0.23762134349E-01 -0.33601399160E-02  0.88960022926E+00  0.88000000000E+00 0. -1.
        -11    1    4    4    0    0  0.62577213715E-01 -0.23058198086E-01 -0.16881843061E-01  0.68795682433E-01  0.51100000000E-03 0. -1.
         11    1    4    4    0    0  0.61546248297E-01 -0.10629345548E-01 -0.20312023370E-03  0.62459795429E-01  0.51100000000E-03 0.  1.
</event>
<event>
 8    1  0.1129676E+005  0.1043930E+01  0.7957747E-01            NaN
         13   -1    0    0    0    0  0.00000000000E+00  0.00000000000E+00  0.74505805969E-08  0.10566000000E+00  0.10566000000E+00 0.  1.
     999900   -1    0    0    0    0 -0.00000000000E+00 -0.00000000000E+00 -0.74505805969E-08  0.93827000000E+00  0.93827000000E+00 0. -1.
     999902    2    1    2    0    0  0.15612930058E-01  0.16795182038E-01  0.46037850885E-02  0.10205411873E+01  0.10202731391E+01 0.  0.
     999903    2    3    3    0    0 -0.69595178721E-01 -0.22444676765E-01  0.10525847126E+00  0.12984957161E+00  0.20840178957E-01 0.  0.
         14    1    1    2    0    0 -0.15612930058E-01 -0.16795182038E-01 -0.46037850885E-02  0.23388812749E-01  0.00000000000E+00 0. -1.
     999901    1    3    3    0    0  0.85208108779E-01  0.39239858803E-01 -0.10065468617E+00  0.89069161564E+00  0.88000000000E+00 0.  1.
        -11    1    4    4    0    0 -0.11946501170E-01 -0.12877291875E-01  0.22966837837E-01  0.28918511329E-01  0.51100000000E-03 0.  1.
         11    1    4    4    0    0 -0.57648677551E-01 -0.95673848896E-02  0.82291633426E-01  0.10093106028E+00  0.51100000000E-03 0. -1.
</event>
<event>
 8    1  0.1129676E+005  0.1043930E+01  0.7957747E-01            NaN
         13   -1    0    0    0    0  0.00000000000E+00  0.00000000000E+00  0.74505805969E-08  0.10566000000E+00  0.10566000000E+00 0. -1.
     999900   -1    0    0    0    0 -0.00000000000E+00 -0.00000000000E+00 -0.74505805969E-08  0.93827000000E+00  0.93827000000E+00 0.  1.
     999902    2    1    2    0    0 -0.60061006644E-02  0.18343478781E-01  0.14310361571E-01  0.10199020391E+01  0.10196189614E+01 0.  0.
     999903    2    3    3    0    0 -0.74178074402E-01  0.29729093247E-01 -0.99909972127E-01  0.12983275251E+00  0.22098311841E-01 0.  0.
         14    1    1    2    0    0  0.60061006644E-02 -0.18343478781E-01 -0.14310361571E-01  0.24027960947E-01  0.00000000000E+00 0.  1.
     999901    1    3    3    0    0  0.68171973738E-01 -0.11385614466E-01  0.11422033370E+00  0.89006928654E+00  0.88000000000E+00 0. -1.
        -11    1    4    4    0    0 -0.38539780140E-01  0.40908012279E-02 -0.51871040030E-01  0.64752723670E-01  0.51100000000E-03 0.  1.
         11    1    4    4    0    0 -0.35638294262E-01  0.25638292019E-01 -0.48038932097E-01  0.65080028838E-01  0.51100000000E-03 0. -1.
</event>
<event>
 8    1  0.1129676E+005  0.1043930E+01  0.7957747E-01            NaN
         13   -1    0    0    0    0  0.00000000000E+00  0.00000000000E+00  0.74505805969E-08  0.10566000000E+00  0.10566000000E+00 0. -1.
     999900   -1    0    0    0    0 -0.00000000000E+00 -0.00000000000E+00 -0.74505805969E-08  0.93827000000E+00  0.93827000000E+00 0.  1.
     999902    2    1    2    0    0 -0.64454574067E-02 -0.85142262327E-02 -0.22360050274E-01  0.10191508189E+01  0.10188495393E+01 0.  0.
     999903    2    3    3    0    0  0.16828702706E-01 -0.12198469253E+00 -0.40856862826E-01  0.13136741886E+00  0.20606917554E-01 0.  0.
         14    1    1    2    0    0  0.64454574067E-02  0.85142262327E-02  0.22360050274E-01  0.24779181136E-01  0.00000000000E+00 0. -1.
     999901    1    3    3    0    0 -0.23274160113E-01  0.11347046630E+00  0.18496812552E-01  0.88778340001E+00  0.88000000000E+00 0.  1.
        -11    1    4    4    0    0  0.10741356051E-01 -0.10537127267E+00 -0.28204269437E-01  0.10960941460E+00  0.51100000000E-03 0. -1.
         11    1    4    4    0    0  0.60873466550E-02 -0.16613419858E-01 -0.12652593388E-01  0.21758004254E-01  0.51100000000E-03 0.  1.
</event>
<event>
 8    1  0.1129676E+005  0.1043930E+01  0.7957747E-01            NaN
         13   -1    0    0    0    0  0.00000000000E+00  0.00000000000E+00  0.74505805969E-08  0.10566000000E+00  0.10566000000E+00 0.  1.
     999900   -1    0    0    0    0 -0.00000000000E+00 -0.00000000000E+00 -0.74505805969E-08  0.93827000000E+00  0.93827000000E+00 0. -1.
     999902    2    1    2    0    0  0.20961194883E-01 -0.82499491832E-02 -0.15527167512E-01  0.10165707916E+01  0.10162025625E+01 0.  0.
     999903    2    3    3    0    0  0.54273166882E-01  0.77616286534E-01 -0.85322118519E-01  0.12901570425E+00  0.19882742696E-01 0.  0.
         14    1    1    2    0    0 -0.20961194883E-01  0.82499491832E-02  0.15527167512E-01  0.27359208384E-01  0.00000000000E+00 0.  1.
     999901    1    3    3    0    0 -0.33311971999E-01 -0.85866235717E-01  0.69794951007E-01  0.88755508736E+00  0.88000000000E+00 0.  1.
        -11    1    4    4    0    0  0.25005948509E-01  0.29405801944E-01 -0.47027011432E-01  0.60842415912E-01  0.51100000000E-03 0.  1.
         11    1    4    4    0    0  0.29267218373E-01  0.48210484589E-01 -0.38295107087E-01  0.68173288343E-01  0.51100000000E-03 0. -1.
</event>
<event>
 8    1  0.1129676E+005  0.1043930E+01  0.7957747E-01            NaN
         13   -1    0    0    0    0  0.00000000000E+00  0.00000000000E+00  0.74505805969E-08  0.10566000000E+00  0.10566000000E+00 0. -1.
     999900   -1    0    0    0    0 -0.00000000000E+00 -0.00000000000E+00 -0.74505805969E-08  0.93827000000E+00  0.93827000000E+00 0.  1.
     999902    2    1    2    0    0  0.12506798095E-01  0.19600803260E-01  0.29767210502E-02  0.10204891733E+01  0.10202199177E+01 0.  0.
     999903    2    3    3    0    0 -0.13271542507E-02  0.17481660503E-02 -0.12868718602E+00  0.13040744712E+00  0.20997452170E-01 0.  0.
         14    1    1    2    0    0 -0.12506798095E-01 -0.19600803260E-01 -0.29767210502E-02  0.23440826676E-01  0.00000000000E+00 0. -1.
     999901    1    3    3    0    0  0.13833952346E-01  0.17852637210E-01  0.13166390707E+00  0.89008172620E+00  0.88000000000E+00 0. -1.
        -11    1    4    4    0    0  0.18638978647E-02  0.78129817136E-02 -0.11293568572E+00  0.11322211369E+00  0.51100000000E-03 0. -1.
         11    1    4    4    0    0 -0.31910521155E-02 -0.60648156633E-02 -0.15751500297E-01  0.17185333434E-01  0.51100000000E-03 0.  1.
</event>
<event>
 8    1  0.1129676E+005  0.1043930E+01  0.7957747E-01            NaN
         13   -1    0    0    0    0  0.00000000000E+00  0.00000000000E+00  0.74505805969E-08  0.10566000000E+00  0.10566000000E+00 0. -1.
     999900   -1    0    0    0    0 -0.00000000000E+00 -0.00000000000E+00 -0.74505805969E-08  0.93827000000E+00  0.93827000000E+00 0. -1.
     999902    2    1    2    0    0 -0.16391216806E-01 -0.10552901406E-01 -0.13402686919E-01  0.10202727023E+01  0.10199983919E+01 0.  0.
     999903    2    3    3    0    0  0.79021495863E-01 -0.71894953784E-01 -0.73109480597E-01  0.13098572146E+00  0.19974530924E-01 0.  0.
         14    1    1    2    0    0  0.16391216806E-01  0.10552901406E-01  0.13402686919E-01  0.23657297671E-01  0.00000000000E+00 0. -1.
     999901    1    3    3    0    0 -0.95412712669E-01  0.61342052378E-01  0.59706793678E-01  0.88928698087E+00  0.88000000000E+00 0.  1.
        -11    1    4    4    0    0  0.48815940852E-01 -0.51480214649E-01 -0.38526956746E-01  0.80732868763E-01  0.51100000000E-03 0.  1.
         11    1    4    4    0    0  0.30205555012E-01 -0.20414739135E-01 -0.34582523851E-01  0.50252852699E-01  0.51100000000E-03 0. -1.
</event>
<event>
 8    1  0.1129676E+005  0.1043930E+01  0.7957747E-01            NaN
         13   -1    0    0    0    0  0.00000000000E+00  0.00000000000E+00  0.74505805969E-08  0.10566000000E+00  0.10566000000E+00 0.  1.
     999900   -1    0    0    0    0 -0.00000000000E+00 -0.00000000000E+00 -0.74505805969E-08  0.93827000000E+00  0.93827000000E+00 0.  1.
     999902    2    1    2    0    0  0.39393673915E-02 -0.10963107518E-01 -0.19728030612E-01  0.10210192267E+01  0.10207621455E+01 0.  0.
     999903    2    3    3    0    0  0.31510141509E-01 -0.55573524036E-01 -0.11596315849E+00  0.13422080727E+00  0.22055960299E-01 0.  0.
         14    1    1    2    0    0 -0.39393673915E-02  0.10963107518E-01  0.19728030612E-01  0.22910773311E-01  0.00000000000E+00 0.  1.
     999901    1    3    3    0    0 -0.27570774117E-01  0.44610416518E-01  0.96235127881E-01  0.88679841942E+00  0.88000000000E+00 0. -1.
        -11    1    4    4    0    0  0.18094752066E-01 -0.24504246006E-01 -0.34612856214E-01  0.46110617659E-01  0.51100000000E-03 0. -1.
         11    1    4    4    0    0  0.13415389443E-01 -0.31069278030E-01 -0.81350302279E-01  0.88110189610E-01  0.51100000000E-03 0.  1.
</event>
<event>
 8    1  0.1129676E+005  0.1043930E+01  0.7957747E-01            NaN
         13   -1    0    0    0    0  0.00000000000E+00  0.00000000000E+00  0.74505805969E-08  0.10566000000E+00  0.10566000000E+00 0. -1.
     999900   -1    0    0    0    0 -0.00000000000E+00 -0.00000000000E+00 -0.74505805969E-08  0.93827000000E+00  0.93827000000E+00 0.  1.
     999902    2    1    2    0    0 -0.22223139855E-01  0.15042245715E-02  0.61194375297E-02  0.10208306894E+01  0.10205693108E+01 0.  0.
     999903    2    3    3    0    0  0.38522605519E-01 -0.71956252891E-01 -0.98177730092E-01  0.12955946997E+00  0.22024897435E-01 0.  0.
         14    1    1    2    0    0  0.22223139855E-01 -0.15042245715E-02 -0.61194375297E-02  0.23099310644E-01  0.00000000000E+00 0. -1.
     999901    1    3    3    0    0 -0.60745745374E-01  0.73460477463E-01  0.10429716762E+00  0.89127121938E+00  0.88000000000E+00 0. -1.
        -11    1    4    4    0    0  0.27585807007E-01 -0.51026307317E-01 -0.83762350403E-01  0.10188745385E+00  0.51100000000E-03 0.  1.
         11    1    4    4    0    0  0.10936798513E-01 -0.20929945574E-01 -0.14415379688E-01  0.27672016117E-01  0.51100000000E-03 0. -1.
</event>
<event>
 8    1  0.1129676E+005  0.1043930E+01  0.7957747E-01            NaN
         13   -1    0    0    0    0  0.00000000000E+00  0.00000000000E+00  0.74505805969E-08  0.10566000000E+00  0.10566000000E+00 0.  1.
     999900   -1    0    0    0    0 -0.00000000000E+00 -0.00000000000E+00 -0.74505805969E-08  0.93827000000E+00  0.93827000000E+00 0. -1.
     999902    2    1    2    0    0 -0.36725302701E-02 -0.10020548490E-01  0.21474673465E-01  0.10199495815E+01  0.10196676362E+01 0.  0.
     999903    2    3    3    0    0  0.79183896786E-01 -0.34519771349E-01 -0.92808390537E-01  0.12836334443E+00  0.20051102598E-01 0.  0.
         14    1    1    2    0    0  0.36725302701E-02  0.10020548490E-01 -0.21474673465E-01  0.23980418492E-01  0.00000000000E+00 0. -1.
     999901    1    3    3    0    0 -0.82856427056E-01  0.24499222859E-01  0.11428306400E+00  0.89158623708E+00  0.88000000000E+00 0.  1.
        -11    1    4    4    0    0  0.87321594336E-02 -0.15394768394E-02 -0.26175959312E-02  0.92592400753E-02  0.51100000000E-03 0.  1.
         11    1    4    4    0    0  0.70451737352E-01 -0.32980294509E-01 -0.90190794606E-01  0.11910410436E+00  0.51100000000E-03 0. -1.
</event>
<event>
 8    1  0.1144983E+005  0.1043930E+01  0.7957747E-01            NaN
         13   -1    0    0    0    0  0.00000000000E+00  0.00000000000E+00  0.74505805969E-08  0.10566000000E+00  0.10566000000E+00 0. -1.
     999900   -1    0    0    0    0 -0.00000000000E+00 -0.00000000000E+00 -0.74505805969E-08  0.93827000000E+00  0.93827000000E+00 0. -1.
     999902    2    1    2    0    0 -0.12403233660E-01  0.16060824815E-01  0.13330187562E-01  0.10196507043E+01  0.10193616015E+01 0.  0.
     999903    2    3    3    0    0 -0.10959277810E+00  0.69229302186E-01  0.19151517626E-01  0.13268588966E+00  0.20868430587E-01 0.  0.
         14    1    1    2    0    0  0.12403233660E-01 -0.16060824815E-01 -0.13330187562E-01  0.24279295694E-01  0.00000000000E+00 0.  1.
     999901    1    3    3    0    0  0.97189544440E-01 -0.53168477371E-01 -0.58213300649E-02  0.88696481464E+00  0.88000000000E+00 0.  1.
        -11    1    4    4    0    0 -0.68260055605E-01  0.32249746978E-01  0.15726750647E-01  0.77117269002E-01  0.51100000000E-03 0. -1.
         11    1    4    4    0    0 -0.41332722495E-01  0.36979555208E-01  0.34247669790E-02  0.55568620660E-01  0.51100000000E-03 0.  1.
</event>
<event>
 8    1  0.1129676E+005  0.1043930E+01  0.7957747E-01            NaN
         13   -1    0    0    0    0  0.00000000000E+00  0.00000000000E+00  0.74505805969E-08  0.10566000000E+00  0.10566000000E+00 0. -1.
     999900   -1    0    0    0    0 -0.00000000000E+00 -0.00000000000E+00 -0.74505805969E-08  0.93827000000E+00  0.93827000000E+00 0.  1.
     999902    2    1    2    0    0 -0.18758378742E-01 -0.14461468533E-01 -0.69128390686E-02  0.10192561639E+01  0.10189574718E+01 0.  0.
     999903    2    3    3    0    0  0.22206089705E-02  0.11815297052E+00 -0.45778447998E-01  0.12822460275E+00  0.19514786736E-01 0.  0.
         14    1    1    2    0    0  0.18758378742E-01  0.14461468533E-01  0.69128390686E-02  0.24673836125E-01  0.00000000000E+00 0.  1.
     999901    1    3    3    0    0 -0.20978987712E-01 -0.13261443905E+00  0.38865608930E-01  0.89103156113E+00  0.88000000000E+00 0. -1.
        -11    1    4    4    0    0  0.65427855215E-02  0.76749772034E-01 -0.37921967615E-01  0.85858443373E-01  0.51100000000E-03 0. -1.
         11    1    4    4    0    0 -0.43221765510E-02  0.41403198485E-01 -0.78564803831E-02  0.42366159372E-01  0.51100000000E-03 0.  1.
</event>
<event>
 8    1  0.1129676E+005  0.1043930E+01  0.7957747E-01            NaN
         13   -1    0    0    0    0  0.00000000000E+00  0.00000000000E+00  0.74505805969E-08  0.10566000000E+00  0.10566000000E+00 0. -1.
     999900   -1    0    0    0    0 -0.00000000000E+00 -0.00000000000E+00 -0.74505805969E-08  0.93827000000E+00  0.93827000000E+00 0. -1.
     999902    2    1    2    0    0  0.21454757654E-01  0.69797604204E-02  0.10342634064E-02  0.10213447530E+01  0.10210950059E+01 0.  0.
     999903    2    3    3    0    0 -0.78487921540E-01 -0.49053190529E-02 -0.10119735263E+00  0.12972762802E+00  0.20098191681E-01 0.  0.
         14    1    1    2    0    0 -0.21454757654E-01 -0.69797604204E-02 -0.10342634064E-02  0.22585247006E-01  0.00000000000E+00 0. -1.
     999901    1    3    3    0    0  0.99942679193E-01  0.11885079473E-01  0.10223161604E+00  0.89161712498E+00  0.88000000000E+00 0.  1.
        -11    1    4    4    0    0 -0.31347460555E-01 -0.63913691367E-02 -0.27298257887E-01  0.42059111823E-01  0.51100000000E-03 0. -1.
         11    1    4    4    0    0 -0.47140460984E-01  0.14860500838E-02 -0.73899094742E-01  0.87668516192E-01  0.51100000000E-03 0.  1.
</event>
<event>
 8    1  0.1129676E+005  0.1043930E+01  0.7957747E-01            NaN
         13   -1    0    0    0    0  0.00000000000E+00  0.00000000000E+00  0.74505805969E-08  0.10566000000E+00  0.10566000000E+00 0. -1.
     999900   -1    0    0    0    0 -0.00000000000E+00 -0.00000000000E+00 -0.74505805969E-08  0.93827000000E+00  0.93827000000E+00 0. -1.
     999902    2    1    2    0    0  0.14622746720E-01 -0.15532284693E-01  0.75111265818E-02  0.10213137755E+01  0.10210633351E+01 0.  0.
     999903    2    3    3    0    0 -0.17086291880E-01  0.48558980040E-02 -0.12756028155E+00  0.13021028742E+00  0.19172177915E-01 0.  0.
         14    1    1    2    0    0 -0.14622746720E-01  0.15532284693E-01 -0.75111265818E-02  0.22616224529E-01  0.00000000000E+00 0.  1.
     999901    1    3    3    0    0  0.31709038600E-01 -0.20388182697E-01  0.13507140813E+00  0.89110348805E+00  0.88000000000E+00 0.  1.
        -11    1    4    4    0    0 -0.16993615827E-01  0.99608481958E-02 -0.80738509907E-01  0.83108179975E-01  0.51100000000E-03 0.  1.
         11    1    4    4    0    0 -0.92676053084E-04 -0.51049501918E-02 -0.46821771640E-01  0.47102107445E-01  0.51100000000E-03 0. -1.
</event>
<event>
 8    1  0.1129676E+005  0.1043930E+01  0.7957747E-01            NaN
         13   -1    0    0    0    0  0.00000000000E+00  0.00000000000E+00  0.74505805969E-08  0.10566000000E+00  0.10566000000E+00 0. -1.
     999900   -1    0    0    0    0 -0.00000000000E+00 -0.00000000000E+00 -0.74505805969E-08  0.93827000000E+00  0.93827000000E+00 0.  1.
     999902    2    1    2    0    0 -0.17838371181E-01  0.27489164430E-01  0.19244958450E-01  0.10059269728E+01  0.10052088562E+01 0.  0.
     999903    2    3    3    0    0  0.17180368875E-02  0.11290351408E-01 -0.11330335834E+00  0.11563830565E+00  0.20103309123E-01 0.  0.
         14    1    1    2    0    0  0.17838371181E-01 -0.27489164430E-01 -0.19244958450E-01  0.38003027158E-01  0.00000000000E+00 0.  1.
     999901    1    3    3    0    0 -0.19556408068E-01  0.16198813022E-01  0.13254831679E+00  0.89028866719E+00  0.88000000000E+00 0. -1.
        -11    1    4    4    0    0 -0.72032827376E-02  0.10964022128E-01 -0.83387748041E-01  0.84414896243E-01  0.51100000000E-03 0. -1.
         11    1    4    4    0    0  0.89213196251E-02  0.32632928035E-03 -0.29915610299E-01  0.31223409410E-01  0.51100000000E-03 0.  1.
</event>
<event>
 8    1  0.1129676E+005  0.1043930E+01  0.7957747E-01            NaN
         13   -1    0    0    0    0  0.00000000000E+00  0.00000000000E+00  0.74505805969E-08  0.10566000000E+00  0.10566000000E+00 0.  1.
     999900   -1    0    0    0    0 -0.00000000000E+00 -0.00000000000E+00 -0.74505805969E-08  0.93827000000E+00  0.93827000000E+00 0. -1.
     999902    2    1    2    0    0  0.12532713776E-01 -0.14259453838E-01 -0.12858258045E-01  0.10210010720E+01  0.10207435786E+01 0.  0.
     999903    2    3    3    0    0 -0.11058915476E+00 -0.40427871614E-01 -0.55011556542E-01  0.13104563427E+00  0.16802171175E-01 0.  0.
         14    1    1    2    0    0 -0.12532713776E-01  0.14259453838E-01  0.12858258045E-01  0.22928927980E-01  0.00000000000E+00 0. -1.
     999901    1    3    3    0    0  0.12312186853E+00  0.26168417775E-01  0.42153298496E-01  0.88995543775E+00  0.88000000000E+00 0.  1.
        -11    1    4    4    0    0 -0.56620542047E-01 -0.19078565960E-01 -0.36982170519E-01  0.70269620164E-01  0.51100000000E-03 0.  1.
         11    1    4    4    0    0 -0.53968612710E-01 -0.21349305653E-01 -0.18029386023E-01  0.60776014109E-01  0.51100000000E-03 0. -1.
</event>
<event>
 8    1  0.1129676E+005  0.1043930E+01  0.7957747E-01            NaN
         13   -1    0    0    0    0  0.00000000000E+00  0.00000000000E+00  0.74505805969E-08  0.10566000000E+00  0.10566000000E+00 0.  1.
     999900   -1    0    0    0    0 -0.00000000000E+00 -0.00000000000E+00 -0.74505805969E-08  0.93827000000E+00  0.93827000000E+00 0.  1.
     999902    2    1    2    0    0 -0.52626343915E-03  0.11351123267E-01  0.20119910871E-01  0.10208229499E+01  0.10205613941E+01 0.  0.
     999903    2    3    3    0    0 -0.98726930407E-01 -0.47577388081E-01 -0.65493013043E-01  0.12928186097E+00  0.20343307845E-01 0.  0.
         14    1    1    2    0    0  0.52626343915E-03 -0.11351123267E-01 -0.20119910871E-01  0.23107050138E-01  0.00000000000E+00 0. -1.
     999901    1    3    3    0    0  0.98200666968E-01  0.58928511347E-01  0.85612923914E-01  0.89154108889E+00  0.88000000000E+00 0. -1.
        -11    1    4    4    0    0 -0.46736092739E-01 -0.33772093693E-01 -0.34589463040E-01  0.67242164981E-01  0.51100000000E-03 0.  1.
         11    1    4    4    0    0 -0.51990837668E-01 -0.13805294388E-01 -0.30903550003E-01  0.62039695989E-01  0.51100000000E-03 0. -1.
</event>
<event>
 8    1  0.1129676E+005  0.1043930E+01  0.7957747E-01            NaN
         13   -1    0    0    0    0  0.00000000000E+00  0.00000000000E+00  0.74505805969E-08  0.10566000000E+00  0.10566000000E+00 0.  1.
     999900   -1    0    0    0    0 -0.00000000000E+00 -0.00000000000E+00 -0.74505805969E-08  0.93827000000E+00  0.93827000000E+00 0.  1.
     999902    2    1    2    0    0 -0.22111001433E-01 -0.10979817028E-01  0.21178492846E-02  0.10191522267E+01  0.10188509818E+01 0.  0.
     999903    2    3    3    0    0 -0.62367486432E-01  0.48597423397E-01 -0.10143883936E+00  0.13016740118E+00  0.20057449359E-01 0.  0.
         14    1    1    2    0    0  0.22111001433E-01  0.10979817028E-01 -0.21178492846E-02  0.24777773345E-01  0.00000000000E+00 0. -1.
     999901    1    3    3    0    0  0.40256485000E-01 -0.59577240426E-01  0.10355668864E+00  0.88898482547E+00  0.88000000000E+00 0. -1.
        -11    1    4    4    0    0 -0.30671549131E-01  0.30790116842E-01 -0.68392482450E-01  0.81034363069E-01  0.51100000000E-03 0. -1.
         11    1    4    4    0    0 -0.31695937301E-01  0.17807306555E-01 -0.33046356909E-01  0.49133038112E-01  0.51100000000E-03 0.  1.
</event>
<event>
 8    1  0.1129676E+005  0.1043930E+01  0.7957747E-01            NaN
         13   -1    0    0    0    0  0.00000000000E+00  0.00000000000E+00  0.74505805969E-08  0.10566000000E+00  0.10566000000E+00 0. -1.
     999900   -1    0    0    0    0 -0.00000000000E+00 -0.00000000000E+00 -0.74505805969E-08  0.93827000000E+00  0.93827000000E+00 0. -1.
     999902    2    1    2    0    0  0.30138342452E-02 -0.60820469714E-02 -0.23230981310E-01  0.10197276657E+01  0.10194404148E+01 0.  0.
     999903    2    3    3    0    0 -0.66260513504E-01  0.71496359160E-01  0.77838458513E-01  0.12785750923E+00  0.28045178213E-01 0.  0.
         14    1    1    2    0    0 -0.30138342452E-02  0.60820469714E-02  0.23230981310E-01  0.24202334285E-01  0.00000000000E+00 0. -1.
     999901    1    3    3    0    0  0.69274347749E-01 -0.77578406132E-01 -0.10106943982E+00  0.89187015648E+00  0.88000000000E+00 0. -1.
        -11    1    4    4    0    0 -0.32772652145E-01  0.53563168317E-01  0.55364632231E-01  0.83717162827E-01  0.51100000000E-03 0.  1.
         11    1    4    4    0    0 -0.33487861359E-01  0.17933190843E-01  0.22473826282E-01  0.44140346407E-01  0.51100000000E-03 0. -1.
</event>
<event>
 8    1  0.1129676E+005  0.1043930E+01  0.7957747E-01            NaN
         13   -1    0    0    0    0  0.00000000000E+00  0.00000000000E+00  0.74505805969E-08  0.10566000000E+00  0.10566000000E+00 0.  1.
     999900   -1    0    0    0    0 -0.00000000000E+00 -0.00000000000E+00 -0.74505805969E-08  0.93827000000E+00  0.93827000000E+00 0. -1.
     999902    2    1    2    0    0 -0.14108689875E-01 -0.91638726525E-02  0.10822426228E-01  0.10239260853E+01  0.10237306636E+01 0.  0.
     999903    2    3    3    0    0  0.57937481473E-01  0.70678150229E-01  0.95076300368E-01  0.13338461257E+00  0.19994981875E-01 0.  0.
         14    1    1    2    0    0  0.14108689875E-01  0.91638726525E-02 -0.10822426228E-01  0.20003914653E-01  0.00000000000E+00 0. -1.
     999901    1    3    3    0    0 -0.72046171348E-01 -0.79842022882E-01 -0.84253874140E-01  0.89054147277E+00  0.88000000000E+00 0. -1.
        -11    1    4    4    0    0  0.35849514746E-01  0.57239049487E-01  0.65293942101E-01  0.93941771805E-01  0.51100000000E-03 0.  1.
         11    1    4    4    0    0  0.22087966727E-01  0.13439100742E-01  0.29782358267E-01  0.39442840768E-01  0.51100000000E-03 0. -1.
</event>
<event>
 8    1  0.1129676E+005  0.1043930E+01  0.7957747E-01            NaN
         13   -1    0    0    0    0  0.00000000000E+00  0.00000000000E+00  0.74505805969E-08  0.10566000000E+00  0.10566000000E+00 0.  1.
     999900   -1    0    0    0    0 -0.00000000000E+00 -0.00000000000E+00 -0.74505805969E-08  0.93827000000E+00  0.93827000000E+00 0. -1.
     999902    2    1    2    0    0  0.39359914671E-02  0.21004727902E-01 -0.93230248588E-02  0.10206145670E+01  0.10203482175E+01 0.  0.
     999903    2    3    3    0    0  0.74509659127E-01  0.47910462306E-01 -0.97137010977E-01  0.13302465198E+00  0.20318893425E-01 0.  0.
         14    1    1    2    0    0 -0.39359914671E-02 -0.21004727902E-01  0.93230248588E-02  0.23315432991E-01  0.00000000000E+00 0.  1.
     999901    1    3    3    0    0 -0.70573667660E-01 -0.26905734405E-01  0.87813986118E-01  0.88758991503E+00  0.88000000000E+00 0. -1.
        -11    1    4    4    0    0  0.85549750024E-02  0.12629439567E-01 -0.23781526561E-01  0.28257962907E-01  0.51100000000E-03 0. -1.
         11    1    4    4    0    0  0.65954684125E-01  0.35281022739E-01 -0.73355484416E-01  0.10476668907E+00  0.51100000000E-03 0.  1.
</event>
<event>
 8    1  0.1129676E+005  0.1043930E+01  0.7957747E-01            NaN
         13   -1    0    0    0    0  0.00000000000E+00  0.00000000000E+00  0.74505805969E-08  0.10566000000E+00  0.10566000000E+00 0. -1.
     999900   -1    0    0    0    0 -0.00000000000E+00 -0.00000000000E+00 -0.74505805969E-08  0.93827000000E+00  0.93827000000E+00 0.  1.
     999902    2    1    2    0    0 -0.60939102722E-02  0.22214938764E-01  0.48368572928E-02  0.10203920639E+01  0.10201205466E+01 0.  0.
     999903    2    3    3    0    0 -0.70136676738E-03 -0.11273000656E+00 -0.56550589180E-01  0.12797532473E+00  0.21706411665E-01 0.  0.
         14    1    1    2    0    0  0.60939102722E-02 -0.22214938764E-01 -0.48368572928E-02  0.23537936085E-01  0.00000000000E+00 0. -1.
     999901    1    3    3    0    0 -0.53925435048E-02  0.13494494533E+00  0.61387446473E-01  0.89241673919E+00  0.88000000000E+00 0. -1.
        -11    1    4    4    0    0  0.72413125168E-02 -0.67543196209E-01 -0.25436994977E-01  0.72538415998E-01  0.51100000000E-03 0. -1.
         11    1    4    4    0    0 -0.79426792842E-02 -0.45186810356E-01 -0.31113594203E-01  0.55436908731E-01  0.51100000000E-03 0.  1.
</event>
<event>
 8    1  0.1129676E+005  0.1043930E+01  0.7957747E-01            NaN
         13   -1    0    0    0    0  0.00000000000E+00  0.00000000000E+00  0.74505805969E-08  0.10566000000E+00  0.10566000000E+00 0.  1.
     999900   -1    0    0    0    0 -0.00000000000E+00 -0.00000000000E+00 -0.74505805969E-08  0.93827000000E+00  0.93827000000E+00 0.  1.
     999902    2    1    2    0    0 -0.20196923897E-01 -0.11732235075E-01 -0.26865705564E-02  0.10204187530E+01  0.10201478583E+01 0.  0.
     999903    2    3    3    0    0 -0.14295231686E-01 -0.94176082275E-01 -0.89555211404E-01  0.13228701801E+00  0.20155176073E-01 0.  0.
         14    1    1    2    0    0  0.20196923897E-01  0.11732235075E-01  0.26865705564E-02  0.23511247013E-01  0.00000000000E+00 0.  1.
     999901    1    3    3    0    0 -0.59016922113E-02  0.82443847200E-01  0.86868640847E-01  0.88813173498E+00  0.88000000000E+00 0. -1.
        -11    1    4    4    0    0 -0.98194106242E-02 -0.48349356460E-01 -0.33006134442E-01  0.59361158403E-01  0.51100000000E-03 0.  1.
         11    1    4    4    0    0 -0.44758210618E-02 -0.45826725814E-01 -0.56549076962E-01  0.72925859606E-01  0.51100000000E-03 0. -1.
</event>
<event>
 8    1  0.1129676E+005  0.1043930E+01  0.7957747E-01            NaN
         13   -1    0    0    0    0  0.00000000000E+00  0.00000000000E+00  0.74505805969E-08  0.10566000000E+00  0.10566000000E+00 0. -1.
     999900   -1    0    0    0    0 -0.00000000000E+00 -0.00000000000E+00 -0.74505805969E-08  0.93827000000E+00  0.93827000000E+00 0.  1.
     999902    2    1    2    0    0 -0.13990761055E-02  0.69711376188E-02 -0.22111664732E-01  0.10207032936E+01  0.10204389907E+01 0.  0.
     999903    2    3    3    0    0 -0.77810528954E-01 -0.50690613715E-01 -0.92631128482E-01  0.13270747014E+00  0.20167546490E-01 0.  0.
         14    1    1    2    0    0  0.13990761055E-02 -0.69711376188E-02  0.22111664732E-01  0.23226706415E-01  0.00000000000E+00 0. -1.
     999901    1    3    3    0    0  0.76411452849E-01  0.57661751334E-01  0.70519463750E-01  0.88799582345E+00  0.88000000000E+00 0. -1.
        -11    1    4    4    0    0 -0.18511570492E-01 -0.23096960873E-01 -0.30109420023E-01  0.42225420528E-01  0.51100000000E-03 0. -1.
         11    1    4    4    0    0 -0.59298958462E-01 -0.27593652843E-01 -0.62521708459E-01  0.90482049609E-01  0.51100000000E-03 0.  1.
</event>
<event>
 8    1  0.1129676E+005  0.1043930E+01  0.7957747E-01            NaN
         13   -1    0    0    0    0  0.00000000000E+00  0.00000000000E+00  0.74505805969E-08  0.10566000000E+00  0.10566000000E+00 0. -1.
     999900   -1    0    0    0    0 -0.00000000000E+00 -0.00000000000E+00 -0.74505805969E-08  0.93827000000E+00  0.93827000000E+00 0. -1.
     999902    2    1    2    0    0 -0.21928405871E-01  0.79490557566E-02  0.27748795432E-03  0.10206036314E+01  0.10203370291E+01 0.  0.
     999903    2    3    3    0    0  0.14463372898E-01 -0.10119602947E+00 -0.77387982602E-01  0.12972264245E+00  0.19729130195E-01 0.  0.
         14    1    1    2    0    0  0.21928405871E-01 -0.79490557566E-02 -0.27748795432E-03  0.23326368578E-01  0.00000000000E+00 0.  1.
     999901    1    3    3    0    0 -0.36391778769E-01  0.10914508522E+00  0.77665470556E-01  0.89088098897E+00  0.88000000000E+00 0.  1.
        -11    1    4    4    0    0  0.18207448578E-01 -0.62124258011E-01 -0.45170766718E-01  0.78940445299E-01  0.51100000000E-03 0. -1.
         11    1    4    4    0    0 -0.37440756807E-02 -0.39071771456E-01 -0.32217215884E-01  0.50782197154E-01  0.51100000000E-03 0.  1.
</event>
<event>
 8    1  0.1129676E+005  0.1043930E+01  0.7957747E-01            NaN
         13   -1    0    0    0    0  0.00000000000E+00  0.00000000000E+00  0.74505805969E-08  0.10566000000E+00  0.10566000000E+00 0.  1.
     999900   -1    0    0    0    0 -0.00000000000E+00 -0.00000000000E+00 -0.74505805969E-08  0.93827000000E+00  0.93827000000E+00 0.  1.
     999902    2    1    2    0    0 -0.56859332125E-02  0.17552177615E-01  0.12064689522E-01  0.10218853746E+01  0.10216475681E+01 0.  0.
     999903    2    3    3    0    0  0.12142172732E+00 -0.20495674395E-01  0.32207594707E-01  0.13171138429E+00  0.33871094752E-01 0.  0.
         14    1    1    2    0    0  0.56859332125E-02 -0.17552177615E-01 -0.12064689522E-01  0.22044625395E-01  0.00000000000E+00 0.  1.
     999901    1    3    3    0    0 -0.12710766053E+00  0.38047852011E-01 -0.20142905185E-01  0.89017399032E+00  0.88000000000E+00 0.  1.
        -11    1    4    4    0    0  0.21661196899E-01  0.93227347852E-02  0.56470239582E-02  0.24254295198E-01  0.51100000000E-03 0. -1.
         11    1    4    4    0    0  0.99760530422E-01 -0.29818409181E-01  0.26560570749E-01  0.10745708909E+00  0.51100000000E-03 0.  1.
</event>
<event>
 8    1  0.1129676E+005  0.1043930E+01  0.7957747E-01            NaN
         13   -1    0    0    0    0  0.00000000000E+00  0.00000000000E+00  0.74505805969E-08  0.10566000000E+00  0.10566000000E+00 0.  1.
     999900   -1    0    0    0    0 -0.00000000000E+00 -0.00000000000E+00 -0.74505805969E-08  0.93827000000E+00  0.93827000000E+00 0. -1.
     999902    2    1    2    0    0  0.10536108937E-01 -0.76687247022E-02  0.18321820334E-01  0.10214464943E+01  0.10211990171E+01 0.  0.
     999903    2    3    3    0    0  0.28364552710E-01  0.12141050481E+00 -0.32499825649E-01  0.13040096198E+00  0.20077691349E-01 0.  0.
         14    1    1    2    0    0 -0.10536108937E-01  0.76687247022E-02 -0.18321820334E-01  0.22483505741E-01  0.00000000000E+00 0. -1.
     999901    1    3    3    0    0 -0.17828443773E-01 -0.12907922951E+00  0.50821645982E-01  0.89104553228E+00  0.88000000000E+00 0. -1.
        -11    1    4    4    0    0  0.23431674389E-01  0.57106340697E-01 -0.17939861437E-01  0.64282791335E-01  0.51100000000E-03 0. -1.
         11    1    4    4    0    0  0.49328783206E-02  0.64304164109E-01 -0.14559964211E-01  0.66118170643E-01  0.51100000000E-03 0.  1.
</event>
<event>
 8    1  0.1129676E+005  0.1043930E+01  0.7957747E-01            NaN
         13   -1    0    0    0    0  0.00000000000E+00  0.00000000000E+00  0.74505805969E-08  0.10566000000E+00  0.10566000000E+00 0.  1.
     999900   -1    0    0    0    0 -0.00000000000E+00 -0.00000000000E+00 -0.74505805969E-08  0.93827000000E+00  0.93827000000E+00 0. -1.
     999902    2    1    2    0    0  0.19321377553E-01 -0.36676910234E-02  0.13173126831E-01  0.10202593672E+01  0.10199847437E+01 0.  0.
     999903    2    3    3    0    0  0.69320828867E-01  0.73619183661E-01  0.83577814850E-01  0.13266147047E+00  0.19714286573E-01 0.  0.
         14    1    1    2    0    0 -0.19321377553E-01  0.36676910234E-02 -0.13173126831E-01  0.23670632828E-01  0.00000000000E+00 0. -1.
     999901    1    3    3    0    0 -0.49999451314E-01 -0.77286874684E-01 -0.70404688020E-01  0.88759789670E+00  0.88000000000E+00 0. -1.
        -11    1    4    4    0    0  0.26815839871E-01  0.30367402442E-01  0.46090599981E-01  0.61366708618E-01  0.51100000000E-03 0. -1.
         11    1    4    4    0    0  0.42504988997E-01  0.43251781219E-01  0.37487214870E-01  0.71294761855E-01  0.51100000000E-03 0.  1.
</event>
<event>
 8    1  0.1129676E+005  0.1043930E+01  0.7957747E-01            NaN
         13   -1    0    0    0    0  0.00000000000E+00  0.00000000000E+00  0.74505805969E-08  0.10566000000E+00  0.10566000000E+00 0. -1.
     999900   -1    0    0    0    0 -0.00000000000E+00 -0.00000000000E+00 -0.74505805969E-08  0.93827000000E+00  0.93827000000E+00 0.  1.
     999902    2    1    2    0    0  0.22329994548E-01  0.81894874039E-02  0.43643675158E-02  0.10197485182E+01  0.10194617679E+01 0.  0.
     999903    2    3    3    0    0 -0.82889193094E-01  0.96203828575E-01  0.11412591589E-01  0.12909298476E+00  0.20222673010E-01 0.  0.
         14    1    1    2    0    0 -0.22329994548E-01 -0.81894874039E-02 -0.43643675158E-02  0.24181481846E-01  0.00000000000E+00 0.  1.
     999901    1    3    3    0    0  0.10521918764E+00 -0.88014341171E-01 -0.70482240727E-02  0.89065553339E+00  0.88000000000E+00 0. -1.
        -11    1    4    4    0    0 -0.36294723484E-01  0.56741659987E-01  0.27017594093E-02  0.67412784809E-01  0.51100000000E-03 0.  1.
         11    1    4    4    0    0 -0.46594469610E-01  0.39462168588E-01  0.87108321792E-02  0.61680199952E-01  0.51100000000E-03 0. -1.
</event>
<event>
 8    1  0.1129676E+005  0.1043930E+01  0.7957747E-01            NaN
         13   -1    0    0    0    0  0.00000000000E+00  0.00000000000E+00  0.74505805969E-08  0.10566000000E+00  0.10566000000E+00 0. -1.
     999900   -1    0    0    0    0 -0.00000000000E+00 -0.00000000000E+00 -0.74505805969E-08  0.93827000000E+00  0.93827000000E+00 0. -1.
     999902    2    1    2    0    0  0.12617380268E-01 -0.19990637008E-01 -0.32961181012E-02  0.10200618571E+01  0.10197825768E+01 0.  0.
     999903    2    3    3    0    0 -0.10548548444E+00  0.69019677115E-01 -0.43491117105E-02  0.12772098527E+00  0.20070676372E-01 0.  0.
         14    1    1    2    0    0 -0.12617380268E-01  0.19990637008E-01  0.32961181012E-02  0.23868142939E-01  0.00000000000E+00 0.  1.
     999901    1    3    3    0    0  0.11810286470E+00 -0.89010314123E-01  0.10529936093E-02  0.89234087179E+00  0.88000000000E+00 0.  1.
        -11    1    4    4    0    0 -0.41623680843E-01  0.36509906840E-01 -0.81099406168E-02  0.55960131900E-01  0.51100000000E-03 0.  1.
         11    1    4    4    0    0 -0.63861803593E-01  0.32509770275E-01  0.37608289063E-02  0.71760853371E-01  0.51100000000E-03 0. -1.
</event>
<event>
 8    1  0.1129676E+005  0.1043930E+01  0.7957747E-01            NaN
         13   -1    0    0    0    0  0.00000000000E+00  0.00000000000E+00  0.74505805969E-08  0.10566000000E+00  0.10566000000E+00 0.  1.
     999900   -1    0    0    0    0 -0.00000000000E+00 -0.00000000000E+00 -0.74505805969E-08  0.93827000000E+00  0.93827000000E+00 0. -1.
     999902    2    1    2    0    0 -0.13398108076E-02 -0.19921461248E-01  0.15186416219E-01  0.10188444075E+01  0.10185355369E+01 0.  0.
     999903    2    3    3    0    0  0.11674752283E+00  0.27839030712E-01 -0.39370941543E-01  0.12800088130E+00  0.20716149700E-01 0.  0.
         14    1    1    2    0    0  0.13398108076E-02  0.19921461248E-01 -0.15186416219E-01  0.25085592455E-01  0.00000000000E+00 0. -1.
     999901    1    3    3    0    0 -0.11808733364E+00 -0.47760491960E-01  0.54557357762E-01  0.89084352624E+00  0.88000000000E+00 0.  1.
        -11    1    4    4    0    0  0.63903356999E-01  0.52300635337E-02 -0.24386750387E-01  0.68600053322E-01  0.51100000000E-03 0.  1.
         11    1    4    4    0    0  0.52844165833E-01  0.22608967178E-01 -0.14984191156E-01  0.59400827983E-01  0.51100000000E-03 0. -1.
</event>
<event>
 8    1  0.1129676E+005  0.1043930E+01  0.7957747E-01            NaN
         13   -1    0    0    0    0  0.00000000000E+00  0.00000000000E+00  0.74505805969E-08  0.10566000000E+00  0.10566000000E+00 0.  1.
     999900   -1    0    0    0    0 -0.00000000000E+00 -0.00000000000E+00 -0.74505805969E-08  0.93827000000E+00  0.93827000000E+00 0.  1.
     999902    2    1    2    0    0 -0.88388093295E-02 -0.20544119948E-01  0.11559775677E-01  0.10187543406E+01  0.10184432201E+01 0.  0.
     999903    2    3    3    0    0 -0.60183310472E-01  0.94399104320E-01  0.59530573264E-01  0.12850190443E+00  0.20871716112E-01 0.  0.
         14    1    1    2    0    0  0.88388093295E-02  0.20544119948E-01 -0.11559775677E-01  0.25175659445E-01  0.00000000000E+00 0.  1.
     999901    1    3    3    0    0  0.51344501143E-01 -0.11494322427E+00 -0.47970797587E-01  0.89025243612E+00  0.88000000000E+00 0.  1.
        -11    1    4    4    0    0 -0.10520514228E-01  0.10497081166E-01  0.12771687148E-02  0.14925220720E-01  0.51100000000E-03 0.  1.
         11    1    4    4    0    0 -0.49662796244E-01  0.83902023155E-01  0.58253404549E-01  0.11357668371E+00  0.51100000000E-03 0. -1.
</event>
<event>
 8    1  0.1129676E+005  0.1043930E+01  0.7957747E-01            NaN
         13   -1    0    0    0    0  0.00000000000E+00  0.00000000000E+00  0.74505805969E-08  0.10566000000E+00  0.10566000000E+00 0.  1.
     999900   -1    0    0    0    0 -0.00000000000E+00 -0.00000000000E+00 -0.74505805969E-08  0.93827000000E+00  0.93827000000E+00 0.  1.
     999902    2    1    2    0    0  0.12376312916E-01  0.14287129108E-01  0.13821935359E-01  0.10205133163E+01  0.10202446215E+01 0.  0.
     999903    2    3    3    0    0  0.84355478064E-01  0.50767048614E-01  0.88184677855E-01  0.13369788891E+00  0.20135743998E-01 0.  0.
         14    1    1    2    0    0 -0.12376312916E-01 -0.14287129108E-01 -0.13821935359E-01  0.23416683724E-01  0.00000000000E+00 0. -1.
     999901    1    3    3    0    0 -0.71979165147E-01 -0.36479919506E-01 -0.74362742495E-01  0.88681542737E+00  0.88000000000E+00 0.  1.
        -11    1    4    4    0    0  0.26039222459E-01  0.11176007134E-01  0.14910437618E-01  0.32023842878E-01  0.51100000000E-03 0. -1.
         11    1    4    4    0    0  0.58316255605E-01  0.39591041480E-01  0.73274240237E-01  0.10167404603E+00  0.51100000000E-03 0.  1.
</event>
<event>
 8    1  0.1129676E+005  0.1043930E+01  0.7957747E-01            NaN
         13   -1    0    0    0    0  0.00000000000E+00  0.00000000000E+00  0.74505805969E-08  0.10566000000E+00  0.10566000000E+00 0.  1.
     999900   -1    0    0    0    0 -0.00000000000E+00 -0.00000000000E+00 -0.74505805969E-08  0.93827000000E+00  0.93827000000E+00 0. -1.
     999902    2    1    2    0    0  0.26807864384E-02 -0.68339927517E-02  0.21843854552E-01  0.10208856069E+01  0.10206254838E+01 0.  0.
     999903    2    3    3    0    0 -0.31797973004E-01 -0.58393399927E-01 -0.10876115057E+00  0.12908696106E+00  0.20336061565E-01 0.  0.
         14    1    1    2    0    0 -0.26807864384E-02  0.68339927517E-02 -0.21843854552E-01  0.23044393126E-01  0.00000000000E+00 0. -1.
     999901    1    3    3    0    0  0.34478759442E-01  0.51559407175E-01  0.13060500512E+00  0.89179864582E+00  0.88000000000E+00 0.  1.
        -11    1    4    4    0    0 -0.25669417751E-01 -0.37734814938E-01 -0.88144787896E-01  0.99260264055E-01  0.51100000000E-03 0. -1.
         11    1    4    4    0    0 -0.61285552530E-02 -0.20658584988E-01 -0.20616362671E-01  0.29826697001E-01  0.51100000000E-03 0.  1.
</event>
<event>
 8    1  0.1129676E+005  0.1043930E+01  0.7957747E-01            NaN
         13   -1    0    0    0    0  0.00000000000E+00  0.00000000000E+00  0.74505805969E-08  0.10566000000E+00  0.10566000000E+00 0. -1.
     999900   -1    0    0    0    0 -0.00000000000E+00 -0.00000000000E+00 -0.74505805969E-08  0.93827000000E+00  0.93827000000E+00 0. -1.
     999902    2    1    2    0    0 -0.26569798308E-02 -0.68408987070E-02  0.19469846301E-01  0.10231229735E+01  0.10229113777E+01 0.  0.
     999903    2    3    3    0    0 -0.43908754216E-01 -0.45180652300E-01  0.11858305948E+00  0.13577012675E+00  0.20057798557E-01 0.  0.
         14    1    1    2    0    0  0.26569798308E-02  0.68408987070E-02 -0.19469846301E-01  0.20807026504E-01  0.00000000000E+00 0.  1.
     999901    1    3    3    0    0  0.41251774386E-01  0.38339753593E-01 -0.99113213183E-01  0.88735284674E+00  0.88000000000E+00 0. -1.
        -11    1    4    4    0    0 -0.32082878349E-01 -0.20147164001E-01  0.59811718977E-01  0.70801992546E-01  0.51100000000E-03 0.  1.
         11    1    4    4    0    0 -0.11825875867E-01 -0.25033488299E-01  0.58771340507E-01  0.64968134208E-01  0.51100000000E-03 0. -1.
</event>
<event>
 8    1  0.1129676E+005  0.1043930E+01  0.7957747E-01            NaN
         13   -1    0    0    0    0  0.00000000000E+00  0.00000000000E+00  0.74505805969E-08  0.10566000000E+00  0.10566000000E+00 0.  1.
     999900   -1    0    0    0    0 -0.00000000000E+00 -0.00000000000E+00 -0.74505805969E-08  0.93827000000E+00  0.93827000000E+00 0. -1.
     999902    2    1    2    0    0 -0.16523958927E-01  0.64787662548E-02  0.15972244415E-01  0.10200526421E+01  0.10197731436E+01 0.  0.
     999903    2    3    3    0    0 -0.49070421063E-01  0.43637118878E-01 -0.11001969816E+00  0.12970777350E+00  0.20190793825E-01 0.  0.
         14    1    1    2    0    0  0.16523958927E-01 -0.64787662548E-02 -0.15972244415E-01  0.23877357945E-01  0.00000000000E+00 0. -1.
     999901    1    3    3    0    0  0.32546462136E-01 -0.37158352623E-01  0.12599194258E+00  0.89034486855E+00  0.88000000000E+00 0.  1.
        -11    1    4    4    0    0 -0.10170114179E-01  0.97459575475E-02 -0.10390329799E-01  0.17510996124E-01  0.51100000000E-03 0.  1.
         11    1    4    4    0    0 -0.38900306884E-01  0.33891161330E-01 -0.99629368363E-01  0.11219677738E+00  0.51100000000E-03 0. -1.
</event>
<event>
 8    1  0.1129676E+005  0.1043930E+01  0.7957747E-01            NaN
         13   -1    0    0    0    0  0.00000000000E+00  0.00000000000E+00  0.74505805969E-08  0.10566000000E+00  0.10566000000E+00 0. -1.
     999900   -1    0    0    0    0 -0.00000000000E+00 -0.00000000000E+00 -0.74505805969E-08  0.93827000000E+00  0.93827000000E+00 0. -1.
     999902    2    1    2    0    0  0.10700853024E-01  0.82482558689E-02 -0.21578906560E-01  0.10184704009E+01  0.10181521331E+01 0.  0.
     999903    2    3    3    0    0  0.64813190798E-01 -0.98633939269E-02  0.10712933384E+00  0.12727907005E+00  0.20621136296E-01 0.  0.
         14    1    1    2    0    0 -0.10700853024E-01 -0.82482558689E-02  0.21578906560E-01  0.25459599145E-01  0.00000000000E+00 0. -1.
     999901    1    3    3    0    0 -0.54112337774E-01  0.18111649796E-01 -0.12870824040E+00  0.89119133081E+00  0.88000000000E+00 0. -1.
        -11    1    4    4    0    0  0.45067098594E-01 -0.12528070424E-01  0.87959313256E-01  0.99624785238E-01  0.51100000000E-03 0.  1.
         11    1    4    4    0    0  0.19746092205E-01  0.26646764969E-02  0.19170020584E-01  0.27654284810E-01  0.51100000000E-03 0. -1.
</event>
<event>
 8    1  0.1129676E+005  0.1043930E+01  0.7957747E-01            NaN
         13   -1    0    0    0    0  0.00000000000E+00  0.00000000000E+00  0.74505805969E-08  0.10566000000E+00  0.10566000000E+00 0.  1.
     999900   -1    0    0    0    0 -0.00000000000E+00 -0.00000000000E+00 -0.74505805969E-08  0.93827000000E+00  0.93827000000E+00 0.  1.
     999902    2    1    2    0    0  0.18071221080E-01 -0.73076314410E-02 -0.14025750446E-01  0.10199155838E+01  0.10196328290E+01 0.  0.
     999903    2    3    3    0    0 -0.35658049541E-01  0.47870222098E-01  0.11144591755E+00  0.12768547365E+00  0.17897848515E-01 0.  0.
         14    1    1    2    0    0 -0.18071221080E-01  0.73076314410E-02  0.14025750446E-01  0.24014416174E-01  0.00000000000E+00 0.  1.
     999901    1    3    3    0    0  0.53729270621E-01 -0.55177853539E-01 -0.12547166799E+00  0.89223011018E+00  0.88000000000E+00 0.  1.
        -11    1    4    4    0    0 -0.19176883166E-01  0.19552088520E-01  0.67667730177E-01  0.73001505750E-01  0.51100000000E-03 0. -1.
         11    1    4    4    0    0 -0.16481166375E-01  0.28318133578E-01  0.43778187371E-01  0.54683967896E-01  0.51100000000E-03 0.  1.
</event>
<event>
 8    1  0.1129676E+005  0.1043930E+01  0.7957747E-01            NaN
         13   -1    0    0    0    0  0.00000000000E+00  0.00000000000E+00  0.74505805969E-08  0.10566000000E+00  0.10566000000E+00 0. -1.
     999900   -1    0    0    0    0 -0.00000000000E+00 -0.00000000000E+00 -0.74505805969E-08  0.93827000000E+00  0.93827000000E+00 0.  1.
     999902    2    1    2    0    0 -0.41054675596E-02 -0.16374066287E-01  0.16617767474E-01  0.10202421317E+01  0.10199671034E+01 0.  0.
     999903    2    3    3    0    0  0.46146124298E-01 -0.10174751293E+00 -0.65325470404E-01  0.13090049758E+00  0.19634205069E-01 0.  0.
         14    1    1    2    0    0  0.41054675596E-02  0.16374066287E-01 -0.16617767474E-01  0.23687868339E-01  0.00000000000E+00 0.  1.
     999901    1    3    3    0    0 -0.50251591858E-01  0.85373446641E-01  0.81943237877E-01  0.88934163408E+00  0.88000000000E+00 0. -1.
        -11    1    4    4    0    0  0.23783404723E-01 -0.67026194996E-01 -0.32765849016E-01  0.78307235544E-01  0.51100000000E-03 0.  1.
         11    1    4    4    0    0  0.22362719575E-01 -0.34721317931E-01 -0.32559621388E-01  0.52593262036E-01  0.51100000000E-03 0. -1.
</event>
<event>
 8    1  0.1129676E+005  0.1043930E+01  0.7957747E-01            NaN
         13   -1    0    0    0    0  0.00000000000E+00  0.00000000000E+00  0.74505805969E-08  0.10566000000E+00  0.10566000000E+00 0.  1.
     999900   -1    0    0    0    0 -0.00000000000E+00 -0.00000000000E+00 -0.74505805969E-08  0.93827000000E+00  0.93827000000E+00 0.  1.
     999902    2    1    2    0    0 -0.21434232194E-01  0.52198218899E-02 -0.86818125211E-02  0.10202224755E+01  0.10199469853E+01 0.  0.
     999903    2    3    3    0    0  0.15297067822E-02 -0.92216167804E-01 -0.90657162667E-01  0.13076136188E+00  0.19330054559E-01 0.  0.
         14    1    1    2    0    0  0.21434232194E-01 -0.52198218899E-02  0.86818125211E-02  0.23707524522E-01  0.00000000000E+00 0.  1.
     999901    1    3    3    0    0 -0.22963938976E-01  0.97435989694E-01  0.81975350146E-01  0.88946111360E+00  0.88000000000E+00 0. -1.
        -11    1    4    4    0    0 -0.70573621504E-02 -0.58882596479E-01 -0.63726449487E-01  0.87053363025E-01  0.51100000000E-03 0.  1.
         11    1    4    4    0    0  0.85870689326E-02 -0.33333571325E-01 -0.26930713180E-01  0.43707998850E-01  0.51100000000E-03 0. -1.
</event>
<event>
 8    1  0.1129676E+005  0.1043930E+01  0.7957747E-01            NaN
         13   -1    0    0    0    0  0.00000000000E+00  0.00000000000E+00  0.74505805969E-08  0.10566000000E+00  0.10566000000E+00 0.  1.
     999900   -1    0    0    0    0 -0.00000000000E+00 -0.00000000000E+00 -0.74505805969E-08  0.93827000000E+00  0.93827000000E+00 0. -1.
     999902    2    1    2    0    0 -0.15570167307E-01  0.13769728690E-01 -0.10825224825E-01  0.10204945348E+01  0.10202254038E+01 0.  0.
     999903    2    3    3    0    0 -0.10271535377E-01 -0.12227197588E+00 -0.36228462120E-01  0.12966304377E+00  0.21072800671E-01 0.  0.
         14    1    1    2    0    0  0.15570167307E-01 -0.13769728690E-01  0.10825224825E-01  0.23435465233E-01  0.00000000000E+00 0. -1.
     999901    1    3    3    0    0 -0.52986319300E-02  0.13604170457E+00  0.25403237295E-01  0.89083149099E+00  0.88000000000E+00 0.  1.
        -11    1    4    4    0    0 -0.12107568433E-01 -0.33932737730E-01 -0.12951253282E-01  0.38288640428E-01  0.51100000000E-03 0.  1.
         11    1    4    4    0    0  0.18360330564E-02 -0.88339238150E-01 -0.23277208838E-01  0.91374403345E-01  0.51100000000E-03 0. -1.
</event>
<event>
 7    1  0.1129676E+005  0.1043930E+01  0.7957747E-01            NaN
         13   -1    0    0    0    0  0.00000000000E+00  0.00000000000E+00  0.74505805969E-08  0.10566000000E+00  0.10566000000E+00 0. -1.
     999900   -1    0    0    0    0 -0.00000000000E+00 -0.00000000000E+00 -0.74505805969E-08  0.93827000000E+00  0.93827000000E+00 0.  1.
     999903    2    1    2    0    0 -0.79862611824E-01 -0.70271763790E-01  0.36111779921E-01  0.11399040534E+00  0.19328587822E-01 0.  0.
         14    1    1    2    0    0 -0.33167480999E-01 -0.94411182524E-02 -0.18118173080E-01  0.38954906051E-01  0.00000000000E+00 0.  1.
     999901    1    1    2    0    0  0.11303009282E+00  0.79712882043E-01 -0.17993606840E-01  0.89098468861E+00  0.88000000000E+00 0. -1.
        -11    1    3    3    0    0 -0.74554388242E-01 -0.57235418145E-01  0.32467362320E-01  0.99441644363E-01  0.51100000000E-03 0. -1.
         11    1    3    3    0    0 -0.53082235818E-02 -0.13036345645E-01  0.36444176004E-02  0.14548760979E-01  0.51100000000E-03 0.  1.
</event>
<event>
 8    1  0.1129676E+005  0.1043930E+01  0.7957747E-01            NaN
         13   -1    0    0    0    0  0.00000000000E+00  0.00000000000E+00  0.74505805969E-08  0.10566000000E+00  0.10566000000E+00 0. -1.
     999900   -1    0    0    0    0 -0.00000000000E+00 -0.00000000000E+00 -0.74505805969E-08  0.93827000000E+00  0.93827000000E+00 0.  1.
     999902    2    1    2    0    0  0.22577302046E-01 -0.25711972286E-02 -0.62721604027E-02  0.10203570151E+01  0.10200846791E+01 0.  0.
     999903    2    3    3    0    0  0.82943427707E-01 -0.10107139180E+00 -0.12091120824E-01  0.13278717682E+00  0.19778793800E-01 0.  0.
         14    1    1    2    0    0 -0.22577302046E-01  0.25711972286E-02  0.62721604027E-02  0.23572984940E-01  0.00000000000E+00 0. -1.
     999901    1    3    3    0    0 -0.60366125661E-01  0.98500194571E-01  0.58189604213E-02  0.88756983824E+00  0.88000000000E+00 0. -1.
        -11    1    4    4    0    0  0.78310334528E-01 -0.91207242341E-01 -0.61671493893E-02  0.12037260653E+00  0.51100000000E-03 0.  1.
         11    1    4    4    0    0  0.46330931789E-02 -0.98641494589E-02 -0.59239714347E-02  0.12414570291E-01  0.51100000000E-03 0. -1.
</event>
<event>
 8    1  0.1129676E+005  0.1043930E+01  0.7957747E-01            NaN
         13   -1    0    0    0    0  0.00000000000E+00  0.00000000000E+00  0.74505805969E-08  0.10566000000E+00  0.10566000000E+00 0. -1.
     999900   -1    0    0    0    0 -0.00000000000E+00 -0.00000000000E+00 -0.74505805969E-08  0.93827000000E+00  0.93827000000E+00 0. -1.
     999902    2    1    2    0    0  0.10243490423E-01 -0.18685800168E-01  0.87513423038E-02  0.10208936327E+01  0.10206336929E+01 0.  0.
     999903    2    3    3    0    0 -0.12683242277E+00  0.14274129600E-01  0.73851520353E-02  0.12967086070E+00  0.21674348957E-01 0.  0.
         14    1    1    2    0    0 -0.10243490423E-01  0.18685800168E-01 -0.87513423038E-02  0.23036367250E-01  0.00000000000E+00 0. -1.
     999901    1    3    3    0    0  0.13707591319E+00 -0.32959929768E-01  0.13661902685E-02  0.89122277205E+00  0.88000000000E+00 0. -1.
        -11    1    4    4    0    0 -0.11582595856E+00  0.69444065829E-02  0.44765762607E-02  0.11612139473E+00  0.51100000000E-03 0. -1.
         11    1    4    4    0    0 -0.11006464208E-01  0.73297230171E-02  0.29085757746E-02  0.13549465964E-01  0.51100000000E-03 0.  1.
</event>
<event>
 8    1  0.1129676E+005  0.1043930E+01  0.7957747E-01            NaN
         13   -1    0    0    0    0  0.00000000000E+00  0.00000000000E+00  0.74505805969E-08  0.10566000000E+00  0.10566000000E+00 0. -1.
     999900   -1    0    0    0    0 -0.00000000000E+00 -0.00000000000E+00 -0.74505805969E-08  0.93827000000E+00  0.93827000000E+00 0. -1.
     999902    2    1    2    0    0  0.19539079924E-01  0.10076231034E-01 -0.46932583243E-02  0.10214503926E+01  0.10212030022E+01 0.  0.
     999903    2    3    3    0    0 -0.11525187168E+00 -0.37560577744E-01  0.38392386919E-01  0.12887309116E+00  0.20988266401E-01 0.  0.
         14    1    1    2    0    0 -0.19539079924E-01 -0.10076231034E-01  0.46932583243E-02  0.22479607421E-01  0.00000000000E+00 0.  1.
     999901    1    3    3    0    0  0.13479095160E+00  0.47636808778E-01 -0.43085645243E-01  0.89257730142E+00  0.88000000000E+00 0. -1.
        -11    1    4    4    0    0 -0.26449085624E-01  0.29214352179E-03  0.70786560913E-02  0.27386273410E-01  0.51100000000E-03 0.  1.
         11    1    4    4    0    0 -0.88802786051E-01 -0.37852721266E-01  0.31313730827E-01  0.10148681775E+00  0.51100000000E-03 0. -1.
</event>
<event>
 8    1  0.1129676E+005  0.1043930E+01  0.7957747E-01            NaN
         13   -1    0    0    0    0  0.00000000000E+00  0.00000000000E+00  0.74505805969E-08  0.10566000000E+00  0.10566000000E+00 0. -1.
     999900   -1    0    0    0    0 -0.00000000000E+00 -0.00000000000E+00 -0.74505805969E-08  0.93827000000E+00  0.93827000000E+00 0. -1.
     999902    2    1    2    0    0  0.16089055925E-01 -0.11658894693E-01  0.66733289578E-02  0.10229700175E+01  0.10227552669E+01 0.  0.
     999903    2    3    3    0    0  0.11875319880E+00 -0.62198724885E-01 -0.24946653339E-03  0.13553431520E+00  0.19962083029E-01 0.  0.
         14    1    1    2    0    0 -0.16089055925E-01  0.11658894693E-01 -0.66733289578E-02  0.20959982476E-01  0.00000000000E+00 0. -1.
     999901    1    3    3    0    0 -0.10266414288E+00  0.50539830192E-01  0.69227954912E-02  0.88743570233E+00  0.88000000000E+00 0.  1.
        -11    1    4    4    0    0  0.48345931440E-01 -0.34380589435E-01 -0.58967135673E-02  0.59618674663E-01  0.51100000000E-03 0. -1.
         11    1    4    4    0    0  0.70407267363E-01 -0.27818135450E-01  0.56472470340E-02  0.75915640533E-01  0.51100000000E-03 0.  1.
</event>
<event>
 8    1  0.1129676E+005  0.1043930E+01  0.7957747E-01            NaN
         13   -1    0    0    0    0  0.00000000000E+00  0.00000000000E+00  0.74505805969E-08  0.10566000000E+00  0.10566000000E+00 0. -1.
     999900   -1    0    0    0    0 -0.00000000000E+00 -0.00000000000E+00 -0.74505805969E-08  0.93827000000E+00  0.93827000000E+00 0.  1.
     999902    2    1    2    0    0 -0.78070894389E-04 -0.20829171653E-01  0.11744952631E-01  0.10200175681E+01  0.10197372381E+01 0.  0.
     999903    2    3    3    0    0 -0.83654650014E-02 -0.67261922060E-01 -0.11008825956E+00  0.13037268794E+00  0.16836439787E-01 0.  0.
         14    1    1    2    0    0  0.78070894389E-04  0.20829171653E-01 -0.11744952631E-01  0.23912431894E-01  0.00000000000E+00 0. -1.
     999901    1    3    3    0    0  0.82873941070E-02  0.46432750408E-01  0.12183321219E+00  0.88964488016E+00  0.88000000000E+00 0. -1.
        -11    1    4    4    0    0 -0.23432955201E-02 -0.56295186147E-02 -0.21010164144E-01  0.21883112944E-01  0.51100000000E-03 0.  1.
         11    1    4    4    0    0 -0.60221694812E-02 -0.61632403446E-01 -0.89078095412E-01  0.10848957500E+00  0.51100000000E-03 0. -1.
</event>
<event>
 8    1  0.1129676E+005  0.1043930E+01  0.7957747E-01            NaN
         13   -1    0    0    0    0  0.00000000000E+00  0.00000000000E+00  0.74505805969E-08  0.10566000000E+00  0.10566000000E+00 0. -1.
     999900   -1    0    0    0    0 -0.00000000000E+00 -0.00000000000E+00 -0.74505805969E-08  0.93827000000E+00  0.93827000000E+00 0. -1.
     999902    2    1    2    0    0  0.15624368868E-01  0.52935679827E-02  0.10666794621E-01  0.10242850701E+01  0.10240966661E+01 0.  0.
     999903    2    3    3    0    0 -0.39888833675E-01 -0.10605778398E+00  0.68286977708E-01  0.13366678778E+00  0.19087331867E-01 0.  0.
         14    1    1    2    0    0 -0.15624368868E-01 -0.52935679827E-02 -0.10666794621E-01  0.19644929931E-01  0.00000000000E+00 0.  1.
     999901    1    3    3    0    0  0.55513202544E-01  0.11135135196E+00 -0.57620183087E-01  0.89061828228E+00  0.88000000000E+00 0.  1.
        -11    1    4    4    0    0 -0.12449979712E-01 -0.60064724465E-01  0.35818052500E-01  0.71034971146E-01  0.51100000000E-03 0.  1.
         11    1    4    4    0    0 -0.27438853964E-01 -0.45993059513E-01  0.32468925208E-01  0.62631816638E-01  0.51100000000E-03 0. -1.
</event>
<event>
 8    1  0.1129676E+005  0.1043930E+01  0.7957747E-01            NaN
         13   -1    0    0    0    0  0.00000000000E+00  0.00000000000E+00  0.74505805969E-08  0.10566000000E+00  0.10566000000E+00 0. -1.
     999900   -1    0    0    0    0 -0.00000000000E+00 -0.00000000000E+00 -0.74505805969E-08  0.93827000000E+00  0.93827000000E+00 0.  1.
     999902    2    1    2    0    0  0.16554800348E-01 -0.51166988527E-02  0.15442799148E-01  0.10207196129E+01  0.10204556856E+01 0.  0.
     999903    2    3    3    0    0  0.75157819706E-01  0.38560552794E-01 -0.97532082597E-01  0.13049192292E+00  0.19494120026E-01 0.  0.
         14    1    1    2    0    0 -0.16554800348E-01  0.51166988527E-02 -0.15442799148E-01  0.23210387055E-01  0.00000000000E+00 0.  1.
     999901    1    3    3    0    0 -0.58603019358E-01 -0.43677251647E-01  0.11297488175E+00  0.89022769003E+00  0.88000000000E+00 0. -1.
        -11    1    4    4    0    0  0.35928540761E-01  0.27889542028E-01 -0.58785246475E-01  0.74328008986E-01  0.51100000000E-03 0.  1.
         11    1    4    4    0    0  0.39229278945E-01  0.10671010766E-01 -0.38746836123E-01  0.56163913929E-01  0.51100000000E-03 0. -1.
</event>
<event>
 8    1  0.1129676E+005  0.1043930E+01  0.7957747E-01            NaN
         13   -1    0    0    0    0  0.00000000000E+00  0.00000000000E+00  0.74505805969E-08  0.10566000000E+00  0.10566000000E+00 0. -1.
     999900   -1    0    0    0    0 -0.00000000000E+00 -0.00000000000E+00 -0.74505805969E-08  0.93827000000E+00  0.93827000000E+00 0.  1.
     999902    2    1    2    0    0 -0.10981212910E-01  0.18406124853E-01  0.70842340682E-02  0.10213565899E+01  0.10211071075E+01 0.  0.
     999903    2    3    3    0    0  0.70477552747E-01  0.32148815897E-01 -0.10337462274E+00  0.13061220961E+00  0.19302975610E-01 0.  0.
         14    1    1    2    0    0  0.10981212910E-01 -0.18406124853E-01 -0.70842340682E-02  0.22573410053E-01  0.00000000000E+00 0. -1.
     999901    1    3    3    0    0 -0.81458765657E-01 -0.13742691044E-01  0.11045885681E+00  0.89074438034E+00  0.88000000000E+00 0. -1.
        -11    1    4    4    0    0  0.23255801568E-01  0.13959297905E-01 -0.51100278041E-01  0.57854937918E-01  0.51100000000E-03 0.  1.
         11    1    4    4    0    0  0.47221751179E-01  0.18189517992E-01 -0.52274344697E-01  0.72757271690E-01  0.51100000000E-03 0. -1.
</event>
<event>
 8    1  0.1129676E+005  0.1043930E+01  0.7957747E-01            NaN
         13   -1    0    0    0    0  0.00000000000E+00  0.00000000000E+00  0.74505805969E-08  0.10566000000E+00  0.10566000000E+00 0. -1.
     999900   -1    0    0    0    0 -0.00000000000E+00 -0.00000000000E+00 -0.74505805969E-08  0.93827000000E+00  0.93827000000E+00 0. -1.
     999902    2    1    2    0    0 -0.19633746516E-01 -0.12423441815E-01  0.19313895479E-02  0.10206157088E+01  0.10203493857E+01 0.  0.
     999903    2    3    3    0    0 -0.27039514442E-01  0.12443573423E+00  0.15610655018E-01  0.12990116318E+00  0.20377250789E-01 0.  0.
         14    1    1    2    0    0  0.19633746516E-01  0.12423441815E-01 -0.19313895479E-02  0.23314291204E-01  0.00000000000E+00 0.  1.
     999901    1    3    3    0    0  0.74057679264E-02 -0.13685917605E+00 -0.13679265470E-01  0.89071454562E+00  0.88000000000E+00 0.  1.
        -11    1    4    4    0    0 -0.18376928213E-01  0.42528940460E-01  0.16536401598E-02  0.46361815257E-01  0.51100000000E-03 0.  1.
         11    1    4    4    0    0 -0.86625862295E-02  0.81906793775E-01  0.13957014858E-01  0.83539347923E-01  0.51100000000E-03 0. -1.
</event>
<event>
 8    1  0.1129676E+005  0.1043930E+01  0.7957747E-01            NaN
         13   -1    0    0    0    0  0.00000000000E+00  0.00000000000E+00  0.74505805969E-08  0.10566000000E+00  0.10566000000E+00 0.  1.
     999900   -1    0    0    0    0 -0.00000000000E+00 -0.00000000000E+00 -0.74505805969E-08  0.93827000000E+00  0.93827000000E+00 0.  1.
     999902    2    1    2    0    0 -0.15255972122E-01  0.12094404829E-01 -0.13230502120E-01  0.10203914040E+01  0.10201198714E+01 0.  0.
     999903    2    3    3    0    0 -0.12982725627E+00  0.15446981315E-01 -0.13416275574E-01  0.13295810884E+00  0.20103147858E-01 0.  0.
         14    1    1    2    0    0  0.15255972122E-01 -0.12094404829E-01  0.13230502120E-01  0.23538595963E-01  0.00000000000E+00 0.  1.
     999901    1    3    3    0    0  0.11457128414E+00 -0.33525764868E-02  0.18577345370E-03  0.88743329520E+00  0.88000000000E+00 0. -1.
        -11    1    4    4    0    0 -0.82845063582E-02 -0.16756514375E-02 -0.52055616941E-02  0.99398112100E-02  0.51100000000E-03 0.  1.
         11    1    4    4    0    0 -0.12154274991E+00  0.17122632753E-01 -0.82107138801E-02  0.12301829763E+00  0.51100000000E-03 0. -1.
</event>
<event>
 8    1  0.1129676E+005  0.1043930E+01  0.7957747E-01            NaN
         13   -1    0    0    0    0  0.00000000000E+00  0.00000000000E+00  0.74505805969E-08  0.10566000000E+00  0.10566000000E+00 0.  1.
     999900   -1    0    0    0    0 -0.00000000000E+00 -0.00000000000E+00 -0.74505805969E-08  0.93827000000E+00  0.93827000000E+00 0.  1.
     999902    2    1    2    0    0 -0.22064008133E-03  0.83339308719E-02 -0.23050245195E-01  0.10194184336E+01  0.10191237049E+01 0.  0.
     999903    2    3    3    0    0  0.10104815969E-01  0.11876149020E+00  0.46719600342E-01  0.12971697113E+00  0.20913456977E-01 0.  0.
         14    1    1    2    0    0  0.22064008133E-03 -0.83339308719E-02  0.23050245195E-01  0.24511566441E-01  0.00000000000E+00 0.  1.
     999901    1    3    3    0    0 -0.10325456050E-01 -0.11042755933E+00 -0.69769845538E-01  0.88970146243E+00  0.88000000000E+00 0.  1.
        -11    1    4    4    0    0 -0.65408553533E-02  0.32252420562E-01  0.12948777554E-01  0.35368536611E-01  0.51100000000E-03 0.  1.
         11    1    4    4    0    0  0.16645671322E-01  0.86509069638E-01  0.33770822788E-01  0.94348434519E-01  0.51100000000E-03 0. -1.
</event>
<event>
 8    1  0.1129676E+005  0.1043930E+01  0.7957747E-01            NaN
         13   -1    0    0    0    0  0.00000000000E+00  0.00000000000E+00  0.74505805969E-08  0.10566000000E+00  0.10566000000E+00 0. -1.
     999900   -1    0    0    0    0 -0.00000000000E+00 -0.00000000000E+00 -0.74505805969E-08  0.93827000000E+00  0.93827000000E+00 0.  1.
     999902    2    1    2    0    0 -0.24780081918E-01  0.15236210042E-02 -0.27236926436E-02  0.10189541640E+01  0.10186480236E+01 0.  0.
     999903    2    3    3    0    0  0.34936166167E-01 -0.10471895765E+00  0.61954270230E-01  0.12820349483E+00  0.20278281196E-01 0.  0.
         14    1    1    2    0    0  0.24780081918E-01 -0.15236210042E-02  0.27236926436E-02  0.24975835971E-01  0.00000000000E+00 0.  1.
     999901    1    3    3    0    0 -0.59716248086E-01  0.10624257865E+00 -0.64677962874E-01  0.89075066920E+00  0.88000000000E+00 0.  1.
        -11    1    4    4    0    0  0.29820526157E-01 -0.57823530123E-01  0.35599305997E-01  0.74164655494E-01  0.51100000000E-03 0.  1.
         11    1    4    4    0    0  0.51156400107E-02 -0.46895427526E-01  0.26354964234E-01  0.54038839332E-01  0.51100000000E-03 0. -1.
</event>
<event>
 7    1  0.1129676E+005  0.1043930E+01  0.7957747E-01            NaN
         13   -1    0    0    0    0  0.00000000000E+00  0.00000000000E+00  0.74505805969E-08  0.10566000000E+00  0.10566000000E+00 0. -1.
     999900   -1    0    0    0    0 -0.00000000000E+00 -0.00000000000E+00 -0.74505805969E-08  0.93827000000E+00  0.93827000000E+00 0. -1.
     999903    2    1    2    0    0 -0.39988902715E-01 -0.26025222527E-02 -0.10106733098E+00  0.10978942226E+00  0.15271751278E-01 0.  0.
         14    1    1    2    0    0  0.22080115928E-01 -0.39554111316E-01 -0.87367336730E-02  0.46134474708E-01  0.00000000000E+00 0.  1.
     999901    1    1    2    0    0  0.17908786787E-01  0.42156633568E-01  0.10980406465E+00  0.88800610303E+00  0.88000000000E+00 0.  1.
        -11    1    3    3    0    0 -0.29128837131E-01 -0.85587793910E-02 -0.67863076841E-01  0.74346487319E-01  0.51100000000E-03 0.  1.
         11    1    3    3    0    0 -0.10860065584E-01  0.59562571383E-02 -0.33204254140E-01  0.35442934946E-01  0.51100000000E-03 0. -1.
</event>
<event>
 8    1  0.1129676E+005  0.1043930E+01  0.7957747E-01            NaN
         13   -1    0    0    0    0  0.00000000000E+00  0.00000000000E+00  0.74505805969E-08  0.10566000000E+00  0.10566000000E+00 0. -1.
     999900   -1    0    0    0    0 -0.00000000000E+00 -0.00000000000E+00 -0.74505805969E-08  0.93827000000E+00  0.93827000000E+00 0.  1.
     999902    2    1    2    0    0  0.11492884316E-01  0.70448922759E-02 -0.18869299113E-01  0.10207401887E+01  0.10204767345E+01 0.  0.
     999903    2    3    3    0    0 -0.69695251831E-01 -0.97159640999E-01 -0.48009327651E-01  0.13040360100E+00  0.20069370848E-01 0.  0.
         14    1    1    2    0    0 -0.11492884316E-01 -0.70448922759E-02  0.18869299113E-01  0.23189811257E-01  0.00000000000E+00 0. -1.
     999901    1    3    3    0    0  0.81188136148E-01  0.10420453327E+00  0.29140028537E-01  0.89033658774E+00  0.88000000000E+00 0.  1.
        -11    1    4    4    0    0 -0.12793747965E-01 -0.27413888596E-01 -0.50925725153E-02  0.30682188494E-01  0.51100000000E-03 0. -1.
         11    1    4    4    0    0 -0.56901503866E-01 -0.69745752403E-01 -0.42916755136E-01  0.99721412509E-01  0.51100000000E-03 0.  1.
</event>
<event>
 8    1  0.1129676E+005  0.1043930E+01  0.7957747E-01            NaN
         13   -1    0    0    0    0  0.00000000000E+00  0.00000000000E+00  0.74505805969E-08  0.10566000000E+00  0.10566000000E+00 0. -1.
     999900   -1    0    0    0    0 -0.00000000000E+00 -0.00000000000E+00 -0.74505805969E-08  0.93827000000E+00  0.93827000000E+00 0. -1.
     999902    2    1    2    0    0 -0.11746795465E-01  0.12581877299E-01  0.17613078120E-01  0.10193025486E+01  0.10190049923E+01 0.  0.
     999903    2    3    3    0    0  0.37740872397E-01 -0.38379456379E-01 -0.11312539146E+00  0.12681241747E+00  0.19664152926E-01 0.  0.
         14    1    1    2    0    0  0.11746795465E-01 -0.12581877299E-01 -0.17613078120E-01  0.24627451368E-01  0.00000000000E+00 0.  1.
     999901    1    3    3    0    0 -0.49487667862E-01  0.50961333677E-01  0.13073846958E+00  0.89249013117E+00  0.88000000000E+00 0.  1.
        -11    1    4    4    0    0  0.19185066894E-01 -0.11031555698E-01 -0.62949298816E-01  0.66728085206E-01  0.51100000000E-03 0.  1.
         11    1    4    4    0    0  0.18555805503E-01 -0.27347900681E-01 -0.50176092640E-01  0.60084332260E-01  0.51100000000E-03 0. -1.
</event>
<event>
 8    1  0.1129676E+005  0.1043930E+01  0.7957747E-01            NaN
         13   -1    0    0    0    0  0.00000000000E+00  0.00000000000E+00  0.74505805969E-08  0.10566000000E+00  0.10566000000E+00 0.  1.
     999900   -1    0    0    0    0 -0.00000000000E+00 -0.00000000000E+00 -0.74505805969E-08  0.93827000000E+00  0.93827000000E+00 0.  1.
     999902    2    1    2    0    0 -0.55214546443E-02 -0.19306866086E-01  0.11017514358E-01  0.10210252590E+01  0.10207683147E+01 0.  0.
     999903    2    3    3    0    0  0.44294352566E-01 -0.55695325782E-01 -0.10777454717E+00  0.13090319512E+00  0.21361987077E-01 0.  0.
         14    1    1    2    0    0  0.55214546443E-02  0.19306866086E-01 -0.11017514358E-01  0.22904741039E-01  0.00000000000E+00 0. -1.
     999901    1    3    3    0    0 -0.49815807211E-01  0.36388459695E-01  0.11879206153E+00  0.89012206384E+00  0.88000000000E+00 0. -1.
        -11    1    4    4    0    0  0.83818739224E-02 -0.62856638116E-03 -0.14880920754E-01  0.17098357513E-01  0.51100000000E-03 0. -1.
         11    1    4    4    0    0  0.35912478644E-01 -0.55066759400E-01 -0.92893626419E-01  0.11380483761E+00  0.51100000000E-03 0.  1.
</event>
<event>
 8    1  0.1129676E+005  0.1043930E+01  0.7957747E-01            NaN
         13   -1    0    0    0    0  0.00000000000E+00  0.00000000000E+00  0.74505805969E-08  0.10566000000E+00  0.10566000000E+00 0. -1.
     999900   -1    0    0    0    0 -0.00000000000E+00 -0.00000000000E+00 -0.74505805969E-08  0.93827000000E+00  0.93827000000E+00 0.  1.
     999902    2    1    2    0    0 -0.21122444563E-01 -0.17327039601E-01  0.10738307114E-01  0.10145753546E+01  0.10141506077E+01 0.  0.
     999903    2    3    3    0    0 -0.12434287647E+00  0.24543285672E-03 -0.21217865696E-01  0.12779215319E+00  0.20479878618E-01 0.  0.
         14    1    1    2    0    0  0.21122444563E-01  0.17327039601E-01 -0.10738307114E-01  0.29354645379E-01  0.00000000000E+00 0.  1.
     999901    1    3    3    0    0  0.10322043190E+00 -0.17572472458E-01  0.31956172810E-01  0.88678320143E+00  0.88000000000E+00 0.  1.
        -11    1    4    4    0    0 -0.90291518911E-01  0.11384274901E-02 -0.60541753132E-02  0.90502864949E-01  0.51100000000E-03 0. -1.
         11    1    4    4    0    0 -0.34051357556E-01 -0.89299463334E-03 -0.15163690383E-01  0.37289288245E-01  0.51100000000E-03 0.  1.
</event>
<event>
 8    1  0.1129676E+005  0.1043930E+01  0.7957747E-01            NaN
         13   -1    0    0    0    0  0.00000000000E+00  0.00000000000E+00  0.74505805969E-08  0.10566000000E+00  0.10566000000E+00 0. -1.
     999900   -1    0    0    0    0 -0.00000000000E+00 -0.00000000000E+00 -0.74505805969E-08  0.93827000000E+00  0.93827000000E+00 0.  1.
     999902    2    1    2    0    0  0.11707251142E-01 -0.20566151282E-01 -0.32469600206E-02  0.10200434126E+01  0.10197636954E+01 0.  0.
     999903    2    3    3    0    0 -0.11566492826E+00 -0.53510023276E-01 -0.17247227454E-01  0.13015298212E+00  0.20015835704E-01 0.  0.
         14    1    1    2    0    0 -0.11707251142E-01  0.20566151282E-01  0.32469600206E-02  0.23886587392E-01  0.00000000000E+00 0. -1.
     999901    1    3    3    0    0  0.12737217940E+00  0.32943871993E-01  0.14000267433E-01  0.88989043049E+00  0.88000000000E+00 0. -1.
        -11    1    4    4    0    0 -0.68636505974E-01 -0.32297846209E-01 -0.20116823115E-01  0.78479733150E-01  0.51100000000E-03 0. -1.
         11    1    4    4    0    0 -0.47028422287E-01 -0.21212177066E-01  0.28695956611E-02  0.51673248969E-01  0.51100000000E-03 0.  1.
</event>
<event>
 8    1  0.1129676E+005  0.1043930E+01  0.7957747E-01            NaN
         13   -1    0    0    0    0  0.00000000000E+00  0.00000000000E+00  0.74505805969E-08  0.10566000000E+00  0.10566000000E+00 0. -1.
     999900   -1    0    0    0    0 -0.00000000000E+00 -0.00000000000E+00 -0.74505805969E-08  0.93827000000E+00  0.93827000000E+00 0.  1.
     999902    2    1    2    0    0 -0.15423912802E-01 -0.10616962470E-01  0.15633916619E-01  0.10195366335E+01  0.10192447747E+01 0.  0.
     999903    2    3    3    0    0 -0.73378239865E-01 -0.98742905034E-01  0.45407535281E-01  0.13273826066E+00  0.20568767657E-01 0.  0.
         14    1    1    2    0    0  0.15423912802E-01  0.10616962470E-01 -0.15633916619E-01  0.24393366456E-01  0.00000000000E+00 0.  1.
     999901    1    3    3    0    0  0.57954327063E-01  0.88125942563E-01 -0.29773618663E-01  0.88679837288E+00  0.88000000000E+00 0.  1.
        -11    1    4    4    0    0 -0.53863194463E-01 -0.64901046358E-01  0.21887977702E-01  0.87136296829E-01  0.51100000000E-03 0. -1.
         11    1    4    4    0    0 -0.19515045402E-01 -0.33841858675E-01  0.23519557580E-01  0.45601963833E-01  0.51100000000E-03 0.  1.
</event>
<event>
 8    1  0.1129676E+005  0.1043930E+01  0.7957747E-01            NaN
         13   -1    0    0    0    0  0.00000000000E+00  0.00000000000E+00  0.74505805969E-08  0.10566000000E+00  0.10566000000E+00 0.  1.
     999900   -1    0    0    0    0 -0.00000000000E+00 -0.00000000000E+00 -0.74505805969E-08  0.93827000000E+00  0.93827000000E+00 0.  1.
     999902    2    1    2    0    0 -0.93754758259E-02  0.15961300429E-01 -0.14440563473E-01  0.10204525101E+01  0.10201824018E+01 0.  0.
     999903    2    3    3    0    0 -0.12682370773E+00  0.32895321873E-01 -0.44896538793E-02  0.13243231390E+00  0.18756485024E-01 0.  0.
         14    1    1    2    0    0  0.93754758259E-02 -0.15961300429E-01  0.14440563473E-01  0.23477489895E-01  0.00000000000E+00 0.  1.
     999901    1    3    3    0    0  0.11744823190E+00 -0.16934021444E-01 -0.99509095932E-02  0.88802019620E+00  0.88000000000E+00 0.  1.
        -11    1    4    4    0    0 -0.75291323259E-01  0.24874298184E-01  0.48651741270E-02  0.79444604024E-01  0.51100000000E-03 0. -1.
         11    1    4    4    0    0 -0.51532384471E-01  0.80210236891E-02 -0.93548280063E-02  0.52987709880E-01  0.51100000000E-03 0.  1.
</event>
<event>
 7    1  0.1129676E+005  0.1043930E+01  0.7957747E-01            NaN
         13   -1    0    0    0    0  0.00000000000E+00  0.00000000000E+00  0.74505805969E-08  0.10566000000E+00  0.10566000000E+00 0.  1.
     999900   -1    0    0    0    0 -0.00000000000E+00 -0.00000000000E+00 -0.74505805969E-08  0.93827000000E+00  0.93827000000E+00 0.  1.
     999903    2    1    2    0    0  0.10546148022E+00 -0.60719711773E-02 -0.10773327242E-01  0.10779516590E+00  0.18567190627E-01 0.  0.
         14    1    1    2    0    0  0.20842120491E-01  0.40165923175E-01  0.10543394662E-01  0.46463518399E-01  0.00000000000E+00 0. -1.
     999901    1    1    2    0    0 -0.12630360071E+00 -0.34093951997E-01  0.22993257978E-03  0.88967131570E+00  0.88000000000E+00 0. -1.
        -11    1    3    3    0    0  0.41013782323E-01  0.32623928700E-02 -0.11303348943E-01  0.42670837419E-01  0.51100000000E-03 0. -1.
         11    1    3    3    0    0  0.64447697893E-01 -0.93343640473E-02  0.53002170112E-03  0.65124328479E-01  0.51100000000E-03 0.  1.
</event>
<event>
 8    1  0.1129676E+005  0.1043930E+01  0.7957747E-01            NaN
         13   -1    0    0    0    0  0.00000000000E+00  0.00000000000E+00  0.74505805969E-08  0.10566000000E+00  0.10566000000E+00 0.  1.
     999900   -1    0    0    0    0 -0.00000000000E+00 -0.00000000000E+00 -0.74505805969E-08  0.93827000000E+00  0.93827000000E+00 0. -1.
     999902    2    1    2    0    0  0.11715085451E-01 -0.20622450209E-01  0.16232086541E-02  0.10201568326E+01  0.10198797967E+01 0.  0.
     999903    2    3    3    0    0 -0.10618415151E-01  0.62198048521E-01  0.11095517152E+00  0.12925195649E+00  0.20338883663E-01 0.  0.
         14    1    1    2    0    0 -0.11715085451E-01  0.20622450209E-01 -0.16232086541E-02  0.23773167355E-01  0.00000000000E+00 0.  1.
     999901    1    3    3    0    0  0.22333500602E-01 -0.82820498730E-01 -0.10933196287E+00  0.89090487616E+00  0.88000000000E+00 0. -1.
        -11    1    4    4    0    0 -0.11565500187E-01  0.45092164345E-01  0.63064467100E-01  0.78386556319E-01  0.51100000000E-03 0. -1.
         11    1    4    4    0    0  0.94708503561E-03  0.17105884176E-01  0.47890704419E-01  0.50865400168E-01  0.51100000000E-03 0.  1.
</event>
<event>
 8    1  0.1129676E+005  0.1043930E+01  0.7957747E-01            NaN
         13   -1    0    0    0    0  0.00000000000E+00  0.00000000000E+00  0.74505805969E-08  0.10566000000E+00  0.10566000000E+00 0.  1.
     999900   -1    0    0    0    0 -0.00000000000E+00 -0.00000000000E+00 -0.74505805969E-08  0.93827000000E+00  0.93827000000E+00 0. -1.
     999902    2    1    2    0    0  0.12759014663E-01  0.14485210028E-01  0.33105293477E-02  0.10243449708E+01  0.10241577251E+01 0.  0.
     999903    2    3    3    0    0 -0.12035663538E+00  0.17054717445E-01  0.50436827431E-01  0.13308335564E+00  0.19766712431E-01 0.  0.
         14    1    1    2    0    0 -0.12759014663E-01 -0.14485210028E-01 -0.33105293477E-02  0.19585029214E-01  0.00000000000E+00 0. -1.
     999901    1    3    3    0    0  0.13311565005E+00 -0.25695074170E-02 -0.47126298084E-01  0.89126161514E+00  0.88000000000E+00 0. -1.
        -11    1    4    4    0    0 -0.57992063775E-01  0.25444755874E-02  0.15249367336E-01  0.60019647967E-01  0.51100000000E-03 0.  1.
         11    1    4    4    0    0 -0.62364571607E-01  0.14510241858E-01  0.35187460095E-01  0.73063707677E-01  0.51100000000E-03 0. -1.
</event>
<event>
 7    1  0.1129676E+005  0.1043930E+01  0.7957747E-01            NaN
         13   -1    0    0    0    0  0.00000000000E+00  0.00000000000E+00  0.74505805969E-08  0.10566000000E+00  0.10566000000E+00 0. -1.
     999900   -1    0    0    0    0 -0.00000000000E+00 -0.00000000000E+00 -0.74505805969E-08  0.93827000000E+00  0.93827000000E+00 0. -1.
     999902    2    1    2    0    0  0.84698887911E-02 -0.36330871142E-02  0.16359013997E-01  0.10251535340E+01  0.10249815669E+01 0.  0.
         14    1    1    2    0    0 -0.84698887911E-02  0.36330871142E-02 -0.16359013997E-01  0.18776466043E-01  0.00000000000E+00 0.  1.
     999901    1    3    3    0    0  0.85029572035E-01 -0.95932490940E-01 -0.28907038841E-01  0.88975765680E+00  0.88000000000E+00 0. -1.
        -11    1    3    3    0    0 -0.45220161496E-01  0.64606671130E-01  0.78039357790E-02  0.79246750690E-01  0.51100000000E-03 0. -1.
         11    1    3    3    0    0 -0.31339521748E-01  0.27692732696E-01  0.37462117059E-01  0.56149126468E-01  0.51100000000E-03 0.  1.
</event>
<event>
 8    1  0.1129676E+005  0.1043930E+01  0.7957747E-01            NaN
         13   -1    0    0    0    0  0.00000000000E+00  0.00000000000E+00  0.74505805969E-08  0.10566000000E+00  0.10566000000E+00 0. -1.
     999900   -1    0    0    0    0 -0.00000000000E+00 -0.00000000000E+00 -0.74505805969E-08  0.93827000000E+00  0.93827000000E+00 0. -1.
     999902    2    1    2    0    0  0.92461619247E-02  0.19116917323E-01  0.10650870567E-01  0.10201731256E+01  0.10198964737E+01 0.  0.
     999903    2    3    3    0    0  0.58440730891E-01  0.39705283481E-01  0.11093239884E+00  0.13287364325E+00  0.18909769801E-01 0.  0.
         14    1    1    2    0    0 -0.92461619247E-02 -0.19116917323E-01 -0.10650870567E-01  0.23756874418E-01  0.00000000000E+00 0.  1.
     999901    1    3    3    0    0 -0.49194568967E-01 -0.20588366158E-01 -0.10028152828E+00  0.88729948233E+00  0.88000000000E+00 0. -1.
        -11    1    4    4    0    0  0.16371551327E-01  0.12188692611E-01  0.18014879431E-01  0.27228457950E-01  0.51100000000E-03 0. -1.
         11    1    4    4    0    0  0.42069179565E-01  0.27516590870E-01  0.92917519411E-01  0.10564518530E+00  0.51100000000E-03 0.  1.
</event>
<event>
 8    1  0.1129676E+005  0.1043930E+01  0.7957747E-01            NaN
         13   -1    0    0    0    0  0.00000000000E+00  0.00000000000E+00  0.74505805969E-08  0.10566000000E+00  0.10566000000E+00 0. -1.
     999900   -1    0    0    0    0 -0.00000000000E+00 -0.00000000000E+00 -0.74505805969E-08  0.93827000000E+00  0.93827000000E+00 0. -1.
     999902    2    1    2    0    0 -0.21275314360E-02 -0.21007427874E-01 -0.89162683852E-02  0.10210097413E+01  0.10207524448E+01 0.  0.
     999903    2    3    3    0    0 -0.69953535666E-01  0.53365049079E-01  0.92790725522E-01  0.12945158574E+00  0.20156108067E-01 0.  0.
         14    1    1    2    0    0  0.21275314360E-02  0.21007427874E-01  0.89162683852E-02  0.22920258677E-01  0.00000000000E+00 0. -1.
     999901    1    3    3    0    0  0.67826004230E-01 -0.74372476953E-01 -0.10170699391E+00  0.89155815558E+00  0.88000000000E+00 0. -1.
        -11    1    4    4    0    0 -0.54242931785E-01  0.31608157845E-01  0.57677595194E-01  0.85254544744E-01  0.51100000000E-03 0. -1.
         11    1    4    4    0    0 -0.15710603880E-01  0.21756891234E-01  0.35113130327E-01  0.44197040996E-01  0.51100000000E-03 0.  1.
</event>
<event>
 8    1  0.1129676E+005  0.1043930E+01  0.7957747E-01            NaN
         13   -1    0    0    0    0  0.00000000000E+00  0.00000000000E+00  0.74505805969E-08  0.10566000000E+00  0.10566000000E+00 0. -1.
     999900   -1    0    0    0    0 -0.00000000000E+00 -0.00000000000E+00 -0.74505805969E-08  0.93827000000E+00  0.93827000000E+00 0. -1.
     999902    2    1    2    0    0  0.11250568359E-01  0.71796071552E-02  0.19247198986E-01  0.10205082854E+01  0.10202394737E+01 0.  0.
     999903    2    3    3    0    0  0.85606570452E-01  0.17175325717E-01 -0.94284530641E-01  0.13004875060E+00  0.19990700236E-01 0.  0.
         14    1    1    2    0    0 -0.11250568359E-01 -0.71796071552E-02 -0.19247198986E-01  0.23421714628E-01  0.00000000000E+00 0. -1.
     999901    1    3    3    0    0 -0.74356002093E-01 -0.99957185616E-02  0.11353172963E+00  0.89045953477E+00  0.88000000000E+00 0.  1.
        -11    1    4    4    0    0  0.77165727484E-01  0.16713936760E-01 -0.92081843269E-01  0.12129811277E+00  0.51100000000E-03 0. -1.
         11    1    4    4    0    0  0.84408429682E-02  0.46138895719E-03 -0.22026873716E-02  0.87506378305E-02  0.51100000000E-03 0.  1.
</event>
<event>
 8    1  0.1129676E+005  0.1043930E+01  0.7957747E-01            NaN
         13   -1    0    0    0    0  0.00000000000E+00  0.00000000000E+00  0.74505805969E-08  0.10566000000E+00  0.10566000000E+00 0. -1.
     999900   -1    0    0    0    0 -0.00000000000E+00 -0.00000000000E+00 -0.74505805969E-08  0.93827000000E+00  0.93827000000E+00 0. -1.
     999902    2    1    2    0    0  0.25653774054E-02 -0.60054297241E-02 -0.23533630032E-01  0.10195070991E+01  0.10192145245E+01 0.  0.
     999903    2    3    3    0    0 -0.11264254242E+00 -0.61530213795E-01  0.44016003266E-02  0.12982387256E+00  0.18988265529E-01 0.  0.
         14    1    1    2    0    0 -0.25653774054E-02  0.60054297241E-02  0.23533630032E-01  0.24422900931E-01  0.00000000000E+00 0. -1.
     999901    1    3    3    0    0  0.11520791983E+00  0.55524784071E-01 -0.27935230359E-01  0.88968322651E+00  0.88000000000E+00 0.  1.
        -11    1    4    4    0    0 -0.31979787985E-01 -0.21061353514E-01  0.94221480383E-02  0.39437614609E-01  0.51100000000E-03 0.  1.
         11    1    4    4    0    0 -0.80662754438E-01 -0.40468860280E-01 -0.50205477117E-02  0.90386257950E-01  0.51100000000E-03 0. -1.
</event>
<event>
 8    1  0.1129676E+005  0.1043930E+01  0.7957747E-01            NaN
         13   -1    0    0    0    0  0.00000000000E+00  0.00000000000E+00  0.74505805969E-08  0.10566000000E+00  0.10566000000E+00 0. -1.
     999900   -1    0    0    0    0 -0.00000000000E+00 -0.00000000000E+00 -0.74505805969E-08  0.93827000000E+00  0.93827000000E+00 0.  1.
     999902    2    1    2    0    0 -0.28089034448E-02 -0.54875419267E-02  0.22900854533E-01  0.10202139254E+01  0.10199382341E+01 0.  0.
     999903    2    3    3    0    0  0.93571602845E-01  0.50759145530E-01 -0.64077713006E-01  0.12891253810E+00  0.34356272503E-01 0.  0.
         14    1    1    2    0    0  0.28089034448E-02  0.54875419267E-02 -0.22900854533E-01  0.23716074576E-01  0.00000000000E+00 0.  1.
     999901    1    3    3    0    0 -0.96380506290E-01 -0.56246687457E-01  0.86978567539E-01  0.89130138733E+00  0.88000000000E+00 0. -1.
        -11    1    4    4    0    0  0.95529617604E-01  0.46013127201E-01 -0.63792713294E-01  0.12374525084E+00  0.51100000000E-03 0. -1.
         11    1    4    4    0    0 -0.19580147587E-02  0.47460183293E-02 -0.28499971164E-03  0.51672872586E-02  0.51100000000E-03 0.  1.
</event>
<event>
 8    1  0.1129676E+005  0.1043930E+01  0.7957747E-01            NaN
         13   -1    0    0    0    0  0.00000000000E+00  0.00000000000E+00  0.74505805969E-08  0.10566000000E+00  0.10566000000E+00 0.  1.
     999900   -1    0    0    0    0 -0.00000000000E+00 -0.00000000000E+00 -0.74505805969E-08  0.93827000000E+00  0.93827000000E+00 0.  1.
     999902    2    1    2    0    0 -0.12759996594E-01 -0.10473305311E-01 -0.17679131649E-01  0.10197420002E+01  0.10194550935E+01 0.  0.
     999903    2    3    3    0    0 -0.26066302710E-01  0.11070569631E+00 -0.60447282277E-01  0.13030930298E+00  0.19784771326E-01 0.  0.
         14    1    1    2    0    0  0.12759996594E-01  0.10473305311E-01  0.17679131649E-01  0.24187999774E-01  0.00000000000E+00 0.  1.
     999901    1    3    3    0    0  0.13306306116E-01 -0.12117900162E+00  0.42768150628E-01  0.88943269724E+00  0.88000000000E+00 0. -1.
        -11    1    4    4    0    0 -0.12401422574E-01  0.81743598152E-01 -0.36815699414E-01  0.90506728838E-01  0.51100000000E-03 0. -1.
         11    1    4    4    0    0 -0.13664880136E-01  0.28962098160E-01 -0.23631582862E-01  0.39802574144E-01  0.51100000000E-03 0.  1.
</event>
<event>
 8    1  0.1129676E+005  0.1043930E+01  0.7957747E-01            NaN
         13   -1    0    0    0    0  0.00000000000E+00  0.00000000000E+00  0.74505805969E-08  0.10566000000E+00  0.10566000000E+00 0.  1.
     999900   -1    0    0    0    0 -0.00000000000E+00 -0.00000000000E+00 -0.74505805969E-08  0.93827000000E+00  0.93827000000E+00 0. -1.
     999902    2    1    2    0    0 -0.14160499533E-01  0.15405407935E-01 -0.17337066445E-01  0.10167561115E+01  0.10163929211E+01 0.  0.
     999903    2    3    3    0    0  0.55033358186E-01 -0.10769380639E+00  0.23157462439E-01  0.12457843116E+00  0.18891558862E-01 0.  0.
         14    1    1    2    0    0  0.14160499533E-01 -0.15405407935E-01  0.17337066445E-01  0.27173888452E-01  0.00000000000E+00 0.  1.
     999901    1    3    3    0    0 -0.69193857719E-01  0.12309921432E+00 -0.40494528884E-01  0.89217768039E+00  0.88000000000E+00 0. -1.
        -11    1    4    4    0    0  0.11741874777E-01 -0.42888245350E-01  0.82085567404E-02  0.45220733488E-01  0.51100000000E-03 0.  1.
         11    1    4    4    0    0  0.43291483409E-01 -0.64805561038E-01  0.14948905699E-01  0.79357697672E-01  0.51100000000E-03 0. -1.
</event>
<event>
 8    1  0.1129676E+005  0.1043930E+01  0.7957747E-01            NaN
         13   -1    0    0    0    0  0.00000000000E+00  0.00000000000E+00  0.74505805969E-08  0.10566000000E+00  0.10566000000E+00 0.  1.
     999900   -1    0    0    0    0 -0.00000000000E+00 -0.00000000000E+00 -0.74505805969E-08  0.93827000000E+00  0.93827000000E+00 0. -1.
     999902    2    1    2    0    0 -0.27211024910E-02 -0.22906607397E-01 -0.42027460908E-02  0.10204826092E+01  0.10202132010E+01 0.  0.
     999903    2    3    3    0    0  0.12543303782E-01 -0.10155935276E+00 -0.82979421487E-01  0.13333830241E+00  0.20539763819E-01 0.  0.
         14    1    1    2    0    0  0.27211024910E-02  0.22906607397E-01  0.42027460908E-02  0.23447390813E-01  0.00000000000E+00 0.  1.
     999901    1    3    3    0    0 -0.15264406273E-01  0.78652745363E-01  0.78776675396E-01  0.88714430677E+00  0.88000000000E+00 0.  1.
        -11    1    4    4    0    0  0.16920497274E-01 -0.94438023634E-01 -0.77450234960E-01  0.12330305573E+00  0.51100000000E-03 0. -1.
         11    1    4    4    0    0 -0.43771934917E-02 -0.71213291265E-02 -0.55291865275E-02  0.10035246686E-01  0.51100000000E-03 0.  1.
</event>
<event>
 8    1  0.1129676E+005  0.1043930E+01  0.7957747E-01            NaN
         13   -1    0    0    0    0  0.00000000000E+00  0.00000000000E+00  0.74505805969E-08  0.10566000000E+00  0.10566000000E+00 0.  1.
     999900   -1    0    0    0    0 -0.00000000000E+00 -0.00000000000E+00 -0.74505805969E-08  0.93827000000E+00  0.93827000000E+00 0.  1.
     999902    2    1    2    0    0 -0.33877830756E-02 -0.22062373956E-01 -0.64493482702E-02  0.10206959837E+01  0.10204315125E+01 0.  0.
     999903    2    3    3    0    0  0.12326643492E+00 -0.36999173018E-01 -0.18381865487E-01  0.13142280643E+00  0.19248591912E-01 0.  0.
         14    1    1    2    0    0  0.33877830756E-02  0.22062373956E-01  0.64493482702E-02  0.23234016266E-01  0.00000000000E+00 0. -1.
     999901    1    3    3    0    0 -0.12665421799E+00  0.14936799063E-01  0.11932517217E-01  0.88927317730E+00  0.88000000000E+00 0. -1.
        -11    1    4    4    0    0  0.16654872542E-01 -0.10632215859E-01  0.14608068521E-02  0.19819784841E-01  0.51100000000E-03 0.  1.
         11    1    4    4    0    0  0.10661156237E+00 -0.26366957159E-01 -0.19842672339E-01  0.11160302159E+00  0.51100000000E-03 0. -1.
</event>
<event>
 8    1  0.1129676E+005  0.1043930E+01  0.7957747E-01            NaN
         13   -1    0    0    0    0  0.00000000000E+00  0.00000000000E+00  0.74505805969E-08  0.10566000000E+00  0.10566000000E+00 0. -1.
     999900   -1    0    0    0    0 -0.00000000000E+00 -0.00000000000E+00 -0.74505805969E-08  0.93827000000E+00  0.93827000000E+00 0. -1.
     999902    2    1    2    0    0  0.68785940309E-03 -0.12710041136E-01 -0.19252457617E-01  0.10208502379E+01  0.10205893066E+01 0.  0.
     999903    2    3    3    0    0  0.87121292960E-01  0.40378411618E-02 -0.98286661179E-01  0.13293265422E+00  0.20109672907E-01 0.  0.
         14    1    1    2    0    0 -0.68785940309E-03  0.12710041136E-01  0.19252457617E-01  0.23079762142E-01  0.00000000000E+00 0. -1.
     999901    1    3    3    0    0 -0.86433433557E-01 -0.16747882297E-01  0.79034203562E-01  0.88791758364E+00  0.88000000000E+00 0.  1.
        -11    1    4    4    0    0  0.15908962223E-01  0.61587919051E-02 -0.28390915442E-01  0.33125986738E-01  0.51100000000E-03 0. -1.
         11    1    4    4    0    0  0.71212330737E-01 -0.21209507432E-02 -0.69895745738E-01  0.99806667484E-01  0.51100000000E-03 0.  1.
</event>
<event>
 8    1  0.1129676E+005  0.1043930E+01  0.7957747E-01            NaN
         13   -1    0    0    0    0  0.00000000000E+00  0.00000000000E+00  0.74505805969E-08  0.10566000000E+00  0.10566000000E+00 0. -1.
     999900   -1    0    0    0    0 -0.00000000000E+00 -0.00000000000E+00 -0.74505805969E-08  0.93827000000E+00  0.93827000000E+00 0.  1.
     999902    2    1    2    0    0  0.54357737035E-02 -0.22605172604E-01 -0.30991056967E-02  0.10204748104E+01  0.10202052209E+01 0.  0.
     999903    2    3    3    0    0  0.82074821945E-01 -0.36388503634E-01 -0.95096055708E-01  0.13225920438E+00  0.19718968954E-01 0.  0.
         14    1    1    2    0    0 -0.54357737035E-02  0.22605172604E-01  0.30991056967E-02  0.23455189625E-01  0.00000000000E+00 0.  1.
     999901    1    3    3    0    0 -0.76639048242E-01  0.13783331030E-01  0.91996950012E-01  0.88821560600E+00  0.88000000000E+00 0. -1.
        -11    1    4    4    0    0  0.12824277604E-01 -0.92643386253E-02 -0.80238106937E-02  0.17746343998E-01  0.51100000000E-03 0. -1.
         11    1    4    4    0    0  0.69250544341E-01 -0.27124165009E-01 -0.87072245015E-01  0.11451286038E+00  0.51100000000E-03 0.  1.
</event>
<event>
 8    1  0.1129676E+005  0.1043930E+01  0.7957747E-01            NaN
         13   -1    0    0    0    0  0.00000000000E+00  0.00000000000E+00  0.74505805969E-08  0.10566000000E+00  0.10566000000E+00 0. -1.
     999900   -1    0    0    0    0 -0.00000000000E+00 -0.00000000000E+00 -0.74505805969E-08  0.93827000000E+00  0.93827000000E+00 0. -1.
     999902    2    1    2    0    0 -0.88715305371E-02 -0.12789665110E-01 -0.19220856629E-01  0.10191970075E+01  0.10188968639E+01 0.  0.
     999903    2    3    3    0    0  0.87668892147E-01 -0.65392816035E-01 -0.68501616303E-01  0.13098772026E+00  0.22433376531E-01 0.  0.
         14    1    1    2    0    0  0.88715305371E-02  0.12789665110E-01  0.19220856629E-01  0.24732992484E-01  0.00000000000E+00 0. -1.
     999901    1    3    3    0    0 -0.96540422684E-01  0.52603150925E-01  0.49280759674E-01  0.88820928726E+00  0.88000000000E+00 0.  1.
        -11    1    4    4    0    0  0.54843661173E-01 -0.48208109245E-01 -0.34761492252E-01  0.80873181170E-01  0.51100000000E-03 0. -1.
         11    1    4    4    0    0  0.32825230974E-01 -0.17184706790E-01 -0.33740124050E-01  0.50114539087E-01  0.51100000000E-03 0.  1.
</event>
<event>
 8    1  0.1129676E+005  0.1043930E+01  0.7957747E-01            NaN
         13   -1    0    0    0    0  0.00000000000E+00  0.00000000000E+00  0.74505805969E-08  0.10566000000E+00  0.10566000000E+00 0.  1.
     999900   -1    0    0    0    0 -0.00000000000E+00 -0.00000000000E+00 -0.74505805969E-08  0.93827000000E+00  0.93827000000E+00 0.  1.
     999902    2    1    2    0    0  0.14096559964E-01 -0.79469730320E-02  0.17206765547E-01  0.10203092429E+01  0.10200357891E+01 0.  0.
     999903    2    3    3    0    0 -0.12252198787E-01  0.22465363899E-01  0.12807626391E+00  0.13244032639E+00  0.21956815023E-01 0.  0.
         14    1    1    2    0    0 -0.14096559964E-01  0.79469730320E-02 -0.17206765547E-01  0.23620757053E-01  0.00000000000E+00 0.  1.
     999901    1    3    3    0    0  0.26348758750E-01 -0.30412336931E-01 -0.11086949836E+00  0.88786891656E+00  0.88000000000E+00 0.  1.
        -11    1    4    4    0    0 -0.13714045551E-01  0.92407363235E-02  0.38851766598E-01  0.42227800581E-01  0.51100000000E-03 0. -1.
         11    1    4    4    0    0  0.14618467645E-02  0.13224627575E-01  0.89224497313E-01  0.90212525806E-01  0.51100000000E-03 0.  1.
</event>
<event>
 8    1  0.1129676E+005  0.1043930E+01  0.7957747E-01            NaN
         13   -1    0    0    0    0  0.00000000000E+00  0.00000000000E+00  0.74505805969E-08  0.10566000000E+00  0.10566000000E+00 0.  1.
     999900   -1    0    0    0    0 -0.00000000000E+00 -0.00000000000E+00 -0.74505805969E-08  0.93827000000E+00  0.93827000000E+00 0. -1.
     999902    2    1    2    0    0 -0.79229985947E-02  0.29874517960E-03 -0.22612778555E-01  0.10199675104E+01  0.10196859915E+01 0.  0.
     999903    2    3    3    0    0 -0.12666717365E+00 -0.49238356855E-02  0.25089737550E-01  0.13069646929E+00  0.19576902630E-01 0.  0.
         14    1    1    2    0    0  0.79229985947E-02 -0.29874517960E-03  0.22612778555E-01  0.23962489633E-01  0.00000000000E+00 0.  1.
     999901    1    3    3    0    0  0.11874417505E+00  0.52225808651E-02 -0.47702516105E-01  0.88927104108E+00  0.88000000000E+00 0. -1.
        -11    1    4    4    0    0 -0.43321337975E-01 -0.49480941261E-02 -0.16703178205E-03  0.43606318121E-01  0.51100000000E-03 0.  1.
         11    1    4    4    0    0 -0.83345835671E-01  0.24258440560E-04  0.25256769332E-01  0.87090151167E-01  0.51100000000E-03 0. -1.
</event>
<event>
 8    1  0.1129676E+005  0.1043930E+01  0.7957747E-01            NaN
         13   -1    0    0    0    0  0.00000000000E+00  0.00000000000E+00  0.74505805969E-08  0.10566000000E+00  0.10566000000E+00 0. -1.
     999900   -1    0    0    0    0 -0.00000000000E+00 -0.00000000000E+00 -0.74505805969E-08  0.93827000000E+00  0.93827000000E+00 0. -1.
     999902    2    1    2    0    0  0.65655325822E-02  0.20195100087E-01 -0.10514650867E-01  0.10202338786E+01  0.10199586565E+01 0.  0.
     999903    2    3    3    0    0 -0.58757854891E-01 -0.87657281404E-01  0.68986046075E-01  0.12769836562E+00  0.20285796397E-01 0.  0.
         14    1    1    2    0    0 -0.65655325822E-02 -0.20195100087E-01  0.10514650867E-01  0.23696121380E-01  0.00000000000E+00 0. -1.
     999901    1    3    3    0    0  0.65323387473E-01  0.10785238149E+00 -0.79500696942E-01  0.89253551300E+00  0.88000000000E+00 0.  1.
        -11    1    4    4    0    0 -0.18873640249E-01 -0.38080466353E-01  0.17991723434E-01  0.46155167067E-01  0.51100000000E-03 0. -1.
         11    1    4    4    0    0 -0.39884214642E-01 -0.49576815051E-01  0.50994322641E-01  0.81543198557E-01  0.51100000000E-03 0.  1.
</event>
<event>
 8    1  0.1129676E+005  0.1043930E+01  0.7957747E-01            NaN
         13   -1    0    0    0    0  0.00000000000E+00  0.00000000000E+00  0.74505805969E-08  0.10566000000E+00  0.10566000000E+00 0.  1.
     999900   -1    0    0    0    0 -0.00000000000E+00 -0.00000000000E+00 -0.74505805969E-08  0.93827000000E+00  0.93827000000E+00 0.  1.
     999902    2    1    2    0    0  0.14077553760E-01  0.19256950753E-01 -0.44911621915E-02  0.10196570066E+01  0.10193680556E+01 0.  0.
     999903    2    3    3    0    0  0.17251486388E-01 -0.12515128691E+00  0.27403149277E-02  0.12785203506E+00  0.19446725847E-01 0.  0.
         14    1    1    2    0    0 -0.14077553760E-01 -0.19256950753E-01  0.44911621915E-02  0.24272993429E-01  0.00000000000E+00 0. -1.
     999901    1    3    3    0    0 -0.31739326282E-02  0.14440823766E+00 -0.72314771192E-02  0.89180497151E+00  0.88000000000E+00 0. -1.
        -11    1    4    4    0    0 -0.17504533374E-02 -0.45533434052E-01 -0.38457322153E-02  0.45731919714E-01  0.51100000000E-03 0.  1.
         11    1    4    4    0    0  0.19001939726E-01 -0.79617852854E-01  0.65860471430E-02  0.82120115345E-01  0.51100000000E-03 0. -1.
</event>
<event>
 7    1  0.1129676E+005  0.1043930E+01  0.7957747E-01            NaN
         13   -1    0    0    0    0  0.00000000000E+00  0.00000000000E+00  0.74505805969E-08  0.10566000000E+00  0.10566000000E+00 0. -1.
     999900   -1    0    0    0    0 -0.00000000000E+00 -0.00000000000E+00 -0.74505805969E-08  0.93827000000E+00  0.93827000000E+00 0.  1.
     999903    2    1    2    0    0 -0.62540087119E-01 -0.37618256861E-01  0.54388219471E-01  0.93144816368E-01  0.19785920572E-01 0.  0.
         14    1    1    2    0    0 -0.58641146653E-02  0.86343800960E-02 -0.66757209262E-01  0.67568227362E-01  0.00000000000E+00 0.  1.
     999901    1    1    2    0    0  0.68404201784E-01  0.28983876765E-01  0.12368989791E-01  0.88321695627E+00  0.88000000000E+00 0. -1.
        -11    1    3    3    0    0 -0.15394450980E-01 -0.19258213796E-01  0.13651087899E-01  0.28186543623E-01  0.51100000000E-03 0. -1.
         11    1    3    3    0    0 -0.47145636139E-01 -0.18360043065E-01  0.40737131571E-01  0.64958272745E-01  0.51100000000E-03 0.  1.
</event>
<event>
 8    1  0.1129676E+005  0.1043930E+01  0.7957747E-01            NaN
         13   -1    0    0    0    0  0.00000000000E+00  0.00000000000E+00  0.74505805969E-08  0.10566000000E+00  0.10566000000E+00 0. -1.
     999900   -1    0    0    0    0 -0.00000000000E+00 -0.00000000000E+00 -0.74505805969E-08  0.93827000000E+00  0.93827000000E+00 0.  1.
     999902    2    1    2    0    0  0.12785298839E-01  0.12352966653E-01 -0.15306502946E-01  0.10204704884E+01  0.10202007984E+01 0.  0.
     999903    2    3    3    0    0 -0.96676579252E-02 -0.10222000060E+00 -0.77980404520E-01  0.13054963910E+00  0.20490794216E-01 0.  0.
         14    1    1    2    0    0 -0.12785298839E-01 -0.12352966653E-01  0.15306502946E-01  0.23459511589E-01  0.00000000000E+00 0. -1.
     999901    1    3    3    0    0  0.22452956765E-01  0.11457296726E+00  0.62673901574E-01  0.88992084931E+00  0.88000000000E+00 0.  1.
        -11    1    4    4    0    0 -0.20680638559E-02 -0.84544740886E-01 -0.56501941833E-01  0.10170949145E+00  0.51100000000E-03 0.  1.
         11    1    4    4    0    0 -0.75995940693E-02 -0.17675259719E-01 -0.21478462688E-01  0.28840147652E-01  0.51100000000E-03 0. -1.
</event>
<event>
 8    1  0.1129676E+005  0.1043930E+01  0.7957747E-01            NaN
         13   -1    0    0    0    0  0.00000000000E+00  0.00000000000E+00  0.74505805969E-08  0.10566000000E+00  0.10566000000E+00 0.  1.
     999900   -1    0    0    0    0 -0.00000000000E+00 -0.00000000000E+00 -0.74505805969E-08  0.93827000000E+00  0.93827000000E+00 0. -1.
     999902    2    1    2    0    0 -0.54149312669E-02  0.65546156300E-02 -0.81790272993E-02  0.10321325022E+01  0.10320650760E+01 0.  0.
     999903    2    3    3    0    0 -0.11790994776E+00 -0.10659933519E-01 -0.75629066273E-01  0.14224431979E+00  0.22300244060E-01 0.  0.
         14    1    1    2    0    0  0.54149312669E-02 -0.65546156300E-02  0.81790272993E-02  0.11797497796E-01  0.00000000000E+00 0.  1.
     999901    1    3    3    0    0  0.11249501649E+00  0.17214549149E-01  0.67450038973E-01  0.88988818241E+00  0.88000000000E+00 0.  1.
        -11    1    4    4    0    0 -0.88849674840E-01 -0.96637953313E-02 -0.45206168112E-01  0.10015743815E+00  0.51100000000E-03 0. -1.
         11    1    4    4    0    0 -0.29060272917E-01 -0.99613818795E-03 -0.30422898160E-01  0.42086881647E-01  0.51100000000E-03 0.  1.
</event>
<event>
 8    1  0.1129676E+005  0.1043930E+01  0.7957747E-01            NaN
         13   -1    0    0    0    0  0.00000000000E+00  0.00000000000E+00  0.74505805969E-08  0.10566000000E+00  0.10566000000E+00 0. -1.
     999900   -1    0    0    0    0 -0.00000000000E+00 -0.00000000000E+00 -0.74505805969E-08  0.93827000000E+00  0.93827000000E+00 0. -1.
     999902    2    1    2    0    0 -0.54643140145E-02 -0.11666538684E-01 -0.19151294668E-01  0.10208488618E+01  0.10205878991E+01 0.  0.
     999903    2    3    3    0    0 -0.12430042478E+00 -0.20881685651E-01  0.31425231926E-01  0.13137433986E+00  0.19622221546E-01 0.  0.
         14    1    1    2    0    0  0.54643140145E-02  0.11666538684E-01  0.19151294668E-01  0.23081138186E-01  0.00000000000E+00 0. -1.
     999901    1    3    3    0    0  0.11883611076E+00  0.92151469675E-02 -0.50576526594E-01  0.88947452195E+00  0.88000000000E+00 0. -1.
        -11    1    4    4    0    0 -0.67266903659E-01 -0.20279960541E-01  0.21524108731E-01  0.73482389081E-01  0.51100000000E-03 0.  1.
         11    1    4    4    0    0 -0.57033521117E-01 -0.60172511056E-03  0.99011231947E-02  0.57891950784E-01  0.51100000000E-03 0. -1.
</event>
<event>
 8    1  0.1129676E+005  0.1043930E+01  0.7957747E-01            NaN
         13   -1    0    0    0    0  0.00000000000E+00  0.00000000000E+00  0.74505805969E-08  0.10566000000E+00  0.10566000000E+00 0.  1.
     999900   -1    0    0    0    0 -0.00000000000E+00 -0.00000000000E+00 -0.74505805969E-08  0.93827000000E+00  0.93827000000E+00 0. -1.
     999902    2    1    2    0    0 -0.10977847063E-01  0.84588443105E-02  0.18729294246E-01  0.10206308233E+01  0.10203648493E+01 0.  0.
     999903    2    3    3    0    0  0.11494495119E+00 -0.16633094865E-01  0.58156867202E-01  0.13043944495E+00  0.11967704299E-01 0.  0.
         14    1    1    2    0    0  0.10977847063E-01 -0.84588443105E-02 -0.18729294246E-01  0.23299176727E-01  0.00000000000E+00 0. -1.
     999901    1    3    3    0    0 -0.12592279826E+00  0.25091939175E-01 -0.39427572956E-01  0.89019137832E+00  0.88000000000E+00 0. -1.
        -11    1    4    4    0    0  0.24785282571E-01  0.28468647395E-03  0.15794105290E-01  0.29395682700E-01  0.51100000000E-03 0. -1.
         11    1    4    4    0    0  0.90159668622E-01 -0.16917781339E-01  0.42362761913E-01  0.10104376225E+00  0.51100000000E-03 0.  1.
</event>
<event>
 7    1  0.1145732E+005  0.1043930E+01  0.7957747E-01            NaN
         13   -1    0    0    0    0  0.00000000000E+00  0.00000000000E+00  0.74505805969E-08  0.10566000000E+00  0.10566000000E+00 0. -1.
     999900   -1    0    0    0    0 -0.00000000000E+00 -0.00000000000E+00 -0.74505805969E-08  0.93827000000E+00  0.93827000000E+00 0.  1.
     999903    2    1    2    0    0 -0.95193722982E-01  0.20464612981E-01 -0.39445617847E-01  0.10695223097E+00  0.20054367646E-01 0.  0.
         14    1    1    2    0    0 -0.38144743853E-01  0.16155156958E-01 -0.16115875250E-01  0.44449207136E-01  0.00000000000E+00 0.  1.
     999901    1    1    2    0    0  0.13333846683E+00 -0.36619769939E-01  0.55561493097E-01  0.89252856190E+00  0.88000000000E+00 0. -1.
        -11    1    3    3    0    0 -0.35008107057E-01  0.41832636316E-02 -0.46975339955E-02  0.35572393804E-01  0.51100000000E-03 0. -1.
         11    1    3    3    0    0 -0.60185615925E-01  0.16281349349E-01 -0.34748083852E-01  0.71379837162E-01  0.51100000000E-03 0.  1.
</event>
<event>
 8    1  0.1129676E+005  0.1043930E+01  0.7957747E-01            NaN
         13   -1    0    0    0    0  0.00000000000E+00  0.00000000000E+00  0.74505805969E-08  0.10566000000E+00  0.10566000000E+00 0.  1.
     999900   -1    0    0    0    0 -0.00000000000E+00 -0.00000000000E+00 -0.74505805969E-08  0.93827000000E+00  0.93827000000E+00 0. -1.
     999902    2    1    2    0    0  0.73287363167E-02 -0.22229296241E-01  0.48821187008E-02  0.10200200215E+01  0.10197397498E+01 0.  0.
     999903    2    3    3    0    0 -0.17546981957E-01 -0.27029259800E-02 -0.12690634211E+00  0.12964466310E+00  0.19680361255E-01 0.  0.
         14    1    1    2    0    0 -0.73287363167E-02  0.22229296241E-01 -0.48821187008E-02  0.23909978469E-01  0.00000000000E+00 0. -1.
     999901    1    3    3    0    0  0.24875718274E-01 -0.19526370261E-01  0.13178846081E+00  0.89037535843E+00  0.88000000000E+00 0.  1.
        -11    1    4    4    0    0 -0.16890678320E-01  0.50245324870E-02 -0.10325056207E+00  0.10474483582E+00  0.51100000000E-03 0.  1.
         11    1    4    4    0    0 -0.65630363721E-03 -0.77274584670E-02 -0.23655780035E-01  0.24899827286E-01  0.51100000000E-03 0. -1.
</event>
<event>
 8    1  0.1129676E+005  0.1043930E+01  0.7957747E-01            NaN
         13   -1    0    0    0    0  0.00000000000E+00  0.00000000000E+00  0.74505805969E-08  0.10566000000E+00  0.10566000000E+00 0. -1.
     999900   -1    0    0    0    0 -0.00000000000E+00 -0.00000000000E+00 -0.74505805969E-08  0.93827000000E+00  0.93827000000E+00 0. -1.
     999902    2    1    2    0    0 -0.92638377889E-02  0.12986345472E-01  0.17102520534E-01  0.10205428226E+01  0.10202748123E+01 0.  0.
     999903    2    3    3    0    0 -0.12378650384E+00  0.41253539899E-01 -0.66822976680E-02  0.13235354494E+00  0.21162577104E-01 0.  0.
         14    1    1    2    0    0  0.92638377889E-02 -0.12986345472E-01 -0.17102520534E-01  0.23387177425E-01  0.00000000000E+00 0.  1.
     999901    1    3    3    0    0  0.11452266605E+00 -0.28267194428E-01  0.23784818202E-01  0.88818927763E+00  0.88000000000E+00 0.  1.
        -11    1    4    4    0    0 -0.62209868811E-01  0.30016013352E-01  0.23217993494E-02  0.69113534913E-01  0.51100000000E-03 0. -1.
         11    1    4    4    0    0 -0.61576635031E-01  0.11237526547E-01 -0.90040970174E-02  0.63240010032E-01  0.51100000000E-03 0.  1.
</event>
<event>
 8    1  0.1129676E+005  0.1043930E+01  0.7957747E-01            NaN
         13   -1    0    0    0    0  0.00000000000E+00  0.00000000000E+00  0.74505805969E-08  0.10566000000E+00  0.10566000000E+00 0.  1.
     999900   -1    0    0    0    0 -0.00000000000E+00 -0.00000000000E+00 -0.74505805969E-08  0.93827000000E+00  0.93827000000E+00 0. -1.
     999902    2    1    2    0    0  0.11525567014E-01 -0.20653835906E-01 -0.84403481077E-03  0.10202628914E+01  0.10199883507E+01 0.  0.
     999903    2    3    3    0    0 -0.13273177353E-01  0.10029024858E+00  0.76322219833E-01  0.12830040336E+00  0.20039986620E-01 0.  0.
         14    1    1    2    0    0 -0.11525567014E-01  0.20653835906E-01  0.84403481077E-03  0.23667108556E-01  0.00000000000E+00 0. -1.
     999901    1    3    3    0    0  0.24798744367E-01 -0.12094408449E+00 -0.77166254644E-01  0.89196248809E+00  0.88000000000E+00 0. -1.
        -11    1    4    4    0    0 -0.15197874620E-01  0.50666306839E-01  0.46069515019E-01  0.70147782408E-01  0.51100000000E-03 0. -1.
         11    1    4    4    0    0  0.19246972676E-02  0.49623941745E-01  0.30252704814E-01  0.58152620951E-01  0.51100000000E-03 0.  1.
</event>
<event>
 8    1  0.1129676E+005  0.1043930E+01  0.7957747E-01            NaN
         13   -1    0    0    0    0  0.00000000000E+00  0.00000000000E+00  0.74505805969E-08  0.10566000000E+00  0.10566000000E+00 0. -1.
     999900   -1    0    0    0    0 -0.00000000000E+00 -0.00000000000E+00 -0.74505805969E-08  0.93827000000E+00  0.93827000000E+00 0. -1.
     999902    2    1    2    0    0  0.18113147550E-01 -0.30782786951E-01  0.27273246170E-02  0.10081095535E+01  0.10074729612E+01 0.  0.
     999903    2    3    3    0    0 -0.70409615222E-02  0.23650560281E-01 -0.11400528854E+00  0.11837800891E+00  0.20179768010E-01 0.  0.
         14    1    1    2    0    0 -0.18113147550E-01  0.30782786951E-01 -0.27273246170E-02  0.35820446482E-01  0.00000000000E+00 0. -1.
     999901    1    3    3    0    0  0.25154109072E-01 -0.54433347232E-01  0.11673261316E+00  0.88973154461E+00  0.88000000000E+00 0.  1.
        -11    1    4    4    0    0 -0.88660961751E-02  0.14978383285E-01 -0.37341923745E-01  0.41202427321E-01  0.51100000000E-03 0. -1.
         11    1    4    4    0    0  0.18251346529E-02  0.86721769962E-02 -0.76663364799E-01  0.77175581589E-01  0.51100000000E-03 0.  1.
</event>
<event>
 8    1  0.1129676E+005  0.1043930E+01  0.7957747E-01            NaN
         13   -1    0    0    0    0  0.00000000000E+00  0.00000000000E+00  0.74505805969E-08  0.10566000000E+00  0.10566000000E+00 0. -1.
     999900   -1    0    0    0    0 -0.00000000000E+00 -0.00000000000E+00 -0.74505805969E-08  0.93827000000E+00  0.93827000000E+00 0. -1.
     999902    2    1    2    0    0  0.15396252116E-01 -0.10515146141E-01 -0.13586522696E-01  0.10208603993E+01  0.10205997004E+01 0.  0.
     999903    2    3    3    0    0 -0.19771252803E-01  0.28653778409E-01  0.12242756262E+00  0.12885659356E+00  0.20089105509E-01 0.  0.
         14    1    1    2    0    0 -0.15396252116E-01  0.10515146141E-01  0.13586522696E-01  0.23069600702E-01  0.00000000000E+00 0. -1.
     999901    1    3    3    0    0  0.35167504919E-01 -0.39168924551E-01 -0.13601408531E+00  0.89200380574E+00  0.88000000000E+00 0. -1.
        -11    1    4    4    0    0 -0.61265870591E-02  0.10586007878E-01  0.16558181481E-01  0.20592064655E-01  0.51100000000E-03 0. -1.
         11    1    4    4    0    0 -0.13644665744E-01  0.18067770531E-01  0.10586938114E+00  0.10826452890E+00  0.51100000000E-03 0.  1.
</event>
<event>
 8    1  0.1129676E+005  0.1043930E+01  0.7957747E-01            NaN
         13   -1    0    0    0    0  0.00000000000E+00  0.00000000000E+00  0.74505805969E-08  0.10566000000E+00  0.10566000000E+00 0.  1.
     999900   -1    0    0    0    0 -0.00000000000E+00 -0.00000000000E+00 -0.74505805969E-08  0.93827000000E+00  0.93827000000E+00 0.  1.
     999902    2    1    2    0    0  0.20052511151E-01  0.41464291391E-02  0.11191503506E-01  0.10205944942E+01  0.10203276806E+01 0.  0.
     999903    2    3    3    0    0  0.34800516055E-01 -0.11889638358E+00  0.39109291873E-01  0.13147333247E+00  0.20205803495E-01 0.  0.
         14    1    1    2    0    0 -0.20052511151E-01 -0.41464291391E-02 -0.11191503506E-01  0.23335505753E-01  0.00000000000E+00 0. -1.
     999901    1    3    3    0    0 -0.14748004905E-01  0.12304281272E+00 -0.27917788367E-01  0.88912116178E+00  0.88000000000E+00 0.  1.
        -11    1    4    4    0    0  0.47445188222E-02 -0.34554254303E-01  0.18933832749E-01  0.39689521197E-01  0.51100000000E-03 0.  1.
         11    1    4    4    0    0  0.30055997233E-01 -0.84342129274E-01  0.20175459124E-01  0.91783811274E-01  0.51100000000E-03 0. -1.
</event>
<event>
 8    1  0.1129676E+005  0.1043930E+01  0.7957747E-01            NaN
         13   -1    0    0    0    0  0.00000000000E+00  0.00000000000E+00  0.74505805969E-08  0.10566000000E+00  0.10566000000E+00 0.  1.
     999900   -1    0    0    0    0 -0.00000000000E+00 -0.00000000000E+00 -0.74505805969E-08  0.93827000000E+00  0.93827000000E+00 0. -1.
     999902    2    1    2    0    0 -0.47402033212E-02 -0.11659808844E-01  0.20398225573E-01  0.10199610977E+01  0.10196794264E+01 0.  0.
     999903    2    3    3    0    0 -0.52919749300E-01  0.86104379358E-01 -0.76404404972E-01  0.12796902689E+00  0.17999298149E-01 0.  0.
         14    1    1    2    0    0  0.47402033212E-02  0.11659808844E-01 -0.20398225573E-01  0.23968902277E-01  0.00000000000E+00 0. -1.
     999901    1    3    3    0    0  0.48179545978E-01 -0.97764188203E-01  0.96802630546E-01  0.89199207083E+00  0.88000000000E+00 0.  1.
        -11    1    4    4    0    0 -0.11668836483E-01  0.28915888139E-01 -0.15656492889E-01  0.34895232086E-01  0.51100000000E-03 0. -1.
         11    1    4    4    0    0 -0.41250912816E-01  0.57188491219E-01 -0.60747912083E-01  0.93073794805E-01  0.51100000000E-03 0.  1.
</event>
<event>
 8    1  0.1129676E+005  0.1043930E+01  0.7957747E-01            NaN
         13   -1    0    0    0    0  0.00000000000E+00  0.00000000000E+00  0.74505805969E-08  0.10566000000E+00  0.10566000000E+00 0.  1.
     999900   -1    0    0    0    0 -0.00000000000E+00 -0.00000000000E+00 -0.74505805969E-08  0.93827000000E+00  0.93827000000E+00 0. -1.
     999902    2    1    2    0    0  0.12772455848E-01  0.17964049934E-01 -0.82232700262E-02  0.10204041655E+01  0.10201329306E+01 0.  0.
     999903    2    3    3    0    0 -0.90586143777E-01 -0.57972359343E-01 -0.68435332875E-01  0.12907098938E+00  0.20230709838E-01 0.  0.
         14    1    1    2    0    0 -0.12772455848E-01 -0.17964049934E-01  0.82232700262E-02  0.23525834488E-01  0.00000000000E+00 0.  1.
     999901    1    3    3    0    0  0.10335859963E+00  0.75936409276E-01  0.60212062848E-01  0.89133317614E+00  0.88000000000E+00 0.  1.
        -11    1    4    4    0    0 -0.50361560564E-01 -0.33650890633E-01 -0.50125101199E-01  0.78622236766E-01  0.51100000000E-03 0.  1.
         11    1    4    4    0    0 -0.40224583213E-01 -0.24321468710E-01 -0.18310231675E-01  0.50448752609E-01  0.51100000000E-03 0. -1.
</event>
<event>
 8    1  0.1129676E+005  0.1043930E+01  0.7957747E-01            NaN
         13   -1    0    0    0    0  0.00000000000E+00  0.00000000000E+00  0.74505805969E-08  0.10566000000E+00  0.10566000000E+00 0. -1.
     999900   -1    0    0    0    0 -0.00000000000E+00 -0.00000000000E+00 -0.74505805969E-08  0.93827000000E+00  0.93827000000E+00 0. -1.
     999902    2    1    2    0    0 -0.13042515027E-01  0.17719033385E-01  0.71721606373E-02  0.10207888844E+01  0.10205265481E+01 0.  0.
     999903    2    3    3    0    0  0.60531301502E-02  0.13128349422E+00  0.95324342723E-02  0.13328277102E+00  0.20035805617E-01 0.  0.
         14    1    1    2    0    0  0.13042515027E-01 -0.17719033385E-01 -0.71721606373E-02  0.23141115585E-01  0.00000000000E+00 0.  1.
     999901    1    3    3    0    0 -0.19095645177E-01 -0.11356446084E+00 -0.23602736350E-02  0.88750611340E+00  0.88000000000E+00 0.  1.
        -11    1    4    4    0    0  0.16802136051E-03  0.11474764740E-01 -0.48502142330E-02  0.12469328616E-01  0.51100000000E-03 0.  1.
         11    1    4    4    0    0  0.58851087897E-02  0.11980872948E+00  0.14382648505E-01  0.12081344240E+00  0.51100000000E-03 0. -1.
</event>
<event>
 8    1  0.1129676E+005  0.1043930E+01  0.7957747E-01            NaN
         13   -1    0    0    0    0  0.00000000000E+00  0.00000000000E+00  0.74505805969E-08  0.10566000000E+00  0.10566000000E+00 0.  1.
     999900   -1    0    0    0    0 -0.00000000000E+00 -0.00000000000E+00 -0.74505805969E-08  0.93827000000E+00  0.93827000000E+00 0. -1.
     999902    2    1    2    0    0 -0.18825720444E-01 -0.14708461973E-01 -0.23787842136E-02  0.10199215594E+01  0.10196389470E+01 0.  0.
     999903    2    3    3    0    0  0.45473343893E-01  0.89936841462E-01  0.75659674041E-01  0.12797144302E+00  0.22267543565E-01 0.  0.
         14    1    1    2    0    0  0.18825720444E-01  0.14708461973E-01  0.23787842136E-02  0.24008440562E-01  0.00000000000E+00 0.  1.
     999901    1    3    3    0    0 -0.64299064337E-01 -0.10464530344E+00 -0.78038458255E-01  0.89195011641E+00  0.88000000000E+00 0. -1.
        -11    1    4    4    0    0  0.30706032177E-01  0.75149032317E-01  0.52040953581E-01  0.96430075395E-01  0.51100000000E-03 0.  1.
         11    1    4    4    0    0  0.14767311716E-01  0.14787809146E-01  0.23618720461E-01  0.31541367628E-01  0.51100000000E-03 0. -1.
</event>
<event>
 8    1  0.1129676E+005  0.1043930E+01  0.7957747E-01            NaN
         13   -1    0    0    0    0  0.00000000000E+00  0.00000000000E+00  0.74505805969E-08  0.10566000000E+00  0.10566000000E+00 0. -1.
     999900   -1    0    0    0    0 -0.00000000000E+00 -0.00000000000E+00 -0.74505805969E-08  0.93827000000E+00  0.93827000000E+00 0.  1.
     999902    2    1    2    0    0 -0.37024369192E-02  0.15238964636E-01 -0.20344782360E-01  0.10182425663E+01  0.10179185034E+01 0.  0.
     999903    2    3    3    0    0 -0.57091625699E-01  0.11410579372E+00 -0.21285142936E-01  0.13109774176E+00  0.21306682064E-01 0.  0.
         14    1    1    2    0    0  0.37024369192E-02 -0.15238964636E-01  0.20344782360E-01  0.25687433729E-01  0.00000000000E+00 0. -1.
     999901    1    3    3    0    0  0.53389188780E-01 -0.98866829084E-01  0.94036057644E-03  0.88714482451E+00  0.88000000000E+00 0. -1.
        -11    1    4    4    0    0 -0.36576671533E-01  0.55858210615E-01 -0.36387198543E-02  0.66869230568E-01  0.51100000000E-03 0. -1.
         11    1    4    4    0    0 -0.20514954166E-01  0.58247583104E-01 -0.17646423082E-01  0.64228511197E-01  0.51100000000E-03 0.  1.
</event>
<event>
 8    1  0.1129676E+005  0.1043930E+01  0.7957747E-01            NaN
         13   -1    0    0    0    0  0.00000000000E+00  0.00000000000E+00  0.74505805969E-08  0.10566000000E+00  0.10566000000E+00 0.  1.
     999900   -1    0    0    0    0 -0.00000000000E+00 -0.00000000000E+00 -0.74505805969E-08  0.93827000000E+00  0.93827000000E+00 0. -1.
     999902    2    1    2    0    0 -0.43564348564E-02  0.19933208003E-01 -0.12473721420E-01  0.10200154640E+01  0.10197350841E+01 0.  0.
     999903    2    3    3    0    0  0.12746280973E+00  0.14128427861E-01  0.61018041340E-03  0.13008220965E+00  0.21785972730E-01 0.  0.
         14    1    1    2    0    0  0.43564348564E-02 -0.19933208003E-01  0.12473721420E-01  0.23914535998E-01  0.00000000000E+00 0.  1.
     999901    1    3    3    0    0 -0.13181924459E+00  0.58047801415E-02 -0.13083901833E-01  0.88993325435E+00  0.88000000000E+00 0.  1.
        -11    1    4    4    0    0  0.96305085909E-01  0.18907901599E-01  0.48899335635E-02  0.98266733365E-01  0.51100000000E-03 0.  1.
         11    1    4    4    0    0  0.31157723825E-01 -0.47794737382E-02 -0.42797531501E-02  0.31815476284E-01  0.51100000000E-03 0. -1.
</event>
<event>
 8    1  0.1129676E+005  0.1043930E+01  0.7957747E-01            NaN
         13   -1    0    0    0    0  0.00000000000E+00  0.00000000000E+00  0.74505805969E-08  0.10566000000E+00  0.10566000000E+00 0. -1.
     999900   -1    0    0    0    0 -0.00000000000E+00 -0.00000000000E+00 -0.74505805969E-08  0.93827000000E+00  0.93827000000E+00 0. -1.
     999902    2    1    2    0    0  0.61129461543E-03 -0.19555980092E-01 -0.99354695785E-02  0.10219863541E+01  0.10217507448E+01 0.  0.
     999903    2    3    3    0    0  0.11424064363E+00  0.52846266010E-01 -0.32317281966E-01  0.13145018994E+00  0.19776077332E-01 0.  0.
         14    1    1    2    0    0 -0.61129461543E-03  0.19555980092E-01  0.99354695785E-02  0.21943645873E-01  0.00000000000E+00 0. -1.
     999901    1    3    3    0    0 -0.11362934901E+00 -0.72402246102E-01  0.22381812388E-01  0.89053616419E+00  0.88000000000E+00 0.  1.
        -11    1    4    4    0    0  0.41608627935E-01  0.94898555542E-02 -0.13816073046E-01  0.44860676238E-01  0.51100000000E-03 0. -1.
         11    1    4    4    0    0  0.72632015690E-01  0.43356410456E-01 -0.18501208920E-01  0.86589513703E-01  0.51100000000E-03 0.  1.
</event>
<event>
 8    1  0.1129676E+005  0.1043930E+01  0.7957747E-01            NaN
         13   -1    0    0    0    0  0.00000000000E+00  0.00000000000E+00  0.74505805969E-08  0.10566000000E+00  0.10566000000E+00 0. -1.
     999900   -1    0    0    0    0 -0.00000000000E+00 -0.00000000000E+00 -0.74505805969E-08  0.93827000000E+00  0.93827000000E+00 0. -1.
     999902    2    1    2    0    0 -0.85362142386E-02 -0.19806222687E-01 -0.63649180434E-02  0.10214429906E+01  0.10211954355E+01 0.  0.
     999903    2    3    3    0    0  0.31646119372E-01  0.37068714846E-01 -0.12040061458E+00  0.13135674840E+00  0.19563252981E-01 0.  0.
         14    1    1    2    0    0  0.85362142386E-02  0.19806222687E-01  0.63649180434E-02  0.22487009414E-01  0.00000000000E+00 0. -1.
     999901    1    3    3    0    0 -0.40182333610E-01 -0.56874937533E-01  0.11403569653E+00  0.89008624219E+00  0.88000000000E+00 0.  1.
        -11    1    4    4    0    0  0.30691847480E-01  0.30496039083E-01 -0.85491973332E-01  0.95818247357E-01  0.51100000000E-03 0. -1.
         11    1    4    4    0    0  0.95427189186E-03  0.65726757626E-02 -0.34908641244E-01  0.35538501038E-01  0.51100000000E-03 0.  1.
</event>
<event>
 8    1  0.1129676E+005  0.1043930E+01  0.7957747E-01            NaN
         13   -1    0    0    0    0  0.00000000000E+00  0.00000000000E+00  0.74505805969E-08  0.10566000000E+00  0.10566000000E+00 0.  1.
     999900   -1    0    0    0    0 -0.00000000000E+00 -0.00000000000E+00 -0.74505805969E-08  0.93827000000E+00  0.93827000000E+00 0. -1.
     999902    2    1    2    0    0 -0.19528304765E-01  0.27795573064E-03 -0.12665828567E-01  0.10206522175E+01  0.10203867374E+01 0.  0.
     999903    2    3    3    0    0  0.12137727826E+00 -0.83234150083E-02  0.34957301636E-01  0.12812976428E+00  0.19836850619E-01 0.  0.
         14    1    1    2    0    0  0.19528304765E-01 -0.27795573064E-03  0.12665828567E-01  0.23277782533E-01  0.00000000000E+00 0.  1.
     999901    1    3    3    0    0 -0.14090558302E+00  0.86013707390E-02 -0.47623130203E-01  0.89252245318E+00  0.88000000000E+00 0.  1.
        -11    1    4    4    0    0  0.20382884975E-01 -0.71505300978E-03  0.13886473202E-01  0.24679314410E-01  0.51100000000E-03 0. -1.
         11    1    4    4    0    0  0.10099439328E+00 -0.76083619986E-02  0.21070828434E-01  0.10345044987E+00  0.51100000000E-03 0.  1.
</event>
<event>
 8    1  0.1637099E+005  0.1043930E+01  0.7957747E-01            NaN
         13   -1    0    0    0    0  0.00000000000E+00  0.00000000000E+00  0.74505805969E-08  0.10566000000E+00  0.10566000000E+00 0. -1.
     999900   -1    0    0    0    0 -0.00000000000E+00 -0.00000000000E+00 -0.74505805969E-08  0.93827000000E+00  0.93827000000E+00 0. -1.
     999902    2    1    2    0    0 -0.23376719097E-01  0.50351874320E-02  0.37790461625E-02  0.10197203883E+01  0.10194329625E+01 0.  0.
     999903    2    3    3    0    0 -0.13183977139E-01 -0.12688597279E+00 -0.12393773278E-01  0.12968182477E+00  0.19745954386E-01 0.  0.
         14    1    1    2    0    0  0.23376719097E-01 -0.50351874320E-02 -0.37790461625E-02  0.24209611689E-01  0.00000000000E+00 0.  1.
     999901    1    3    3    0    0 -0.10192741959E-01  0.13192116022E+00  0.16172819441E-01  0.89003856354E+00  0.88000000000E+00 0.  1.
        -11    1    4    4    0    0 -0.93101306381E-02 -0.60134399989E-01  0.34980574768E-02  0.60953442246E-01  0.51100000000E-03 0. -1.
         11    1    4    4    0    0 -0.38738465006E-02 -0.66751572804E-01 -0.15891830755E-01  0.68728382523E-01  0.51100000000E-03 0.  1.
</event>
<event>
 8    1  0.1129676E+005  0.1043930E+01  0.7957747E-01            NaN
         13   -1    0    0    0    0  0.00000000000E+00  0.00000000000E+00  0.74505805969E-08  0.10566000000E+00  0.10566000000E+00 0.  1.
     999900   -1    0    0    0    0 -0.00000000000E+00 -0.00000000000E+00 -0.74505805969E-08  0.93827000000E+00  0.93827000000E+00 0. -1.
     999902    2    1    2    0    0  0.21016757232E-01 -0.52328403464E-02  0.10296419716E-01  0.10199486956E+01  0.10196667292E+01 0.  0.
     999903    2    3    3    0    0  0.73614230584E-01  0.99070083570E-01  0.41512352866E-01  0.13168070189E+00  0.19560046166E-01 0.  0.
         14    1    1    2    0    0 -0.21016757232E-01  0.52328403464E-02 -0.10296419716E-01  0.23981304418E-01  0.00000000000E+00 0. -1.
     999901    1    3    3    0    0 -0.52597473352E-01 -0.10430292392E+00 -0.31215933150E-01  0.88826799369E+00  0.88000000000E+00 0. -1.
        -11    1    4    4    0    0  0.37088634405E-01  0.65586896720E-01  0.22975427811E-01  0.78773975572E-01  0.51100000000E-03 0.  1.
         11    1    4    4    0    0  0.36525596179E-01  0.33483186850E-01  0.18536925055E-01  0.52906726315E-01  0.51100000000E-03 0. -1.
</event>
<event>
 8    1  0.1129676E+005  0.1043930E+01  0.7957747E-01            NaN
         13   -1    0    0    0    0  0.00000000000E+00  0.00000000000E+00  0.74505805969E-08  0.10566000000E+00  0.10566000000E+00 0.  1.
     999900   -1    0    0    0    0 -0.00000000000E+00 -0.00000000000E+00 -0.74505805969E-08  0.93827000000E+00  0.93827000000E+00 0. -1.
     999902    2    1    2    0    0 -0.53908596888E-02  0.15478289681E-01 -0.17963251361E-01  0.10196129850E+01  0.10193229723E+01 0.  0.
     999903    2    3    3    0    0 -0.23328090393E-01  0.54694511776E-01  0.11265428706E+00  0.12892751993E+00  0.19890389194E-01 0.  0.
         14    1    1    2    0    0  0.53908596888E-02 -0.15478289681E-01  0.17963251361E-01  0.24317015012E-01  0.00000000000E+00 0.  1.
     999901    1    3    3    0    0  0.17937230704E-01 -0.39216222095E-01 -0.13061753842E+00  0.89068546506E+00  0.88000000000E+00 0. -1.
        -11    1    4    4    0    0 -0.67975753147E-02  0.36824153538E-01  0.57275292195E-01  0.68432050466E-01  0.51100000000E-03 0. -1.
         11    1    4    4    0    0 -0.16530515078E-01  0.17870358238E-01  0.55378994867E-01  0.60495469465E-01  0.51100000000E-03 0.  1.
</event>
<event>
 8    1  0.1129676E+005  0.1043930E+01  0.7957747E-01            NaN
         13   -1    0    0    0    0  0.00000000000E+00  0.00000000000E+00  0.74505805969E-08  0.10566000000E+00  0.10566000000E+00 0.  1.
     999900   -1    0    0    0    0 -0.00000000000E+00 -0.00000000000E+00 -0.74505805969E-08  0.93827000000E+00  0.93827000000E+00 0.  1.
     999902    2    1    2    0    0  0.25931758901E-01 -0.20142906735E-02 -0.92896113327E-02  0.10163109782E+01  0.10159356249E+01 0.  0.
     999903    2    3    3    0    0  0.30885743023E-01  0.12039774925E+00 -0.21559725420E-01  0.12773919991E+00  0.20073223118E-01 0.  0.
         14    1    1    2    0    0 -0.25931758901E-01  0.20142906735E-02  0.92896113327E-02  0.27619021802E-01  0.00000000000E+00 0.  1.
     999901    1    3    3    0    0 -0.49539841224E-02 -0.12241203992E+00  0.12270114087E-01  0.88857177829E+00  0.88000000000E+00 0.  1.
        -11    1    4    4    0    0  0.18214880897E-01  0.36331027276E-01 -0.10709028324E-01  0.42031771765E-01  0.51100000000E-03 0.  1.
         11    1    4    4    0    0  0.12670862126E-01  0.84066721972E-01 -0.10850697095E-01  0.85707428141E-01  0.51100000000E-03 0. -1.
</event>
<event>
 8    1  0.1129676E+005  0.1043930E+01  0.7957747E-01            NaN
         13   -1    0    0    0    0  0.00000000000E+00  0.00000000000E+00  0.74505805969E-08  0.10566000000E+00  0.10566000000E+00 0.  1.
     999900   -1    0    0    0    0 -0.00000000000E+00 -0.00000000000E+00 -0.74505805969E-08  0.93827000000E+00  0.93827000000E+00 0.  1.
     999902    2    1    2    0    0 -0.56402640056E-02 -0.11499348120E-01 -0.19713492003E-01  0.10204210793E+01  0.10201502388E+01 0.  0.
     999903    2    3    3    0    0  0.61269358771E-01 -0.66285203978E-01 -0.95524167431E-01  0.13293832109E+00  0.20001701438E-01 0.  0.
         14    1    1    2    0    0  0.56402640056E-02  0.11499348120E-01  0.19713492003E-01  0.23508920693E-01  0.00000000000E+00 0.  1.
     999901    1    3    3    0    0 -0.66909622777E-01  0.54785855858E-01  0.75810675428E-01  0.88748275822E+00  0.88000000000E+00 0. -1.
        -11    1    4    4    0    0  0.24801127250E-01 -0.34910789320E-01 -0.57051822423E-01  0.71337442389E-01  0.51100000000E-03 0.  1.
         11    1    4    4    0    0  0.36468231521E-01 -0.31374414658E-01 -0.38472345008E-01  0.61600878702E-01  0.51100000000E-03 0. -1.
</event>
<event>
 8    1  0.1129676E+005  0.1043930E+01  0.7957747E-01            NaN
         13   -1    0    0    0    0  0.00000000000E+00  0.00000000000E+00  0.74505805969E-08  0.10566000000E+00  0.10566000000E+00 0. -1.
     999900   -1    0    0    0    0 -0.00000000000E+00 -0.00000000000E+00 -0.74505805969E-08  0.93827000000E+00  0.93827000000E+00 0. -1.
     999902    2    1    2    0    0 -0.10577646715E-01  0.20563898500E-01 -0.10458413977E-01  0.10185501073E+01  0.10182338543E+01 0.  0.
     999903    2    3    3    0    0 -0.11364679302E+00  0.39776287156E-01 -0.48904433186E-01  0.13149291567E+00  0.20024902027E-01 0.  0.
         14    1    1    2    0    0  0.10577646715E-01 -0.20563898500E-01  0.10458413977E-01  0.25379892719E-01  0.00000000000E+00 0. -1.
     999901    1    3    3    0    0  0.10306914631E+00 -0.19212388656E-01  0.38446019210E-01  0.88705719161E+00  0.88000000000E+00 0.  1.
        -11    1    4    4    0    0 -0.15577928148E-01  0.71881888325E-02 -0.14812702384E-01  0.22671991024E-01  0.51100000000E-03 0. -1.
         11    1    4    4    0    0 -0.98068864875E-01  0.32588098323E-01 -0.34091730802E-01  0.10882092464E+00  0.51100000000E-03 0.  1.
</event>
<event>
 8    1  0.1129676E+005  0.1043930E+01  0.7957747E-01            NaN
         13   -1    0    0    0    0  0.00000000000E+00  0.00000000000E+00  0.74505805969E-08  0.10566000000E+00  0.10566000000E+00 0.  1.
     999900   -1    0    0    0    0 -0.00000000000E+00 -0.00000000000E+00 -0.74505805969E-08  0.93827000000E+00  0.93827000000E+00 0.  1.
     999902    2    1    2    0    0 -0.59387676464E-02 -0.14044721417E-01 -0.15694213740E-01  0.10220477811E+01  0.10218135032E+01 0.  0.
     999903    2    3    3    0    0  0.73353264225E-02  0.10075276931E+00 -0.82536507987E-01  0.13197893105E+00  0.20030865036E-01 0.  0.
         14    1    1    2    0    0  0.59387676464E-02  0.14044721417E-01  0.15694213740E-01  0.21882218940E-01  0.00000000000E+00 0.  1.
     999901    1    3    3    0    0 -0.13274094069E-01 -0.11479749073E+00  0.66842294247E-01  0.89006885001E+00  0.88000000000E+00 0. -1.
        -11    1    4    4    0    0  0.44435642526E-02  0.62797034135E-01 -0.38614748927E-01  0.73855079143E-01  0.51100000000E-03 0. -1.
         11    1    4    4    0    0  0.28917621699E-02  0.37955735174E-01 -0.43921759060E-01  0.58123851911E-01  0.51100000000E-03 0.  1.
</event>
<event>
 8    1  0.1129676E+005  0.1043930E+01  0.7957747E-01            NaN
         13   -1    0    0    0    0  0.00000000000E+00  0.00000000000E+00  0.74505805969E-08  0.10566000000E+00  0.10566000000E+00 0. -1.
     999900   -1    0    0    0    0 -0.00000000000E+00 -0.00000000000E+00 -0.74505805969E-08  0.93827000000E+00  0.93827000000E+00 0. -1.
     999902    2    1    2    0    0  0.14926635767E-01  0.17001379145E-01  0.77730875974E-02  0.10200077877E+01  0.10197272257E+01 0.  0.
     999903    2    3    3    0    0 -0.87917655983E-01  0.66622695618E-01  0.67268312394E-01  0.13063783932E+00  0.19316350717E-01 0.  0.
         14    1    1    2    0    0 -0.14926635767E-01 -0.17001379145E-01 -0.77730875974E-02  0.23922212251E-01  0.00000000000E+00 0.  1.
     999901    1    3    3    0    0  0.10284429175E+00 -0.49621316473E-01 -0.59495224796E-01  0.88936994843E+00  0.88000000000E+00 0. -1.
        -11    1    4    4    0    0 -0.76185293812E-03  0.52525623152E-02  0.41468556396E-02  0.67548029926E-02  0.51100000000E-03 0.  1.
         11    1    4    4    0    0 -0.87155803045E-01  0.61370133303E-01  0.63121456754E-01  0.12388303633E+00  0.51100000000E-03 0. -1.
</event>
<event>
 8    1  0.1129676E+005  0.1043930E+01  0.7957747E-01            NaN
         13   -1    0    0    0    0  0.00000000000E+00  0.00000000000E+00  0.74505805969E-08  0.10566000000E+00  0.10566000000E+00 0. -1.
     999900   -1    0    0    0    0 -0.00000000000E+00 -0.00000000000E+00 -0.74505805969E-08  0.93827000000E+00  0.93827000000E+00 0.  1.
     999902    2    1    2    0    0  0.36561291653E-02  0.13149649902E-01  0.20638928253E-01  0.10191863961E+01  0.10188859917E+01 0.  0.
     999903    2    3    3    0    0 -0.95884273363E-01  0.62844817828E-01  0.60793146042E-01  0.13127296417E+00  0.19837326181E-01 0.  0.
         14    1    1    2    0    0 -0.36561291653E-02 -0.13149649902E-01 -0.20638928253E-01  0.24743603870E-01  0.00000000000E+00 0.  1.
     999901    1    3    3    0    0  0.99540402528E-01 -0.49695167926E-01 -0.40154217789E-01  0.88791343196E+00  0.88000000000E+00 0.  1.
        -11    1    4    4    0    0 -0.36783586411E-01  0.14239707147E-01  0.25758152501E-01  0.47112047611E-01  0.51100000000E-03 0. -1.
         11    1    4    4    0    0 -0.59100686952E-01  0.48605110680E-01  0.35034993541E-01  0.84160916558E-01  0.51100000000E-03 0.  1.
</event>
<event>
 8    1  0.1129676E+005  0.1043930E+01  0.7957747E-01            NaN
         13   -1    0    0    0    0  0.00000000000E+00  0.00000000000E+00  0.74505805969E-08  0.10566000000E+00  0.10566000000E+00 0. -1.
     999900   -1    0    0    0    0 -0.00000000000E+00 -0.00000000000E+00 -0.74505805969E-08  0.93827000000E+00  0.93827000000E+00 0. -1.
     999902    2    1    2    0    0  0.50366276768E-02  0.19285766514E-01 -0.33595639873E-03  0.10239945724E+01  0.10238004996E+01 0.  0.
     999903    2    3    3    0    0  0.62685024742E-01 -0.14516222738E-01 -0.11592823508E+00  0.13392295331E+00  0.18864482099E-01 0.  0.
         14    1    1    2    0    0 -0.50366276768E-02 -0.19285766514E-01  0.33595639873E-03  0.19935427637E-01  0.00000000000E+00 0.  1.
     999901    1    3    3    0    0 -0.57648397066E-01  0.33801989252E-01  0.11559227868E+00  0.89007161906E+00  0.88000000000E+00 0. -1.
        -11    1    4    4    0    0  0.10894298593E-01 -0.33083616630E-03 -0.85387761809E-02  0.13855216132E-01  0.51100000000E-03 0.  1.
         11    1    4    4    0    0  0.51790726149E-01 -0.14185386572E-01 -0.10738945889E+00  0.12006773717E+00  0.51100000000E-03 0. -1.
</event>
<event>
 8    1  0.1129676E+005  0.1043930E+01  0.7957747E-01            NaN
         13   -1    0    0    0    0  0.00000000000E+00  0.00000000000E+00  0.74505805969E-08  0.10566000000E+00  0.10566000000E+00 0.  1.
     999900   -1    0    0    0    0 -0.00000000000E+00 -0.00000000000E+00 -0.74505805969E-08  0.93827000000E+00  0.93827000000E+00 0. -1.
     999902    2    1    2    0    0  0.44756618571E-02  0.14728041880E-01  0.17409722453E-01  0.10206911273E+01  0.10204265443E+01 0.  0.
     999903    2    3    3    0    0 -0.11948064069E+00 -0.46385375027E-01  0.18006479382E-03  0.12973833635E+00  0.20119070027E-01 0.  0.
         14    1    1    2    0    0 -0.44756618571E-02 -0.14728041880E-01 -0.17409722453E-01  0.23238872662E-01  0.00000000000E+00 0. -1.
     999901    1    3    3    0    0  0.12395630255E+00  0.61113416907E-01  0.17229657660E-01  0.89095279099E+00  0.88000000000E+00 0.  1.
        -11    1    4    4    0    0 -0.17159459189E-01 -0.13181069643E-01  0.43750317797E-02  0.22081432487E-01  0.51100000000E-03 0.  1.
         11    1    4    4    0    0 -0.10232118150E+00 -0.33204305384E-01 -0.41949669859E-02  0.10765690386E+00  0.51100000000E-03 0. -1.
</event>
<event>
 8    1  0.1129676E+005  0.1043930E+01  0.7957747E-01            NaN
         13   -1    0    0    0    0  0.00000000000E+00  0.00000000000E+00  0.74505805969E-08  0.10566000000E+00  0.10566000000E+00 0. -1.
     999900   -1    0    0    0    0 -0.00000000000E+00 -0.00000000000E+00 -0.74505805969E-08  0.93827000000E+00  0.93827000000E+00 0. -1.
     999902    2    1    2    0    0 -0.15784176955E-01 -0.17610611978E-01 -0.20979046453E-02  0.10201881572E+01  0.10199118594E+01 0.  0.
     999903    2    3    3    0    0 -0.28989698751E-01 -0.10649209446E+00  0.70712229599E-01  0.13262090938E+00  0.20177149760E-01 0.  0.
         14    1    1    2    0    0  0.15784176955E-01  0.17610611978E-01  0.20979046453E-02  0.23741842816E-01  0.00000000000E+00 0.  1.
     999901    1    3    3    0    0  0.13205521796E-01  0.88881482482E-01 -0.72810134245E-01  0.88756724781E+00  0.88000000000E+00 0.  1.
        -11    1    4    4    0    0 -0.19238952283E-01 -0.46410940686E-01  0.22885388911E-01  0.55209735074E-01  0.51100000000E-03 0.  1.
         11    1    4    4    0    0 -0.97507464681E-02 -0.60081153774E-01  0.47826840688E-01  0.77411174301E-01  0.51100000000E-03 0. -1.
</event>
<event>
 8    1  0.1129676E+005  0.1043930E+01  0.7957747E-01            NaN
         13   -1    0    0    0    0  0.00000000000E+00  0.00000000000E+00  0.74505805969E-08  0.10566000000E+00  0.10566000000E+00 0. -1.
     999900   -1    0    0    0    0 -0.00000000000E+00 -0.00000000000E+00 -0.74505805969E-08  0.93827000000E+00  0.93827000000E+00 0. -1.
     999902    2    1    2    0    0 -0.70896489905E-02  0.96485041108E-02  0.20030314629E-01  0.10205939708E+01  0.10203271451E+01 0.  0.
     999903    2    3    3    0    0  0.81615371716E-01  0.98530773941E-01 -0.19066693222E-01  0.13082028351E+00  0.19519873787E-01 0.  0.
         14    1    1    2    0    0  0.70896489905E-02 -0.96485041108E-02 -0.20030314629E-01  0.23336029193E-01  0.00000000000E+00 0.  1.
     999901    1    3    3    0    0 -0.88705020706E-01 -0.88882269830E-01  0.39097007851E-01  0.88977368730E+00  0.88000000000E+00 0.  1.
        -11    1    4    4    0    0  0.53915890753E-01  0.50140853538E-01 -0.12347087804E-01  0.74657485676E-01  0.51100000000E-03 0. -1.
         11    1    4    4    0    0  0.27699480962E-01  0.48389920403E-01 -0.67196054182E-02  0.56162797830E-01  0.51100000000E-03 0.  1.
</event>
<event>
 8    1  0.1129676E+005  0.1043930E+01  0.7957747E-01            NaN
         13   -1    0    0    0    0  0.00000000000E+00  0.00000000000E+00  0.74505805969E-08  0.10566000000E+00  0.10566000000E+00 0.  1.
     999900   -1    0    0    0    0 -0.00000000000E+00 -0.00000000000E+00 -0.74505805969E-08  0.93827000000E+00  0.93827000000E+00 0. -1.
     999902    2    1    2    0    0 -0.50807778562E-02  0.18749030041E-01  0.15386580428E-01  0.10191492153E+01  0.10188478963E+01 0.  0.
     999903    2    3    3    0    0 -0.83028146879E-02  0.10375382715E+00 -0.75971676394E-01  0.13033960235E+00  0.19568417060E-01 0.  0.
         14    1    1    2    0    0  0.50807778562E-02 -0.18749030041E-01 -0.15386580428E-01  0.24780784661E-01  0.00000000000E+00 0. -1.
     999901    1    3    3    0    0  0.32220368317E-02 -0.85004797111E-01  0.91358256822E-01  0.88880961299E+00  0.88000000000E+00 0.  1.
        -11    1    4    4    0    0 -0.68500468114E-03  0.81005073170E-01 -0.65419217818E-01  0.10412601160E+00  0.51100000000E-03 0. -1.
         11    1    4    4    0    0 -0.76178100067E-02  0.22748753982E-01 -0.10552458575E-01  0.26213590750E-01  0.51100000000E-03 0.  1.
</event>
<event>
 8    1  0.1129676E+005  0.1043930E+01  0.7957747E-01            NaN
         13   -1    0    0    0    0  0.00000000000E+00  0.00000000000E+00  0.74505805969E-08  0.10566000000E+00  0.10566000000E+00 0.  1.
     999900   -1    0    0    0    0 -0.00000000000E+00 -0.00000000000E+00 -0.74505805969E-08  0.93827000000E+00  0.93827000000E+00 0. -1.
     999902    2    1    2    0    0  0.18241187723E-01 -0.14224991144E-01  0.17465041650E-02  0.10207321212E+01  0.10204684815E+01 0.  0.
     999903    2    3    3    0    0 -0.94531713231E-01 -0.84318247859E-01  0.23874719483E-01  0.13049594485E+00  0.20331691107E-01 0.  0.
         14    1    1    2    0    0 -0.18241187723E-01  0.14224991144E-01 -0.17465041650E-02  0.23197878769E-01  0.00000000000E+00 0. -1.
     999901    1    3    3    0    0  0.11277290095E+00  0.70093256715E-01 -0.22128215318E-01  0.89023617638E+00  0.88000000000E+00 0. -1.
        -11    1    4    4    0    0 -0.40062593250E-01 -0.31090939284E-01  0.10850003068E-03  0.50714206853E-01  0.51100000000E-03 0.  1.
         11    1    4    4    0    0 -0.54469119981E-01 -0.53227308575E-01  0.23766219452E-01  0.79781737996E-01  0.51100000000E-03 0. -1.
</event>
<event>
 8    1  0.1129676E+005  0.1043930E+01  0.7957747E-01            NaN
         13   -1    0    0    0    0  0.00000000000E+00  0.00000000000E+00  0.74505805969E-08  0.10566000000E+00  0.10566000000E+00 0.  1.
     999900   -1    0    0    0    0 -0.00000000000E+00 -0.00000000000E+00 -0.74505805969E-08  0.93827000000E+00  0.93827000000E+00 0.  1.
     999902    2    1    2    0    0  0.22872898386E-01  0.13033277090E-02 -0.46593972546E-02  0.10205509896E+01  0.10202831687E+01 0.  0.
     999903    2    3    3    0    0  0.78676042782E-02 -0.96738529318E-01 -0.86066549180E-01  0.13124536782E+00  0.19941249569E-01 0.  0.
         14    1    1    2    0    0 -0.22872898386E-01 -0.13033277090E-02  0.46593972546E-02  0.23379010382E-01  0.00000000000E+00 0.  1.
     999901    1    3    3    0    0  0.15005294107E-01  0.98041857027E-01  0.81407151925E-01  0.88930562180E+00  0.88000000000E+00 0. -1.
        -11    1    4    4    0    0  0.96973682331E-02 -0.19133732550E-01 -0.18500654973E-01  0.28331502385E-01  0.51100000000E-03 0. -1.
         11    1    4    4    0    0 -0.18297639550E-02 -0.77604796768E-01 -0.67565894206E-01  0.10291386543E+00  0.51100000000E-03 0.  1.
</event>
<event>
 8    1  0.1129676E+005  0.1043930E+01  0.7957747E-01            NaN
         13   -1    0    0    0    0  0.00000000000E+00  0.00000000000E+00  0.74505805969E-08  0.10566000000E+00  0.10566000000E+00 0.  1.
     999900   -1    0    0    0    0 -0.00000000000E+00 -0.00000000000E+00 -0.74505805969E-08  0.93827000000E+00  0.93827000000E+00 0.  1.
     999902    2    1    2    0    0  0.14532528207E-01 -0.16202035467E-01  0.13973895283E-02  0.10221205290E+01  0.10218878230E+01 0.  0.
     999903    2    3    3    0    0 -0.90409323178E-01  0.67457656304E-01  0.61271183310E-01  0.12993410933E+00  0.20108051906E-01 0.  0.
         14    1    1    2    0    0 -0.14532528207E-01  0.16202035467E-01 -0.13973895283E-02  0.21809471036E-01  0.00000000000E+00 0.  1.
     999901    1    3    3    0    0  0.10494185139E+00 -0.83659691771E-01 -0.59873793781E-01  0.89218641964E+00  0.88000000000E+00 0.  1.
        -11    1    4    4    0    0 -0.43325735806E-01  0.25003092206E-01  0.36236500835E-01  0.61770697881E-01  0.51100000000E-03 0.  1.
         11    1    4    4    0    0 -0.47083587373E-01  0.42454564098E-01  0.25034682474E-01  0.68163411448E-01  0.51100000000E-03 0. -1.
</event>
<event>
 8    1  0.1129676E+005  0.1043930E+01  0.7957747E-01            NaN
         13   -1    0    0    0    0  0.00000000000E+00  0.00000000000E+00  0.74505805969E-08  0.10566000000E+00  0.10566000000E+00 0. -1.
     999900   -1    0    0    0    0 -0.00000000000E+00 -0.00000000000E+00 -0.74505805969E-08  0.93827000000E+00  0.93827000000E+00 0.  1.
     999902    2    1    2    0    0 -0.22051716610E-01  0.66641495618E-02  0.29875588078E-02  0.10207003938E+01  0.10204360241E+01 0.  0.
     999903    2    3    3    0    0  0.33299229174E-01  0.34304230700E-01 -0.11966629976E+00  0.13004239533E+00  0.17475193162E-01 0.  0.
         14    1    1    2    0    0  0.22051716610E-01 -0.66641495618E-02 -0.29875588078E-02  0.23229606162E-01  0.00000000000E+00 0.  1.
     999901    1    3    3    0    0 -0.55350945784E-01 -0.27640081138E-01  0.12265385857E+00  0.89065799851E+00  0.88000000000E+00 0. -1.
        -11    1    4    4    0    0  0.24312206410E-01  0.12903337620E-01 -0.69955218281E-01  0.75176945855E-01  0.51100000000E-03 0. -1.
         11    1    4    4    0    0  0.89870227636E-02  0.21400893080E-01 -0.49711081483E-01  0.54865449474E-01  0.51100000000E-03 0.  1.
</event>
<event>
 8    1  0.1129676E+005  0.1043930E+01  0.7957747E-01            NaN
         13   -1    0    0    0    0  0.00000000000E+00  0.00000000000E+00  0.74505805969E-08  0.10566000000E+00  0.10566000000E+00 0. -1.
     999900   -1    0    0    0    0 -0.00000000000E+00 -0.00000000000E+00 -0.74505805969E-08  0.93827000000E+00  0.93827000000E+00 0.  1.
     999902    2    1    2    0    0 -0.28611338703E-02 -0.16500449454E-01 -0.23924771570E-01  0.10147264794E+01  0.10143061581E+01 0.  0.
     999903    2    3    3    0    0 -0.44604165232E-01 -0.10525786819E+00 -0.55273769829E-01  0.12872246152E+00  0.21107631277E-01 0.  0.
         14    1    1    2    0    0  0.28611338703E-02  0.16500449454E-01  0.23924771570E-01  0.29203520573E-01  0.00000000000E+00 0. -1.
     999901    1    3    3    0    0  0.41743031362E-01  0.88757418735E-01  0.31348998260E-01  0.88600401790E+00  0.88000000000E+00 0. -1.
        -11    1    4    4    0    0 -0.27980560330E-01 -0.73351541662E-01 -0.27206352446E-01  0.83089151849E-01  0.51100000000E-03 0. -1.
         11    1    4    4    0    0 -0.16623604902E-01 -0.31906326527E-01 -0.28067417384E-01  0.45633309676E-01  0.51100000000E-03 0.  1.
</event>
<event>
 8    1  0.1129676E+005  0.1043930E+01  0.7957747E-01            NaN
         13   -1    0    0    0    0  0.00000000000E+00  0.00000000000E+00  0.74505805969E-08  0.10566000000E+00  0.10566000000E+00 0.  1.
     999900   -1    0    0    0    0 -0.00000000000E+00 -0.00000000000E+00 -0.74505805969E-08  0.93827000000E+00  0.93827000000E+00 0. -1.
     999902    2    1    2    0    0 -0.17567789413E-01 -0.11613624604E-01  0.19434201950E-01  0.10152735573E+01  0.10148690578E+01 0.  0.
     999903    2    3    3    0    0  0.13179623554E-01 -0.41761406750E-01  0.11921159240E+00  0.12858882202E+00  0.20148543763E-01 0.  0.
         14    1    1    2    0    0  0.17567789413E-01  0.11613624604E-01 -0.19434201950E-01  0.28656442674E-01  0.00000000000E+00 0. -1.
     999901    1    3    3    0    0 -0.30747412967E-01  0.30147782145E-01 -0.99777390452E-01  0.88668473530E+00  0.88000000000E+00 0. -1.
        -11    1    4    4    0    0  0.62320711920E-02 -0.29650786196E-01  0.10207830294E+00  0.10648121377E+00  0.51100000000E-03 0. -1.
         11    1    4    4    0    0  0.69475523622E-02 -0.12110620554E-01  0.17133289462E-01  0.22107608256E-01  0.51100000000E-03 0.  1.
</event>
<event>
 8    1  0.1129676E+005  0.1043930E+01  0.7957747E-01            NaN
         13   -1    0    0    0    0  0.00000000000E+00  0.00000000000E+00  0.74505805969E-08  0.10566000000E+00  0.10566000000E+00 0.  1.
     999900   -1    0    0    0    0 -0.00000000000E+00 -0.00000000000E+00 -0.74505805969E-08  0.93827000000E+00  0.93827000000E+00 0.  1.
     999902    2    1    2    0    0 -0.13658949570E-01  0.12916818698E-01 -0.11357233968E-01  0.10219664422E+01  0.10217304004E+01 0.  0.
     999903    2    3    3    0    0  0.67171413017E-01  0.84432291499E-01  0.72316157734E-01  0.13143331711E+00  0.20106705431E-01 0.  0.
         14    1    1    2    0    0  0.13658949570E-01 -0.12916818698E-01  0.11357233968E-01  0.21963557819E-01  0.00000000000E+00 0.  1.
     999901    1    3    3    0    0 -0.80830362587E-01 -0.71515472800E-01 -0.83673391703E-01  0.89053312507E+00  0.88000000000E+00 0.  1.
        -11    1    4    4    0    0  0.49021244369E-01  0.46125431076E-01  0.42513954691E-01  0.79613662495E-01  0.51100000000E-03 0. -1.
         11    1    4    4    0    0  0.18150168648E-01  0.38306860423E-01  0.29802203044E-01  0.51819654618E-01  0.51100000000E-03 0.  1.
</event>
<event>
 8    1  0.1129676E+005  0.1043930E+01  0.7957747E-01            NaN
         13   -1    0    0    0    0  0.00000000000E+00  0.00000000000E+00  0.74505805969E-08  0.10566000000E+00  0.10566000000E+00 0.  1.
     999900   -1    0    0    0    0 -0.00000000000E+00 -0.00000000000E+00 -0.74505805969E-08  0.93827000000E+00  0.93827000000E+00 0. -1.
     999902    2    1    2    0    0 -0.23954317218E-01 -0.37289135320E-02  0.47065756818E-03  0.10196826161E+01  0.10193942818E+01 0.  0.
     999903    2    3    3    0    0  0.35984387564E-01 -0.96519963693E-01 -0.75216750339E-01  0.12955261935E+00  0.22701147753E-01 0.  0.
         14    1    1    2    0    0  0.23954317218E-01  0.37289135320E-02 -0.47065756818E-03  0.24247383943E-01  0.00000000000E+00 0.  1.
     999901    1    3    3    0    0 -0.59938704782E-01  0.92791050161E-01  0.75687407908E-01  0.89012999671E+00  0.88000000000E+00 0.  1.
        -11    1    4    4    0    0 -0.16741812185E-02 -0.18253964690E-01 -0.16879067027E-01  0.24923365229E-01  0.51100000000E-03 0. -1.
         11    1    4    4    0    0  0.37658568783E-01 -0.78265999004E-01 -0.58337683313E-01  0.10462925412E+00  0.51100000000E-03 0.  1.
</event>
<event>
 8    1  0.1129676E+005  0.1043930E+01  0.7957747E-01            NaN
         13   -1    0    0    0    0  0.00000000000E+00  0.00000000000E+00  0.74505805969E-08  0.10566000000E+00  0.10566000000E+00 0.  1.
     999900   -1    0    0    0    0 -0.00000000000E+00 -0.00000000000E+00 -0.74505805969E-08  0.93827000000E+00  0.93827000000E+00 0.  1.
     999902    2    1    2    0    0  0.16240359236E-01 -0.12685412189E-01  0.10235006257E-01  0.10209207779E+01  0.10206614573E+01 0.  0.
     999903    2    3    3    0    0 -0.25221308546E-01  0.28338217047E-01  0.12458455132E+00  0.13160765724E+00  0.18976197344E-01 0.  0.
         14    1    1    2    0    0 -0.16240359236E-01  0.12685412189E-01 -0.10235006257E-01  0.23009222143E-01  0.00000000000E+00 0. -1.
     999901    1    3    3    0    0  0.41461667782E-01 -0.41023629237E-01 -0.11434954506E+00  0.88931312062E+00  0.88000000000E+00 0.  1.
        -11    1    4    4    0    0 -0.45212421160E-02  0.16513138999E-01  0.69574251369E-01  0.71651678030E-01  0.51100000000E-03 0.  1.
         11    1    4    4    0    0 -0.20700066430E-01  0.11825078048E-01  0.55010299951E-01  0.59955979208E-01  0.51100000000E-03 0. -1.
</event>
<event>
 8    1  0.1129676E+005  0.1043930E+01  0.7957747E-01            NaN
         13   -1    0    0    0    0  0.00000000000E+00  0.00000000000E+00  0.74505805969E-08  0.10566000000E+00  0.10566000000E+00 0. -1.
     999900   -1    0    0    0    0 -0.00000000000E+00 -0.00000000000E+00 -0.74505805969E-08  0.93827000000E+00  0.93827000000E+00 0. -1.
     999902    2    1    2    0    0 -0.20822682731E-01 -0.69772892220E-02 -0.85685838756E-02  0.10203569792E+01  0.10200846424E+01 0.  0.
     999903    2    3    3    0    0 -0.74874278796E-01  0.90311027532E-01  0.55253036233E-01  0.13105399886E+00  0.18974016038E-01 0.  0.
         14    1    1    2    0    0  0.20822682731E-01  0.69772892220E-02  0.85685838756E-02  0.23573020821E-01  0.00000000000E+00 0. -1.
     999901    1    3    3    0    0  0.54051596066E-01 -0.97288316754E-01 -0.63821620109E-01  0.88930298032E+00  0.88000000000E+00 0.  1.
        -11    1    4    4    0    0 -0.87787036994E-02  0.22174233109E-01  0.95293976239E-02  0.25687210683E-01  0.51100000000E-03 0. -1.
         11    1    4    4    0    0 -0.66095575097E-01  0.68136794423E-01  0.45723638610E-01  0.10536678818E+00  0.51100000000E-03 0.  1.
</event>
<event>
 8    1  0.1129676E+005  0.1043930E+01  0.7957747E-01            NaN
         13   -1    0    0    0    0  0.00000000000E+00  0.00000000000E+00  0.74505805969E-08  0.10566000000E+00  0.10566000000E+00 0.  1.
     999900   -1    0    0    0    0 -0.00000000000E+00 -0.00000000000E+00 -0.74505805969E-08  0.93827000000E+00  0.93827000000E+00 0. -1.
     999902    2    1    2    0    0  0.16700487511E-01  0.52401859128E-02 -0.16174832498E-01  0.10200974374E+01  0.10198189991E+01 0.  0.
     999903    2    3    3    0    0  0.35234459662E-01 -0.77404976901E-01  0.94965731382E-01  0.12907220997E+00  0.20202664502E-01 0.  0.
         14    1    1    2    0    0 -0.16700487511E-01 -0.52401859128E-02  0.16174832498E-01  0.23832562553E-01  0.00000000000E+00 0.  1.
     999901    1    3    3    0    0 -0.18533972151E-01  0.82645162814E-01 -0.11114056388E+00  0.89102522748E+00  0.88000000000E+00 0. -1.
        -11    1    4    4    0    0  0.28741488807E-02 -0.24004631748E-01  0.19104867876E-01  0.30817854804E-01  0.51100000000E-03 0.  1.
         11    1    4    4    0    0  0.32360310781E-01 -0.53400345153E-01  0.75860863506E-01  0.98254355166E-01  0.51100000000E-03 0. -1.
</event>
<event>
 8    1  0.1129676E+005  0.1043930E+01  0.7957747E-01            NaN
         13   -1    0    0    0    0  0.00000000000E+00  0.00000000000E+00  0.74505805969E-08  0.10566000000E+00  0.10566000000E+00 0.  1.
     999900   -1    0    0    0    0 -0.00000000000E+00 -0.00000000000E+00 -0.74505805969E-08  0.93827000000E+00  0.93827000000E+00 0.  1.
     999902    2    1    2    0    0  0.48501554912E-02  0.14497222492E-01 -0.17847222639E-01  0.10204307059E+01  0.10201600897E+01 0.  0.
     999903    2    3    3    0    0 -0.10437517910E+00  0.68294219560E-01 -0.38709781499E-01  0.13180281020E+00  0.17755426108E-01 0.  0.
         14    1    1    2    0    0 -0.48501554912E-02 -0.14497222492E-01  0.17847222639E-01  0.23499294121E-01  0.00000000000E+00 0.  1.
     999901    1    3    3    0    0  0.10922533459E+00 -0.53796997068E-01  0.20862558860E-01  0.88862789568E+00  0.88000000000E+00 0.  1.
        -11    1    4    4    0    0 -0.68728199132E-01  0.35308237867E-01 -0.20615288522E-01  0.79971796648E-01  0.51100000000E-03 0. -1.
         11    1    4    4    0    0 -0.35646979968E-01  0.32985981693E-01 -0.18094492977E-01  0.51831013556E-01  0.51100000000E-03 0.  1.
</event>
<event>
 8    1  0.1129676E+005  0.1043930E+01  0.7957747E-01            NaN
         13   -1    0    0    0    0  0.00000000000E+00  0.00000000000E+00  0.74505805969E-08  0.10566000000E+00  0.10566000000E+00 0. -1.
     999900   -1    0    0    0    0 -0.00000000000E+00 -0.00000000000E+00 -0.74505805969E-08  0.93827000000E+00  0.93827000000E+00 0. -1.
     999902    2    1    2    0    0 -0.48725782131E-02  0.50983841749E-02  0.22487404741E-01  0.10203626728E+01  0.10200904691E+01 0.  0.
     999903    2    3    3    0    0 -0.17002073496E-02 -0.12093881952E+00  0.46052929256E-01  0.13106476174E+00  0.20688419582E-01 0.  0.
         14    1    1    2    0    0  0.48725782131E-02 -0.50983841749E-02 -0.22487404741E-01  0.23567327206E-01  0.00000000000E+00 0.  1.
     999901    1    3    3    0    0 -0.31723708635E-02  0.12603720370E+00 -0.23565524514E-01  0.88929791105E+00  0.88000000000E+00 0. -1.
        -11    1    4    4    0    0  0.33066976421E-02 -0.34230625374E-02  0.11247019799E-03  0.47880452146E-02  0.51100000000E-03 0.  1.
         11    1    4    4    0    0 -0.50069049918E-02 -0.11751575699E+00  0.45940459058E-01  0.12627671653E+00  0.51100000000E-03 0. -1.
</event>
<event>
 8    1  0.1129676E+005  0.1043930E+01  0.7957747E-01            NaN
         13   -1    0    0    0    0  0.00000000000E+00  0.00000000000E+00  0.74505805969E-08  0.10566000000E+00  0.10566000000E+00 0.  1.
     999900   -1    0    0    0    0 -0.00000000000E+00 -0.00000000000E+00 -0.74505805969E-08  0.93827000000E+00  0.93827000000E+00 0. -1.
     999902    2    1    2    0    0  0.65396611764E-03  0.20597758233E-01  0.11243603778E-01  0.10204541839E+01  0.10201841145E+01 0.  0.
     999903    2    3    3    0    0  0.41763204243E-01 -0.96921357246E-01 -0.69847712513E-01  0.12799885530E+00  0.19159574504E-01 0.  0.
         14    1    1    2    0    0 -0.65396611764E-03 -0.20597758233E-01 -0.11243603778E-01  0.23475816106E-01  0.00000000000E+00 0.  1.
     999901    1    3    3    0    0 -0.41109238125E-01  0.11751911548E+00  0.81091316291E-01  0.89245532860E+00  0.88000000000E+00 0.  1.
        -11    1    4    4    0    0  0.20920002588E-01 -0.50147254094E-01 -0.24540205774E-01  0.59622784418E-01  0.51100000000E-03 0. -1.
         11    1    4    4    0    0  0.20843201655E-01 -0.46774103152E-01 -0.45307506739E-01  0.68376070879E-01  0.51100000000E-03 0.  1.
</event>
<event>
 8    1  0.1129676E+005  0.1043930E+01  0.7957747E-01            NaN
         13   -1    0    0    0    0  0.00000000000E+00  0.00000000000E+00  0.74505805969E-08  0.10566000000E+00  0.10566000000E+00 0. -1.
     999900   -1    0    0    0    0 -0.00000000000E+00 -0.00000000000E+00 -0.74505805969E-08  0.93827000000E+00  0.93827000000E+00 0. -1.
     999902    2    1    2    0    0  0.18024691990E-01  0.14695549730E-01  0.54123024845E-02  0.10200523594E+01  0.10197728542E+01 0.  0.
     999903    2    3    3    0    0 -0.34986688202E-01  0.54442412138E-01 -0.11079644218E+00  0.12994310101E+00  0.20525918021E-01 0.  0.
         14    1    1    2    0    0 -0.18024691990E-01 -0.14695549730E-01 -0.54123024845E-02  0.23877640617E-01  0.00000000000E+00 0. -1.
     999901    1    3    3    0    0  0.53011380193E-01 -0.39746862407E-01  0.11620874466E+00  0.89010925837E+00  0.88000000000E+00 0.  1.
        -11    1    4    4    0    0 -0.82269131183E-02  0.29210273522E-01 -0.40570228647E-01  0.50666821019E-01  0.51100000000E-03 0.  1.
         11    1    4    4    0    0 -0.26759775084E-01  0.25232138616E-01 -0.70226213532E-01  0.79276279994E-01  0.51100000000E-03 0. -1.
</event>
<event>
 8    1  0.1129676E+005  0.1043930E+01  0.7957747E-01            NaN
         13   -1    0    0    0    0  0.00000000000E+00  0.00000000000E+00  0.74505805969E-08  0.10566000000E+00  0.10566000000E+00 0.  1.
     999900   -1    0    0    0    0 -0.00000000000E+00 -0.00000000000E+00 -0.74505805969E-08  0.93827000000E+00  0.93827000000E+00 0. -1.
     999902    2    1    2    0    0  0.21910984827E-01  0.25495267006E-02  0.53178165243E-02  0.10212392416E+01  0.10209871293E+01 0.  0.
     999903    2    3    3    0    0  0.99421295913E-01  0.24073928407E-01 -0.82787471521E-01  0.13318874196E+00  0.20526262066E-01 0.  0.
         14    1    1    2    0    0 -0.21910984827E-01 -0.25495267006E-02 -0.53178165243E-02  0.22690758363E-01  0.00000000000E+00 0. -1.
     999901    1    3    3    0    0 -0.77510311086E-01 -0.21524401706E-01  0.88105288045E-01  0.88805049968E+00  0.88000000000E+00 0.  1.
        -11    1    4    4    0    0  0.47298650934E-01  0.12655819685E-01 -0.52671466852E-01  0.71915761092E-01  0.51100000000E-03 0.  1.
         11    1    4    4    0    0  0.52122644979E-01  0.11418108722E-01 -0.30116004669E-01  0.61272980869E-01  0.51100000000E-03 0. -1.
</event>
<event>
 8    1  0.1129676E+005  0.1043930E+01  0.7957747E-01            NaN
         13   -1    0    0    0    0  0.00000000000E+00  0.00000000000E+00  0.74505805969E-08  0.10566000000E+00  0.10566000000E+00 0. -1.
     999900   -1    0    0    0    0 -0.00000000000E+00 -0.00000000000E+00 -0.74505805969E-08  0.93827000000E+00  0.93827000000E+00 0. -1.
     999902    2    1    2    0    0  0.21324690131E-02  0.14605603903E-01  0.18709304650E-01  0.10200991551E+01  0.10198207573E+01 0.  0.
     999903    2    3    3    0    0 -0.28653380648E-01  0.62184733297E-01 -0.10782413872E+00  0.12924436647E+00  0.19751052996E-01 0.  0.
         14    1    1    2    0    0 -0.21324690131E-02 -0.14605603903E-01 -0.18709304650E-01  0.23830844927E-01  0.00000000000E+00 0.  1.
     999901    1    3    3    0    0  0.30785849661E-01 -0.47579129395E-01  0.12653344337E+00  0.89085478861E+00  0.88000000000E+00 0.  1.
        -11    1    4    4    0    0 -0.66484833692E-02  0.35167396392E-01 -0.63113433752E-01  0.72556975827E-01  0.51100000000E-03 0. -1.
         11    1    4    4    0    0 -0.22004897279E-01  0.27017336905E-01 -0.44710704968E-01  0.56687390639E-01  0.51100000000E-03 0.  1.
</event>
<event>
 8    1  0.1129676E+005  0.1043930E+01  0.7957747E-01            NaN
         13   -1    0    0    0    0  0.00000000000E+00  0.00000000000E+00  0.74505805969E-08  0.10566000000E+00  0.10566000000E+00 0.  1.
     999900   -1    0    0    0    0 -0.00000000000E+00 -0.00000000000E+00 -0.74505805969E-08  0.93827000000E+00  0.93827000000E+00 0.  1.
     999902    2    1    2    0    0  0.11447927585E-01 -0.17992923069E-01 -0.97928572340E-02  0.10204629938E+01  0.10201931294E+01 0.  0.
     999903    2    3    3    0    0 -0.58959593846E-01 -0.81358089870E-01  0.81270321887E-01  0.13070748468E+00  0.19601245840E-01 0.  0.
         14    1    1    2    0    0 -0.11447927585E-01  0.17992923069E-01  0.97928572340E-02  0.23467006187E-01  0.00000000000E+00 0.  1.
     999901    1    3    3    0    0  0.70407521432E-01  0.63365166800E-01 -0.91063179121E-01  0.88975550913E+00  0.88000000000E+00 0.  1.
        -11    1    4    4    0    0 -0.13944842867E-01 -0.35309063840E-01  0.29495209801E-01  0.48077199940E-01  0.51100000000E-03 0.  1.
         11    1    4    4    0    0 -0.45014750980E-01 -0.46049026029E-01  0.51775112086E-01  0.82630284742E-01  0.51100000000E-03 0. -1.
</event>
<event>
 8    1  0.1129676E+005  0.1043930E+01  0.7957747E-01            NaN
         13   -1    0    0    0    0  0.00000000000E+00  0.00000000000E+00  0.74505805969E-08  0.10566000000E+00  0.10566000000E+00 0. -1.
     999900   -1    0    0    0    0 -0.00000000000E+00 -0.00000000000E+00 -0.74505805969E-08  0.93827000000E+00  0.93827000000E+00 0.  1.
     999902    2    1    2    0    0  0.57689836204E-02 -0.25154672886E-02  0.22653671301E-01  0.10204183524E+01  0.10201474484E+01 0.  0.
     999903    2    3    3    0    0 -0.93841475811E-02 -0.64775890249E-01  0.11423878734E+00  0.13334799946E+00  0.21147345988E-01 0.  0.
         14    1    1    2    0    0 -0.57689836204E-02  0.25154672886E-02 -0.22653671301E-01  0.23511647563E-01  0.00000000000E+00 0.  1.
     999901    1    3    3    0    0  0.15153131201E-01  0.62260422960E-01 -0.91585116044E-01  0.88707035298E+00  0.88000000000E+00 0.  1.
        -11    1    4    4    0    0 -0.11782078680E-03 -0.19677703530E-01  0.54355235932E-01  0.57809849439E-01  0.51100000000E-03 0.  1.
         11    1    4    4    0    0 -0.92663267943E-02 -0.45098186719E-01  0.59883551413E-01  0.75538150020E-01  0.51100000000E-03 0. -1.
</event>
<event>
 8    1  0.1129676E+005  0.1043930E+01  0.7957747E-01            NaN
         13   -1    0    0    0    0  0.00000000000E+00  0.00000000000E+00  0.74505805969E-08  0.10566000000E+00  0.10566000000E+00 0.  1.
     999900   -1    0    0    0    0 -0.00000000000E+00 -0.00000000000E+00 -0.74505805969E-08  0.93827000000E+00  0.93827000000E+00 0.  1.
     999902    2    1    2    0    0  0.88518962732E-02 -0.17707547212E-01  0.11280981301E-01  0.10211446136E+01  0.10208903702E+01 0.  0.
     999903    2    3    3    0    0 -0.11405141144E+00 -0.50621780108E-01 -0.34336884121E-01  0.13082469386E+00  0.19125633095E-01 0.  0.
         14    1    1    2    0    0 -0.88518962732E-02  0.17707547212E-01 -0.11280981301E-01  0.22785386435E-01  0.00000000000E+00 0.  1.
     999901    1    3    3    0    0  0.12290330771E+00  0.32914232895E-01  0.45617865422E-01  0.89031991970E+00  0.88000000000E+00 0. -1.
        -11    1    4    4    0    0 -0.17190289787E-01 -0.51355707265E-02  0.14035789629E-02  0.18003091528E-01  0.51100000000E-03 0. -1.
         11    1    4    4    0    0 -0.96861121649E-01 -0.45486209381E-01 -0.35740463084E-01  0.11282160233E+00  0.51100000000E-03 0.  1.
</event>
<event>
 8    1  0.1129676E+005  0.1043930E+01  0.7957747E-01            NaN
         13   -1    0    0    0    0  0.00000000000E+00  0.00000000000E+00  0.74505805969E-08  0.10566000000E+00  0.10566000000E+00 0.  1.
     999900   -1    0    0    0    0 -0.00000000000E+00 -0.00000000000E+00 -0.74505805969E-08  0.93827000000E+00  0.93827000000E+00 0. -1.
     999902    2    1    2    0    0  0.32443081723E-02  0.81846380439E-02 -0.21979138133E-01  0.10202530841E+01  0.10199783131E+01 0.  0.
     999903    2    3    3    0    0 -0.66605450158E-01  0.11082667409E+00 -0.12027997876E-01  0.13148235913E+00  0.20593696809E-01 0.  0.
         14    1    1    2    0    0 -0.32443081723E-02 -0.81846380439E-02  0.21979138133E-01  0.23676915941E-01  0.00000000000E+00 0.  1.
     999901    1    3    3    0    0  0.69849758330E-01 -0.10264203605E+00 -0.99511402563E-02  0.88877072493E+00  0.88000000000E+00 0.  1.
        -11    1    4    4    0    0 -0.36293559319E-01  0.41081274167E-01 -0.70430710277E-02  0.55269878828E-01  0.51100000000E-03 0.  1.
         11    1    4    4    0    0 -0.30311890840E-01  0.69745399923E-01 -0.49849268486E-02  0.76212480300E-01  0.51100000000E-03 0. -1.
</event>
<event>
 8    1  0.1129676E+005  0.1043930E+01  0.7957747E-01            NaN
         13   -1    0    0    0    0  0.00000000000E+00  0.00000000000E+00  0.74505805969E-08  0.10566000000E+00  0.10566000000E+00 0. -1.
     999900   -1    0    0    0    0 -0.00000000000E+00 -0.00000000000E+00 -0.74505805969E-08  0.93827000000E+00  0.93827000000E+00 0.  1.
     999902    2    1    2    0    0  0.18161896768E-01  0.11872252936E-01  0.80158094362E-02  0.10207986774E+01  0.10205365656E+01 0.  0.
     999903    2    3    3    0    0 -0.74133421547E-01  0.27766021119E-01  0.10227509779E+00  0.13082348051E+00  0.19694448611E-01 0.  0.
         14    1    1    2    0    0 -0.18161896768E-01 -0.11872252936E-01 -0.80158094362E-02  0.23131322593E-01  0.00000000000E+00 0.  1.
     999901    1    3    3    0    0  0.92295318314E-01 -0.15893768183E-01 -0.94259288353E-01  0.88997519690E+00  0.88000000000E+00 0.  1.
        -11    1    4    4    0    0 -0.27645978415E-01  0.14544161971E-01  0.26612451378E-01  0.41040424697E-01  0.51100000000E-03 0. -1.
         11    1    4    4    0    0 -0.46487443132E-01  0.13221859148E-01  0.75662646412E-01  0.89783055814E-01  0.51100000000E-03 0.  1.
</event>
<event>
 8    1  0.1129676E+005  0.1043930E+01  0.7957747E-01            NaN
         13   -1    0    0    0    0  0.00000000000E+00  0.00000000000E+00  0.74505805969E-08  0.10566000000E+00  0.10566000000E+00 0.  1.
     999900   -1    0    0    0    0 -0.00000000000E+00 -0.00000000000E+00 -0.74505805969E-08  0.93827000000E+00  0.93827000000E+00 0. -1.
     999902    2    1    2    0    0 -0.21482334069E-01 -0.82825131958E-02  0.56956405355E-02  0.10202122635E+01  0.10199365331E+01 0.  0.
     999903    2    3    3    0    0 -0.56737486906E-01 -0.11326260886E+00  0.34045127900E-01  0.13281864190E+00  0.20836504438E-01 0.  0.
         14    1    1    2    0    0  0.21482334069E-01  0.82825131958E-02 -0.56956405355E-02  0.23717736465E-01  0.00000000000E+00 0. -1.
     999901    1    3    3    0    0  0.35255152836E-01  0.10498009566E+00 -0.28349487365E-01  0.88739362164E+00  0.88000000000E+00 0. -1.
        -11    1    4    4    0    0 -0.32126016324E-01 -0.84877814599E-01  0.22332191826E-01  0.93462892362E-01  0.51100000000E-03 0.  1.
         11    1    4    4    0    0 -0.24611470581E-01 -0.28384794256E-01  0.11712936074E-01  0.39355749537E-01  0.51100000000E-03 0. -1.
</event>
<event>
 8    1  0.1129676E+005  0.1043930E+01  0.7957747E-01            NaN
         13   -1    0    0    0    0  0.00000000000E+00  0.00000000000E+00  0.74505805969E-08  0.10566000000E+00  0.10566000000E+00 0.  1.
     999900   -1    0    0    0    0 -0.00000000000E+00 -0.00000000000E+00 -0.74505805969E-08  0.93827000000E+00  0.93827000000E+00 0.  1.
     999902    2    1    2    0    0 -0.72745428455E-03  0.18581750926E-01  0.14828803818E-01  0.10201454655E+01  0.10198681615E+01 0.  0.
     999903    2    3    3    0    0  0.67365743247E-02 -0.90092082619E-01  0.91485723838E-01  0.13012187191E+00  0.20002477303E-01 0.  0.
         14    1    1    2    0    0  0.72745428455E-03 -0.18581750926E-01 -0.14828803818E-01  0.23784534469E-01  0.00000000000E+00 0.  1.
     999901    1    3    3    0    0 -0.74640286092E-02  0.10867383355E+00 -0.76656920020E-01  0.89002359362E+00  0.88000000000E+00 0. -1.
        -11    1    4    4    0    0 -0.33266207532E-02 -0.36518030056E-01  0.26205301693E-01  0.45073405492E-01  0.51100000000E-03 0. -1.
         11    1    4    4    0    0  0.10063195078E-01 -0.53574052562E-01  0.65280422145E-01  0.85048466415E-01  0.51100000000E-03 0.  1.
</event>
<event>
 8    1  0.1129676E+005  0.1043930E+01  0.7957747E-01            NaN
         13   -1    0    0    0    0  0.00000000000E+00  0.00000000000E+00  0.74505805969E-08  0.10566000000E+00  0.10566000000E+00 0. -1.
     999900   -1    0    0    0    0 -0.00000000000E+00 -0.00000000000E+00 -0.74505805969E-08  0.93827000000E+00  0.93827000000E+00 0. -1.
     999902    2    1    2    0    0  0.16984714933E-01  0.98592341851E-03  0.16049619063E-01  0.10205410526E+01  0.10202730013E+01 0.  0.
     999903    2    3    3    0    0 -0.50624656013E-01  0.13748454123E-01 -0.11513711182E+00  0.12816004232E+00  0.20409952007E-01 0.  0.
         14    1    1    2    0    0 -0.16984714933E-01 -0.98592341851E-03 -0.16049619063E-01  0.23388947356E-01  0.00000000000E+00 0.  1.
     999901    1    3    3    0    0  0.67609370946E-01 -0.12762530704E-01  0.13118673089E+00  0.89238101033E+00  0.88000000000E+00 0.  1.
        -11    1    4    4    0    0 -0.70841998472E-02  0.15865452508E-02 -0.42904688952E-02  0.84482103223E-02  0.51100000000E-03 0.  1.
         11    1    4    4    0    0 -0.43540456166E-01  0.12161908872E-01 -0.11084664293E+00  0.11971183200E+00  0.51100000000E-03 0. -1.
</event>
<event>
 8    1  0.1129676E+005  0.1043930E+01  0.7957747E-01            NaN
         13   -1    0    0    0    0  0.00000000000E+00  0.00000000000E+00  0.74505805969E-08  0.10566000000E+00  0.10566000000E+00 0.  1.
     999900   -1    0    0    0    0 -0.00000000000E+00 -0.00000000000E+00 -0.74505805969E-08  0.93827000000E+00  0.93827000000E+00 0.  1.
     999902    2    1    2    0    0  0.11236084305E-01  0.16586889603E-01 -0.12828716360E-01  0.10201402867E+01  0.10198628604E+01 0.  0.
     999903    2    3    3    0    0 -0.72896186930E-01  0.69965730645E-01 -0.81386865362E-01  0.13186794130E+00  0.23585473425E-01 0.  0.
         14    1    1    2    0    0 -0.11236084305E-01 -0.16586889603E-01  0.12828716360E-01  0.23789713337E-01  0.00000000000E+00 0.  1.
     999901    1    3    3    0    0  0.84132271235E-01 -0.53378841042E-01  0.68558149002E-01  0.88827234536E+00  0.88000000000E+00 0. -1.
        -11    1    4    4    0    0 -0.44649590726E-01  0.37138902005E-01 -0.60216041645E-01  0.83660724277E-01  0.51100000000E-03 0.  1.
         11    1    4    4    0    0 -0.28246596204E-01  0.32826828640E-01 -0.21170823718E-01  0.48207217027E-01  0.51100000000E-03 0. -1.
</event>
<event>
 8    1  0.1129676E+005  0.1043930E+01  0.7957747E-01            NaN
         13   -1    0    0    0    0  0.00000000000E+00  0.00000000000E+00  0.74505805969E-08  0.10566000000E+00  0.10566000000E+00 0. -1.
     999900   -1    0    0    0    0 -0.00000000000E+00 -0.00000000000E+00 -0.74505805969E-08  0.93827000000E+00  0.93827000000E+00 0. -1.
     999902    2    1    2    0    0 -0.57589370840E-03 -0.24984222051E-01  0.66632262916E-02  0.10180660948E+01  0.10177375064E+01 0.  0.
     999903    2    3    3    0    0  0.68987227620E-01  0.53687510307E-01  0.90665243307E-01  0.12785004906E+00  0.21996871655E-01 0.  0.
         14    1    1    2    0    0  0.57589370840E-03  0.24984222051E-01 -0.66632262916E-02  0.25863905151E-01  0.00000000000E+00 0.  1.
     999901    1    3    3    0    0 -0.69563121328E-01 -0.78671732357E-01 -0.84002017016E-01  0.89021604579E+00  0.88000000000E+00 0. -1.
        -11    1    4    4    0    0  0.41326849291E-01  0.36946759866E-01  0.42573126202E-01  0.69897809211E-01  0.51100000000E-03 0. -1.
         11    1    4    4    0    0  0.27660378329E-01  0.16740750441E-01  0.48092117105E-01  0.57952239847E-01  0.51100000000E-03 0.  1.
</event>
<event>
 8    1  0.1129676E+005  0.1043930E+01  0.7957747E-01            NaN
         13   -1    0    0    0    0  0.00000000000E+00  0.00000000000E+00  0.74505805969E-08  0.10566000000E+00  0.10566000000E+00 0. -1.
     999900   -1    0    0    0    0 -0.00000000000E+00 -0.00000000000E+00 -0.74505805969E-08  0.93827000000E+00  0.93827000000E+00 0. -1.
     999902    2    1    2    0    0  0.18567167420E-01  0.13853964206E-01  0.92567112645E-02  0.10189828813E+01  0.10186774532E+01 0.  0.
     999903    2    3    3    0    0  0.52882812003E-01  0.10681506635E+00 -0.51376876235E-01  0.13134795522E+00  0.20165607474E-01 0.  0.
         14    1    1    2    0    0 -0.18567167420E-01 -0.13853964206E-01 -0.92567112645E-02  0.24947118745E-01  0.00000000000E+00 0. -1.
     999901    1    3    3    0    0 -0.34315644582E-01 -0.92961102146E-01  0.60633587499E-01  0.88763492603E+00  0.88000000000E+00 0.  1.
        -11    1    4    4    0    0  0.31628113330E-01  0.42588890267E-01 -0.26129017608E-01  0.59136602955E-01  0.51100000000E-03 0. -1.
         11    1    4    4    0    0  0.21254698673E-01  0.64226176086E-01 -0.25247858627E-01  0.72211352270E-01  0.51100000000E-03 0.  1.
</event>
<event>
 8    1  0.1129676E+005  0.1043930E+01  0.7957747E-01            NaN
         13   -1    0    0    0    0  0.00000000000E+00  0.00000000000E+00  0.74505805969E-08  0.10566000000E+00  0.10566000000E+00 0. -1.
     999900   -1    0    0    0    0 -0.00000000000E+00 -0.00000000000E+00 -0.74505805969E-08  0.93827000000E+00  0.93827000000E+00 0.  1.
     999902    2    1    2    0    0 -0.33766302193E-02  0.18674925674E-01  0.16170301220E-01  0.10189974285E+01  0.10186923609E+01 0.  0.
     999903    2    3    3    0    0  0.89647997647E-01 -0.31630794922E-01  0.85951305738E-01  0.12992283347E+00  0.21331784500E-01 0.  0.
         14    1    1    2    0    0  0.33766302193E-02 -0.18674925674E-01 -0.16170301220E-01  0.24932571510E-01  0.00000000000E+00 0.  1.
     999901    1    3    3    0    0 -0.93024627866E-01  0.50305720595E-01 -0.69781004517E-01  0.88907459502E+00  0.88000000000E+00 0.  1.
        -11    1    4    4    0    0  0.28574828675E-01 -0.27724076759E-02  0.16864105227E-01  0.33299643305E-01  0.51100000000E-03 0.  1.
         11    1    4    4    0    0  0.61073168972E-01 -0.28858387246E-01  0.69087200510E-01  0.96623190167E-01  0.51100000000E-03 0. -1.
</event>
<event>
 8    1  0.1129676E+005  0.1043930E+01  0.7957747E-01            NaN
         13   -1    0    0    0    0  0.00000000000E+00  0.00000000000E+00  0.74505805969E-08  0.10566000000E+00  0.10566000000E+00 0. -1.
     999900   -1    0    0    0    0 -0.00000000000E+00 -0.00000000000E+00 -0.74505805969E-08  0.93827000000E+00  0.93827000000E+00 0. -1.
     999902    2    1    2    0    0 -0.79317140182E-02 -0.19186333962E-01 -0.10936736557E-01  0.10204642866E+01  0.10201944523E+01 0.  0.
     999903    2    3    3    0    0 -0.88788857857E-01  0.75592501758E-01 -0.55032047539E-01  0.13059614927E+00  0.20715702890E-01 0.  0.
         14    1    1    2    0    0  0.79317140182E-02  0.19186333962E-01  0.10936736557E-01  0.23465713386E-01  0.00000000000E+00 0. -1.
     999901    1    3    3    0    0  0.80857143839E-01 -0.94778835720E-01  0.44095310982E-01  0.88986813734E+00  0.88000000000E+00 0. -1.
        -11    1    4    4    0    0 -0.60401946416E-01  0.41109280205E-01 -0.27184537563E-01  0.77959144770E-01  0.51100000000E-03 0.  1.
         11    1    4    4    0    0 -0.28386911441E-01  0.34483221553E-01 -0.27847509976E-01  0.52637004500E-01  0.51100000000E-03 0. -1.
</event>
<event>
 8    1  0.1129676E+005  0.1043930E+01  0.7957747E-01            NaN
         13   -1    0    0    0    0  0.00000000000E+00  0.00000000000E+00  0.74505805969E-08  0.10566000000E+00  0.10566000000E+00 0.  1.
     999900   -1    0    0    0    0 -0.00000000000E+00 -0.00000000000E+00 -0.74505805969E-08  0.93827000000E+00  0.93827000000E+00 0. -1.
     999902    2    1    2    0    0 -0.49712526240E-02 -0.15058609692E-01  0.20749615481E-01  0.10178144563E+01  0.10174793590E+01 0.  0.
     999903    2    3    3    0    0 -0.11775431792E+00  0.44859686379E-01  0.16826073260E-01  0.12858691728E+00  0.19313407353E-01 0.  0.
         14    1    1    2    0    0  0.49712526240E-02  0.15058609692E-01 -0.20749615481E-01  0.26115543669E-01  0.00000000000E+00 0. -1.
     999901    1    3    3    0    0  0.11278306530E+00 -0.59918296071E-01  0.39235422208E-02  0.88922753905E+00  0.88000000000E+00 0.  1.
        -11    1    4    4    0    0 -0.73670222401E-01  0.37863322259E-01  0.11709938762E-01  0.83655941976E-01  0.51100000000E-03 0. -1.
         11    1    4    4    0    0 -0.44084095519E-01  0.69963641203E-02  0.51161344981E-02  0.44930975304E-01  0.51100000000E-03 0.  1.
</event>
<event>
 8    1  0.1129676E+005  0.1043930E+01  0.7957747E-01            NaN
         13   -1    0    0    0    0  0.00000000000E+00  0.00000000000E+00  0.74505805969E-08  0.10566000000E+00  0.10566000000E+00 0. -1.
     999900   -1    0    0    0    0 -0.00000000000E+00 -0.00000000000E+00 -0.74505805969E-08  0.93827000000E+00  0.93827000000E+00 0. -1.
     999902    2    1    2    0    0  0.19704653505E-01 -0.16487489366E-01 -0.64042699800E-02  0.10174512283E+01  0.10171066201E+01 0.  0.
     999903    2    3    3    0    0  0.54365712773E-01  0.11484125100E-01  0.11375277950E+00  0.12816976738E+00  0.20006963044E-01 0.  0.
         14    1    1    2    0    0 -0.19704653505E-01  0.16487489366E-01  0.64042699800E-02  0.26478771673E-01  0.00000000000E+00 0.  1.
     999901    1    3    3    0    0 -0.34661059268E-01 -0.27971614466E-01 -0.12015704948E+00  0.88928146095E+00  0.88000000000E+00 0. -1.
        -11    1    4    4    0    0  0.36643713521E-01  0.49434078362E-02  0.93104407762E-01  0.10017929371E+00  0.51100000000E-03 0. -1.
         11    1    4    4    0    0  0.17721999252E-01  0.65407172642E-02  0.20648371742E-01  0.27990473673E-01  0.51100000000E-03 0.  1.
</event>
<event>
 8    1  0.1129676E+005  0.1043930E+01  0.7957747E-01            NaN
         13   -1    0    0    0    0  0.00000000000E+00  0.00000000000E+00  0.74505805969E-08  0.10566000000E+00  0.10566000000E+00 0. -1.
     999900   -1    0    0    0    0 -0.00000000000E+00 -0.00000000000E+00 -0.74505805969E-08  0.93827000000E+00  0.93827000000E+00 0.  1.
     999902    2    1    2    0    0 -0.14120535240E-01  0.14396842984E-02 -0.18430305646E-01  0.10206676189E+01  0.10204024941E+01 0.  0.
     999903    2    3    3    0    0  0.61719914057E-02  0.11936660056E+00 -0.52036696206E-01  0.13193372530E+00  0.20302987774E-01 0.  0.
         14    1    1    2    0    0  0.14120535240E-01 -0.14396842984E-02  0.18430305646E-01  0.23262381059E-01  0.00000000000E+00 0. -1.
     999901    1    3    3    0    0 -0.20292526646E-01 -0.11792691626E+00  0.33606390560E-01  0.88873389364E+00  0.88000000000E+00 0.  1.
        -11    1    4    4    0    0 -0.16670946752E-02  0.44618832228E-01 -0.97857615868E-02  0.45712598317E-01  0.51100000000E-03 0.  1.
         11    1    4    4    0    0  0.78390860809E-02  0.74747768333E-01 -0.42250934619E-01  0.86221126985E-01  0.51100000000E-03 0. -1.
</event>
<event>
 8    1  0.1129676E+005  0.1043930E+01  0.7957747E-01            NaN
         13   -1    0    0    0    0  0.00000000000E+00  0.00000000000E+00  0.74505805969E-08  0.10566000000E+00  0.10566000000E+00 0.  1.
     999900   -1    0    0    0    0 -0.00000000000E+00 -0.00000000000E+00 -0.74505805969E-08  0.93827000000E+00  0.93827000000E+00 0. -1.
     999902    2    1    2    0    0 -0.17639371970E-01 -0.26183276103E-02 -0.14605615645E-01  0.10208794666E+01  0.10206192033E+01 0.  0.
     999903    2    3    3    0    0 -0.44608602951E-01  0.54855226987E-01  0.10749833154E+00  0.13018315311E+00  0.19817635694E-01 0.  0.
         14    1    1    2    0    0  0.17639371970E-01  0.26183276103E-02  0.14605615645E-01  0.23050533429E-01  0.00000000000E+00 0. -1.
     999901    1    3    3    0    0  0.26969230980E-01 -0.57473554598E-01 -0.12210394718E+00  0.89069631346E+00  0.88000000000E+00 0. -1.
        -11    1    4    4    0    0 -0.38307493403E-01  0.33989430860E-01  0.68858115962E-01  0.85816354594E-01  0.51100000000E-03 0.  1.
         11    1    4    4    0    0 -0.63011095481E-02  0.20865796127E-01  0.38640215577E-01  0.44366798514E-01  0.51100000000E-03 0. -1.
</event>
<event>
 8    1  0.1424390E+005  0.1043930E+01  0.7957747E-01            NaN
         13   -1    0    0    0    0  0.00000000000E+00  0.00000000000E+00  0.74505805969E-08  0.10566000000E+00  0.10566000000E+00 0. -1.
     999900   -1    0    0    0    0 -0.00000000000E+00 -0.00000000000E+00 -0.74505805969E-08  0.93827000000E+00  0.93827000000E+00 0.  1.
     999902    2    1    2    0    0  0.76232132217E-02  0.92140185998E-03  0.28788404732E-01  0.10141351245E+01  0.10136973493E+01 0.  0.
     999903    2    3    3    0    0 -0.65911180702E-01  0.65102717103E-01 -0.77335054077E-01  0.12240156738E+00  0.20464251582E-01 0.  0.
         14    1    1    2    0    0 -0.76232132217E-02 -0.92140185998E-03 -0.28788404732E-01  0.29794875536E-01  0.00000000000E+00 0.  1.
     999901    1    3    3    0    0  0.73534393924E-01 -0.64181315243E-01  0.10612345881E+00  0.89173355708E+00  0.88000000000E+00 0. -1.
        -11    1    4    4    0    0 -0.37798836032E-01  0.23521395055E-01 -0.39882202108E-01  0.59773398738E-01  0.51100000000E-03 0.  1.
         11    1    4    4    0    0 -0.28112344670E-01  0.41581322048E-01 -0.37452851969E-01  0.62628168644E-01  0.51100000000E-03 0. -1.
</event>
<event>
 8    1  0.1129676E+005  0.1043930E+01  0.7957747E-01            NaN
         13   -1    0    0    0    0  0.00000000000E+00  0.00000000000E+00  0.74505805969E-08  0.10566000000E+00  0.10566000000E+00 0.  1.
     999900   -1    0    0    0    0 -0.00000000000E+00 -0.00000000000E+00 -0.74505805969E-08  0.93827000000E+00  0.93827000000E+00 0. -1.
     999902    2    1    2    0    0  0.46112127057E-02 -0.55903212576E-02 -0.27063796081E-01  0.10159127904E+01  0.10155263826E+01 0.  0.
     999903    2    3    3    0    0  0.11774575240E+00 -0.23427414772E-01 -0.38977937711E-01  0.12841094099E+00  0.23604748806E-01 0.  0.
         14    1    1    2    0    0 -0.46112127057E-02  0.55903212576E-02  0.27063796081E-01  0.28017209581E-01  0.00000000000E+00 0.  1.
     999901    1    3    3    0    0 -0.11313453969E+00  0.17837093514E-01  0.11914141630E-01  0.88750184943E+00  0.88000000000E+00 0.  1.
        -11    1    4    4    0    0  0.89029151899E-01 -0.12407863143E-01 -0.38110544933E-01  0.97636159858E-01  0.51100000000E-03 0. -1.
         11    1    4    4    0    0  0.28716600498E-01 -0.11019551628E-01 -0.86739277783E-03  0.30774781128E-01  0.51100000000E-03 0.  1.
</event>
<event>
 8    1  0.1129676E+005  0.1043930E+01  0.7957747E-01            NaN
         13   -1    0    0    0    0  0.00000000000E+00  0.00000000000E+00  0.74505805969E-08  0.10566000000E+00  0.10566000000E+00 0.  1.
     999900   -1    0    0    0    0 -0.00000000000E+00 -0.00000000000E+00 -0.74505805969E-08  0.93827000000E+00  0.93827000000E+00 0.  1.
     999902    2    1    2    0    0 -0.90718430639E-02 -0.64381418630E-02  0.21323398751E-01  0.10198793172E+01  0.10195956975E+01 0.  0.
     999903    2    3    3    0    0 -0.78061339003E-01 -0.15766582710E-01 -0.97820611485E-01  0.12912577919E+00  0.27612262551E-01 0.  0.
         14    1    1    2    0    0  0.90718430639E-02  0.64381418630E-02 -0.21323398751E-01  0.24050682767E-01  0.00000000000E+00 0. -1.
     999901    1    3    3    0    0  0.68989495939E-01  0.93284408474E-02  0.11914401024E+00  0.89075353804E+00  0.88000000000E+00 0. -1.
        -11    1    4    4    0    0 -0.58601146087E-01 -0.20230114392E-01 -0.59585116547E-01  0.85988365992E-01  0.51100000000E-03 0.  1.
         11    1    4    4    0    0 -0.19460192916E-01  0.44635316816E-02 -0.38235494938E-01  0.43137413200E-01  0.51100000000E-03 0. -1.
</event>
<event>
 8    1  0.1129676E+005  0.1043930E+01  0.7957747E-01            NaN
         13   -1    0    0    0    0  0.00000000000E+00  0.00000000000E+00  0.74505805969E-08  0.10566000000E+00  0.10566000000E+00 0. -1.
     999900   -1    0    0    0    0 -0.00000000000E+00 -0.00000000000E+00 -0.74505805969E-08  0.93827000000E+00  0.93827000000E+00 0. -1.
     999902    2    1    2    0    0 -0.17009753292E-01  0.14773116753E-01 -0.68975491240E-02  0.10203683178E+01  0.10200962460E+01 0.  0.
     999903    2    3    3    0    0  0.78734069459E-03  0.32799806645E-01 -0.12646880774E+00  0.13192080441E+00  0.18228880515E-01 0.  0.
         14    1    1    2    0    0  0.17009753292E-01 -0.14773116753E-01  0.68975491240E-02  0.23561682231E-01  0.00000000000E+00 0.  1.
     999901    1    3    3    0    0 -0.17797093986E-01 -0.18026689893E-01  0.11957125861E+00  0.88844751336E+00  0.88000000000E+00 0.  1.
        -11    1    4    4    0    0  0.87730883324E-02  0.24015959703E-01 -0.90198794197E-01  0.93754023887E-01  0.51100000000E-03 0.  1.
         11    1    4    4    0    0 -0.79857476379E-02  0.87838469423E-02 -0.36270013541E-01  0.38166780526E-01  0.51100000000E-03 0. -1.
</event>
<event>
 8    1  0.1129676E+005  0.1043930E+01  0.7957747E-01            NaN
         13   -1    0    0    0    0  0.00000000000E+00  0.00000000000E+00  0.74505805969E-08  0.10566000000E+00  0.10566000000E+00 0.  1.
     999900   -1    0    0    0    0 -0.00000000000E+00 -0.00000000000E+00 -0.74505805969E-08  0.93827000000E+00  0.93827000000E+00 0.  1.
     999902    2    1    2    0    0  0.21474408865E-01  0.87040078489E-02 -0.19080092908E-02  0.10206802583E+01  0.10204154248E+01 0.  0.
     999903    2    3    3    0    0  0.58451996768E-01  0.11147384367E+00  0.38430884940E-01  0.13301128424E+00  0.19287692148E-01 0.  0.
         14    1    1    2    0    0 -0.21474408865E-01 -0.87040078489E-02  0.19080092908E-02  0.23249741680E-01  0.00000000000E+00 0.  1.
     999901    1    3    3    0    0 -0.36977587903E-01 -0.10276983582E+00 -0.40338894231E-01  0.88766897408E+00  0.88000000000E+00 0.  1.
        -11    1    4    4    0    0  0.44302128089E-01  0.97156343438E-01  0.36204807852E-01  0.11275230754E+00  0.51100000000E-03 0. -1.
         11    1    4    4    0    0  0.14149868679E-01  0.14317500231E-01  0.22260770877E-02  0.20258976694E-01  0.51100000000E-03 0.  1.
</event>
<event>
 8    1  0.1129676E+005  0.1043930E+01  0.7957747E-01            NaN
         13   -1    0    0    0    0  0.00000000000E+00  0.00000000000E+00  0.74505805969E-08  0.10566000000E+00  0.10566000000E+00 0. -1.
     999900   -1    0    0    0    0 -0.00000000000E+00 -0.00000000000E+00 -0.74505805969E-08  0.93827000000E+00  0.93827000000E+00 0. -1.
     999902    2    1    2    0    0  0.73647167623E-02  0.21235033789E-01 -0.91268014923E-02  0.10196717186E+01  0.10193831220E+01 0.  0.
     999903    2    3    3    0    0 -0.20787376699E-01 -0.99491248616E-01  0.73660508716E-01  0.12713538072E+00  0.20172032759E-01 0.  0.
         14    1    1    2    0    0 -0.73647167623E-02 -0.21235033789E-01  0.91268014923E-02  0.24258281441E-01  0.00000000000E+00 0. -1.
     999901    1    3    3    0    0  0.28152093461E-01  0.12072628240E+00 -0.82787310208E-01  0.89253633784E+00  0.88000000000E+00 0. -1.
        -11    1    4    4    0    0 -0.21319148869E-01 -0.66513711373E-01  0.57143644456E-01  0.90245427207E-01  0.51100000000E-03 0.  1.
         11    1    4    4    0    0  0.53177217050E-03 -0.32977537243E-01  0.16516864259E-01  0.36889953514E-01  0.51100000000E-03 0. -1.
</event>
<event>
 8    1  0.1129676E+005  0.1043930E+01  0.7957747E-01            NaN
         13   -1    0    0    0    0  0.00000000000E+00  0.00000000000E+00  0.74505805969E-08  0.10566000000E+00  0.10566000000E+00 0. -1.
     999900   -1    0    0    0    0 -0.00000000000E+00 -0.00000000000E+00 -0.74505805969E-08  0.93827000000E+00  0.93827000000E+00 0.  1.
     999902    2    1    2    0    0 -0.40189834517E-03 -0.16302558089E-01  0.32997938319E-01  0.10071224076E+01  0.10064495740E+01 0.  0.
     999903    2    3    3    0    0  0.52158043006E-01 -0.10461840133E+00  0.24898539947E-01  0.12110444176E+00  0.19516074762E-01 0.  0.
         14    1    1    2    0    0  0.40189834517E-03  0.16302558089E-01 -0.32997938319E-01  0.36807592367E-01  0.00000000000E+00 0.  1.
     999901    1    3    3    0    0 -0.52559941352E-01  0.88315843242E-01  0.80993983720E-02  0.88601796588E+00  0.88000000000E+00 0. -1.
        -11    1    4    4    0    0  0.39633470221E-01 -0.88315353613E-01  0.13936448376E-01  0.97800303475E-01  0.51100000000E-03 0.  1.
         11    1    4    4    0    0  0.12524572786E-01 -0.16303047718E-01  0.10962091572E-01  0.23304138281E-01  0.51100000000E-03 0. -1.
</event>
<event>
 7    1  0.1129676E+005  0.1043930E+01  0.7957747E-01            NaN
         13   -1    0    0    0    0  0.00000000000E+00  0.00000000000E+00  0.74505805969E-08  0.10566000000E+00  0.10566000000E+00 0.  1.
     999900   -1    0    0    0    0 -0.00000000000E+00 -0.00000000000E+00 -0.74505805969E-08  0.93827000000E+00  0.93827000000E+00 0. -1.
     999902    2    1    2    0    0  0.13538307885E-01 -0.12395380432E-01  0.16101560873E-01  0.10195129670E+01  0.10192205347E+01 0.  0.
         14    1    1    2    0    0 -0.13538307885E-01  0.12395380432E-01 -0.16101560873E-01  0.24417032968E-01  0.00000000000E+00 0.  1.
     999901    1    3    3    0    0 -0.30340844155E-01 -0.12370897543E+00  0.49001123295E-01  0.89051984117E+00  0.88000000000E+00 0. -1.
        -11    1    3    3    0    0  0.39009257776E-02  0.37872838194E-01 -0.23747765119E-01  0.44875233302E-01  0.51100000000E-03 0.  1.
         11    1    3    3    0    0  0.39978226263E-01  0.73440756801E-01 -0.91517973038E-02  0.84117892564E-01  0.51100000000E-03 0. -1.
</event>
<event>
 8    1  0.1129676E+005  0.1043930E+01  0.7957747E-01            NaN
         13   -1    0    0    0    0  0.00000000000E+00  0.00000000000E+00  0.74505805969E-08  0.10566000000E+00  0.10566000000E+00 0. -1.
     999900   -1    0    0    0    0 -0.00000000000E+00 -0.00000000000E+00 -0.74505805969E-08  0.93827000000E+00  0.93827000000E+00 0.  1.
     999902    2    1    2    0    0 -0.22893117095E-01  0.47665470574E-02 -0.20351110231E-02  0.10204575383E+01  0.10201875470E+01 0.  0.
     999903    2    3    3    0    0  0.51149453022E-01  0.10899403200E+00  0.44858341411E-01  0.12998313290E+00  0.19681933014E-01 0.  0.
         14    1    1    2    0    0  0.22893117095E-01 -0.47665470574E-02  0.20351110231E-02  0.23472461696E-01  0.00000000000E+00 0.  1.
     999901    1    3    3    0    0 -0.74042570117E-01 -0.10422748494E+00 -0.46893452434E-01  0.89047440541E+00  0.88000000000E+00 0. -1.
        -11    1    4    4    0    0  0.25141413523E-01  0.62552187814E-01  0.34581044656E-01  0.75769232837E-01  0.51100000000E-03 0. -1.
         11    1    4    4    0    0  0.26008039498E-01  0.46441844185E-01  0.10277296756E-01  0.54213900058E-01  0.51100000000E-03 0.  1.
</event>
<event>
 8    1  0.1129676E+005  0.1043930E+01  0.7957747E-01            NaN
         13   -1    0    0    0    0  0.00000000000E+00  0.00000000000E+00  0.74505805969E-08  0.10566000000E+00  0.10566000000E+00 0.  1.
     999900   -1    0    0    0    0 -0.00000000000E+00 -0.00000000000E+00 -0.74505805969E-08  0.93827000000E+00  0.93827000000E+00 0.  1.
     999902    2    1    2    0    0  0.61701210375E-02  0.22700814233E-01 -0.64175323918E-02  0.10195459461E+01  0.10192543128E+01 0.  0.
     999903    2    3    3    0    0 -0.10968323086E+00 -0.50268122617E-01 -0.39258971583E-01  0.12835291149E+00  0.19388340684E-01 0.  0.
         14    1    1    2    0    0 -0.61701210375E-02 -0.22700814233E-01  0.64175323918E-02  0.24384053856E-01  0.00000000000E+00 0. -1.
     999901    1    3    3    0    0  0.11585335190E+00  0.72968936851E-01  0.32841439191E-01  0.89119303466E+00  0.88000000000E+00 0. -1.
        -11    1    4    4    0    0 -0.69639513540E-01 -0.21800513723E-01 -0.25917274178E-01  0.77439592371E-01  0.51100000000E-03 0. -1.
         11    1    4    4    0    0 -0.40043717319E-01 -0.28467608894E-01 -0.13341697405E-01  0.50913319117E-01  0.51100000000E-03 0.  1.
</event>
<event>
 8    1  0.1129676E+005  0.1043930E+01  0.7957747E-01            NaN
         13   -1    0    0    0    0  0.00000000000E+00  0.00000000000E+00  0.74505805969E-08  0.10566000000E+00  0.10566000000E+00 0. -1.
     999900   -1    0    0    0    0 -0.00000000000E+00 -0.00000000000E+00 -0.74505805969E-08  0.93827000000E+00  0.93827000000E+00 0.  1.
     999902    2    1    2    0    0  0.14988019784E-01  0.15532026791E-01 -0.99480048173E-03  0.10223227276E+01  0.10220943621E+01 0.  0.
     999903    2    3    3    0    0  0.49384713275E-02  0.10763142475E+00 -0.76829174084E-01  0.13421567055E+00  0.22410090094E-01 0.  0.
         14    1    1    2    0    0 -0.14988019784E-01 -0.15532026791E-01  0.99480048173E-03  0.21607272416E-01  0.00000000000E+00 0. -1.
     999901    1    3    3    0    0  0.10049548456E-01 -0.92099397962E-01  0.75834373602E-01  0.88810705703E+00  0.88000000000E+00 0.  1.
        -11    1    4    4    0    0 -0.91600311733E-03  0.10148066159E+00 -0.72013965256E-01  0.12444049201E+00  0.51100000000E-03 0.  1.
         11    1    4    4    0    0  0.58544744449E-02  0.61507631643E-02 -0.48152088274E-02  0.97751785447E-02  0.51100000000E-03 0. -1.
</event>
<event>
 8    1  0.1129676E+005  0.1043930E+01  0.7957747E-01            NaN
         13   -1    0    0    0    0  0.00000000000E+00  0.00000000000E+00  0.74505805969E-08  0.10566000000E+00  0.10566000000E+00 0. -1.
     999900   -1    0    0    0    0 -0.00000000000E+00 -0.00000000000E+00 -0.74505805969E-08  0.93827000000E+00  0.93827000000E+00 0. -1.
     999902    2    1    2    0    0  0.18628056152E-01  0.55594816350E-02 -0.14030897324E-01  0.10199554637E+01  0.10196736583E+01 0.  0.
     999903    2    3    3    0    0  0.51729891246E-01 -0.41546992380E-01 -0.11297151795E+00  0.13254124372E+00  0.20061983782E-01 0.  0.
         14    1    1    2    0    0 -0.18628056152E-01 -0.55594816350E-02  0.14030897324E-01  0.23974536321E-01  0.00000000000E+00 0. -1.
     999901    1    3    3    0    0 -0.33101835094E-01  0.47106474015E-01  0.98940620629E-01  0.88741421996E+00  0.88000000000E+00 0.  1.
        -11    1    4    4    0    0  0.27776808145E-01 -0.99019428335E-02 -0.52209372826E-01  0.59963983144E-01  0.51100000000E-03 0. -1.
         11    1    4    4    0    0  0.23953083102E-01 -0.31645049547E-01 -0.60762145127E-01  0.72577260573E-01  0.51100000000E-03 0.  1.
</event>
<event>
 8    1  0.1129676E+005  0.1043930E+01  0.7957747E-01            NaN
         13   -1    0    0    0    0  0.00000000000E+00  0.00000000000E+00  0.74505805969E-08  0.10566000000E+00  0.10566000000E+00 0. -1.
     999900   -1    0    0    0    0 -0.00000000000E+00 -0.00000000000E+00 -0.74505805969E-08  0.93827000000E+00  0.93827000000E+00 0.  1.
     999902    2    1    2    0    0  0.14513616085E-01 -0.13783523440E-01  0.13726470525E-01  0.10196597185E+01  0.10193708329E+01 0.  0.
     999903    2    3    3    0    0 -0.39635795085E-01 -0.93201219522E-01  0.81764445585E-01  0.13181485863E+00  0.20791075498E-01 0.  0.
         14    1    1    2    0    0 -0.14513616085E-01  0.13783523440E-01 -0.13726470525E-01  0.24270281485E-01  0.00000000000E+00 0.  1.
     999901    1    3    3    0    0  0.54149411170E-01  0.79417696082E-01 -0.68037975060E-01  0.88784485989E+00  0.88000000000E+00 0.  1.
        -11    1    4    4    0    0 -0.11818822788E-01 -0.14325627389E-01  0.77518902733E-02  0.20131097735E-01  0.51100000000E-03 0.  1.
         11    1    4    4    0    0 -0.27816972297E-01 -0.78875592133E-01  0.74012555312E-01  0.11168376089E+00  0.51100000000E-03 0. -1.
</event>
<event>
 8    1  0.1129676E+005  0.1043930E+01  0.7957747E-01            NaN
         13   -1    0    0    0    0  0.00000000000E+00  0.00000000000E+00  0.74505805969E-08  0.10566000000E+00  0.10566000000E+00 0. -1.
     999900   -1    0    0    0    0 -0.00000000000E+00 -0.00000000000E+00 -0.74505805969E-08  0.93827000000E+00  0.93827000000E+00 0.  1.
     999902    2    1    2    0    0 -0.19629110472E-01 -0.12126534606E-01 -0.35035435303E-02  0.10205926986E+01  0.10203258434E+01 0.  0.
     999903    2    3    3    0    0 -0.35527530468E-02 -0.78178918857E-01  0.10368121698E+00  0.13148643970E+00  0.20354941952E-01 0.  0.
         14    1    1    2    0    0  0.19629110472E-01  0.12126534606E-01  0.35035435303E-02  0.23337301402E-01  0.00000000000E+00 0. -1.
     999901    1    3    3    0    0 -0.16076357426E-01  0.66052384251E-01 -0.10718476051E+00  0.88910625890E+00  0.88000000000E+00 0.  1.
        -11    1    4    4    0    0  0.70299185797E-02 -0.35543893829E-01  0.38383688417E-01  0.52785952689E-01  0.51100000000E-03 0. -1.
         11    1    4    4    0    0 -0.10582671627E-01 -0.42635025028E-01  0.65297528561E-01  0.78700487007E-01  0.51100000000E-03 0.  1.
</event>
<event>
 8    1  0.1129676E+005  0.1043930E+01  0.7957747E-01            NaN
         13   -1    0    0    0    0  0.00000000000E+00  0.00000000000E+00  0.74505805969E-08  0.10566000000E+00  0.10566000000E+00 0. -1.
     999900   -1    0    0    0    0 -0.00000000000E+00 -0.00000000000E+00 -0.74505805969E-08  0.93827000000E+00  0.93827000000E+00 0. -1.
     999902    2    1    2    0    0  0.16236016327E-01 -0.86306431704E-02  0.16080245480E-02  0.10254724278E+01  0.10253063046E+01 0.  0.
     999903    2    3    3    0    0  0.12029002475E+00 -0.20551567185E-01  0.59733492135E-01  0.13735761819E+00  0.20173453465E-01 0.  0.
         14    1    1    2    0    0 -0.16236016327E-01  0.86306431704E-02 -0.16080245480E-02  0.18457572177E-01  0.00000000000E+00 0. -1.
     999901    1    3    3    0    0 -0.10405400843E+00  0.11920924015E-01 -0.58125467587E-01  0.88811480963E+00  0.88000000000E+00 0. -1.
        -11    1    4    4    0    0  0.28267391031E-01 -0.10980498385E-01  0.21855772107E-01  0.37383855284E-01  0.51100000000E-03 0.  1.
         11    1    4    4    0    0  0.92022633722E-01 -0.95710688007E-02  0.37877720028E-01  0.99973762911E-01  0.51100000000E-03 0. -1.
</event>
<event>
 8    1  0.1129676E+005  0.1043930E+01  0.7957747E-01            NaN
         13   -1    0    0    0    0  0.00000000000E+00  0.00000000000E+00  0.74505805969E-08  0.10566000000E+00  0.10566000000E+00 0. -1.
     999900   -1    0    0    0    0 -0.00000000000E+00 -0.00000000000E+00 -0.74505805969E-08  0.93827000000E+00  0.93827000000E+00 0. -1.
     999902    2    1    2    0    0 -0.15040812683E-01  0.17007573993E-01  0.62769564335E-02  0.10203740283E+01  0.10201020899E+01 0.  0.
     999903    2    3    3    0    0  0.11364991054E+00  0.25936977040E-01  0.53440101258E-01  0.12971955059E+00  0.19552197811E-01 0.  0.
         14    1    1    2    0    0  0.15040812683E-01 -0.17007573993E-01 -0.62769564335E-02  0.23555971671E-01  0.00000000000E+00 0.  1.
     999901    1    3    3    0    0 -0.12869072322E+00 -0.89294030463E-02 -0.47163144825E-01  0.89065447774E+00  0.88000000000E+00 0. -1.
        -11    1    4    4    0    0  0.65400123523E-01  0.71421646508E-02  0.36487708983E-01  0.75231646935E-01  0.51100000000E-03 0.  1.
         11    1    4    4    0    0  0.48249787018E-01  0.18794812389E-01  0.16952392275E-01  0.54487903657E-01  0.51100000000E-03 0. -1.
</event>
<event>
 8    1  0.1129676E+005  0.1043930E+01  0.7957747E-01            NaN
         13   -1    0    0    0    0  0.00000000000E+00  0.00000000000E+00  0.74505805969E-08  0.10566000000E+00  0.10566000000E+00 0. -1.
     999900   -1    0    0    0    0 -0.00000000000E+00 -0.00000000000E+00 -0.74505805969E-08  0.93827000000E+00  0.93827000000E+00 0.  1.
     999902    2    1    2    0    0  0.15466313408E-02  0.67091056501E-02 -0.23086217228E-01  0.10198389728E+01  0.10195543893E+01 0.  0.
     999903    2    3    3    0    0  0.66477892882E-01 -0.13079789981E-01  0.10658094698E+00  0.12775083666E+00  0.19245437359E-01 0.  0.
         14    1    1    2    0    0 -0.15466313408E-02 -0.67091056501E-02  0.23086217228E-01  0.24091027231E-01  0.00000000000E+00 0. -1.
     999901    1    3    3    0    0 -0.64931261541E-01  0.19788895631E-01 -0.12966716421E+00  0.89208813611E+00  0.88000000000E+00 0.  1.
        -11    1    4    4    0    0  0.36536666992E-01 -0.77032343183E-02  0.75647664654E-01  0.84362895531E-01  0.51100000000E-03 0. -1.
         11    1    4    4    0    0  0.29941225890E-01 -0.53765556623E-02  0.30933282329E-01  0.43387941127E-01  0.51100000000E-03 0.  1.
</event>
<event>
 8    1  0.1129676E+005  0.1043930E+01  0.7957747E-01            NaN
         13   -1    0    0    0    0  0.00000000000E+00  0.00000000000E+00  0.74505805969E-08  0.10566000000E+00  0.10566000000E+00 0.  1.
     999900   -1    0    0    0    0 -0.00000000000E+00 -0.00000000000E+00 -0.74505805969E-08  0.93827000000E+00  0.93827000000E+00 0.  1.
     999902    2    1    2    0    0 -0.72509490749E-02 -0.21602457894E-01 -0.56810779558E-03  0.10211360272E+01  0.10208815900E+01 0.  0.
     999903    2    3    3    0    0  0.12844468005E+00  0.37836762170E-02 -0.98415877545E-02  0.13032529702E+00  0.19377155514E-01 0.  0.
         14    1    1    2    0    0  0.72509490749E-02  0.21602457894E-01  0.56810779558E-03  0.22793972800E-01  0.00000000000E+00 0.  1.
     999901    1    3    3    0    0 -0.13569562912E+00 -0.25386134111E-01  0.92734799589E-02  0.89081073018E+00  0.88000000000E+00 0.  1.
        -11    1    4    4    0    0  0.48173630461E-01 -0.79485908961E-02 -0.36847655587E-02  0.48966492495E-01  0.51100000000E-03 0. -1.
         11    1    4    4    0    0  0.80271049588E-01  0.11732267113E-01 -0.61568221958E-02  0.81358804528E-01  0.51100000000E-03 0.  1.
</event>
<event>
 8    1  0.1129676E+005  0.1043930E+01  0.7957747E-01            NaN
         13   -1    0    0    0    0  0.00000000000E+00  0.00000000000E+00  0.74505805969E-08  0.10566000000E+00  0.10566000000E+00 0. -1.
     999900   -1    0    0    0    0 -0.00000000000E+00 -0.00000000000E+00 -0.74505805969E-08  0.93827000000E+00  0.93827000000E+00 0. -1.
     999902    2    1    2    0    0  0.20534533204E-01  0.61514950907E-02  0.90234005468E-02  0.10206721045E+01  0.10204070831E+01 0.  0.
     999903    2    3    3    0    0 -0.10467140617E+00 -0.63121237023E-01  0.34960897636E-01  0.12873713354E+00  0.20263053931E-01 0.  0.
         14    1    1    2    0    0 -0.20534533204E-01 -0.61514950907E-02 -0.90234005468E-02  0.23257895502E-01  0.00000000000E+00 0.  1.
     999901    1    3    3    0    0  0.12520593937E+00  0.69272732114E-01 -0.25937497089E-01  0.89193497096E+00  0.88000000000E+00 0.  1.
        -11    1    4    4    0    0 -0.15513522356E-01 -0.16064976202E-01  0.10195574515E-02  0.22361875025E-01  0.51100000000E-03 0. -1.
         11    1    4    4    0    0 -0.89157883815E-01 -0.47056260821E-01  0.33941340184E-01  0.10637525851E+00  0.51100000000E-03 0.  1.
</event>
<event>
 8    1  0.1129676E+005  0.1043930E+01  0.7957747E-01            NaN
         13   -1    0    0    0    0  0.00000000000E+00  0.00000000000E+00  0.74505805969E-08  0.10566000000E+00  0.10566000000E+00 0. -1.
     999900   -1    0    0    0    0 -0.00000000000E+00 -0.00000000000E+00 -0.74505805969E-08  0.93827000000E+00  0.93827000000E+00 0. -1.
     999902    2    1    2    0    0  0.21584186423E-01 -0.94158984759E-02 -0.94847224012E-03  0.10203623135E+01  0.10200901014E+01 0.  0.
     999903    2    3    3    0    0 -0.11497373201E+00 -0.28580519280E-01 -0.46123509406E-01  0.12847883918E+00  0.18537229104E-01 0.  0.
         14    1    1    2    0    0 -0.21584186423E-01  0.94158984759E-02  0.94847224012E-03  0.23567686506E-01  0.00000000000E+00 0. -1.
     999901    1    3    3    0    0  0.13655791843E+00  0.19164620804E-01  0.45175037166E-01  0.89188347432E+00  0.88000000000E+00 0.  1.
        -11    1    4    4    0    0 -0.38801056975E-01 -0.14594595534E-01 -0.24128570718E-01  0.47968461379E-01  0.51100000000E-03 0. -1.
         11    1    4    4    0    0 -0.76172675031E-01 -0.13985923746E-01 -0.21994938688E-01  0.80510377799E-01  0.51100000000E-03 0.  1.
</event>
<event>
 8    1  0.1129676E+005  0.1043930E+01  0.7957747E-01            NaN
         13   -1    0    0    0    0  0.00000000000E+00  0.00000000000E+00  0.74505805969E-08  0.10566000000E+00  0.10566000000E+00 0. -1.
     999900   -1    0    0    0    0 -0.00000000000E+00 -0.00000000000E+00 -0.74505805969E-08  0.93827000000E+00  0.93827000000E+00 0.  1.
     999902    2    1    2    0    0  0.76523337278E-02  0.31497739625E-02  0.22583784947E-01  0.10198778352E+01  0.10195941801E+01 0.  0.
     999903    2    3    3    0    0 -0.31983940776E-01  0.73509342482E-01  0.10342352927E+00  0.13249033960E+00  0.20752536759E-01 0.  0.
         14    1    1    2    0    0 -0.76523337278E-02 -0.31497739625E-02 -0.22583784947E-01  0.24052164768E-01  0.00000000000E+00 0.  1.
     999901    1    3    3    0    0  0.39636274504E-01 -0.70359568520E-01 -0.80839744321E-01  0.88738749563E+00  0.88000000000E+00 0.  1.
        -11    1    4    4    0    0 -0.22961952702E-01  0.49705413833E-01  0.54051465935E-01  0.76939596613E-01  0.51100000000E-03 0.  1.
         11    1    4    4    0    0 -0.90219880737E-02  0.23803928650E-01  0.49372063332E-01  0.55550742989E-01  0.51100000000E-03 0. -1.
</event>
<event>
 8    1  0.1129676E+005  0.1043930E+01  0.7957747E-01            NaN
         13   -1    0    0    0    0  0.00000000000E+00  0.00000000000E+00  0.74505805969E-08  0.10566000000E+00  0.10566000000E+00 0.  1.
     999900   -1    0    0    0    0 -0.00000000000E+00 -0.00000000000E+00 -0.74505805969E-08  0.93827000000E+00  0.93827000000E+00 0. -1.
     999902    2    1    2    0    0 -0.89127813234E-02 -0.10960885971E-01 -0.19787784234E-01  0.10196167300E+01  0.10193268078E+01 0.  0.
     999903    2    3    3    0    0 -0.69777577422E-01 -0.58774084325E-03  0.10596449993E+00  0.12853549774E+00  0.20582594195E-01 0.  0.
         14    1    1    2    0    0  0.89127813234E-02  0.10960885971E-01  0.19787784234E-01  0.24313269979E-01  0.00000000000E+00 0.  1.
     999901    1    3    3    0    0  0.60864796099E-01 -0.10373145127E-01 -0.12575228417E+00  0.89108123228E+00  0.88000000000E+00 0. -1.
        -11    1    4    4    0    0 -0.47588860322E-01  0.90967540805E-02  0.67708433916E-01  0.83259496190E-01  0.51100000000E-03 0. -1.
         11    1    4    4    0    0 -0.22188717100E-01 -0.96844949238E-02  0.38256066018E-01  0.45276001553E-01  0.51100000000E-03 0.  1.
</event>
<event>
 8    1  0.1129676E+005  0.1043930E+01  0.7957747E-01            NaN
         13   -1    0    0    0    0  0.00000000000E+00  0.00000000000E+00  0.74505805969E-08  0.10566000000E+00  0.10566000000E+00 0.  1.
     999900   -1    0    0    0    0 -0.00000000000E+00 -0.00000000000E+00 -0.74505805969E-08  0.93827000000E+00  0.93827000000E+00 0.  1.
     999902    2    1    2    0    0 -0.24139198400E-02 -0.10262720583E-01 -0.21522216366E-01  0.10199642695E+01  0.10196826736E+01 0.  0.
     999903    2    3    3    0    0  0.10885273628E+00  0.59577798345E-01  0.28681627627E-01  0.12879739800E+00  0.19175549992E-01 0.  0.
         14    1    1    2    0    0  0.24139198400E-02  0.10262720583E-01  0.21522216366E-01  0.23965730535E-01  0.00000000000E+00 0.  1.
     999901    1    3    3    0    0 -0.11126665612E+00 -0.69840518927E-01 -0.50203843992E-01  0.89116687147E+00  0.88000000000E+00 0. -1.
        -11    1    4    4    0    0  0.69838730091E-01  0.31136637201E-01  0.24669684884E-01  0.80347948761E-01  0.51100000000E-03 0.  1.
         11    1    4    4    0    0  0.39014006186E-01  0.28441161143E-01  0.40119427422E-02  0.48449449238E-01  0.51100000000E-03 0. -1.
</event>
<event>
 8    1  0.1129676E+005  0.1043930E+01  0.7957747E-01            NaN
         13   -1    0    0    0    0  0.00000000000E+00  0.00000000000E+00  0.74505805969E-08  0.10566000000E+00  0.10566000000E+00 0.  1.
     999900   -1    0    0    0    0 -0.00000000000E+00 -0.00000000000E+00 -0.74505805969E-08  0.93827000000E+00  0.93827000000E+00 0. -1.
     999902    2    1    2    0    0 -0.18538203861E-01  0.14623135696E-01  0.16110965285E-02  0.10202636371E+01  0.10199891139E+01 0.  0.
     999903    2    3    3    0    0  0.19085471903E-01 -0.91765072342E-01 -0.85977117592E-01  0.12874488407E+00  0.19952360387E-01 0.  0.
         14    1    1    2    0    0  0.18538203861E-01 -0.14623135696E-01 -0.16110965285E-02  0.23666362880E-01  0.00000000000E+00 0.  1.
     999901    1    3    3    0    0 -0.37623675764E-01  0.10638820804E+00  0.87588214120E-01  0.89151875305E+00  0.88000000000E+00 0. -1.
        -11    1    4    4    0    0  0.18851144240E-01 -0.71013934988E-01 -0.76010393723E-01  0.10571748047E+00  0.51100000000E-03 0.  1.
         11    1    4    4    0    0  0.23432766326E-03 -0.20751137354E-01 -0.99667238681E-02  0.23027403601E-01  0.51100000000E-03 0. -1.
</event>
<event>
 8    1  0.1129676E+005  0.1043930E+01  0.7957747E-01            NaN
         13   -1    0    0    0    0  0.00000000000E+00  0.00000000000E+00  0.74505805969E-08  0.10566000000E+00  0.10566000000E+00 0. -1.
     999900   -1    0    0    0    0 -0.00000000000E+00 -0.00000000000E+00 -0.74505805969E-08  0.93827000000E+00  0.93827000000E+00 0. -1.
     999902    2    1    2    0    0 -0.19730190110E-01 -0.10600587277E-01 -0.72099736232E-02  0.10204005170E+01  0.10201291969E+01 0.  0.
     999903    2    3    3    0    0 -0.29582560506E-01  0.11904974837E+00  0.37578011752E-01  0.12971974229E+00  0.19160743680E-01 0.  0.
         14    1    1    2    0    0  0.19730190110E-01  0.10600587277E-01  0.72099736232E-02  0.23529483038E-01  0.00000000000E+00 0. -1.
     999901    1    3    3    0    0  0.98523703964E-02 -0.12965033565E+00 -0.44787985375E-01  0.89068077467E+00  0.88000000000E+00 0. -1.
        -11    1    4    4    0    0 -0.23868658761E-01  0.61433808626E-01  0.24833746276E-01  0.70432959532E-01  0.51100000000E-03 0. -1.
         11    1    4    4    0    0 -0.57139017457E-02  0.57615939749E-01  0.12744265476E-01  0.59286782758E-01  0.51100000000E-03 0.  1.
</event>
<event>
 8    1  0.1129676E+005  0.1043930E+01  0.7957747E-01            NaN
         13   -1    0    0    0    0  0.00000000000E+00  0.00000000000E+00  0.74505805969E-08  0.10566000000E+00  0.10566000000E+00 0. -1.
     999900   -1    0    0    0    0 -0.00000000000E+00 -0.00000000000E+00 -0.74505805969E-08  0.93827000000E+00  0.93827000000E+00 0.  1.
     999902    2    1    2    0    0 -0.22370006882E-02 -0.16243944272E-01  0.18549069798E-01  0.10191724176E+01  0.10188716695E+01 0.  0.
     999903    2    3    3    0    0  0.34768805057E-01 -0.11993594332E+00 -0.33208122222E-01  0.13080297457E+00  0.20325807961E-01 0.  0.
         14    1    1    2    0    0  0.22370006882E-02  0.16243944272E-01 -0.18549069798E-01  0.24757582434E-01  0.00000000000E+00 0. -1.
     999901    1    3    3    0    0 -0.37005805745E-01  0.10369199905E+00  0.51757192020E-01  0.88836944300E+00  0.88000000000E+00 0. -1.
        -11    1    4    4    0    0  0.23707151978E-01 -0.92100161667E-01 -0.33536777424E-01  0.10084366810E+00  0.51100000000E-03 0. -1.
         11    1    4    4    0    0  0.11061653079E-01 -0.27835781654E-01  0.32865520264E-03  0.29959306473E-01  0.51100000000E-03 0.  1.
</event>
<event>
 8    1  0.1129676E+005  0.1043930E+01  0.7957747E-01            NaN
         13   -1    0    0    0    0  0.00000000000E+00  0.00000000000E+00  0.74505805969E-08  0.10566000000E+00  0.10566000000E+00 0.  1.
     999900   -1    0    0    0    0 -0.00000000000E+00 -0.00000000000E+00 -0.74505805969E-08  0.93827000000E+00  0.93827000000E+00 0.  1.
     999902    2    1    2    0    0  0.27123177513E-01 -0.19829108712E-02 -0.12843671962E-01  0.10138541192E+01  0.10134079221E+01 0.  0.
     999903    2    3    3    0    0  0.73446549238E-01  0.31067749660E-01 -0.97592106681E-01  0.12795316647E+00  0.22095086789E-01 0.  0.
         14    1    1    2    0    0 -0.27123177513E-01  0.19829108712E-02  0.12843671962E-01  0.30075880758E-01  0.00000000000E+00 0.  1.
     999901    1    3    3    0    0 -0.46323371725E-01 -0.33050660531E-01  0.84748434719E-01  0.88590095277E+00  0.88000000000E+00 0. -1.
        -11    1    4    4    0    0  0.32743953851E-01  0.21904542253E-02 -0.40158102863E-01  0.51864235751E-01  0.51100000000E-03 0.  1.
         11    1    4    4    0    0  0.40702595387E-01  0.28877295435E-01 -0.57434003818E-01  0.76088930722E-01  0.51100000000E-03 0. -1.
</event>
<event>
 8    1  0.1145751E+005  0.1043930E+01  0.7957747E-01            NaN
         13   -1    0    0    0    0  0.00000000000E+00  0.00000000000E+00  0.74505805969E-08  0.10566000000E+00  0.10566000000E+00 0.  1.
     999900   -1    0    0    0    0 -0.00000000000E+00 -0.00000000000E+00 -0.74505805969E-08  0.93827000000E+00  0.93827000000E+00 0. -1.
     999902    2    1    2    0    0 -0.22281628250E-01  0.12141200732E-02  0.79301016847E-02  0.10202481175E+01  0.10199732299E+01 0.  0.
     999903    2    3    3    0    0  0.24893992501E-01 -0.13853511325E-01  0.12623508133E+00  0.13095140612E+00  0.20033580982E-01 0.  0.
         14    1    1    2    0    0  0.22281628250E-01 -0.12141200732E-02 -0.79301016847E-02  0.23681882479E-01  0.00000000000E+00 0. -1.
     999901    1    3    3    0    0 -0.47175620751E-01  0.15067631398E-01 -0.11830497964E+00  0.88929671141E+00  0.88000000000E+00 0. -1.
        -11    1    4    4    0    0  0.31692395900E-02 -0.11967818813E-01  0.58232540594E-01  0.59536229908E-01  0.51100000000E-03 0.  1.
         11    1    4    4    0    0  0.21724752911E-01 -0.18856925117E-02  0.68002540734E-01  0.71415176207E-01  0.51100000000E-03 0. -1.
</event>
<event>
 8    1  0.1129676E+005  0.1043930E+01  0.7957747E-01            NaN
         13   -1    0    0    0    0  0.00000000000E+00  0.00000000000E+00  0.74505805969E-08  0.10566000000E+00  0.10566000000E+00 0.  1.
     999900   -1    0    0    0    0 -0.00000000000E+00 -0.00000000000E+00 -0.74505805969E-08  0.93827000000E+00  0.93827000000E+00 0.  1.
     999902    2    1    2    0    0  0.38367346305E-02 -0.23832744544E-01  0.25310896539E-02  0.10196580685E+01  0.10193691431E+01 0.  0.
     999903    2    3    3    0    0 -0.52910309080E-01 -0.24325827323E-01 -0.11449135646E+00  0.13009934473E+00  0.20647569165E-01 0.  0.
         14    1    1    2    0    0 -0.38367346305E-02  0.23832744544E-01 -0.25310896539E-02  0.24271931525E-01  0.00000000000E+00 0. -1.
     999901    1    3    3    0    0  0.56747043711E-01  0.49308277946E-03  0.11702244611E+00  0.88955872375E+00  0.88000000000E+00 0. -1.
        -11    1    4    4    0    0 -0.85050544796E-02 -0.12428937424E-01 -0.37667046651E-01  0.40569470808E-01  0.51100000000E-03 0.  1.
         11    1    4    4    0    0 -0.44405254601E-01 -0.11896889899E-01 -0.76824309809E-01  0.89529873920E-01  0.51100000000E-03 0. -1.
</event>
<event>
 7    1  0.1129676E+005  0.1043930E+01  0.7957747E-01            NaN
         13   -1    0    0    0    0  0.00000000000E+00  0.00000000000E+00  0.74505805969E-08  0.10566000000E+00  0.10566000000E+00 0.  1.
     999900   -1    0    0    0    0 -0.00000000000E+00 -0.00000000000E+00 -0.74505805969E-08  0.93827000000E+00  0.93827000000E+00 0. -1.
     999903    2    1    2    0    0 -0.27728515643E-02  0.71744496060E-01 -0.54884929413E-01  0.92557195254E-01  0.19987933757E-01 0.  0.
         14    1    1    2    0    0 -0.62811872517E-01  0.50338708449E-02 -0.72109347354E-02  0.63424512332E-01  0.00000000000E+00 0.  1.
     999901    1    1    2    0    0  0.65584724082E-01 -0.76778366905E-01  0.62095864148E-01  0.88794829241E+00  0.88000000000E+00 0.  1.
        -11    1    3    3    0    0 -0.92355800931E-02  0.16777723753E-01 -0.13135924097E-01  0.23229325795E-01  0.51100000000E-03 0.  1.
         11    1    3    3    0    0  0.64627285288E-02  0.54966772307E-01 -0.41749005316E-01  0.69327869459E-01  0.51100000000E-03 0. -1.
</event>
<event>
 8    1  0.1129676E+005  0.1043930E+01  0.7957747E-01            NaN
         13   -1    0    0    0    0  0.00000000000E+00  0.00000000000E+00  0.74505805969E-08  0.10566000000E+00  0.10566000000E+00 0. -1.
     999900   -1    0    0    0    0 -0.00000000000E+00 -0.00000000000E+00 -0.74505805969E-08  0.93827000000E+00  0.93827000000E+00 0. -1.
     999902    2    1    2    0    0  0.73141715847E-03 -0.24224626926E-01 -0.25779453406E-02  0.10195576115E+01  0.10192662605E+01 0.  0.
     999903    2    3    3    0    0  0.77965029967E-01 -0.42731670882E-01  0.93793204225E-01  0.13074101616E+00  0.19786524529E-01 0.  0.
         14    1    1    2    0    0 -0.73141715847E-03  0.24224626926E-01  0.25779453406E-02  0.24372388536E-01  0.00000000000E+00 0. -1.
     999901    1    3    3    0    0 -0.77233612809E-01  0.18507043956E-01 -0.96371149566E-01  0.88881659531E+00  0.88000000000E+00 0.  1.
        -11    1    4    4    0    0  0.22215029595E-01 -0.22412509965E-01  0.36557563698E-01  0.48296425617E-01  0.51100000000E-03 0.  1.
         11    1    4    4    0    0  0.55750000372E-01 -0.20319160917E-01  0.57235640527E-01  0.82444590541E-01  0.51100000000E-03 0. -1.
</event>
<event>
 8    1  0.1129676E+005  0.1043930E+01  0.7957747E-01            NaN
         13   -1    0    0    0    0  0.00000000000E+00  0.00000000000E+00  0.74505805969E-08  0.10566000000E+00  0.10566000000E+00 0. -1.
     999900   -1    0    0    0    0 -0.00000000000E+00 -0.00000000000E+00 -0.74505805969E-08  0.93827000000E+00  0.93827000000E+00 0.  1.
     999902    2    1    2    0    0 -0.20251606599E-01 -0.33080817581E-02 -0.12931059728E-01  0.10196754483E+01  0.10193869415E+01 0.  0.
     999903    2    3    3    0    0 -0.43924988640E-01 -0.46827934650E-01  0.11014673878E+00  0.12973019651E+00  0.23986657354E-01 0.  0.
         14    1    1    2    0    0  0.20251606599E-01  0.33080817581E-02  0.12931059728E-01  0.24254551747E-01  0.00000000000E+00 0. -1.
     999901    1    3    3    0    0  0.23673382041E-01  0.43519852891E-01 -0.12307779851E+00  0.88994525174E+00  0.88000000000E+00 0.  1.
        -11    1    4    4    0    0 -0.43078669842E-02  0.12121654842E-03  0.21142395380E-01  0.21583197511E-01  0.51100000000E-03 0.  1.
         11    1    4    4    0    0 -0.39617121656E-01 -0.46949151198E-01  0.89004343405E-01  0.10814699900E+00  0.51100000000E-03 0. -1.
</event>
<event>
 8    1  0.1129676E+005  0.1043930E+01  0.7957747E-01            NaN
         13   -1    0    0    0    0  0.00000000000E+00  0.00000000000E+00  0.74505805969E-08  0.10566000000E+00  0.10566000000E+00 0. -1.
     999900   -1    0    0    0    0 -0.00000000000E+00 -0.00000000000E+00 -0.74505805969E-08  0.93827000000E+00  0.93827000000E+00 0.  1.
     999902    2    1    2    0    0 -0.17821021905E-01 -0.98913395248E-02  0.11476481445E-01  0.10205390392E+01  0.10202709412E+01 0.  0.
     999903    2    3    3    0    0 -0.12466620486E+00 -0.11681964740E-01  0.41066277470E-01  0.13358094806E+00  0.21892912256E-01 0.  0.
         14    1    1    2    0    0  0.17821021905E-01  0.98913395248E-02 -0.11476481445E-01  0.23390960769E-01  0.00000000000E+00 0.  1.
     999901    1    3    3    0    0  0.10684518295E+00  0.17906252150E-02 -0.29589796025E-01  0.88695809117E+00  0.88000000000E+00 0.  1.
        -11    1    4    4    0    0 -0.46629661647E-01  0.62006789663E-02  0.15925727520E-01  0.49665518049E-01  0.51100000000E-03 0.  1.
         11    1    4    4    0    0 -0.78036543209E-01 -0.17882643706E-01  0.25140549950E-01  0.83915430015E-01  0.51100000000E-03 0. -1.
</event>
<event>
 8    1  0.1129676E+005  0.1043930E+01  0.7957747E-01            NaN
         13   -1    0    0    0    0  0.00000000000E+00  0.00000000000E+00  0.74505805969E-08  0.10566000000E+00  0.10566000000E+00 0.  1.
     999900   -1    0    0    0    0 -0.00000000000E+00 -0.00000000000E+00 -0.74505805969E-08  0.93827000000E+00  0.93827000000E+00 0.  1.
     999902    2    1    2    0    0 -0.10253170050E-01 -0.44351614994E-02  0.20341696765E-01  0.10207226137E+01  0.10204587553E+01 0.  0.
     999903    2    3    3    0    0 -0.12127980258E+00 -0.48440527414E-01 -0.23777902464E-02  0.13236482512E+00  0.21436367045E-01 0.  0.
         14    1    1    2    0    0  0.10253170050E-01  0.44351614994E-02 -0.20341696765E-01  0.23207386343E-01  0.00000000000E+00 0. -1.
     999901    1    3    3    0    0  0.11102663253E+00  0.44005365915E-01  0.22719487012E-01  0.88835778854E+00  0.88000000000E+00 0. -1.
        -11    1    4    4    0    0 -0.81210637953E-01 -0.22768392467E-01  0.34792279269E-02  0.84415244833E-01  0.51100000000E-03 0. -1.
         11    1    4    4    0    0 -0.40069164631E-01 -0.25672134947E-01 -0.58570181733E-02  0.47949580289E-01  0.51100000000E-03 0.  1.
</event>
<event>
 8    1  0.1129676E+005  0.1043930E+01  0.7957747E-01            NaN
         13   -1    0    0    0    0  0.00000000000E+00  0.00000000000E+00  0.74505805969E-08  0.10566000000E+00  0.10566000000E+00 0.  1.
     999900   -1    0    0    0    0 -0.00000000000E+00 -0.00000000000E+00 -0.74505805969E-08  0.93827000000E+00  0.93827000000E+00 0.  1.
     999902    2    1    2    0    0  0.15211914657E-01 -0.14346715414E-01 -0.10805041240E-01  0.10203932307E+01  0.10201217407E+01 0.  0.
     999903    2    3    3    0    0 -0.32572899007E-01  0.50861879297E-01 -0.11413521569E+00  0.13066705141E+00  0.19977646230E-01 0.  0.
         14    1    1    2    0    0 -0.15211914657E-01  0.14346715414E-01  0.10805041240E-01  0.23536769253E-01  0.00000000000E+00 0.  1.
     999901    1    3    3    0    0  0.47784813664E-01 -0.65208594710E-01  0.10333017445E+00  0.88972617933E+00  0.88000000000E+00 0.  1.
        -11    1    4    4    0    0 -0.49029618470E-02  0.87845144885E-02 -0.38519527986E-01  0.39814845057E-01  0.51100000000E-03 0. -1.
         11    1    4    4    0    0 -0.27669937160E-01  0.42077364808E-01 -0.75615687704E-01  0.90852206355E-01  0.51100000000E-03 0.  1.
</event>
<event>
 8    1  0.1129676E+005  0.1043930E+01  0.7957747E-01            NaN
         13   -1    0    0    0    0  0.00000000000E+00  0.00000000000E+00  0.74505805969E-08  0.10566000000E+00  0.10566000000E+00 0.  1.
     999900   -1    0    0    0    0 -0.00000000000E+00 -0.00000000000E+00 -0.74505805969E-08  0.93827000000E+00  0.93827000000E+00 0.  1.
     999902    2    1    2    0    0 -0.36643724936E-03 -0.16937929170E-01 -0.98570939149E-02  0.10243292342E+01  0.10241416845E+01 0.  0.
     999903    2    3    3    0    0 -0.92389492695E-01  0.83137420084E-01  0.41345615609E-01  0.13241834415E+00  0.19429589787E-01 0.  0.
         14    1    1    2    0    0  0.36643724936E-03  0.16937929170E-01  0.98570939149E-02  0.19600765834E-01  0.00000000000E+00 0.  1.
     999901    1    3    3    0    0  0.92023055446E-01 -0.10007534925E+00 -0.51202709524E-01  0.89191089001E+00  0.88000000000E+00 0.  1.
        -11    1    4    4    0    0 -0.50228599602E-01  0.54640363369E-01  0.31272380166E-01  0.80540079521E-01  0.51100000000E-03 0.  1.
         11    1    4    4    0    0 -0.42160893094E-01  0.28497056715E-01  0.10073235443E-01  0.51878264631E-01  0.51100000000E-03 0. -1.
</event>
<event>
 8    1  0.1129676E+005  0.1043930E+01  0.7957747E-01            NaN
         13   -1    0    0    0    0  0.00000000000E+00  0.00000000000E+00  0.74505805969E-08  0.10566000000E+00  0.10566000000E+00 0. -1.
     999900   -1    0    0    0    0 -0.00000000000E+00 -0.00000000000E+00 -0.74505805969E-08  0.93827000000E+00  0.93827000000E+00 0. -1.
     999902    2    1    2    0    0  0.13939225044E-01  0.15078446704E-01 -0.14197831735E-01  0.10189652253E+01  0.10186593594E+01 0.  0.
     999903    2    3    3    0    0  0.95409244257E-02  0.10155612853E+00  0.78270153752E-01  0.12989376426E+00  0.18479625084E-01 0.  0.
         14    1    1    2    0    0 -0.13939225044E-01 -0.15078446704E-01  0.14197831735E-01  0.24964774700E-01  0.00000000000E+00 0. -1.
     999901    1    3    3    0    0  0.43983006185E-02 -0.86477681827E-01 -0.92467985487E-01  0.88907146104E+00  0.88000000000E+00 0. -1.
        -11    1    4    4    0    0 -0.37742952567E-02  0.50370912235E-01  0.42816566999E-01  0.66219284462E-01  0.51100000000E-03 0. -1.
         11    1    4    4    0    0  0.13315219682E-01  0.51185216296E-01  0.35453586753E-01  0.63674479795E-01  0.51100000000E-03 0.  1.
</event>
<event>
 8    1  0.1129676E+005  0.1043930E+01  0.7957747E-01            NaN
         13   -1    0    0    0    0  0.00000000000E+00  0.00000000000E+00  0.74505805969E-08  0.10566000000E+00  0.10566000000E+00 0.  1.
     999900   -1    0    0    0    0 -0.00000000000E+00 -0.00000000000E+00 -0.74505805969E-08  0.93827000000E+00  0.93827000000E+00 0. -1.
     999902    2    1    2    0    0 -0.23196356467E-01 -0.45549276177E-02  0.60263790923E-02  0.10195345995E+01  0.10192426915E+01 0.  0.
     999903    2    3    3    0    0  0.12139068558E+00  0.30148642043E-01  0.96885835229E-02  0.12705313630E+00  0.20099543037E-01 0.  0.
         14    1    1    2    0    0  0.23196356467E-01  0.45549276177E-02 -0.60263790923E-02  0.24395400467E-01  0.00000000000E+00 0. -1.
     999901    1    3    3    0    0 -0.14458704205E+00 -0.34703569661E-01 -0.36622044307E-02  0.89248146323E+00  0.88000000000E+00 0. -1.
        -11    1    4    4    0    0  0.88897781205E-02  0.65802275170E-02  0.46198720520E-02  0.11997161664E-01  0.51100000000E-03 0. -1.
         11    1    4    4    0    0  0.11250090746E+00  0.23568414526E-01  0.50687114710E-02  0.11505597464E+00  0.51100000000E-03 0.  1.
</event>
<event>
 8    1  0.1129676E+005  0.1043930E+01  0.7957747E-01            NaN
         13   -1    0    0    0    0  0.00000000000E+00  0.00000000000E+00  0.74505805969E-08  0.10566000000E+00  0.10566000000E+00 0. -1.
     999900   -1    0    0    0    0 -0.00000000000E+00 -0.00000000000E+00 -0.74505805969E-08  0.93827000000E+00  0.93827000000E+00 0. -1.
     999902    2    1    2    0    0 -0.17123822056E-01 -0.53846417533E-02  0.14296885630E-01  0.10209817847E+01  0.10207238530E+01 0.  0.
     999903    2    3    3    0    0 -0.48530911099E-01 -0.12137411636E+00 -0.96312515728E-02  0.13249288815E+00  0.19356625484E-01 0.  0.
         14    1    1    2    0    0  0.17123822056E-01  0.53846417533E-02 -0.14296885630E-01  0.22948215341E-01  0.00000000000E+00 0.  1.
     999901    1    3    3    0    0  0.31407089042E-01  0.11598947461E+00  0.23928137203E-01  0.88848889650E+00  0.88000000000E+00 0.  1.
        -11    1    4    4    0    0 -0.14085186692E-01 -0.60184950373E-01 -0.18268146328E-02  0.61840270926E-01  0.51100000000E-03 0. -1.
         11    1    4    4    0    0 -0.34445724407E-01 -0.61189165988E-01 -0.78044369400E-02  0.70652617228E-01  0.51100000000E-03 0.  1.
</event>
<event>
 8    1  0.1129676E+005  0.1043930E+01  0.7957747E-01            NaN
         13   -1    0    0    0    0  0.00000000000E+00  0.00000000000E+00  0.74505805969E-08  0.10566000000E+00  0.10566000000E+00 0. -1.
     999900   -1    0    0    0    0 -0.00000000000E+00 -0.00000000000E+00 -0.74505805969E-08  0.93827000000E+00  0.93827000000E+00 0. -1.
     999902    2    1    2    0    0 -0.15977719223E-02  0.95365720261E-02  0.85830317435E-02  0.10310006723E+01  0.10309195986E+01 0.  0.
     999903    2    3    3    0    0 -0.58235073887E-01  0.43928260093E-01 -0.11726500718E+00  0.13958141006E+00  0.20269984167E-01 0.  0.
         14    1    1    2    0    0  0.15977719223E-02 -0.95365720261E-02 -0.85830317435E-02  0.12929327710E-01  0.00000000000E+00 0.  1.
     999901    1    3    3    0    0  0.56637301965E-01 -0.34391688067E-01  0.12584803893E+00  0.89141926223E+00  0.88000000000E+00 0.  1.
        -11    1    4    4    0    0 -0.52421530766E-01  0.43839063520E-01 -0.11394423532E+00  0.13286621189E+00  0.51100000000E-03 0.  1.
         11    1    4    4    0    0 -0.58135431209E-02  0.89196573243E-04 -0.33207718623E-02  0.67151981660E-02  0.51100000000E-03 0. -1.
</event>
<event>
 8    1  0.1129676E+005  0.1043930E+01  0.7957747E-01            NaN
         13   -1    0    0    0    0  0.00000000000E+00  0.00000000000E+00  0.74505805969E-08  0.10566000000E+00  0.10566000000E+00 0.  1.
     999900   -1    0    0    0    0 -0.00000000000E+00 -0.00000000000E+00 -0.74505805969E-08  0.93827000000E+00  0.93827000000E+00 0. -1.
     999902    2    1    2    0    0 -0.81753202126E-03  0.21408192523E-01 -0.10889121976E-01  0.10198976875E+01  0.10196145061E+01 0.  0.
     999903    2    3    3    0    0  0.52052965284E-01 -0.14919277787E-01  0.11540722569E+00  0.12856960986E+00  0.16709901107E-01 0.  0.
         14    1    1    2    0    0  0.81753202126E-03 -0.21408192523E-01  0.10889121976E-01  0.24032312479E-01  0.00000000000E+00 0.  1.
     999901    1    3    3    0    0 -0.52870497305E-01  0.36327470310E-01 -0.12629634766E+00  0.89132807766E+00  0.88000000000E+00 0. -1.
        -11    1    4    4    0    0  0.29490631234E-01 -0.12283932179E-01  0.83456777893E-01  0.89363791423E-01  0.51100000000E-03 0. -1.
         11    1    4    4    0    0  0.22562334050E-01 -0.26353456086E-02  0.31950447796E-01  0.39205818441E-01  0.51100000000E-03 0.  1.
</event>
<event>
 8    1  0.1129676E+005  0.1043930E+01  0.7957747E-01            NaN
         13   -1    0    0    0    0  0.00000000000E+00  0.00000000000E+00  0.74505805969E-08  0.10566000000E+00  0.10566000000E+00 0. -1.
     999900   -1    0    0    0    0 -0.00000000000E+00 -0.00000000000E+00 -0.74505805969E-08  0.93827000000E+00  0.93827000000E+00 0.  1.
     999902    2    1    2    0    0 -0.22197479175E-01  0.19716954847E-02  0.51183025288E-02  0.10210649025E+01  0.10208088569E+01 0.  0.
     999903    2    3    3    0    0  0.19252065429E-01  0.81555402696E-01 -0.98009823634E-01  0.13051055734E+00  0.20128445456E-01 0.  0.
         14    1    1    2    0    0  0.22197479175E-01 -0.19716954847E-02 -0.51183025288E-02  0.22865097542E-01  0.00000000000E+00 0. -1.
     999901    1    3    3    0    0 -0.41449544604E-01 -0.79583707211E-01  0.10312812616E+00  0.89055434512E+00  0.88000000000E+00 0. -1.
        -11    1    4    4    0    0 -0.11975325551E-02  0.26509949832E-01 -0.22101523982E-01  0.34539108379E-01  0.51100000000E-03 0.  1.
         11    1    4    4    0    0  0.20449597985E-01  0.55045452864E-01 -0.75908299652E-01  0.95971448962E-01  0.51100000000E-03 0. -1.
</event>
<event>
 8    1  0.1129676E+005  0.1043930E+01  0.7957747E-01            NaN
         13   -1    0    0    0    0  0.00000000000E+00  0.00000000000E+00  0.74505805969E-08  0.10566000000E+00  0.10566000000E+00 0.  1.
     999900   -1    0    0    0    0 -0.00000000000E+00 -0.00000000000E+00 -0.74505805969E-08  0.93827000000E+00  0.93827000000E+00 0. -1.
     999902    2    1    2    0    0  0.81163181120E-02  0.12949953821E-01  0.18321749148E-01  0.10200707792E+01  0.10197917102E+01 0.  0.
     999903    2    3    3    0    0  0.80699992467E-01 -0.25980758561E-02  0.10324340982E+00  0.13287191795E+00  0.21829020292E-01 0.  0.
         14    1    1    2    0    0 -0.81163181120E-02 -0.12949953821E-01 -0.18321749148E-01  0.23859220765E-01  0.00000000000E+00 0. -1.
     999901    1    3    3    0    0 -0.72583674355E-01  0.15548029677E-01 -0.84921660672E-01  0.88719886128E+00  0.88000000000E+00 0. -1.
        -11    1    4    4    0    0  0.71330833269E-01 -0.48810957612E-02  0.77835645711E-01  0.10569087820E+00  0.51100000000E-03 0.  1.
         11    1    4    4    0    0  0.93691591974E-02  0.22830199051E-02  0.25407764109E-01  0.27181039752E-01  0.51100000000E-03 0. -1.
</event>
<event>
 8    1  0.1129676E+005  0.1043930E+01  0.7957747E-01            NaN
         13   -1    0    0    0    0  0.00000000000E+00  0.00000000000E+00  0.74505805969E-08  0.10566000000E+00  0.10566000000E+00 0.  1.
     999900   -1    0    0    0    0 -0.00000000000E+00 -0.00000000000E+00 -0.74505805969E-08  0.93827000000E+00  0.93827000000E+00 0. -1.
     999902    2    1    2    0    0  0.15745386224E-03  0.22470078099E-01  0.61995243286E-02  0.10206198455E+01  0.10203536180E+01 0.  0.
     999903    2    3    3    0    0  0.41949980986E-01 -0.11351098891E+00 -0.37528240139E-01  0.12812358034E+00  0.19045669416E-01 0.  0.
         14    1    1    2    0    0 -0.15745386224E-03 -0.22470078099E-01 -0.61995243286E-02  0.23310154513E-01  0.00000000000E+00 0. -1.
     999901    1    3    3    0    0 -0.41792527124E-01  0.13598106701E+00  0.43727764468E-01  0.89249626514E+00  0.88000000000E+00 0.  1.
        -11    1    4    4    0    0  0.21715960458E-01 -0.71740201791E-01 -0.14648525574E-01  0.76374602547E-01  0.51100000000E-03 0.  1.
         11    1    4    4    0    0  0.20234020528E-01 -0.41770787122E-01 -0.22879714565E-01  0.51748977797E-01  0.51100000000E-03 0. -1.
</event>
<event>
 8    1  0.1129676E+005  0.1043930E+01  0.7957747E-01            NaN
         13   -1    0    0    0    0  0.00000000000E+00  0.00000000000E+00  0.74505805969E-08  0.10566000000E+00  0.10566000000E+00 0.  1.
     999900   -1    0    0    0    0 -0.00000000000E+00 -0.00000000000E+00 -0.74505805969E-08  0.93827000000E+00  0.93827000000E+00 0.  1.
     999902    2    1    2    0    0  0.14860847121E-01  0.15175245011E-01  0.10205423213E-01  0.10203655458E+01  0.10200934092E+01 0.  0.
     999903    2    3    3    0    0 -0.55836603813E-01  0.11234839246E+00  0.35076179387E-01  0.13185032103E+00  0.20353898433E-01 0.  0.
         14    1    1    2    0    0 -0.14860847121E-01 -0.15175245011E-01 -0.10205423213E-01  0.23564454190E-01  0.00000000000E+00 0. -1.
     999901    1    3    3    0    0  0.70697450934E-01 -0.97173147450E-01 -0.24870756173E-01  0.88851522478E+00  0.88000000000E+00 0.  1.
        -11    1    4    4    0    0 -0.37470120074E-01  0.93547214542E-01  0.26524103685E-01  0.10420595206E+00  0.51100000000E-03 0.  1.
         11    1    4    4    0    0 -0.18366483739E-01  0.18801177919E-01  0.85520757021E-02  0.27644368973E-01  0.51100000000E-03 0. -1.
</event>
<event>
 8    1  0.1129676E+005  0.1043930E+01  0.7957747E-01            NaN
         13   -1    0    0    0    0  0.00000000000E+00  0.00000000000E+00  0.74505805969E-08  0.10566000000E+00  0.10566000000E+00 0. -1.
     999900   -1    0    0    0    0 -0.00000000000E+00 -0.00000000000E+00 -0.74505805969E-08  0.93827000000E+00  0.93827000000E+00 0.  1.
     999902    2    1    2    0    0 -0.11946956691E-01 -0.16467774293E-01 -0.12807958788E-01  0.10198891770E+01  0.10196057925E+01 0.  0.
     999903    2    3    3    0    0  0.84358656103E-01  0.17365603950E-01 -0.95809841185E-01  0.13010899004E+00  0.18190012708E-01 0.  0.
         14    1    1    2    0    0  0.11946956691E-01  0.16467774293E-01  0.12807958788E-01  0.24040823045E-01  0.00000000000E+00 0. -1.
     999901    1    3    3    0    0 -0.96305612794E-01 -0.33833378244E-01  0.83001882396E-01  0.88978018691E+00  0.88000000000E+00 0. -1.
        -11    1    4    4    0    0  0.64377156553E-01  0.55493554603E-02 -0.66615568335E-01  0.92806835403E-01  0.51100000000E-03 0. -1.
         11    1    4    4    0    0  0.19981499550E-01  0.11816248490E-01 -0.29194272850E-01  0.37302154641E-01  0.51100000000E-03 0.  1.
</event>
<event>
 8    1  0.1129676E+005  0.1043930E+01  0.7957747E-01            NaN
         13   -1    0    0    0    0  0.00000000000E+00  0.00000000000E+00  0.74505805969E-08  0.10566000000E+00  0.10566000000E+00 0.  1.
     999900   -1    0    0    0    0 -0.00000000000E+00 -0.00000000000E+00 -0.74505805969E-08  0.93827000000E+00  0.93827000000E+00 0. -1.
     999902    2    1    2    0    0  0.13728613384E-01  0.19031237081E-01  0.94290115302E-03  0.10204448585E+01  0.10201745720E+01 0.  0.
     999903    2    3    3    0    0 -0.50398912718E-01 -0.46383473374E-01 -0.10746720696E+00  0.12907278380E+00  0.20472077131E-01 0.  0.
         14    1    1    2    0    0 -0.13728613384E-01 -0.19031237081E-01 -0.94290115302E-03  0.23485141533E-01  0.00000000000E+00 0.  1.
     999901    1    3    3    0    0  0.64127526102E-01  0.65414710454E-01  0.10841010811E+00  0.89137207466E+00  0.88000000000E+00 0.  1.
        -11    1    4    4    0    0 -0.13836372017E-01 -0.10839046205E-01 -0.13531089971E-01  0.22187420536E-01  0.51100000000E-03 0.  1.
         11    1    4    4    0    0 -0.36562540701E-01 -0.35544427168E-01 -0.93936116988E-01  0.10688536327E+00  0.51100000000E-03 0. -1.
</event>
<event>
 8    1  0.1129676E+005  0.1043930E+01  0.7957747E-01            NaN
         13   -1    0    0    0    0  0.00000000000E+00  0.00000000000E+00  0.74505805969E-08  0.10566000000E+00  0.10566000000E+00 0.  1.
     999900   -1    0    0    0    0 -0.00000000000E+00 -0.00000000000E+00 -0.74505805969E-08  0.93827000000E+00  0.93827000000E+00 0.  1.
     999902    2    1    2    0    0  0.13017334100E-02  0.24438319361E-01 -0.11657106362E-02  0.10194292889E+01  0.10191348244E+01 0.  0.
     999903    2    3    3    0    0  0.11289771328E+00 -0.52513391488E-01  0.26247025623E-01  0.12862814014E+00  0.18781430486E-01 0.  0.
         14    1    1    2    0    0 -0.13017334100E-02 -0.24438319361E-01  0.11657106362E-02  0.24500711099E-01  0.00000000000E+00 0. -1.
     999901    1    3    3    0    0 -0.11159597987E+00  0.76951710849E-01 -0.27412736259E-01  0.89080114876E+00  0.88000000000E+00 0. -1.
        -11    1    4    4    0    0  0.38780534868E-01 -0.17021363109E-01  0.18054938422E-01  0.46042356686E-01  0.51100000000E-03 0.  1.
         11    1    4    4    0    0  0.74117178416E-01 -0.35492028380E-01  0.81920872011E-02  0.82585783453E-01  0.51100000000E-03 0. -1.
</event>
<event>
 8    1  0.1129676E+005  0.1043930E+01  0.7957747E-01            NaN
         13   -1    0    0    0    0  0.00000000000E+00  0.00000000000E+00  0.74505805969E-08  0.10566000000E+00  0.10566000000E+00 0. -1.
     999900   -1    0    0    0    0 -0.00000000000E+00 -0.00000000000E+00 -0.74505805969E-08  0.93827000000E+00  0.93827000000E+00 0.  1.
     999902    2    1    2    0    0 -0.10462453605E-01 -0.20589610231E-01  0.13667749281E-01  0.10170934139E+01  0.10167393030E+01 0.  0.
     999903    2    3    3    0    0 -0.66610957503E-01  0.10307697524E-01 -0.10545523794E+00  0.12675775570E+00  0.20086142798E-01 0.  0.
         14    1    1    2    0    0  0.10462453605E-01  0.20589610231E-01 -0.13667749281E-01  0.26836586134E-01  0.00000000000E+00 0.  1.
     999901    1    3    3    0    0  0.56148503897E-01 -0.30897307755E-01  0.11912298723E+00  0.89033565817E+00  0.88000000000E+00 0. -1.
        -11    1    4    4    0    0 -0.37979456361E-01  0.39920787768E-02 -0.41495015954E-01  0.56395684839E-01  0.51100000000E-03 0. -1.
         11    1    4    4    0    0 -0.28631501142E-01  0.63156187468E-02 -0.63960221991E-01  0.70362070861E-01  0.51100000000E-03 0.  1.
</event>
<event>
 8    1  0.1129676E+005  0.1043930E+01  0.7957747E-01            NaN
         13   -1    0    0    0    0  0.00000000000E+00  0.00000000000E+00  0.74505805969E-08  0.10566000000E+00  0.10566000000E+00 0. -1.
     999900   -1    0    0    0    0 -0.00000000000E+00 -0.00000000000E+00 -0.74505805969E-08  0.93827000000E+00  0.93827000000E+00 0.  1.
     999902    2    1    2    0    0 -0.37000600648E-02  0.73290613843E-02  0.21425080684E-01  0.10209857269E+01  0.10207278848E+01 0.  0.
     999903    2    3    3    0    0 -0.11091540981E+00  0.67805953624E-01 -0.10673568399E-01  0.13183843372E+00  0.19172168990E-01 0.  0.
         14    1    1    2    0    0  0.37000600648E-02 -0.73290613843E-02 -0.21425080684E-01  0.22944273088E-01  0.00000000000E+00 0.  1.
     999901    1    3    3    0    0  0.10721534974E+00 -0.60476892240E-01  0.32098649083E-01  0.88914729319E+00  0.88000000000E+00 0. -1.
        -11    1    4    4    0    0 -0.86410881600E-01  0.57594978339E-01 -0.15037259044E-01  0.10493046397E+00  0.51100000000E-03 0. -1.
         11    1    4    4    0    0 -0.24504528208E-01  0.10210975285E-01  0.43636906450E-02  0.26907969749E-01  0.51100000000E-03 0.  1.
</event>
<event>
 8    1  0.1129676E+005  0.1043930E+01  0.7957747E-01            NaN
         13   -1    0    0    0    0  0.00000000000E+00  0.00000000000E+00  0.74505805969E-08  0.10566000000E+00  0.10566000000E+00 0. -1.
     999900   -1    0    0    0    0 -0.00000000000E+00 -0.00000000000E+00 -0.74505805969E-08  0.93827000000E+00  0.93827000000E+00 0.  1.
     999902    2    1    2    0    0 -0.17262153593E-01  0.17649062924E-02  0.16380719815E-01  0.10200673760E+01  0.10197882265E+01 0.  0.
     999903    2    3    3    0    0  0.12251386514E+00 -0.23331023078E-01 -0.20330053553E-01  0.12792679184E+00  0.19949165470E-01 0.  0.
         14    1    1    2    0    0  0.17262153593E-01 -0.17649062924E-02 -0.16380719815E-01  0.23862623967E-01  0.00000000000E+00 0.  1.
     999901    1    3    3    0    0 -0.13977601874E+00  0.25095929370E-01  0.36710773369E-01  0.89214058419E+00  0.88000000000E+00 0. -1.
        -11    1    4    4    0    0  0.70180672702E-01 -0.36750994113E-02 -0.14058448959E-01  0.71671014258E-01  0.51100000000E-03 0. -1.
         11    1    4    4    0    0  0.52333192440E-01 -0.19655923666E-01 -0.62716045943E-02  0.56255777581E-01  0.51100000000E-03 0.  1.
</event>
<event>
 8    1  0.1129676E+005  0.1043930E+01  0.7957747E-01            NaN
         13   -1    0    0    0    0  0.00000000000E+00  0.00000000000E+00  0.74505805969E-08  0.10566000000E+00  0.10566000000E+00 0. -1.
     999900   -1    0    0    0    0 -0.00000000000E+00 -0.00000000000E+00 -0.74505805969E-08  0.93827000000E+00  0.93827000000E+00 0.  1.
     999902    2    1    2    0    0  0.24436891983E-01  0.17935966675E-01  0.16990253692E-01  0.10091804775E+01  0.10085820279E+01 0.  0.
     999903    2    3    3    0    0 -0.91512199120E-01 -0.22867335939E-01  0.69854543553E-01  0.11906602739E+00  0.19991597798E-01 0.  0.
         14    1    1    2    0    0 -0.24436891983E-01 -0.17935966675E-01 -0.16990253692E-01  0.34749522456E-01  0.00000000000E+00 0. -1.
     999901    1    3    3    0    0  0.11594909110E+00  0.40803302614E-01 -0.52864289861E-01  0.89011445015E+00  0.88000000000E+00 0. -1.
        -11    1    4    4    0    0 -0.47299573113E-01 -0.21061299149E-01  0.32312773631E-01  0.61034452560E-01  0.51100000000E-03 0. -1.
         11    1    4    4    0    0 -0.44212626007E-01 -0.18060367899E-02  0.37541769923E-01  0.58031574830E-01  0.51100000000E-03 0.  1.
</event>
<event>
 8    1  0.1129676E+005  0.1043930E+01  0.7957747E-01            NaN
         13   -1    0    0    0    0  0.00000000000E+00  0.00000000000E+00  0.74505805969E-08  0.10566000000E+00  0.10566000000E+00 0. -1.
     999900   -1    0    0    0    0 -0.00000000000E+00 -0.00000000000E+00 -0.74505805969E-08  0.93827000000E+00  0.93827000000E+00 0.  1.
     999902    2    1    2    0    0 -0.45262899487E-02  0.13681812336E-01 -0.18474340397E-01  0.10204996662E+01  0.10202306544E+01 0.  0.
     999903    2    3    3    0    0 -0.70139238490E-01 -0.85008041693E-01  0.63564601500E-01  0.12877373615E+00  0.19908205118E-01 0.  0.
         14    1    1    2    0    0  0.45262899487E-02 -0.13681812336E-01  0.18474340397E-01  0.23430333813E-01  0.00000000000E+00 0. -1.
     999901    1    3    3    0    0  0.65612948541E-01  0.98689854029E-01 -0.82038941896E-01  0.89172593003E+00  0.88000000000E+00 0.  1.
        -11    1    4    4    0    0 -0.64610664101E-01 -0.67546782172E-01  0.55891330510E-01  0.10890917154E+00  0.51100000000E-03 0.  1.
         11    1    4    4    0    0 -0.55285743882E-02 -0.17461259520E-01  0.76732709896E-02  0.19864564619E-01  0.51100000000E-03 0. -1.
</event>
<event>
 8    1  0.1129676E+005  0.1043930E+01  0.7957747E-01            NaN
         13   -1    0    0    0    0  0.00000000000E+00  0.00000000000E+00  0.74505805969E-08  0.10566000000E+00  0.10566000000E+00 0. -1.
     999900   -1    0    0    0    0 -0.00000000000E+00 -0.00000000000E+00 -0.74505805969E-08  0.93827000000E+00  0.93827000000E+00 0.  1.
     999902    2    1    2    0    0 -0.11568714038E-01 -0.19195368179E-01  0.59505867255E-02  0.10207414945E+01  0.10204780702E+01 0.  0.
     999903    2    3    3    0    0 -0.71021161566E-01  0.34168955415E-03  0.10989601347E+00  0.13241669925E+00  0.20320588669E-01 0.  0.
         14    1    1    2    0    0  0.11568714038E-01  0.19195368179E-01 -0.59505867255E-02  0.23188505480E-01  0.00000000000E+00 0.  1.
     999901    1    3    3    0    0  0.59452447528E-01 -0.19537057733E-01 -0.10394542674E+00  0.88832479526E+00  0.88000000000E+00 0.  1.
        -11    1    4    4    0    0 -0.29105971831E-01 -0.22412833219E-02  0.28375013985E-01  0.40713431283E-01  0.51100000000E-03 0. -1.
         11    1    4    4    0    0 -0.41915189735E-01  0.25829728760E-02  0.81520999481E-01  0.91703267972E-01  0.51100000000E-03 0.  1.
</event>
<event>
 8    1  0.1129676E+005  0.1043930E+01  0.7957747E-01            NaN
         13   -1    0    0    0    0  0.00000000000E+00  0.00000000000E+00  0.74505805969E-08  0.10566000000E+00  0.10566000000E+00 0.  1.
     999900   -1    0    0    0    0 -0.00000000000E+00 -0.00000000000E+00 -0.74505805969E-08  0.93827000000E+00  0.93827000000E+00 0. -1.
     999902    2    1    2    0    0  0.96571165382E-02  0.13510753035E-01  0.17775187208E-01  0.10196039311E+01  0.10193136999E+01 0.  0.
     999903    2    3    3    0    0 -0.80634402706E-01  0.69524476833E-01  0.74481033526E-01  0.13140032342E+00  0.19571940673E-01 0.  0.
         14    1    1    2    0    0 -0.96571165382E-02 -0.13510753035E-01 -0.17775187208E-01  0.24326068891E-01  0.00000000000E+00 0. -1.
     999901    1    3    3    0    0  0.90291519244E-01 -0.56013723798E-01 -0.56705846318E-01  0.88820360769E+00  0.88000000000E+00 0.  1.
        -11    1    4    4    0    0 -0.50968266112E-02  0.69955147170E-02  0.13109904512E-01  0.15717683830E-01  0.51100000000E-03 0. -1.
         11    1    4    4    0    0 -0.75537576095E-01  0.62528962116E-01  0.61371129013E-01  0.11568263959E+00  0.51100000000E-03 0.  1.
</event>
<event>
 7    1  0.1129676E+005  0.1043930E+01  0.7957747E-01            NaN
         13   -1    0    0    0    0  0.00000000000E+00  0.00000000000E+00  0.74505805969E-08  0.10566000000E+00  0.10566000000E+00 0. -1.
     999900   -1    0    0    0    0 -0.00000000000E+00 -0.00000000000E+00 -0.74505805969E-08  0.93827000000E+00  0.93827000000E+00 0.  1.
     999903    2    1    2    0    0  0.12447968795E-02  0.42801635579E-01  0.45499395109E-01  0.65580941685E-01  0.19928257060E-01 0.  0.
         14    1    1    2    0    0  0.57051704170E-01 -0.68011162432E-01 -0.36584920260E-01  0.96014954848E-01  0.00000000000E+00 0.  1.
     999901    1    1    2    0    0 -0.58296501049E-01  0.25209526853E-01 -0.89144748496E-02  0.88233410347E+00  0.88000000000E+00 0. -1.
        -11    1    3    3    0    0  0.47710111570E-02  0.65014870007E-02  0.11542876163E-02  0.81624372330E-02  0.51100000000E-03 0. -1.
         11    1    3    3    0    0 -0.35262142775E-02  0.36300148579E-01  0.44345107493E-01  0.57418504452E-01  0.51100000000E-03 0.  1.
</event>
<event>
 8    1  0.1129676E+005  0.1043930E+01  0.7957747E-01            NaN
         13   -1    0    0    0    0  0.00000000000E+00  0.00000000000E+00  0.74505805969E-08  0.10566000000E+00  0.10566000000E+00 0. -1.
     999900   -1    0    0    0    0 -0.00000000000E+00 -0.00000000000E+00 -0.74505805969E-08  0.93827000000E+00  0.93827000000E+00 0.  1.
     999902    2    1    2    0    0 -0.16542668783E-02  0.15909887009E-01  0.21922750945E-01  0.10167920540E+01  0.10164298367E+01 0.  0.
     999903    2    3    3    0    0  0.65264671636E-01 -0.64162372167E-01  0.87430510750E-01  0.12820836205E+00  0.20420639654E-01 0.  0.
         14    1    1    2    0    0  0.16542668783E-02 -0.15909887009E-01 -0.21922750945E-01  0.27137945990E-01  0.00000000000E+00 0.  1.
     999901    1    3    3    0    0 -0.66918938514E-01  0.80072259176E-01 -0.65507759805E-01  0.88858369196E+00  0.88000000000E+00 0. -1.
        -11    1    4    4    0    0  0.55958407369E-01 -0.42796443526E-01  0.64776706381E-01  0.95703509572E-01  0.51100000000E-03 0. -1.
         11    1    4    4    0    0  0.93062642670E-02 -0.21365928641E-01  0.22653804369E-01  0.32504852479E-01  0.51100000000E-03 0.  1.
</event>
<event>
 8    1  0.1129676E+005  0.1043930E+01  0.7957747E-01            NaN
         13   -1    0    0    0    0  0.00000000000E+00  0.00000000000E+00  0.74505805969E-08  0.10566000000E+00  0.10566000000E+00 0.  1.
     999900   -1    0    0    0    0 -0.00000000000E+00 -0.00000000000E+00 -0.74505805969E-08  0.93827000000E+00  0.93827000000E+00 0. -1.
     999902    2    1    2    0    0  0.14438789979E-01  0.18834089056E-01 -0.39510405156E-02  0.10198714820E+01  0.10195876753E+01 0.  0.
     999903    2    3    3    0    0  0.33039046952E-01  0.93203926203E-01  0.85197861183E-01  0.13205147271E+00  0.20009133226E-01 0.  0.
         14    1    1    2    0    0 -0.14438789979E-01 -0.18834089056E-01  0.39510405156E-02  0.24058517988E-01  0.00000000000E+00 0. -1.
     999901    1    3    3    0    0 -0.18600256973E-01 -0.74369837147E-01 -0.89148901698E-01  0.88782000930E+00  0.88000000000E+00 0. -1.
        -11    1    4    4    0    0  0.18845874955E-01  0.56147096605E-01  0.37926073025E-01  0.70330019167E-01  0.51100000000E-03 0. -1.
         11    1    4    4    0    0  0.14193171997E-01  0.37056829599E-01  0.47271788158E-01  0.61721453546E-01  0.51100000000E-03 0.  1.
</event>
<event>
 8    1  0.1129676E+005  0.1043930E+01  0.7957747E-01            NaN
         13   -1    0    0    0    0  0.00000000000E+00  0.00000000000E+00  0.74505805969E-08  0.10566000000E+00  0.10566000000E+00 0. -1.
     999900   -1    0    0    0    0 -0.00000000000E+00 -0.00000000000E+00 -0.74505805969E-08  0.93827000000E+00  0.93827000000E+00 0. -1.
     999902    2    1    2    0    0 -0.19873373068E-01  0.83329650954E-02  0.91470294467E-02  0.10205193739E+01  0.10202508197E+01 0.  0.
     999903    2    3    3    0    0 -0.50663597745E-01  0.55369971673E-01  0.10810921737E+00  0.13318965363E+00  0.20475523285E-01 0.  0.
         14    1    1    2    0    0  0.19873373068E-01 -0.83329650954E-02 -0.91470294467E-02  0.23410626050E-01  0.00000000000E+00 0.  1.
     999901    1    3    3    0    0  0.30790224678E-01 -0.47037006578E-01 -0.98962187925E-01  0.88732972032E+00  0.88000000000E+00 0. -1.
        -11    1    4    4    0    0 -0.21343405226E-01  0.18773644875E-01  0.25464565888E-01  0.38166686068E-01  0.51100000000E-03 0. -1.
         11    1    4    4    0    0 -0.29320192519E-01  0.36596326799E-01  0.82644651483E-01  0.95022967562E-01  0.51100000000E-03 0.  1.
</event>
<event>
 8    1  0.1129676E+005  0.1043930E+01  0.7957747E-01            NaN
         13   -1    0    0    0    0  0.00000000000E+00  0.00000000000E+00  0.74505805969E-08  0.10566000000E+00  0.10566000000E+00 0.  1.
     999900   -1    0    0    0    0 -0.00000000000E+00 -0.00000000000E+00 -0.74505805969E-08  0.93827000000E+00  0.93827000000E+00 0.  1.
     999902    2    1    2    0    0  0.31316000602E-01  0.18753770899E-01  0.31286137309E-02  0.10072941700E+01  0.10066277171E+01 0.  0.
     999903    2    3    3    0    0 -0.10187114581E+00  0.47367302745E-01  0.23163634852E-01  0.11658717426E+00  0.20847625886E-01 0.  0.
         14    1    1    2    0    0 -0.31316000602E-01 -0.18753770899E-01 -0.31286137309E-02  0.36635830010E-01  0.00000000000E+00 0.  1.
     999901    1    3    3    0    0  0.13318714641E+00 -0.28613531846E-01 -0.20035021121E-01  0.89070699573E+00  0.88000000000E+00 0.  1.
        -11    1    4    4    0    0 -0.51930714433E-01  0.23085307772E-01  0.11344848555E-02  0.56844337566E-01  0.51100000000E-03 0.  1.
         11    1    4    4    0    0 -0.49940431373E-01  0.24281994973E-01  0.22029149997E-01  0.59742836693E-01  0.51100000000E-03 0. -1.
</event>
<event>
 8    1  0.1129676E+005  0.1043930E+01  0.7957747E-01            NaN
         13   -1    0    0    0    0  0.00000000000E+00  0.00000000000E+00  0.74505805969E-08  0.10566000000E+00  0.10566000000E+00 0.  1.
     999900   -1    0    0    0    0 -0.00000000000E+00 -0.00000000000E+00 -0.74505805969E-08  0.93827000000E+00  0.93827000000E+00 0.  1.
     999902    2    1    2    0    0  0.19985293722E-01 -0.60155464851E-02  0.11745843971E-01  0.10199808118E+01  0.10196996091E+01 0.  0.
     999903    2    3    3    0    0 -0.58899761297E-01  0.36848374895E-01 -0.10557973260E+00  0.12766614837E+00  0.18016128628E-01 0.  0.
         14    1    1    2    0    0 -0.19985293722E-01  0.60155464851E-02 -0.11745843971E-01  0.23949188196E-01  0.00000000000E+00 0. -1.
     999901    1    3    3    0    0  0.78885055020E-01 -0.42863921380E-01  0.11732557657E+00  0.89231466343E+00  0.88000000000E+00 0. -1.
        -11    1    4    4    0    0 -0.44579564508E-01  0.23758255003E-01 -0.88052310850E-01  0.10151484039E+00  0.51100000000E-03 0.  1.
         11    1    4    4    0    0 -0.14320196790E-01  0.13090119892E-01 -0.17527421749E-01  0.26151307980E-01  0.51100000000E-03 0. -1.
</event>
<event>
 8    1  0.1129676E+005  0.1043930E+01  0.7957747E-01            NaN
         13   -1    0    0    0    0  0.00000000000E+00  0.00000000000E+00  0.74505805969E-08  0.10566000000E+00  0.10566000000E+00 0. -1.
     999900   -1    0    0    0    0 -0.00000000000E+00 -0.00000000000E+00 -0.74505805969E-08  0.93827000000E+00  0.93827000000E+00 0.  1.
     999902    2    1    2    0    0 -0.72465198151E-03  0.68206268393E-02 -0.23345265609E-01  0.10195979738E+01  0.10193075987E+01 0.  0.
     999903    2    3    3    0    0 -0.63281269185E-02  0.11262478221E+00 -0.65954795159E-01  0.13221897350E+00  0.20185023954E-01 0.  0.
         14    1    1    2    0    0  0.72465198151E-03 -0.68206268393E-02  0.23345265609E-01  0.24332026166E-01  0.00000000000E+00 0. -1.
     999901    1    3    3    0    0  0.56034749370E-02 -0.10580415537E+00  0.42609529550E-01  0.88737900033E+00  0.88000000000E+00 0. -1.
        -11    1    4    4    0    0 -0.12435830788E-01  0.45734001710E-01 -0.25906285931E-01  0.54015234625E-01  0.51100000000E-03 0. -1.
         11    1    4    4    0    0  0.61077038696E-02  0.66890780495E-01 -0.40048509228E-01  0.78203738876E-01  0.51100000000E-03 0.  1.
</event>
<event>
 8    1  0.1129676E+005  0.1043930E+01  0.7957747E-01            NaN
         13   -1    0    0    0    0  0.00000000000E+00  0.00000000000E+00  0.74505805969E-08  0.10566000000E+00  0.10566000000E+00 0. -1.
     999900   -1    0    0    0    0 -0.00000000000E+00 -0.00000000000E+00 -0.74505805969E-08  0.93827000000E+00  0.93827000000E+00 0. -1.
     999902    2    1    2    0    0 -0.22319620889E-02 -0.23523895511E-01 -0.98089521533E-02  0.10183454176E+01  0.10180239775E+01 0.  0.
     999903    2    3    3    0    0  0.40982524671E-02 -0.10589785417E+00  0.73540740535E-01  0.13055450079E+00  0.20126747518E-01 0.  0.
         14    1    1    2    0    0  0.22319620889E-02  0.23523895511E-01  0.98089521533E-02  0.25584582411E-01  0.00000000000E+00 0. -1.
     999901    1    3    3    0    0 -0.63302145560E-02  0.82373958664E-01 -0.83349692688E-01  0.88779091680E+00  0.88000000000E+00 0. -1.
        -11    1    4    4    0    0 -0.32679209079E-02 -0.89192653895E-01  0.56915999085E-01  0.10585698318E+00  0.51100000000E-03 0. -1.
         11    1    4    4    0    0  0.73661733750E-02 -0.16705200280E-01  0.16624741450E-01  0.24697517605E-01  0.51100000000E-03 0.  1.
</event>
<event>
 8    1  0.1129676E+005  0.1043930E+01  0.7957747E-01            NaN
         13   -1    0    0    0    0  0.00000000000E+00  0.00000000000E+00  0.74505805969E-08  0.10566000000E+00  0.10566000000E+00 0.  1.
     999900   -1    0    0    0    0 -0.00000000000E+00 -0.00000000000E+00 -0.74505805969E-08  0.93827000000E+00  0.93827000000E+00 0.  1.
     999902    2    1    2    0    0  0.91841546793E-02 -0.14587610687E-01  0.16436471245E-01  0.10201118416E+01  0.10198337437E+01 0.  0.
     999903    2    3    3    0    0  0.70582913593E-01  0.70916518738E-01  0.83036569927E-01  0.13133946529E+00  0.18544079267E-01 0.  0.
         14    1    1    2    0    0 -0.91841546793E-02  0.14587610687E-01 -0.16436471245E-01  0.23818158403E-01  0.00000000000E+00 0. -1.
     999901    1    3    3    0    0 -0.61398758914E-01 -0.85504129425E-01 -0.66600098682E-01  0.88877237631E+00  0.88000000000E+00 0.  1.
        -11    1    4    4    0    0  0.13788728616E-01  0.25665816205E-01  0.24050191918E-01  0.37782747526E-01  0.51100000000E-03 0.  1.
         11    1    4    4    0    0  0.56794184977E-01  0.45250702533E-01  0.58986378009E-01  0.93556717762E-01  0.51100000000E-03 0. -1.
</event>
<event>
 8    1  0.1129676E+005  0.1043930E+01  0.7957747E-01            NaN
         13   -1    0    0    0    0  0.00000000000E+00  0.00000000000E+00  0.74505805969E-08  0.10566000000E+00  0.10566000000E+00 0. -1.
     999900   -1    0    0    0    0 -0.00000000000E+00 -0.00000000000E+00 -0.74505805969E-08  0.93827000000E+00  0.93827000000E+00 0. -1.
     999902    2    1    2    0    0 -0.17119907879E-01 -0.16033956871E-01 -0.37128036714E-02  0.10201820753E+01  0.10199056342E+01 0.  0.
     999903    2    3    3    0    0 -0.92985898364E-01 -0.88180823715E-01 -0.31535967025E-01  0.13353956142E+00  0.20397604852E-01 0.  0.
         14    1    1    2    0    0  0.17119907879E-01  0.16033956871E-01  0.37128036714E-02  0.23747924748E-01  0.00000000000E+00 0. -1.
     999901    1    3    3    0    0  0.75865990485E-01  0.72146866844E-01  0.27823163353E-01  0.88664251383E+00  0.88000000000E+00 0.  1.
        -11    1    4    4    0    0 -0.36679000686E-01 -0.47288774593E-01 -0.19283013127E-01  0.62878239559E-01  0.51100000000E-03 0.  1.
         11    1    4    4    0    0 -0.56306897679E-01 -0.40892049122E-01 -0.12252953898E-01  0.70661321865E-01  0.51100000000E-03 0. -1.
</event>
<event>
 8    1  0.1129676E+005  0.1043930E+01  0.7957747E-01            NaN
         13   -1    0    0    0    0  0.00000000000E+00  0.00000000000E+00  0.74505805969E-08  0.10566000000E+00  0.10566000000E+00 0.  1.
     999900   -1    0    0    0    0 -0.00000000000E+00 -0.00000000000E+00 -0.74505805969E-08  0.93827000000E+00  0.93827000000E+00 0. -1.
     999902    2    1    2    0    0 -0.12464735965E-01  0.13774906256E-01 -0.15626771560E-01  0.10196542163E+01  0.10193651981E+01 0.  0.
     999903    2    3    3    0    0  0.45076837393E-02  0.10933787331E+00  0.67916778523E-01  0.13038492724E+00  0.20308882134E-01 0.  0.
         14    1    1    2    0    0  0.12464735965E-01 -0.13774906256E-01  0.15626771560E-01  0.24275783704E-01  0.00000000000E+00 0.  1.
     999901    1    3    3    0    0 -0.16972419704E-01 -0.95562967052E-01 -0.83543550083E-01  0.88926928906E+00  0.88000000000E+00 0. -1.
        -11    1    4    4    0    0 -0.70541474518E-02  0.66256033362E-01  0.38617696506E-01  0.77014352933E-01  0.51100000000E-03 0.  1.
         11    1    4    4    0    0  0.11561831191E-01  0.43081839946E-01  0.29299082017E-01  0.53370574305E-01  0.51100000000E-03 0. -1.
</event>
<event>
 7    1  0.1129676E+005  0.1043930E+01  0.7957747E-01            NaN
         13   -1    0    0    0    0  0.00000000000E+00  0.00000000000E+00  0.74505805969E-08  0.10566000000E+00  0.10566000000E+00 0.  1.
     999900   -1    0    0    0    0 -0.00000000000E+00 -0.00000000000E+00 -0.74505805969E-08  0.93827000000E+00  0.93827000000E+00 0.  1.
     999903    2    1    2    0    0  0.19716769817E-01  0.43294711129E-01 -0.35899027230E-01  0.62964991662E-01  0.20314206731E-01 0.  0.
         14    1    1    2    0    0  0.90149208038E-01  0.14389379062E-01 -0.38408317135E-02  0.91371143847E-01  0.00000000000E+00 0. -1.
     999901    1    1    2    0    0 -0.10986597785E+00 -0.57684090192E-01  0.39739858944E-01  0.88959386449E+00  0.88000000000E+00 0. -1.
        -11    1    3    3    0    0  0.79839889968E-02  0.12383206221E-01 -0.83223351493E-03  0.14766232093E-01  0.51100000000E-03 0. -1.
         11    1    3    3    0    0  0.11732780820E-01  0.30911504908E-01 -0.35066793715E-01  0.48198759569E-01  0.51100000000E-03 0.  1.
</event>
<event>
 8    1  0.1129676E+005  0.1043930E+01  0.7957747E-01            NaN
         13   -1    0    0    0    0  0.00000000000E+00  0.00000000000E+00  0.74505805969E-08  0.10566000000E+00  0.10566000000E+00 0.  1.
     999900   -1    0    0    0    0 -0.00000000000E+00 -0.00000000000E+00 -0.74505805969E-08  0.93827000000E+00  0.93827000000E+00 0. -1.
     999902    2    1    2    0    0  0.26641567468E-01  0.22946560347E-02 -0.27069062128E-02  0.10170531344E+01  0.10166979454E+01 0.  0.
     999903    2    3    3    0    0  0.12759357352E+00  0.22848157709E-01  0.35180240873E-02  0.13102124800E+00  0.18762532348E-01 0.  0.
         14    1    1    2    0    0 -0.26641567468E-01 -0.22946560347E-02  0.27069062128E-02  0.26876865604E-01  0.00000000000E+00 0.  1.
     999901    1    3    3    0    0 -0.10095200605E+00 -0.20553501674E-01 -0.62249303000E-02  0.88603188640E+00  0.88000000000E+00 0. -1.
        -11    1    4    4    0    0  0.97942871645E-01  0.20587451814E-01  0.99970451088E-02  0.10058255967E+00  0.51100000000E-03 0. -1.
         11    1    4    4    0    0  0.29650701871E-01  0.22607058950E-02 -0.64790210215E-02  0.30438688326E-01  0.51100000000E-03 0.  1.
</event>
<event>
 8    1  0.1129676E+005  0.1043930E+01  0.7957747E-01            NaN
         13   -1    0    0    0    0  0.00000000000E+00  0.00000000000E+00  0.74505805969E-08  0.10566000000E+00  0.10566000000E+00 0. -1.
     999900   -1    0    0    0    0 -0.00000000000E+00 -0.00000000000E+00 -0.74505805969E-08  0.93827000000E+00  0.93827000000E+00 0.  1.
     999902    2    1    2    0    0 -0.22081228656E-01 -0.25143511883E-03  0.70476388328E-02  0.10207499851E+01  0.10204867559E+01 0.  0.
     999903    2    3    3    0    0  0.87512374535E-01 -0.81253423852E-01  0.47341109510E-01  0.12934904060E+00  0.15147906461E-01 0.  0.
         14    1    1    2    0    0  0.22081228656E-01  0.25143511883E-03 -0.70476388328E-02  0.23180014920E-01  0.00000000000E+00 0.  1.
     999901    1    3    3    0    0 -0.10959360319E+00  0.81001988733E-01 -0.40293470677E-01  0.89140094448E+00  0.88000000000E+00 0.  1.
        -11    1    4    4    0    0  0.61264116050E-01 -0.53618028299E-01  0.39248453892E-01  0.90381896019E-01  0.51100000000E-03 0. -1.
         11    1    4    4    0    0  0.26248258485E-01 -0.27635395553E-01  0.80926556173E-02  0.38967144582E-01  0.51100000000E-03 0.  1.
</event>
<event>
 8    1  0.1129676E+005  0.1043930E+01  0.7957747E-01            NaN
         13   -1    0    0    0    0  0.00000000000E+00  0.00000000000E+00  0.74505805969E-08  0.10566000000E+00  0.10566000000E+00 0. -1.
     999900   -1    0    0    0    0 -0.00000000000E+00 -0.00000000000E+00 -0.74505805969E-08  0.93827000000E+00  0.93827000000E+00 0.  1.
     999902    2    1    2    0    0  0.75487515288E-02 -0.13303632797E-01  0.17365421428E-01  0.10207885187E+01  0.10205261740E+01 0.  0.
     999903    2    3    3    0    0 -0.12683339049E+00 -0.18623776163E-01  0.14494167986E-01  0.13056657553E+00  0.20099645715E-01 0.  0.
         14    1    1    2    0    0 -0.75487515288E-02  0.13303632797E-01 -0.17365421428E-01  0.23141481296E-01  0.00000000000E+00 0.  1.
     999901    1    3    3    0    0  0.13438214202E+00  0.53201433660E-02  0.28712534420E-02  0.89022194318E+00  0.88000000000E+00 0.  1.
        -11    1    4    4    0    0 -0.33615050543E-01  0.39367601208E-02  0.37287109520E-02  0.34053400853E-01  0.51100000000E-03 0.  1.
         11    1    4    4    0    0 -0.93218339944E-01 -0.22560536283E-01  0.10765457034E-01  0.96513174673E-01  0.51100000000E-03 0. -1.
</event>
<event>
 8    1  0.1129676E+005  0.1043930E+01  0.7957747E-01            NaN
         13   -1    0    0    0    0  0.00000000000E+00  0.00000000000E+00  0.74505805969E-08  0.10566000000E+00  0.10566000000E+00 0.  1.
     999900   -1    0    0    0    0 -0.00000000000E+00 -0.00000000000E+00 -0.74505805969E-08  0.93827000000E+00  0.93827000000E+00 0.  1.
     999902    2    1    2    0    0  0.62610767003E-02 -0.22647241185E-01 -0.34956685957E-02  0.10201746151E+01  0.10198979983E+01 0.  0.
     999903    2    3    3    0    0  0.10104615293E+00  0.56049927073E-01 -0.56143819345E-01  0.13003457959E+00  0.20123222720E-01 0.  0.
         14    1    1    2    0    0 -0.62610767003E-02  0.22647241185E-01  0.34956685957E-02  0.23755384941E-01  0.00000000000E+00 0.  1.
     999901    1    3    3    0    0 -0.94785076225E-01 -0.78697168259E-01  0.52648150750E-01  0.89014003547E+00  0.88000000000E+00 0. -1.
        -11    1    4    4    0    0  0.48050913465E-01  0.16393834052E-01 -0.29184270697E-01  0.58563050270E-01  0.51100000000E-03 0.  1.
         11    1    4    4    0    0  0.52995239460E-01  0.39656093021E-01 -0.26959548648E-01  0.71471529320E-01  0.51100000000E-03 0. -1.
</event>
<event>
 8    1  0.1129676E+005  0.1043930E+01  0.7957747E-01            NaN
         13   -1    0    0    0    0  0.00000000000E+00  0.00000000000E+00  0.74505805969E-08  0.10566000000E+00  0.10566000000E+00 0.  1.
     999900   -1    0    0    0    0 -0.00000000000E+00 -0.00000000000E+00 -0.74505805969E-08  0.93827000000E+00  0.93827000000E+00 0.  1.
     999902    2    1    2    0    0  0.36888068222E-02 -0.20206200506E-01  0.11214124062E-01  0.10205279827E+01  0.10202596283E+01 0.  0.
     999903    2    3    3    0    0 -0.22697497707E-01  0.12180591455E+00 -0.25449450714E-01  0.12799905007E+00  0.19601659479E-01 0.  0.
         14    1    1    2    0    0 -0.36888068222E-02  0.20206200506E-01 -0.11214124062E-01  0.23402017287E-01  0.00000000000E+00 0. -1.
     999901    1    3    3    0    0  0.26386304529E-01 -0.14201211506E+00  0.36663574776E-01  0.89252893264E+00  0.88000000000E+00 0.  1.
        -11    1    4    4    0    0 -0.18694284657E-01  0.10912810495E+00 -0.28544231663E-01  0.11433920522E+00  0.51100000000E-03 0.  1.
         11    1    4    4    0    0 -0.40032130501E-02  0.12677809607E-01  0.30947809494E-02  0.13659844848E-01  0.51100000000E-03 0. -1.
</event>
<event>
 8    1  0.1129676E+005  0.1043930E+01  0.7957747E-01            NaN
         13   -1    0    0    0    0  0.00000000000E+00  0.00000000000E+00  0.74505805969E-08  0.10566000000E+00  0.10566000000E+00 0.  1.
     999900   -1    0    0    0    0 -0.00000000000E+00 -0.00000000000E+00 -0.74505805969E-08  0.93827000000E+00  0.93827000000E+00 0.  1.
     999902    2    1    2    0    0  0.26015006509E-02  0.22138532538E-01  0.81922630643E-02  0.10201814084E+01  0.10199049517E+01 0.  0.
     999903    2    3    3    0    0 -0.59989781129E-01  0.86057733278E-01  0.78935805019E-01  0.13282128900E+00  0.20147610322E-01 0.  0.
         14    1    1    2    0    0 -0.26015006509E-02 -0.22138532538E-01 -0.81922630643E-02  0.23748591594E-01  0.00000000000E+00 0.  1.
     999901    1    3    3    0    0  0.62591281780E-01 -0.63919200740E-01 -0.70743541955E-01  0.88736011940E+00  0.88000000000E+00 0.  1.
        -11    1    4    4    0    0 -0.55110437172E-01  0.69345922632E-01  0.59416866450E-01  0.10666134450E+00  0.51100000000E-03 0.  1.
         11    1    4    4    0    0 -0.48793439568E-02  0.16711810646E-01  0.19518938569E-01  0.26159944503E-01  0.51100000000E-03 0. -1.
</event>
<event>
 8    1  0.1129676E+005  0.1043930E+01  0.7957747E-01            NaN
         13   -1    0    0    0    0  0.00000000000E+00  0.00000000000E+00  0.74505805969E-08  0.10566000000E+00  0.10566000000E+00 0. -1.
     999900   -1    0    0    0    0 -0.00000000000E+00 -0.00000000000E+00 -0.74505805969E-08  0.93827000000E+00  0.93827000000E+00 0. -1.
     999902    2    1    2    0    0  0.15902798715E-01  0.58935271915E-02  0.15943797646E-01  0.10206525999E+01  0.10203871287E+01 0.  0.
     999903    2    3    3    0    0 -0.37419122171E-01  0.11028849887E+00  0.58534637460E-01  0.13185818222E+00  0.19913130053E-01 0.  0.
         14    1    1    2    0    0 -0.15902798715E-01 -0.58935271915E-02 -0.15943797646E-01  0.23277400050E-01  0.00000000000E+00 0.  1.
     999901    1    3    3    0    0  0.53321920886E-01 -0.10439497168E+00 -0.42590839814E-01  0.88879441773E+00  0.88000000000E+00 0. -1.
        -11    1    4    4    0    0 -0.17738967360E-01  0.80429038003E-01  0.42046598106E-01  0.92475286701E-01  0.51100000000E-03 0.  1.
         11    1    4    4    0    0 -0.19680154811E-01  0.29859460863E-01  0.16488039354E-01  0.39382895515E-01  0.51100000000E-03 0. -1.
</event>
<event>
 8    1  0.1129676E+005  0.1043930E+01  0.7957747E-01            NaN
         13   -1    0    0    0    0  0.00000000000E+00  0.00000000000E+00  0.74505805969E-08  0.10566000000E+00  0.10566000000E+00 0.  1.
     999900   -1    0    0    0    0 -0.00000000000E+00 -0.00000000000E+00 -0.74505805969E-08  0.93827000000E+00  0.93827000000E+00 0. -1.
     999902    2    1    2    0    0 -0.37379307255E-02  0.23074646362E-01 -0.17973775900E-02  0.10204855551E+01  0.10202162154E+01 0.  0.
     999903    2    3    3    0    0  0.11300523892E+00 -0.41979025587E-01 -0.41954268983E-01  0.12948975049E+00  0.21794774211E-01 0.  0.
         14    1    1    2    0    0  0.37379307255E-02 -0.23074646362E-01  0.17973775900E-02  0.23444444908E-01  0.00000000000E+00 0. -1.
     999901    1    3    3    0    0 -0.11674316965E+00  0.65053671949E-01  0.40156891393E-01  0.89099580460E+00  0.88000000000E+00 0.  1.
        -11    1    4    4    0    0  0.97649821920E-01 -0.43789215377E-01 -0.37320827980E-01  0.11334058596E+00  0.51100000000E-03 0.  1.
         11    1    4    4    0    0  0.15355417002E-01  0.18101897898E-02 -0.46334410035E-02  0.16149164527E-01  0.51100000000E-03 0. -1.
</event>
<event>
 8    1  0.1129676E+005  0.1043930E+01  0.7957747E-01            NaN
         13   -1    0    0    0    0  0.00000000000E+00  0.00000000000E+00  0.74505805969E-08  0.10566000000E+00  0.10566000000E+00 0. -1.
     999900   -1    0    0    0    0 -0.00000000000E+00 -0.00000000000E+00 -0.74505805969E-08  0.93827000000E+00  0.93827000000E+00 0.  1.
     999902    2    1    2    0    0  0.12851838651E-01  0.20069185079E-01  0.67611317614E-02  0.10191579422E+01  0.10188568380E+01 0.  0.
     999903    2    3    3    0    0  0.57340994020E-01 -0.90477284270E-01  0.68879010836E-01  0.12895659543E+00  0.20281933038E-01 0.  0.
         14    1    1    2    0    0 -0.12851838651E-01 -0.20069185079E-01 -0.67611317614E-02  0.24772057830E-01  0.00000000000E+00 0. -1.
     999901    1    3    3    0    0 -0.44489155369E-01  0.11054646935E+00 -0.62117879075E-01  0.89020134674E+00  0.88000000000E+00 0.  1.
        -11    1    4    4    0    0  0.31435431808E-01 -0.66262705263E-01  0.50163543765E-01  0.88857046574E-01  0.51100000000E-03 0. -1.
         11    1    4    4    0    0  0.25905562212E-01 -0.24214579007E-01  0.18715467072E-01  0.40099548859E-01  0.51100000000E-03 0.  1.
</event>
<event>
 8    1  0.1129676E+005  0.1043930E+01  0.7957747E-01            NaN
         13   -1    0    0    0    0  0.00000000000E+00  0.00000000000E+00  0.74505805969E-08  0.10566000000E+00  0.10566000000E+00 0.  1.
     999900   -1    0    0    0    0 -0.00000000000E+00 -0.00000000000E+00 -0.74505805969E-08  0.93827000000E+00  0.93827000000E+00 0.  1.
     999902    2    1    2    0    0 -0.16984938281E-01 -0.94643417931E-02  0.14640838553E-01  0.10195904017E+01  0.10192998436E+01 0.  0.
     999903    2    3    3    0    0  0.23793726031E-03 -0.11621683607E+00 -0.55076032089E-01  0.13023492462E+00  0.20526974451E-01 0.  0.
         14    1    1    2    0    0  0.16984938281E-01  0.94643417931E-02 -0.14640838553E-01  0.24339598344E-01  0.00000000000E+00 0. -1.
     999901    1    3    3    0    0 -0.17222875541E-01  0.10675249428E+00  0.69716870642E-01  0.88935547703E+00  0.88000000000E+00 0. -1.
        -11    1    4    4    0    0  0.96048199018E-02 -0.55378938545E-01 -0.30533473200E-01  0.63965877672E-01  0.51100000000E-03 0.  1.
         11    1    4    4    0    0 -0.93668826415E-02 -0.60837897527E-01 -0.24542558890E-01  0.66269046951E-01  0.51100000000E-03 0. -1.
</event>
<event>
 8    1  0.1129676E+005  0.1043930E+01  0.7957747E-01            NaN
         13   -1    0    0    0    0  0.00000000000E+00  0.00000000000E+00  0.74505805969E-08  0.10566000000E+00  0.10566000000E+00 0. -1.
     999900   -1    0    0    0    0 -0.00000000000E+00 -0.00000000000E+00 -0.74505805969E-08  0.93827000000E+00  0.93827000000E+00 0. -1.
     999902    2    1    2    0    0 -0.16045784313E-01  0.16022204688E-01  0.34262422991E-02  0.10209971115E+01  0.10207395282E+01 0.  0.
     999903    2    3    3    0    0 -0.16948098118E-01 -0.10063133548E+00 -0.77363670050E-01  0.12962969428E+00  0.20120051807E-01 0.  0.
         14    1    1    2    0    0  0.16045784313E-01 -0.16022204688E-01 -0.34262422991E-02  0.22932888470E-01  0.00000000000E+00 0. -1.
     999901    1    3    3    0    0  0.90231380493E-03  0.11665354017E+00  0.80789912349E-01  0.89136741725E+00  0.88000000000E+00 0.  1.
        -11    1    4    4    0    0 -0.69196155892E-02 -0.40048934222E-01 -0.43372311873E-01  0.59440867848E-01  0.51100000000E-03 0.  1.
         11    1    4    4    0    0 -0.10028482529E-01 -0.60582401256E-01 -0.33991358176E-01  0.70188826429E-01  0.51100000000E-03 0. -1.
</event>
<event>
 8    1  0.1129676E+005  0.1043930E+01  0.7957747E-01            NaN
         13   -1    0    0    0    0  0.00000000000E+00  0.00000000000E+00  0.74505805969E-08  0.10566000000E+00  0.10566000000E+00 0. -1.
     999900   -1    0    0    0    0 -0.00000000000E+00 -0.00000000000E+00 -0.74505805969E-08  0.93827000000E+00  0.93827000000E+00 0. -1.
     999902    2    1    2    0    0 -0.19445442224E-01  0.12103098375E-01 -0.40996872966E-02  0.10206616170E+01  0.10203963537E+01 0.  0.
     999903    2    3    3    0    0  0.82829147684E-01 -0.80510859563E-01 -0.53000656040E-01  0.12856927774E+00  0.19450537885E-01 0.  0.
         14    1    1    2    0    0  0.19445442224E-01 -0.12103098375E-01  0.40996872966E-02  0.23268383044E-01  0.00000000000E+00 0.  1.
     999901    1    3    3    0    0 -0.10227458991E+00  0.92613957938E-01  0.48900968743E-01  0.89209233922E+00  0.88000000000E+00 0. -1.
        -11    1    4    4    0    0  0.65437102918E-01 -0.58399437365E-01 -0.48026380713E-01  0.99996515381E-01  0.51100000000E-03 0. -1.
         11    1    4    4    0    0  0.17392044766E-01 -0.22111422198E-01 -0.49742753268E-02  0.28572762358E-01  0.51100000000E-03 0.  1.
</event>
<event>
 8    1  0.1129676E+005  0.1043930E+01  0.7957747E-01            NaN
         13   -1    0    0    0    0  0.00000000000E+00  0.00000000000E+00  0.74505805969E-08  0.10566000000E+00  0.10566000000E+00 0. -1.
     999900   -1    0    0    0    0 -0.00000000000E+00 -0.00000000000E+00 -0.74505805969E-08  0.93827000000E+00  0.93827000000E+00 0.  1.
     999902    2    1    2    0    0 -0.21319402395E-01  0.67664916946E-02 -0.71547379044E-02  0.10204461204E+01  0.10201758633E+01 0.  0.
     999903    2    3    3    0    0  0.89559872857E-01  0.73650079634E-01  0.52645871041E-01  0.12896210994E+00  0.20355171461E-01 0.  0.
         14    1    1    2    0    0  0.21319402395E-01 -0.67664916946E-02  0.71547379044E-02  0.23483879638E-01  0.00000000000E+00 0. -1.
     999901    1    3    3    0    0 -0.11087927525E+00 -0.66883587940E-01 -0.59800608945E-01  0.89148401043E+00  0.88000000000E+00 0.  1.
        -11    1    4    4    0    0  0.15969535684E-01  0.43461237033E-02  0.57767214668E-02  0.17537003538E-01  0.51100000000E-03 0.  1.
         11    1    4    4    0    0  0.73590337173E-01  0.69303955931E-01  0.46869149574E-01  0.11142510640E+00  0.51100000000E-03 0. -1.
</event>
<event>
 8    1  0.1129676E+005  0.1043930E+01  0.7957747E-01            NaN
         13   -1    0    0    0    0  0.00000000000E+00  0.00000000000E+00  0.74505805969E-08  0.10566000000E+00  0.10566000000E+00 0.  1.
     999900   -1    0    0    0    0 -0.00000000000E+00 -0.00000000000E+00 -0.74505805969E-08  0.93827000000E+00  0.93827000000E+00 0. -1.
     999902    2    1    2    0    0  0.21354233412E-01  0.84127603035E-02  0.93235575314E-02  0.10191568987E+01  0.10188557689E+01 0.  0.
     999903    2    3    3    0    0 -0.84961577470E-02 -0.12646204081E+00 -0.19757825862E-02  0.12830902570E+00  0.19861266266E-01 0.  0.
         14    1    1    2    0    0 -0.21354233412E-01 -0.84127603035E-02 -0.93235575314E-02  0.24773101251E-01  0.00000000000E+00 0. -1.
     999901    1    3    3    0    0  0.29850391159E-01  0.13487480111E+00  0.11299340118E-01  0.89084787305E+00  0.88000000000E+00 0. -1.
        -11    1    4    4    0    0 -0.46784128690E-02 -0.12110185285E+00 -0.44110516848E-02  0.12127351239E+00  0.51100000000E-03 0. -1.
         11    1    4    4    0    0 -0.38177448780E-02 -0.53601879597E-02  0.24352690985E-02  0.70355133075E-02  0.51100000000E-03 0.  1.
</event>
<event>
 8    1  0.1129676E+005  0.1043930E+01  0.7957747E-01            NaN
         13   -1    0    0    0    0  0.00000000000E+00  0.00000000000E+00  0.74505805969E-08  0.10566000000E+00  0.10566000000E+00 0.  1.
     999900   -1    0    0    0    0 -0.00000000000E+00 -0.00000000000E+00 -0.74505805969E-08  0.93827000000E+00  0.93827000000E+00 0.  1.
     999902    2    1    2    0    0  0.86695929807E-02  0.10063782150E-01  0.11024487916E-01  0.10266678771E+01  0.10265227464E+01 0.  0.
     999903    2    3    3    0    0  0.79306308503E-01 -0.41819312259E-03  0.11116704852E+00  0.13811402400E+00  0.20681041922E-01 0.  0.
         14    1    1    2    0    0 -0.86695929807E-02 -0.10063782150E-01 -0.11024487916E-01  0.17262122912E-01  0.00000000000E+00 0. -1.
     999901    1    3    3    0    0 -0.70636715523E-01  0.10481975273E-01 -0.10014256061E+00  0.88855385308E+00  0.88000000000E+00 0.  1.
        -11    1    4    4    0    0  0.16158431973E-01 -0.22152207075E-02  0.38556633547E-01  0.41867376776E-01  0.51100000000E-03 0.  1.
         11    1    4    4    0    0  0.63147876530E-01  0.17970275849E-02  0.72610414978E-01  0.96246647228E-01  0.51100000000E-03 0. -1.
</event>
<event>
 7    1  0.1129676E+005  0.1043930E+01  0.7957747E-01            NaN
         13   -1    0    0    0    0  0.00000000000E+00  0.00000000000E+00  0.74505805969E-08  0.10566000000E+00  0.10566000000E+00 0. -1.
     999900   -1    0    0    0    0 -0.00000000000E+00 -0.00000000000E+00 -0.74505805969E-08  0.93827000000E+00  0.93827000000E+00 0. -1.
     999902    2    1    2    0    0  0.17131119712E-01  0.69815402787E-02 -0.19270006151E-01  0.10172176376E+01  0.10168668408E+01 0.  0.
         14    1    1    2    0    0 -0.17131119712E-01 -0.69815402787E-02  0.19270006151E-01  0.26712362388E-01  0.00000000000E+00 0. -1.
     999901    1    3    3    0    0 -0.36633906481E-01 -0.49627688586E-02 -0.12810328135E+00  0.89004332640E+00  0.88000000000E+00 0. -1.
        -11    1    3    3    0    0  0.23121841302E-01 -0.11797843392E-01  0.32838010559E-01  0.41861733270E-01  0.51100000000E-03 0. -1.
         11    1    3    3    0    0  0.30643184892E-01  0.23742152530E-01  0.75995264635E-01  0.85312577941E-01  0.51100000000E-03 0.  1.
</event>
<event>
 8    1  0.1129676E+005  0.1043930E+01  0.7957747E-01            NaN
         13   -1    0    0    0    0  0.00000000000E+00  0.00000000000E+00  0.74505805969E-08  0.10566000000E+00  0.10566000000E+00 0.  1.
     999900   -1    0    0    0    0 -0.00000000000E+00 -0.00000000000E+00 -0.74505805969E-08  0.93827000000E+00  0.93827000000E+00 0.  1.
     999902    2    1    2    0    0 -0.15819312400E-01 -0.16785746464E-01  0.10005183403E-03  0.10208643992E+01  0.10206037917E+01 0.  0.
     999903    2    3    3    0    0  0.12299621238E+00 -0.23476561292E-01 -0.27699661270E-01  0.12952420548E+00  0.18166765838E-01 0.  0.
         14    1    1    2    0    0  0.15819312400E-01  0.16785746464E-01 -0.10005183403E-03  0.23065600784E-01  0.00000000000E+00 0.  1.
     999901    1    3    3    0    0 -0.13881552478E+00  0.66908148285E-02  0.27799713104E-01  0.89134019374E+00  0.88000000000E+00 0.  1.
        -11    1    4    4    0    0  0.64948019726E-01 -0.21576755560E-01 -0.15608302592E-01  0.70197449224E-01  0.51100000000E-03 0. -1.
         11    1    4    4    0    0  0.58048192652E-01 -0.18998057326E-02 -0.12091358678E-01  0.59326756255E-01  0.51100000000E-03 0.  1.
</event>
<event>
 8    1  0.1129676E+005  0.1043930E+01  0.7957747E-01            NaN
         13   -1    0    0    0    0  0.00000000000E+00  0.00000000000E+00  0.74505805969E-08  0.10566000000E+00  0.10566000000E+00 0.  1.
     999900   -1    0    0    0    0 -0.00000000000E+00 -0.00000000000E+00 -0.74505805969E-08  0.93827000000E+00  0.93827000000E+00 0.  1.
     999902    2    1    2    0    0  0.22368234623E-01  0.76684301223E-02  0.49208626612E-02  0.10197772024E+01  0.10194911402E+01 0.  0.
     999903    2    3    3    0    0 -0.57191021455E-01 -0.78440253996E-01  0.82361011230E-01  0.12863111042E+00  0.18410323606E-01 0.  0.
         14    1    1    2    0    0 -0.22368234623E-01 -0.76684301223E-02 -0.49208626612E-02  0.24152797561E-01  0.00000000000E+00 0.  1.
     999901    1    3    3    0    0  0.79559256079E-01  0.86108684118E-01 -0.77440148569E-01  0.89114609202E+00  0.88000000000E+00 0. -1.
        -11    1    4    4    0    0 -0.26586653142E-01 -0.27191961362E-01  0.41503252776E-01  0.56294173766E-01  0.51100000000E-03 0. -1.
         11    1    4    4    0    0 -0.30604368313E-01 -0.51248292634E-01  0.40857758454E-01  0.72336936655E-01  0.51100000000E-03 0.  1.
</event>
<event>
 8    1  0.1129676E+005  0.1043930E+01  0.7957747E-01            NaN
         13   -1    0    0    0    0  0.00000000000E+00  0.00000000000E+00  0.74505805969E-08  0.10566000000E+00  0.10566000000E+00 0.  1.
     999900   -1    0    0    0    0 -0.00000000000E+00 -0.00000000000E+00 -0.74505805969E-08  0.93827000000E+00  0.93827000000E+00 0. -1.
     999902    2    1    2    0    0 -0.22802533268E-01 -0.48182557847E-02 -0.14486814052E-02  0.10205789874E+01  0.10203118149E+01 0.  0.
     999903    2    3    3    0    0 -0.11668561280E+00 -0.50516400690E-01  0.35740464414E-01  0.13362612188E+00  0.20276111036E-01 0.  0.
         14    1    1    2    0    0  0.22802533268E-01  0.48182557847E-02  0.14486814052E-02  0.23351012614E-01  0.00000000000E+00 0.  1.
     999901    1    3    3    0    0  0.93883079528E-01  0.45698144905E-01 -0.37189145819E-01  0.88695286551E+00  0.88000000000E+00 0.  1.
        -11    1    4    4    0    0 -0.46332805556E-01 -0.19473820401E-01  0.24484084383E-01  0.55907871188E-01  0.51100000000E-03 0. -1.
         11    1    4    4    0    0 -0.70352807241E-01 -0.31042580289E-01  0.11256380031E-01  0.77718250688E-01  0.51100000000E-03 0.  1.
</event>
<event>
 8    1  0.1129676E+005  0.1043930E+01  0.7957747E-01            NaN
         13   -1    0    0    0    0  0.00000000000E+00  0.00000000000E+00  0.74505805969E-08  0.10566000000E+00  0.10566000000E+00 0. -1.
     999900   -1    0    0    0    0 -0.00000000000E+00 -0.00000000000E+00 -0.74505805969E-08  0.93827000000E+00  0.93827000000E+00 0.  1.
     999902    2    1    2    0    0 -0.69632618349E-02  0.20981231746E-01  0.72636752021E-02  0.10206607052E+01  0.10203954210E+01 0.  0.
     999903    2    3    3    0    0 -0.25953182244E-01  0.60330909810E-01 -0.11214997708E+00  0.13152143910E+00  0.20171396548E-01 0.  0.
         14    1    1    2    0    0  0.69632618349E-02 -0.20981231746E-01 -0.72636752021E-02  0.23269294755E-01  0.00000000000E+00 0.  1.
     999901    1    3    3    0    0  0.18989920409E-01 -0.39349678064E-01  0.11941365228E+00  0.88913926614E+00  0.88000000000E+00 0. -1.
        -11    1    4    4    0    0 -0.71071496059E-02  0.51204467002E-02 -0.26293269670E-01  0.27718724734E-01  0.51100000000E-03 0.  1.
         11    1    4    4    0    0 -0.18846032638E-01  0.55210463110E-01 -0.85856707407E-01  0.10380271437E+00  0.51100000000E-03 0. -1.
</event>
<event>
 8    1  0.1129676E+005  0.1043930E+01  0.7957747E-01            NaN
         13   -1    0    0    0    0  0.00000000000E+00  0.00000000000E+00  0.74505805969E-08  0.10566000000E+00  0.10566000000E+00 0. -1.
     999900   -1    0    0    0    0 -0.00000000000E+00 -0.00000000000E+00 -0.74505805969E-08  0.93827000000E+00  0.93827000000E+00 0.  1.
     999902    2    1    2    0    0  0.48995352445E-02  0.47536478372E-02  0.25807644345E-01  0.10172347360E+01  0.10168843941E+01 0.  0.
     999903    2    3    3    0    0  0.11485923601E+00 -0.12760673625E-01  0.55096554621E-01  0.12973503036E+00  0.20977818843E-01 0.  0.
         14    1    1    2    0    0 -0.48995352445E-02 -0.47536478372E-02 -0.25807644345E-01  0.26695264000E-01  0.00000000000E+00 0.  1.
     999901    1    3    3    0    0 -0.10995970076E+00  0.17514321462E-01 -0.29288910276E-01  0.88749970564E+00  0.88000000000E+00 0.  1.
        -11    1    4    4    0    0  0.49751433226E-01 -0.92748292711E-02  0.13454417686E-01  0.52368979772E-01  0.51100000000E-03 0.  1.
         11    1    4    4    0    0  0.65107802782E-01 -0.34858443537E-02  0.41642136935E-01  0.77366050587E-01  0.51100000000E-03 0. -1.
</event>
<event>
 8    1  0.1129676E+005  0.1043930E+01  0.7957747E-01            NaN
         13   -1    0    0    0    0  0.00000000000E+00  0.00000000000E+00  0.74505805969E-08  0.10566000000E+00  0.10566000000E+00 0.  1.
     999900   -1    0    0    0    0 -0.00000000000E+00 -0.00000000000E+00 -0.74505805969E-08  0.93827000000E+00  0.93827000000E+00 0. -1.
     999902    2    1    2    0    0  0.17396684792E-01 -0.16199130388E-01 -0.14158404231E-02  0.10201169559E+01  0.10198389787E+01 0.  0.
     999903    2    3    3    0    0 -0.48935493261E-01  0.90666287980E-01  0.73259049833E-01  0.12804267940E+00  0.20321936143E-01 0.  0.
         14    1    1    2    0    0 -0.17396684792E-01  0.16199130388E-01  0.14158404231E-02  0.23813044140E-01  0.00000000000E+00 0. -1.
     999901    1    3    3    0    0  0.66332178052E-01 -0.10686541837E+00 -0.74674890256E-01  0.89207427646E+00  0.88000000000E+00 0. -1.
        -11    1    4    4    0    0 -0.19132714003E-01  0.36264284802E-01  0.41546074671E-01  0.58373765845E-01  0.51100000000E-03 0. -1.
         11    1    4    4    0    0 -0.29802779258E-01  0.54402003178E-01  0.31712975162E-01  0.69668913555E-01  0.51100000000E-03 0.  1.
</event>
<event>
 8    1  0.1129676E+005  0.1043930E+01  0.7957747E-01            NaN
         13   -1    0    0    0    0  0.00000000000E+00  0.00000000000E+00  0.74505805969E-08  0.10566000000E+00  0.10566000000E+00 0. -1.
     999900   -1    0    0    0    0 -0.00000000000E+00 -0.00000000000E+00 -0.74505805969E-08  0.93827000000E+00  0.93827000000E+00 0.  1.
     999902    2    1    2    0    0  0.12251898268E-01 -0.15049099097E-02 -0.19731956641E-01  0.10206550375E+01  0.10203896225E+01 0.  0.
     999903    2    3    3    0    0 -0.61926906631E-01 -0.38470175360E-01 -0.10905083163E+00  0.13225941205E+00  0.16898876891E-01 0.  0.
         14    1    1    2    0    0 -0.12251898268E-01  0.15049099097E-02  0.19731956641E-01  0.23274962468E-01  0.00000000000E+00 0. -1.
     999901    1    3    3    0    0  0.74178804899E-01  0.36965265450E-01  0.89318874987E-01  0.88839562548E+00  0.88000000000E+00 0.  1.
        -11    1    4    4    0    0 -0.19713157308E-01 -0.18599562003E-01 -0.29730820276E-01  0.40233506845E-01  0.51100000000E-03 0. -1.
         11    1    4    4    0    0 -0.42213749323E-01 -0.19870613357E-01 -0.79320011352E-01  0.92025905206E-01  0.51100000000E-03 0.  1.
</event>
<event>
 8    1  0.1129676E+005  0.1043930E+01  0.7957747E-01            NaN
         13   -1    0    0    0    0  0.00000000000E+00  0.00000000000E+00  0.74505805969E-08  0.10566000000E+00  0.10566000000E+00 0. -1.
     999900   -1    0    0    0    0 -0.00000000000E+00 -0.00000000000E+00 -0.74505805969E-08  0.93827000000E+00  0.93827000000E+00 0.  1.
     999902    2    1    2    0    0  0.21411018429E-01 -0.10592243745E-02 -0.50179198317E-02  0.10219133430E+01  0.10216761460E+01 0.  0.
     999903    2    3    3    0    0 -0.99556828353E-01 -0.18367332612E-01 -0.80838390129E-01  0.13023989700E+00  0.13366543055E-01 0.  0.
         14    1    1    2    0    0 -0.21411018429E-01  0.10592243745E-02  0.50179198317E-02  0.22016657010E-01  0.00000000000E+00 0. -1.
     999901    1    3    3    0    0  0.12096784678E+00  0.17308108238E-01  0.75820470297E-01  0.89167344599E+00  0.88000000000E+00 0. -1.
        -11    1    4    4    0    0 -0.41158143941E-01 -0.10223979598E-02 -0.31360580981E-01  0.51756982821E-01  0.51100000000E-03 0.  1.
         11    1    4    4    0    0 -0.58398684413E-01 -0.17344934652E-01 -0.49477809147E-01  0.78482914180E-01  0.51100000000E-03 0. -1.
</event>
<event>
 8    1  0.1129676E+005  0.1043930E+01  0.7957747E-01            NaN
         13   -1    0    0    0    0  0.00000000000E+00  0.00000000000E+00  0.74505805969E-08  0.10566000000E+00  0.10566000000E+00 0.  1.
     999900   -1    0    0    0    0 -0.00000000000E+00 -0.00000000000E+00 -0.74505805969E-08  0.93827000000E+00  0.93827000000E+00 0.  1.
     999902    2    1    2    0    0 -0.23912207353E-01  0.41563028288E-02 -0.18262148199E-02  0.10195906579E+01  0.10193001060E+01 0.  0.
     999903    2    3    3    0    0  0.78314543787E-01 -0.98895637259E-01 -0.16752921453E-02  0.12769938998E+00  0.19768984781E-01 0.  0.
         14    1    1    2    0    0  0.23912207353E-01 -0.41563028288E-02  0.18262148199E-02  0.24339342108E-01  0.00000000000E+00 0.  1.
     999901    1    3    3    0    0 -0.10222675114E+00  0.10305194009E+00 -0.15092267454E-03  0.89189126791E+00  0.88000000000E+00 0. -1.
        -11    1    4    4    0    0  0.12643795193E-01 -0.14426256187E-01  0.68244639088E-02  0.20367053127E-01  0.51100000000E-03 0.  1.
         11    1    4    4    0    0  0.65670748594E-01 -0.84469381072E-01 -0.84997560541E-02  0.10733233685E+00  0.51100000000E-03 0. -1.
</event>
<event>
 8    1  0.1129676E+005  0.1043930E+01  0.7957747E-01            NaN
         13   -1    0    0    0    0  0.00000000000E+00  0.00000000000E+00  0.74505805969E-08  0.10566000000E+00  0.10566000000E+00 0. -1.
     999900   -1    0    0    0    0 -0.00000000000E+00 -0.00000000000E+00 -0.74505805969E-08  0.93827000000E+00  0.93827000000E+00 0. -1.
     999902    2    1    2    0    0  0.96106862406E-02  0.19556260772E-01 -0.99729215919E-02  0.10199660314E+01  0.10196844774E+01 0.  0.
     999903    2    3    3    0    0  0.55774660154E-01 -0.10818767145E+00 -0.38070029299E-01  0.12910180373E+00  0.20063988311E-01 0.  0.
         14    1    1    2    0    0 -0.96106862406E-02 -0.19556260772E-01  0.99729215919E-02  0.23963968588E-01  0.00000000000E+00 0. -1.
     999901    1    3    3    0    0 -0.46163973914E-01  0.12774393222E+00  0.28097107707E-01  0.89086422768E+00  0.88000000000E+00 0.  1.
        -11    1    4    4    0    0  0.34762094318E-01 -0.47033970052E-01 -0.14341917996E-01  0.60220837532E-01  0.51100000000E-03 0. -1.
         11    1    4    4    0    0  0.21012565837E-01 -0.61153701393E-01 -0.23728111303E-01  0.68880966196E-01  0.51100000000E-03 0.  1.
</event>
<event>
 8    1  0.1129676E+005  0.1043930E+01  0.7957747E-01            NaN
         13   -1    0    0    0    0  0.00000000000E+00  0.00000000000E+00  0.74505805969E-08  0.10566000000E+00  0.10566000000E+00 0. -1.
     999900   -1    0    0    0    0 -0.00000000000E+00 -0.00000000000E+00 -0.74505805969E-08  0.93827000000E+00  0.93827000000E+00 0. -1.
     999902    2    1    2    0    0  0.64939390784E-03 -0.22594335691E-01  0.11703229328E-01  0.10184762911E+01  0.10181581726E+01 0.  0.
     999903    2    3    3    0    0 -0.70755105743E-01 -0.24893405702E-01 -0.10256398061E+00  0.12821740545E+00  0.17157106568E-01 0.  0.
         14    1    1    2    0    0 -0.64939390784E-03  0.22594335691E-01 -0.11703229328E-01  0.25453708855E-01  0.00000000000E+00 0. -1.
     999901    1    3    3    0    0  0.71404499651E-01  0.22990700110E-02  0.11426720994E+00  0.89025888570E+00  0.88000000000E+00 0. -1.
        -11    1    4    4    0    0 -0.49196977844E-01 -0.20628108668E-01 -0.83672018445E-01  0.99232702713E-01  0.51100000000E-03 0.  1.
         11    1    4    4    0    0 -0.21558127899E-01 -0.42652970340E-02 -0.18891962164E-01  0.28984702736E-01  0.51100000000E-03 0. -1.
</event>
<event>
 8    1  0.1444087E+005  0.1043930E+01  0.7957747E-01            NaN
         13   -1    0    0    0    0  0.00000000000E+00  0.00000000000E+00  0.74505805969E-08  0.10566000000E+00  0.10566000000E+00 0.  1.
     999900   -1    0    0    0    0 -0.00000000000E+00 -0.00000000000E+00 -0.74505805969E-08  0.93827000000E+00  0.93827000000E+00 0.  1.
     999902    2    1    2    0    0 -0.62639536139E-02 -0.34767765127E-02  0.23434013200E-01  0.10194253461E+01  0.10191307856E+01 0.  0.
     999903    2    3    3    0    0  0.44745594531E-01  0.11467321155E+00 -0.30788886446E-01  0.12841383294E+00  0.19749513477E-01 0.  0.
         14    1    1    2    0    0  0.62639536139E-02  0.34767765127E-02 -0.23434013200E-01  0.24504653935E-01  0.00000000000E+00 0. -1.
     999901    1    3    3    0    0 -0.51009548145E-01 -0.11814998807E+00  0.54222899646E-01  0.89101151313E+00  0.88000000000E+00 0. -1.
        -11    1    4    4    0    0  0.14985367390E-01  0.32822324677E-01 -0.14480896813E-03  0.36085292346E-01  0.51100000000E-03 0. -1.
         11    1    4    4    0    0  0.29760227141E-01  0.81850886878E-01 -0.30644077478E-01  0.92328540591E-01  0.51100000000E-03 0.  1.
</event>
<event>
 8    1  0.1129676E+005  0.1043930E+01  0.7957747E-01            NaN
         13   -1    0    0    0    0  0.00000000000E+00  0.00000000000E+00  0.74505805969E-08  0.10566000000E+00  0.10566000000E+00 0.  1.
     999900   -1    0    0    0    0 -0.00000000000E+00 -0.00000000000E+00 -0.74505805969E-08  0.93827000000E+00  0.93827000000E+00 0. -1.
     999902    2    1    2    0    0 -0.15895679763E-01  0.84279688276E-02 -0.16270526541E-01  0.10196723553E+01  0.10193837740E+01 0.  0.
     999903    2    3    3    0    0 -0.72167867284E-01 -0.20297336324E-01 -0.10765132726E+00  0.13268748901E+00  0.19924320555E-01 0.  0.
         14    1    1    2    0    0  0.15895679763E-01 -0.84279688276E-02  0.16270526541E-01  0.24257644725E-01  0.00000000000E+00 0.  1.
     999901    1    3    3    0    0  0.56272187521E-01  0.28725305152E-01  0.91380800715E-01  0.88698486627E+00  0.88000000000E+00 0. -1.
        -11    1    4    4    0    0 -0.23511224173E-01  0.98914385837E-03 -0.42972134007E-01  0.48996137499E-01  0.51100000000E-03 0. -1.
         11    1    4    4    0    0 -0.48656643111E-01 -0.21286480182E-01 -0.64679193248E-01  0.83691351510E-01  0.51100000000E-03 0.  1.
</event>
<event>
 8    1  0.1129676E+005  0.1043930E+01  0.7957747E-01            NaN
         13   -1    0    0    0    0  0.00000000000E+00  0.00000000000E+00  0.74505805969E-08  0.10566000000E+00  0.10566000000E+00 0.  1.
     999900   -1    0    0    0    0 -0.00000000000E+00 -0.00000000000E+00 -0.74505805969E-08  0.93827000000E+00  0.93827000000E+00 0. -1.
     999902    2    1    2    0    0 -0.13655388068E-01  0.10528292716E-01  0.15583567142E-01  0.10206886116E+01  0.10204239706E+01 0.  0.
     999903    2    3    3    0    0 -0.96412430347E-01 -0.45755282058E-01 -0.72423956392E-01  0.13065384089E+00  0.20887654698E-01 0.  0.
         14    1    1    2    0    0  0.13655388068E-01 -0.10528292716E-01 -0.15583567142E-01  0.23241388419E-01  0.00000000000E+00 0. -1.
     999901    1    3    3    0    0  0.82757042279E-01  0.56283574774E-01  0.88007523533E-01  0.89003477069E+00  0.88000000000E+00 0. -1.
        -11    1    4    4    0    0 -0.46605744865E-01 -0.15330501980E-01 -0.43233103864E-01  0.65394817349E-01  0.51100000000E-03 0. -1.
         11    1    4    4    0    0 -0.49806685483E-01 -0.30424780078E-01 -0.29190852527E-01  0.65259023543E-01  0.51100000000E-03 0.  1.
</event>
<event>
 8    1  0.1129676E+005  0.1043930E+01  0.7957747E-01            NaN
         13   -1    0    0    0    0  0.00000000000E+00  0.00000000000E+00  0.74505805969E-08  0.10566000000E+00  0.10566000000E+00 0. -1.
     999900   -1    0    0    0    0 -0.00000000000E+00 -0.00000000000E+00 -0.74505805969E-08  0.93827000000E+00  0.93827000000E+00 0.  1.
     999902    2    1    2    0    0  0.64453673537E-02  0.11924411086E-01  0.17844720107E-01  0.10215208863E+01  0.10212750623E+01 0.  0.
     999903    2    3    3    0    0 -0.37249556592E-02  0.10864275978E+00  0.76168887834E-01  0.13424438884E+00  0.20068181605E-01 0.  0.
         14    1    1    2    0    0 -0.64453673537E-02 -0.11924411086E-01 -0.17844720107E-01  0.22409113677E-01  0.00000000000E+00 0.  1.
     999901    1    3    3    0    0  0.10170323013E-01 -0.96718348698E-01 -0.58324167727E-01  0.88727649748E+00  0.88000000000E+00 0.  1.
        -11    1    4    4    0    0 -0.91992006425E-02  0.60850155100E-01  0.51122460072E-01  0.80007085393E-01  0.51100000000E-03 0. -1.
         11    1    4    4    0    0  0.54742449833E-02  0.47792604684E-01  0.25046427762E-01  0.54237303447E-01  0.51100000000E-03 0.  1.
</event>
<event>
 8    1  0.1129676E+005  0.1043930E+01  0.7957747E-01            NaN
         13   -1    0    0    0    0  0.00000000000E+00  0.00000000000E+00  0.74505805969E-08  0.10566000000E+00  0.10566000000E+00 0. -1.
     999900   -1    0    0    0    0 -0.00000000000E+00 -0.00000000000E+00 -0.74505805969E-08  0.93827000000E+00  0.93827000000E+00 0.  1.
     999902    2    1    2    0    0 -0.42117040270E-02 -0.22994112356E-01 -0.21078710322E-02  0.10204585115E+01  0.10201885428E+01 0.  0.
     999903    2    3    3    0    0  0.44423564259E-01 -0.92444491990E-02 -0.12119687198E+00  0.13099989370E+00  0.20331686381E-01 0.  0.
         14    1    1    2    0    0  0.42117040270E-02  0.22994112356E-01  0.21078710322E-02  0.23471488537E-01  0.00000000000E+00 0. -1.
     999901    1    3    3    0    0 -0.48635268286E-01 -0.13749663157E-01  0.11908900095E+00  0.88945861776E+00  0.88000000000E+00 0. -1.
        -11    1    4    4    0    0  0.18333303526E-01 -0.61725005229E-02 -0.78632488175E-01  0.80978633592E-01  0.51100000000E-03 0.  1.
         11    1    4    4    0    0  0.26090260732E-01 -0.30719486761E-02 -0.42564383802E-01  0.50021260112E-01  0.51100000000E-03 0. -1.
</event>
<event>
 8    1  0.1129676E+005  0.1043930E+01  0.7957747E-01            NaN
         13   -1    0    0    0    0  0.00000000000E+00  0.00000000000E+00  0.74505805969E-08  0.10566000000E+00  0.10566000000E+00 0. -1.
     999900   -1    0    0    0    0 -0.00000000000E+00 -0.00000000000E+00 -0.74505805969E-08  0.93827000000E+00  0.93827000000E+00 0. -1.
     999902    2    1    2    0    0 -0.13135209898E-01 -0.89805433697E-02 -0.17493482846E-01  0.10202824665E+01  0.10200083851E+01 0.  0.
     999903    2    3    3    0    0 -0.10621283257E+00 -0.47105988405E-01  0.57989928030E-01  0.13134223301E+00  0.19692904141E-01 0.  0.
         14    1    1    2    0    0  0.13135209898E-01  0.89805433697E-02  0.17493482846E-01  0.23647533494E-01  0.00000000000E+00 0. -1.
     999901    1    3    3    0    0  0.93077622675E-01  0.38125445035E-01 -0.75483410876E-01  0.88894023349E+00  0.88000000000E+00 0. -1.
        -11    1    4    4    0    0 -0.89823107223E-01 -0.43830224353E-01  0.55824082012E-01  0.11448086483E+00  0.51100000000E-03 0.  1.
         11    1    4    4    0    0 -0.16389725350E-01 -0.32757640519E-02  0.21658460174E-02  0.16861368187E-01  0.51100000000E-03 0. -1.
</event>
<event>
 8    1  0.1129676E+005  0.1043930E+01  0.7957747E-01            NaN
         13   -1    0    0    0    0  0.00000000000E+00  0.00000000000E+00  0.74505805969E-08  0.10566000000E+00  0.10566000000E+00 0.  1.
     999900   -1    0    0    0    0 -0.00000000000E+00 -0.00000000000E+00 -0.74505805969E-08  0.93827000000E+00  0.93827000000E+00 0.  1.
     999902    2    1    2    0    0  0.50016659155E-03  0.13153568830E-01 -0.19466082856E-01  0.10204311719E+01  0.10201605666E+01 0.  0.
     999903    2    3    3    0    0 -0.10687629984E+00 -0.59140924443E-01 -0.40298021199E-01  0.13071763995E+00  0.23301898465E-01 0.  0.
         14    1    1    2    0    0 -0.50016659155E-03 -0.13153568830E-01  0.19466082856E-01  0.23498828084E-01  0.00000000000E+00 0.  1.
     999901    1    3    3    0    0  0.10737646643E+00  0.72294493273E-01  0.20831938343E-01  0.88971353196E+00  0.88000000000E+00 0.  1.
        -11    1    4    4    0    0 -0.41423675653E-01 -0.18744265118E-01 -0.39396414147E-02  0.45640445604E-01  0.51100000000E-03 0.  1.
         11    1    4    4    0    0 -0.65452624183E-01 -0.40396659325E-01 -0.36358379784E-01  0.85077194351E-01  0.51100000000E-03 0. -1.
</event>
<event>
 8    1  0.1129676E+005  0.1043930E+01  0.7957747E-01            NaN
         13   -1    0    0    0    0  0.00000000000E+00  0.00000000000E+00  0.74505805969E-08  0.10566000000E+00  0.10566000000E+00 0. -1.
     999900   -1    0    0    0    0 -0.00000000000E+00 -0.00000000000E+00 -0.74505805969E-08  0.93827000000E+00  0.93827000000E+00 0. -1.
     999902    2    1    2    0    0 -0.12914540733E-01  0.16944151658E-02 -0.20654948701E-01  0.10195110870E+01  0.10192186092E+01 0.  0.
     999903    2    3    3    0    0 -0.42409339403E-01  0.11830116518E+00  0.26933475078E-01  0.13005522225E+00  0.19880417609E-01 0.  0.
         14    1    1    2    0    0  0.12914540733E-01 -0.16944151658E-02  0.20654948701E-01  0.24418912976E-01  0.00000000000E+00 0. -1.
     999901    1    3    3    0    0  0.29494798670E-01 -0.11660675001E+00 -0.47588423779E-01  0.88945586477E+00  0.88000000000E+00 0.  1.
        -11    1    4    4    0    0 -0.12533786555E-01  0.64294140852E-01  0.14580501346E-01  0.67109496302E-01  0.51100000000E-03 0.  1.
         11    1    4    4    0    0 -0.29875552848E-01  0.54007024326E-01  0.12352973732E-01  0.62945725952E-01  0.51100000000E-03 0. -1.
</event>
<event>
 8    1  0.1129676E+005  0.1043930E+01  0.7957747E-01            NaN
         13   -1    0    0    0    0  0.00000000000E+00  0.00000000000E+00  0.74505805969E-08  0.10566000000E+00  0.10566000000E+00 0.  1.
     999900   -1    0    0    0    0 -0.00000000000E+00 -0.00000000000E+00 -0.74505805969E-08  0.93827000000E+00  0.93827000000E+00 0. -1.
     999902    2    1    2    0    0 -0.12753031442E-01 -0.17381208104E-01 -0.91712253058E-02  0.10205022903E+01  0.10202333395E+01 0.  0.
     999903    2    3    3    0    0  0.52596850710E-01 -0.81517112707E-01  0.85289234674E-01  0.13072321672E+00  0.20070811395E-01 0.  0.
         14    1    1    2    0    0  0.12753031442E-01  0.17381208104E-01  0.91712253058E-02  0.23427709656E-01  0.00000000000E+00 0.  1.
     999901    1    3    3    0    0 -0.65349882152E-01  0.64135904603E-01 -0.94460459980E-01  0.88977907362E+00  0.88000000000E+00 0. -1.
        -11    1    4    4    0    0  0.37117177408E-01 -0.65824876933E-01  0.55975270312E-01  0.94043028926E-01  0.51100000000E-03 0.  1.
         11    1    4    4    0    0  0.15479673302E-01 -0.15692235773E-01  0.29313964362E-01  0.36680187796E-01  0.51100000000E-03 0. -1.
</event>
<event>
 8    1  0.1129676E+005  0.1043930E+01  0.7957747E-01            NaN
         13   -1    0    0    0    0  0.00000000000E+00  0.00000000000E+00  0.74505805969E-08  0.10566000000E+00  0.10566000000E+00 0.  1.
     999900   -1    0    0    0    0 -0.00000000000E+00 -0.00000000000E+00 -0.74505805969E-08  0.93827000000E+00  0.93827000000E+00 0.  1.
     999902    2    1    2    0    0  0.14584470561E-01 -0.57837791947E-02 -0.32648302184E-01  0.10077074860E+01  0.10070562580E+01 0.  0.
     999903    2    3    3    0    0  0.10855071344E+00  0.48014963356E-01  0.14647616659E-02  0.12041516631E+00  0.20223072384E-01 0.  0.
         14    1    1    2    0    0 -0.14584470561E-01  0.57837791947E-02  0.32648302184E-01  0.36222513977E-01  0.00000000000E+00 0. -1.
     999901    1    3    3    0    0 -0.93966242875E-01 -0.53798742551E-01 -0.34113063850E-01  0.88729231972E+00  0.88000000000E+00 0.  1.
        -11    1    4    4    0    0  0.29358180471E-01  0.23153064865E-01 -0.20131884769E-03  0.37393432893E-01  0.51100000000E-03 0.  1.
         11    1    4    4    0    0  0.79192532965E-01  0.24861898491E-01  0.16660805136E-02  0.83021733415E-01  0.51100000000E-03 0. -1.
</event>
<event>
 8    1  0.1129676E+005  0.1043930E+01  0.7957747E-01            NaN
         13   -1    0    0    0    0  0.00000000000E+00  0.00000000000E+00  0.74505805969E-08  0.10566000000E+00  0.10566000000E+00 0.  1.
     999900   -1    0    0    0    0 -0.00000000000E+00 -0.00000000000E+00 -0.74505805969E-08  0.93827000000E+00  0.93827000000E+00 0.  1.
     999902    2    1    2    0    0  0.21382822937E-01  0.82117493101E-02  0.70945982255E-02  0.10199510245E+01  0.10196691135E+01 0.  0.
     999903    2    3    3    0    0 -0.12071245461E+00  0.18013118932E-01  0.34149208545E-01  0.12808831828E+00  0.18560163885E-01 0.  0.
         14    1    1    2    0    0 -0.21382822937E-01 -0.82117493101E-02 -0.70945982255E-02  0.23978975530E-01  0.00000000000E+00 0. -1.
     999901    1    3    3    0    0  0.14209527755E+00 -0.98013696219E-02 -0.27054610319E-01  0.89186270619E+00  0.88000000000E+00 0.  1.
        -11    1    4    4    0    0 -0.42697409231E-01  0.15397134674E-01  0.12549863827E-01  0.47094593260E-01  0.51100000000E-03 0. -1.
         11    1    4    4    0    0 -0.78015045383E-01  0.26159842583E-02  0.21599344717E-01  0.80993725022E-01  0.51100000000E-03 0.  1.
</event>
<event>
 8    1  0.1129676E+005  0.1043930E+01  0.7957747E-01            NaN
         13   -1    0    0    0    0  0.00000000000E+00  0.00000000000E+00  0.74505805969E-08  0.10566000000E+00  0.10566000000E+00 0.  1.
     999900   -1    0    0    0    0 -0.00000000000E+00 -0.00000000000E+00 -0.74505805969E-08  0.93827000000E+00  0.93827000000E+00 0.  1.
     999902    2    1    2    0    0  0.18603150617E-01  0.20429861765E-02 -0.15719817346E-01  0.10194889758E+01  0.10191959616E+01 0.  0.
     999903    2    3    3    0    0  0.92945985340E-01 -0.54097032124E-01  0.70873209461E-01  0.13034505552E+00  0.20034385501E-01 0.  0.
         14    1    1    2    0    0 -0.18603150617E-01 -0.20429861765E-02  0.15719817346E-01  0.24441024177E-01  0.00000000000E+00 0.  1.
     999901    1    3    3    0    0 -0.74342834723E-01  0.56140018300E-01 -0.86593026808E-01  0.88914392031E+00  0.88000000000E+00 0. -1.
        -11    1    4    4    0    0  0.26786392674E-01 -0.92206433828E-02  0.27068143893E-01  0.39185158309E-01  0.51100000000E-03 0.  1.
         11    1    4    4    0    0  0.66159592666E-01 -0.44876388741E-01  0.43805065568E-01  0.91159897206E-01  0.51100000000E-03 0. -1.
</event>
<event>
 8    1  0.1129676E+005  0.1043930E+01  0.7957747E-01            NaN
         13   -1    0    0    0    0  0.00000000000E+00  0.00000000000E+00  0.74505805969E-08  0.10566000000E+00  0.10566000000E+00 0. -1.
     999900   -1    0    0    0    0 -0.00000000000E+00 -0.00000000000E+00 -0.74505805969E-08  0.93827000000E+00  0.93827000000E+00 0. -1.
     999902    2    1    2    0    0 -0.34568713424E-02  0.55681652402E-02 -0.22914728702E-01  0.10200964267E+01  0.10198179644E+01 0.  0.
     999903    2    3    3    0    0 -0.24564660243E-01  0.10824661099E+00 -0.70076319090E-01  0.13262100871E+00  0.18891535953E-01 0.  0.
         14    1    1    2    0    0  0.34568713424E-02 -0.55681652402E-02  0.22914728702E-01  0.23833573276E-01  0.00000000000E+00 0.  1.
     999901    1    3    3    0    0  0.21107788901E-01 -0.10267844575E+00  0.47161590388E-01  0.88747541802E+00  0.88000000000E+00 0.  1.
        -11    1    4    4    0    0  0.71999577299E-03  0.32331589571E-01 -0.24110872806E-01  0.40341608626E-01  0.51100000000E-03 0.  1.
         11    1    4    4    0    0 -0.25284656016E-01  0.75915021416E-01 -0.45965446284E-01  0.92279400082E-01  0.51100000000E-03 0. -1.
</event>
<event>
 8    1  0.1129676E+005  0.1043930E+01  0.7957747E-01            NaN
         13   -1    0    0    0    0  0.00000000000E+00  0.00000000000E+00  0.74505805969E-08  0.10566000000E+00  0.10566000000E+00 0.  1.
     999900   -1    0    0    0    0 -0.00000000000E+00 -0.00000000000E+00 -0.74505805969E-08  0.93827000000E+00  0.93827000000E+00 0.  1.
     999902    2    1    2    0    0  0.22472946500E-01  0.97160354171E-02 -0.73544356240E-02  0.10183659160E+01  0.10180449973E+01 0.  0.
     999903    2    3    3    0    0 -0.69610645989E-02  0.88269146465E-01 -0.92544609172E-01  0.13028128153E+00  0.23849716839E-01 0.  0.
         14    1    1    2    0    0 -0.22472946500E-01 -0.97160354171E-02  0.73544356240E-02  0.25564084024E-01  0.00000000000E+00 0.  1.
     999901    1    3    3    0    0  0.29434011099E-01 -0.78553111048E-01  0.85190173548E-01  0.88808463444E+00  0.88000000000E+00 0. -1.
        -11    1    4    4    0    0  0.18287861228E-02  0.50483853207E-02 -0.15943323068E-01  0.16830963267E-01  0.51100000000E-03 0. -1.
         11    1    4    4    0    0 -0.87898507217E-02  0.83220761144E-01 -0.76601286104E-01  0.11345031827E+00  0.51100000000E-03 0.  1.
</event>
<event>
 8    1  0.1129676E+005  0.1043930E+01  0.7957747E-01            NaN
         13   -1    0    0    0    0  0.00000000000E+00  0.00000000000E+00  0.74505805969E-08  0.10566000000E+00  0.10566000000E+00 0.  1.
     999900   -1    0    0    0    0 -0.00000000000E+00 -0.00000000000E+00 -0.74505805969E-08  0.93827000000E+00  0.93827000000E+00 0.  1.
     999902    2    1    2    0    0  0.15454759825E-01  0.15499919907E-01 -0.62134769626E-02  0.10211768812E+01  0.10209233655E+01 0.  0.
     999903    2    3    3    0    0  0.95446543222E-01  0.78848312581E-01 -0.47845345989E-01  0.13430320544E+00  0.20520108408E-01 0.  0.
         14    1    1    2    0    0 -0.15454759825E-01 -0.15499919907E-01  0.62134769626E-02  0.22753118783E-01  0.00000000000E+00 0. -1.
     999901    1    3    3    0    0 -0.79991783398E-01 -0.63348392674E-01  0.41631869027E-01  0.88687367578E+00  0.88000000000E+00 0. -1.
        -11    1    4    4    0    0  0.19404508257E-01  0.19623322964E-01 -0.22984975495E-02  0.27697544238E-01  0.51100000000E-03 0.  1.
         11    1    4    4    0    0  0.76042034965E-01  0.59224989618E-01 -0.45546848440E-01  0.10660566120E+00  0.51100000000E-03 0. -1.
</event>
<event>
 8    1  0.1129676E+005  0.1043930E+01  0.7957747E-01            NaN
         13   -1    0    0    0    0  0.00000000000E+00  0.00000000000E+00  0.74505805969E-08  0.10566000000E+00  0.10566000000E+00 0. -1.
     999900   -1    0    0    0    0 -0.00000000000E+00 -0.00000000000E+00 -0.74505805969E-08  0.93827000000E+00  0.93827000000E+00 0.  1.
     999902    2    1    2    0    0  0.86126767618E-02  0.19702481865E-01  0.10118154588E-01  0.10201656771E+01  0.10198888496E+01 0.  0.
     999903    2    3    3    0    0  0.33731404271E-01 -0.11192865785E+00 -0.48387842445E-01  0.12810028758E+00  0.20061612554E-01 0.  0.
         14    1    1    2    0    0 -0.86126767618E-02 -0.19702481865E-01 -0.10118154588E-01  0.23764322943E-01  0.00000000000E+00 0. -1.
     999901    1    3    3    0    0 -0.25118727509E-01  0.13163113972E+00  0.58505997034E-01  0.89206538948E+00  0.88000000000E+00 0. -1.
        -11    1    4    4    0    0  0.83865901172E-02 -0.12677452931E-01 -0.12066276228E-01  0.19414140455E-01  0.51100000000E-03 0.  1.
         11    1    4    4    0    0  0.25344814154E-01 -0.99251204923E-01 -0.36321566218E-01  0.10868614712E+00  0.51100000000E-03 0. -1.
</event>
<event>
 8    1  0.1129676E+005  0.1043930E+01  0.7957747E-01            NaN
         13   -1    0    0    0    0  0.00000000000E+00  0.00000000000E+00  0.74505805969E-08  0.10566000000E+00  0.10566000000E+00 0.  1.
     999900   -1    0    0    0    0 -0.00000000000E+00 -0.00000000000E+00 -0.74505805969E-08  0.93827000000E+00  0.93827000000E+00 0. -1.
     999902    2    1    2    0    0 -0.15356460770E-02  0.23362846128E-01  0.42625222133E-02  0.10201318933E+01  0.10198542689E+01 0.  0.
     999903    2    3    3    0    0 -0.12763892944E+00 -0.15368007217E-01  0.77879834347E-02  0.13029227517E+00  0.19686348747E-01 0.  0.
         14    1    1    2    0    0  0.15356460770E-02 -0.23362846128E-01 -0.42625222133E-02  0.23798106725E-01  0.00000000000E+00 0.  1.
     999901    1    3    3    0    0  0.12610328337E+00  0.38730853344E-01 -0.35254612213E-02  0.88983961811E+00  0.88000000000E+00 0. -1.
        -11    1    4    4    0    0 -0.79464975280E-01 -0.42213788125E-02 -0.31760652208E-02  0.79642016841E-01  0.51100000000E-03 0.  1.
         11    1    4    4    0    0 -0.48173954165E-01 -0.11146628404E-01  0.10964048655E-01  0.50650258327E-01  0.51100000000E-03 0. -1.
</event>
<event>
 8    1  0.1374733E+005  0.1043930E+01  0.7957747E-01            NaN
         13   -1    0    0    0    0  0.00000000000E+00  0.00000000000E+00  0.74505805969E-08  0.10566000000E+00  0.10566000000E+00 0. -1.
     999900   -1    0    0    0    0 -0.00000000000E+00 -0.00000000000E+00 -0.74505805969E-08  0.93827000000E+00  0.93827000000E+00 0.  1.
     999902    2    1    2    0    0 -0.15327350022E-01  0.19415731291E-01  0.99268303014E-02  0.10172759151E+01  0.10169266676E+01 0.  0.
     999903    2    3    3    0    0  0.98628247518E-01 -0.73760642939E-01  0.65710480616E-02  0.12504333548E+00  0.20603238079E-01 0.  0.
         14    1    1    2    0    0  0.15327350022E-01 -0.19415731291E-01 -0.99268303014E-02  0.26654084867E-01  0.00000000000E+00 0. -1.
     999901    1    3    3    0    0 -0.11395559754E+00  0.93176374230E-01  0.33557822398E-02  0.89223257966E+00  0.88000000000E+00 0. -1.
        -11    1    4    4    0    0  0.36893435867E-01 -0.40113430252E-01  0.98155718555E-03  0.54510893151E-01  0.51100000000E-03 0.  1.
         11    1    4    4    0    0  0.61734811651E-01 -0.33647212687E-01  0.55894908761E-02  0.70532442326E-01  0.51100000000E-03 0. -1.
</event>
<event>
 8    1  0.1129676E+005  0.1043930E+01  0.7957747E-01            NaN
         13   -1    0    0    0    0  0.00000000000E+00  0.00000000000E+00  0.74505805969E-08  0.10566000000E+00  0.10566000000E+00 0. -1.
     999900   -1    0    0    0    0 -0.00000000000E+00 -0.00000000000E+00 -0.74505805969E-08  0.93827000000E+00  0.93827000000E+00 0. -1.
     999902    2    1    2    0    0  0.19909467637E-01 -0.81692094553E-02 -0.55913482726E-03  0.10224024475E+01  0.10221757819E+01 0.  0.
     999903    2    3    3    0    0 -0.81030152911E-01 -0.99370165464E-01 -0.21849442957E-01  0.13169503281E+00  0.20636570547E-01 0.  0.
         14    1    1    2    0    0 -0.19909467637E-01  0.81692094553E-02  0.55913482726E-03  0.21527552496E-01  0.00000000000E+00 0.  1.
     999901    1    3    3    0    0  0.10093962055E+00  0.91200956008E-01  0.21290308130E-01  0.89070741470E+00  0.88000000000E+00 0. -1.
        -11    1    4    4    0    0 -0.17495630982E-01 -0.23574604835E-01 -0.13862329185E-01  0.32469745733E-01  0.51100000000E-03 0.  1.
         11    1    4    4    0    0 -0.63534521929E-01 -0.75795560629E-01 -0.79871137729E-02  0.99225287076E-01  0.51100000000E-03 0. -1.
</event>
<event>
 8    1  0.1129676E+005  0.1043930E+01  0.7957747E-01            NaN
         13   -1    0    0    0    0  0.00000000000E+00  0.00000000000E+00  0.74505805969E-08  0.10566000000E+00  0.10566000000E+00 0.  1.
     999900   -1    0    0    0    0 -0.00000000000E+00 -0.00000000000E+00 -0.74505805969E-08  0.93827000000E+00  0.93827000000E+00 0. -1.
     999902    2    1    2    0    0  0.10940327009E-01  0.17435285830E-01 -0.10550495952E-01  0.10208000862E+01  0.10205380067E+01 0.  0.
     999903    2    3    3    0    0 -0.11765228831E+00  0.13896371763E-01  0.48172147075E-01  0.12951060830E+00  0.20427232204E-01 0.  0.
         14    1    1    2    0    0 -0.10940327009E-01 -0.17435285830E-01  0.10550495952E-01  0.23129913789E-01  0.00000000000E+00 0. -1.
     999901    1    3    3    0    0  0.12859261532E+00  0.35389140671E-02 -0.58722643027E-01  0.89128947791E+00  0.88000000000E+00 0. -1.
        -11    1    4    4    0    0 -0.31764344010E-01  0.66294361055E-02  0.22787278322E-01  0.39654055881E-01  0.51100000000E-03 0.  1.
         11    1    4    4    0    0 -0.85887944303E-01  0.72669356572E-02  0.25384868752E-01  0.89856552421E-01  0.51100000000E-03 0. -1.
</event>
<event>
 8    1  0.1129676E+005  0.1043930E+01  0.7957747E-01            NaN
         13   -1    0    0    0    0  0.00000000000E+00  0.00000000000E+00  0.74505805969E-08  0.10566000000E+00  0.10566000000E+00 0.  1.
     999900   -1    0    0    0    0 -0.00000000000E+00 -0.00000000000E+00 -0.74505805969E-08  0.93827000000E+00  0.93827000000E+00 0. -1.
     999902    2    1    2    0    0 -0.21797790338E-01  0.66248951100E-02  0.44942379695E-02  0.10207086505E+01  0.10204444708E+01 0.  0.
     999903    2    3    3    0    0 -0.22732528156E-01 -0.11984417940E+00 -0.41587266492E-01  0.13047339752E+00  0.20357100812E-01 0.  0.
         14    1    1    2    0    0  0.21797790338E-01 -0.66248951100E-02 -0.44942379695E-02  0.23221349525E-01  0.00000000000E+00 0.  1.
     999901    1    3    3    0    0  0.93473781808E-03  0.12646907451E+00  0.46081504461E-01  0.89023525295E+00  0.88000000000E+00 0.  1.
        -11    1    4    4    0    0 -0.24956703751E-01 -0.81644546664E-01 -0.29929327106E-01  0.90469303104E-01  0.51100000000E-03 0. -1.
         11    1    4    4    0    0  0.22241755948E-02 -0.38199632741E-01 -0.11657939386E-01  0.40004094420E-01  0.51100000000E-03 0.  1.
</event>
<event>
 8    1  0.1129676E+005  0.1043930E+01  0.7957747E-01            NaN
         13   -1    0    0    0    0  0.00000000000E+00  0.00000000000E+00  0.74505805969E-08  0.10566000000E+00  0.10566000000E+00 0. -1.
     999900   -1    0    0    0    0 -0.00000000000E+00 -0.00000000000E+00 -0.74505805969E-08  0.93827000000E+00  0.93827000000E+00 0.  1.
     999902    2    1    2    0    0 -0.35951804015E-02 -0.24415345634E-01  0.24709778369E-02  0.10191279808E+01  0.10188261388E+01 0.  0.
     999903    2    3    3    0    0 -0.71056831565E-01 -0.48177099442E-01  0.97144416302E-01  0.13116471846E+00  0.19925850751E-01 0.  0.
         14    1    1    2    0    0  0.35951804015E-02  0.24415345634E-01 -0.24709778369E-02  0.24802019193E-01  0.00000000000E+00 0.  1.
     999901    1    3    3    0    0  0.67461651164E-01  0.23761753807E-01 -0.94673438465E-01  0.88796326234E+00  0.88000000000E+00 0.  1.
        -11    1    4    4    0    0 -0.40802493089E-01 -0.28683142798E-01  0.70596576886E-01  0.86439018458E-01  0.51100000000E-03 0.  1.
         11    1    4    4    0    0 -0.30254338476E-01 -0.19493956644E-01  0.26547839417E-01  0.44725700005E-01  0.51100000000E-03 0. -1.
</event>
<event>
 8    1  0.1129676E+005  0.1043930E+01  0.7957747E-01            NaN
         13   -1    0    0    0    0  0.00000000000E+00  0.00000000000E+00  0.74505805969E-08  0.10566000000E+00  0.10566000000E+00 0.  1.
     999900   -1    0    0    0    0 -0.00000000000E+00 -0.00000000000E+00 -0.74505805969E-08  0.93827000000E+00  0.93827000000E+00 0. -1.
     999902    2    1    2    0    0  0.15323388367E-01 -0.60646057094E-03 -0.17111315963E-01  0.10209523770E+01  0.10206937763E+01 0.  0.
     999903    2    3    3    0    0 -0.12385405316E+00 -0.19226962319E-01 -0.26803091328E-01  0.12976720328E+00  0.20288390252E-01 0.  0.
         14    1    1    2    0    0 -0.15323388367E-01  0.60646057094E-03  0.17111315963E-01  0.22977623016E-01  0.00000000000E+00 0.  1.
     999901    1    3    3    0    0  0.13917744153E+00  0.18620501748E-01  0.96917753650E-02  0.89118517370E+00  0.88000000000E+00 0. -1.
        -11    1    4    4    0    0 -0.15341266459E-01  0.40383914305E-02 -0.52158930949E-02  0.16707175815E-01  0.51100000000E-03 0.  1.
         11    1    4    4    0    0 -0.10851278670E+00 -0.23265353750E-01 -0.21587198233E-01  0.11306002747E+00  0.51100000000E-03 0. -1.
</event>
<event>
 8    1  0.1129676E+005  0.1043930E+01  0.7957747E-01            NaN
         13   -1    0    0    0    0  0.00000000000E+00  0.00000000000E+00  0.74505805969E-08  0.10566000000E+00  0.10566000000E+00 0.  1.
     999900   -1    0    0    0    0 -0.00000000000E+00 -0.00000000000E+00 -0.74505805969E-08  0.93827000000E+00  0.93827000000E+00 0.  1.
     999902    2    1    2    0    0  0.78607666572E-03  0.16512917650E-01 -0.16905104584E-01  0.10202851924E+01  0.10200111749E+01 0.  0.
     999903    2    3    3    0    0 -0.94730200097E-01 -0.66447957422E-01 -0.58519359390E-01  0.13026406224E+00  0.12452655580E-01 0.  0.
         14    1    1    2    0    0 -0.78607666572E-03 -0.16512917650E-01  0.16905104584E-01  0.23644807609E-01  0.00000000000E+00 0. -1.
     999901    1    3    3    0    0  0.95516276763E-01  0.82960875072E-01  0.41614254805E-01  0.89002113015E+00  0.88000000000E+00 0. -1.
        -11    1    4    4    0    0 -0.63724702036E-01 -0.51517184279E-01 -0.40198366823E-01  0.91274463799E-01  0.51100000000E-03 0. -1.
         11    1    4    4    0    0 -0.31005498061E-01 -0.14930773143E-01 -0.18320992566E-01  0.38989598437E-01  0.51100000000E-03 0.  1.
</event>
<event>
 8    1  0.1129676E+005  0.1043930E+01  0.7957747E-01            NaN
         13   -1    0    0    0    0  0.00000000000E+00  0.00000000000E+00  0.74505805969E-08  0.10566000000E+00  0.10566000000E+00 0. -1.
     999900   -1    0    0    0    0 -0.00000000000E+00 -0.00000000000E+00 -0.74505805969E-08  0.93827000000E+00  0.93827000000E+00 0. -1.
     999902    2    1    2    0    0 -0.10625696245E-01 -0.14057320065E-01  0.15608533434E-01  0.10203898219E+01  0.10201182523E+01 0.  0.
     999903    2    3    3    0    0  0.92238382757E-02 -0.95733391302E-01  0.89937960942E-01  0.13326533887E+00  0.20514685544E-01 0.  0.
         14    1    1    2    0    0  0.10625696245E-01  0.14057320065E-01 -0.15608533434E-01  0.23540178081E-01  0.00000000000E+00 0.  1.
     999901    1    3    3    0    0 -0.19849534521E-01  0.81676071236E-01 -0.74329427508E-01  0.88712448305E+00  0.88000000000E+00 0. -1.
        -11    1    4    4    0    0  0.12786871793E-01 -0.64043314547E-01  0.50570070206E-01  0.82599293883E-01  0.51100000000E-03 0. -1.
         11    1    4    4    0    0 -0.35630335169E-02 -0.31690076755E-01  0.39367890735E-01  0.50666044986E-01  0.51100000000E-03 0.  1.
</event>
<event>
 8    1  0.1129676E+005  0.1043930E+01  0.7957747E-01            NaN
         13   -1    0    0    0    0  0.00000000000E+00  0.00000000000E+00  0.74505805969E-08  0.10566000000E+00  0.10566000000E+00 0. -1.
     999900   -1    0    0    0    0 -0.00000000000E+00 -0.00000000000E+00 -0.74505805969E-08  0.93827000000E+00  0.93827000000E+00 0. -1.
     999902    2    1    2    0    0 -0.17190894878E-01 -0.54870629333E-02 -0.14959839971E-01  0.10204900440E+01  0.10202208086E+01 0.  0.
     999903    2    3    3    0    0 -0.16972692698E-01 -0.91974483502E-01 -0.92272805450E-01  0.13287671817E+00  0.19863879074E-01 0.  0.
         14    1    1    2    0    0  0.17190894878E-01  0.54870629333E-02  0.14959839971E-01  0.23439956022E-01  0.00000000000E+00 0.  1.
     999901    1    3    3    0    0 -0.21820218069E-03  0.86487420569E-01  0.77312965479E-01  0.88761332581E+00  0.88000000000E+00 0. -1.
        -11    1    4    4    0    0 -0.50066120985E-02 -0.41355270962E-01 -0.54465185699E-01  0.68571438480E-01  0.51100000000E-03 0.  1.
         11    1    4    4    0    0 -0.11966080599E-01 -0.50619212540E-01 -0.37807619751E-01  0.64305279685E-01  0.51100000000E-03 0. -1.
</event>
<event>
 8    1  0.1129676E+005  0.1043930E+01  0.7957747E-01            NaN
         13   -1    0    0    0    0  0.00000000000E+00  0.00000000000E+00  0.74505805969E-08  0.10566000000E+00  0.10566000000E+00 0. -1.
     999900   -1    0    0    0    0 -0.00000000000E+00 -0.00000000000E+00 -0.74505805969E-08  0.93827000000E+00  0.93827000000E+00 0. -1.
     999902    2    1    2    0    0 -0.17613631709E-01 -0.15789346790E-01 -0.36807262805E-02  0.10199906759E+01  0.10197097075E+01 0.  0.
     999903    2    3    3    0    0  0.80192739260E-01 -0.43326064818E-01 -0.90344314742E-01  0.12991487314E+00  0.20192962464E-01 0.  0.
         14    1    1    2    0    0  0.17613631709E-01  0.15789346790E-01  0.36807262805E-02  0.23939324133E-01  0.00000000000E+00 0.  1.
     999901    1    3    3    0    0 -0.97806370968E-01  0.27536718028E-01  0.86663588462E-01  0.89007580273E+00  0.88000000000E+00 0.  1.
        -11    1    4    4    0    0  0.46588213924E-02 -0.65484563757E-02 -0.15188414426E-01  0.17191159107E-01  0.51100000000E-03 0.  1.
         11    1    4    4    0    0  0.75533917867E-01 -0.36777608442E-01 -0.75155900317E-01  0.11272371403E+00  0.51100000000E-03 0. -1.
</event>
<event>
 8    1  0.1129676E+005  0.1043930E+01  0.7957747E-01            NaN
         13   -1    0    0    0    0  0.00000000000E+00  0.00000000000E+00  0.74505805969E-08  0.10566000000E+00  0.10566000000E+00 0.  1.
     999900   -1    0    0    0    0 -0.00000000000E+00 -0.00000000000E+00 -0.74505805969E-08  0.93827000000E+00  0.93827000000E+00 0.  1.
     999902    2    1    2    0    0  0.46838103717E-02  0.22310032885E-01  0.79024777463E-02  0.10198027374E+01  0.10195172869E+01 0.  0.
     999903    2    3    3    0    0 -0.34913666970E-01 -0.30489707796E-02 -0.12245017320E+00  0.12895883810E+00  0.20200907020E-01 0.  0.
         14    1    1    2    0    0 -0.46838103717E-02 -0.22310032885E-01 -0.79024777463E-02  0.24127262618E-01  0.00000000000E+00 0. -1.
     999901    1    3    3    0    0  0.39597477342E-01  0.25359003664E-01  0.13035265094E+00  0.89084389928E+00  0.88000000000E+00 0. -1.
        -11    1    4    4    0    0 -0.21897956638E-01 -0.38324829101E-02 -0.10405952186E+00  0.10640889832E+00  0.51100000000E-03 0. -1.
         11    1    4    4    0    0 -0.13015710332E-01  0.78351213049E-03 -0.18390651335E-01  0.22549939784E-01  0.51100000000E-03 0.  1.
</event>
<event>
 8    1  0.1129676E+005  0.1043930E+01  0.7957747E-01            NaN
         13   -1    0    0    0    0  0.00000000000E+00  0.00000000000E+00  0.74505805969E-08  0.10566000000E+00  0.10566000000E+00 0.  1.
     999900   -1    0    0    0    0 -0.00000000000E+00 -0.00000000000E+00 -0.74505805969E-08  0.93827000000E+00  0.93827000000E+00 0.  1.
     999902    2    1    2    0    0  0.26265408546E-01  0.76530198440E-02 -0.97520849492E-02  0.10148861786E+01  0.10144705082E+01 0.  0.
     999903    2    3    3    0    0  0.49627748848E-01 -0.10923436229E+00  0.29798506884E-01  0.12596958617E+00  0.24193516995E-01 0.  0.
         14    1    1    2    0    0 -0.26265408546E-01 -0.76530198440E-02  0.97520849492E-02  0.29043821368E-01  0.00000000000E+00 0. -1.
     999901    1    3    3    0    0 -0.23362340302E-01  0.11688738214E+00 -0.39550591833E-01  0.88891659247E+00  0.88000000000E+00 0.  1.
        -11    1    4    4    0    0  0.86556573772E-02 -0.30332568150E-01  0.17894133779E-01  0.36269081046E-01  0.51100000000E-03 0.  1.
         11    1    4    4    0    0  0.40972091470E-01 -0.78901794144E-01  0.11904373105E-01  0.89700505119E-01  0.51100000000E-03 0. -1.
</event>
<event>
 8    1  0.1129676E+005  0.1043930E+01  0.7957747E-01            NaN
         13   -1    0    0    0    0  0.00000000000E+00  0.00000000000E+00  0.74505805969E-08  0.10566000000E+00  0.10566000000E+00 0. -1.
     999900   -1    0    0    0    0 -0.00000000000E+00 -0.00000000000E+00 -0.74505805969E-08  0.93827000000E+00  0.93827000000E+00 0.  1.
     999902    2    1    2    0    0  0.16387374919E-01  0.75282921382E-02 -0.14201356056E-01  0.10209757029E+01  0.10207176330E+01 0.  0.
     999903    2    3    3    0    0 -0.50369839080E-01 -0.43925407221E-01  0.10780775257E+00  0.12856871542E+00  0.20996213531E-01 0.  0.
         14    1    1    2    0    0 -0.16387374919E-01 -0.75282921382E-02  0.14201356056E-01  0.22954297050E-01  0.00000000000E+00 0. -1.
     999901    1    3    3    0    0  0.66757213998E-01  0.51453699359E-01 -0.12200910863E+00  0.89240698753E+00  0.88000000000E+00 0.  1.
        -11    1    4    4    0    0 -0.49203685557E-01 -0.39456686221E-01  0.88283555485E-01  0.10849921682E+00  0.51100000000E-03 0. -1.
         11    1    4    4    0    0 -0.11661535226E-02 -0.44687209995E-02  0.19524197086E-01  0.20069498605E-01  0.51100000000E-03 0.  1.
</event>
<event>
 8    1  0.1129676E+005  0.1043930E+01  0.7957747E-01            NaN
         13   -1    0    0    0    0  0.00000000000E+00  0.00000000000E+00  0.74505805969E-08  0.10566000000E+00  0.10566000000E+00 0.  1.
     999900   -1    0    0    0    0 -0.00000000000E+00 -0.00000000000E+00 -0.74505805969E-08  0.93827000000E+00  0.93827000000E+00 0.  1.
     999902    2    1    2    0    0 -0.34545167919E-04 -0.10873185869E-01 -0.21642109541E-01  0.10197100027E+01  0.10194223273E+01 0.  0.
     999903    2    3    3    0    0  0.29176057809E-01 -0.10576788256E+00  0.66472290879E-01  0.12975359345E+00  0.19476709866E-01 0.  0.
         14    1    1    2    0    0  0.34545167919E-04  0.10873185869E-01  0.21642109541E-01  0.24219997310E-01  0.00000000000E+00 0.  1.
     999901    1    3    3    0    0 -0.29210602977E-01  0.94894696693E-01 -0.88114400420E-01  0.88995640924E+00  0.88000000000E+00 0.  1.
        -11    1    4    4    0    0  0.25102330994E-01 -0.61555514635E-01  0.33467290579E-01  0.74428012623E-01  0.51100000000E-03 0.  1.
         11    1    4    4    0    0  0.40737268146E-02 -0.44212367928E-01  0.33005000300E-01  0.55325580826E-01  0.51100000000E-03 0. -1.
</event>
<event>
 8    1  0.1129676E+005  0.1043930E+01  0.7957747E-01            NaN
         13   -1    0    0    0    0  0.00000000000E+00  0.00000000000E+00  0.74505805969E-08  0.10566000000E+00  0.10566000000E+00 0. -1.
     999900   -1    0    0    0    0 -0.00000000000E+00 -0.00000000000E+00 -0.74505805969E-08  0.93827000000E+00  0.93827000000E+00 0. -1.
     999902    2    1    2    0    0  0.98854788509E-02 -0.13055234846E-01  0.16649789495E-01  0.10205766846E+01  0.10203094589E+01 0.  0.
     999903    2    3    3    0    0  0.52088441452E-01 -0.70578162961E-01  0.99145540504E-01  0.13384362093E+00  0.19743197347E-01 0.  0.
         14    1    1    2    0    0 -0.98854788509E-02  0.13055234846E-01 -0.16649789495E-01  0.23353315379E-01  0.00000000000E+00 0.  1.
     999901    1    3    3    0    0 -0.42202962601E-01  0.57522928116E-01 -0.82495751009E-01  0.88673306369E+00  0.88000000000E+00 0. -1.
        -11    1    4    4    0    0  0.29943637479E-01 -0.54828077982E-01  0.73646615847E-01  0.96575487093E-01  0.51100000000E-03 0. -1.
         11    1    4    4    0    0  0.22144803973E-01 -0.15750084980E-01  0.25498924657E-01  0.37268133835E-01  0.51100000000E-03 0.  1.
</event>
<event>
 8    1  0.1129676E+005  0.1043930E+01  0.7957747E-01            NaN
         13   -1    0    0    0    0  0.00000000000E+00  0.00000000000E+00  0.74505805969E-08  0.10566000000E+00  0.10566000000E+00 0.  1.
     999900   -1    0    0    0    0 -0.00000000000E+00 -0.00000000000E+00 -0.74505805969E-08  0.93827000000E+00  0.93827000000E+00 0.  1.
     999902    2    1    2    0    0 -0.21245484833E-01  0.11618969854E-02  0.11955424496E-01  0.10195240006E+01  0.10192318358E+01 0.  0.
     999903    2    3    3    0    0  0.12089290575E+00 -0.26706891510E-04  0.35979041169E-01  0.12779429438E+00  0.20537645888E-01 0.  0.
         14    1    1    2    0    0  0.21245484833E-01 -0.11618969854E-02 -0.11955424496E-01  0.24405999370E-01  0.00000000000E+00 0.  1.
     999901    1    3    3    0    0 -0.14213839058E+00  0.11886038769E-02 -0.24023616673E-01  0.89172970625E+00  0.88000000000E+00 0.  1.
        -11    1    4    4    0    0  0.27581709761E-01  0.73406127035E-02  0.13248387309E-01  0.31470878530E-01  0.51100000000E-03 0. -1.
         11    1    4    4    0    0  0.93311195986E-01 -0.73673195950E-02  0.22730653860E-01  0.96323415846E-01  0.51100000000E-03 0.  1.
</event>
<event>
 8    1  0.1129676E+005  0.1043930E+01  0.7957747E-01            NaN
         13   -1    0    0    0    0  0.00000000000E+00  0.00000000000E+00  0.74505805969E-08  0.10566000000E+00  0.10566000000E+00 0. -1.
     999900   -1    0    0    0    0 -0.00000000000E+00 -0.00000000000E+00 -0.74505805969E-08  0.93827000000E+00  0.93827000000E+00 0.  1.
     999902    2    1    2    0    0  0.23202530074E-01 -0.12015606314E-02 -0.26621908690E-02  0.10205443546E+01  0.10202763799E+01 0.  0.
     999903    2    3    3    0    0 -0.11782587076E+00  0.19908093035E-01 -0.41963373661E-01  0.12819957243E+00  0.19873038378E-01 0.  0.
         14    1    1    2    0    0 -0.23202530074E-01  0.12015606314E-02  0.26621908690E-02  0.23385645384E-01  0.00000000000E+00 0. -1.
     999901    1    3    3    0    0  0.14102840083E+00 -0.21109653666E-01  0.39301182792E-01  0.89234478218E+00  0.88000000000E+00 0. -1.
        -11    1    4    4    0    0 -0.51791373775E-01  0.47905935324E-02 -0.87309756147E-02  0.52742651053E-01  0.51100000000E-03 0.  1.
         11    1    4    4    0    0 -0.66034496985E-01  0.15117499502E-01 -0.33232398046E-01  0.75456921380E-01  0.51100000000E-03 0. -1.
</event>
<event>
 8    1  0.1129676E+005  0.1043930E+01  0.7957747E-01            NaN
         13   -1    0    0    0    0  0.00000000000E+00  0.00000000000E+00  0.74505805969E-08  0.10566000000E+00  0.10566000000E+00 0. -1.
     999900   -1    0    0    0    0 -0.00000000000E+00 -0.00000000000E+00 -0.74505805969E-08  0.93827000000E+00  0.93827000000E+00 0.  1.
     999902    2    1    2    0    0  0.58446615711E-02 -0.23172142416E-01  0.89965299868E-03  0.10200152006E+01  0.10197348145E+01 0.  0.
     999903    2    3    3    0    0  0.85902988395E-02 -0.13086553337E+00  0.13811675601E-01  0.13335172146E+00  0.19807528217E-01 0.  0.
         14    1    1    2    0    0 -0.58446615711E-02  0.23172142416E-01 -0.89965299868E-03  0.23914799362E-01  0.00000000000E+00 0. -1.
     999901    1    3    3    0    0 -0.27456372684E-02  0.10769339096E+00 -0.12912022603E-01  0.88666347918E+00  0.88000000000E+00 0. -1.
        -11    1    4    4    0    0  0.72371885045E-02 -0.11208127022E+00  0.46746063563E-02  0.11241308242E+00  0.51100000000E-03 0. -1.
         11    1    4    4    0    0  0.13531103350E-02 -0.18784263149E-01  0.91370692451E-02  0.20938639044E-01  0.51100000000E-03 0.  1.
</event>
<event>
 8    1  0.1129676E+005  0.1043930E+01  0.7957747E-01            NaN
         13   -1    0    0    0    0  0.00000000000E+00  0.00000000000E+00  0.74505805969E-08  0.10566000000E+00  0.10566000000E+00 0.  1.
     999900   -1    0    0    0    0 -0.00000000000E+00 -0.00000000000E+00 -0.74505805969E-08  0.93827000000E+00  0.93827000000E+00 0. -1.
     999902    2    1    2    0    0 -0.15926545056E-01  0.14375151873E-01  0.12397346886E-01  0.10191510969E+01  0.10188498242E+01 0.  0.
     999903    2    3    3    0    0  0.96602021083E-02 -0.75394808253E-01  0.10311669562E+00  0.12957629532E+00  0.19474772852E-01 0.  0.
         14    1    1    2    0    0  0.15926545056E-01 -0.14375151873E-01 -0.12397346886E-01  0.24778903095E-01  0.00000000000E+00 0.  1.
     999901    1    3    3    0    0 -0.25586747164E-01  0.89769960126E-01 -0.90719348736E-01  0.88957480158E+00  0.88000000000E+00 0. -1.
        -11    1    4    4    0    0 -0.37917289470E-02 -0.25646477797E-01  0.25207618550E-01  0.36163575401E-01  0.51100000000E-03 0.  1.
         11    1    4    4    0    0  0.13451931055E-01 -0.49748330456E-01  0.77909077073E-01  0.93412719924E-01  0.51100000000E-03 0. -1.
</event>
<event>
 8    1  0.1129676E+005  0.1043930E+01  0.7957747E-01            NaN
         13   -1    0    0    0    0  0.00000000000E+00  0.00000000000E+00  0.74505805969E-08  0.10566000000E+00  0.10566000000E+00 0. -1.
     999900   -1    0    0    0    0 -0.00000000000E+00 -0.00000000000E+00 -0.74505805969E-08  0.93827000000E+00  0.93827000000E+00 0. -1.
     999902    2    1    2    0    0 -0.79063197151E-02 -0.18617488995E-01 -0.90338362963E-02  0.10217775512E+01  0.10215373871E+01 0.  0.
     999903    2    3    3    0    0 -0.68507102125E-01  0.10577297721E-02  0.11026011666E+00  0.13144580617E+00  0.20648602841E-01 0.  0.
         14    1    1    2    0    0  0.79063197151E-02  0.18617488995E-01  0.90338362963E-02  0.22152448761E-01  0.00000000000E+00 0. -1.
     999901    1    3    3    0    0  0.60600782410E-01 -0.19675218767E-01 -0.11929395296E+00  0.89033174507E+00  0.88000000000E+00 0. -1.
        -11    1    4    4    0    0 -0.16762475523E-01  0.65106150654E-02  0.17552837562E-01  0.25134277823E-01  0.51100000000E-03 0. -1.
         11    1    4    4    0    0 -0.51744626601E-01 -0.54528852933E-02  0.92707279103E-01  0.10631152835E+00  0.51100000000E-03 0.  1.
</event>
<event>
 8    1  0.1129676E+005  0.1043930E+01  0.7957747E-01            NaN
         13   -1    0    0    0    0  0.00000000000E+00  0.00000000000E+00  0.74505805969E-08  0.10566000000E+00  0.10566000000E+00 0.  1.
     999900   -1    0    0    0    0 -0.00000000000E+00 -0.00000000000E+00 -0.74505805969E-08  0.93827000000E+00  0.93827000000E+00 0. -1.
     999902    2    1    2    0    0 -0.18540424048E-01 -0.10825578630E-01  0.88057603575E-02  0.10207247874E+01  0.10204609790E+01 0.  0.
     999903    2    3    3    0    0  0.32644743042E-01 -0.85113569665E-01 -0.91303060215E-01  0.13046617166E+00  0.19369412805E-01 0.  0.
         14    1    1    2    0    0  0.18540424048E-01  0.10825578630E-01 -0.88057603575E-02  0.23205212605E-01  0.00000000000E+00 0. -1.
     999901    1    3    3    0    0 -0.51185167090E-01  0.74287991035E-01  0.10010882057E+00  0.89025861574E+00  0.88000000000E+00 0.  1.
        -11    1    4    4    0    0  0.23857471540E-01 -0.73539521146E-01 -0.67815256998E-01  0.10284167599E+00  0.51100000000E-03 0.  1.
         11    1    4    4    0    0  0.87872715019E-02 -0.11574048519E-01 -0.23487803217E-01  0.27624495661E-01  0.51100000000E-03 0. -1.
</event>
<event>
 7    1  0.1129676E+005  0.1043930E+01  0.7957747E-01            NaN
         13   -1    0    0    0    0  0.00000000000E+00  0.00000000000E+00  0.74505805969E-08  0.10566000000E+00  0.10566000000E+00 0.  1.
     999900   -1    0    0    0    0 -0.00000000000E+00 -0.00000000000E+00 -0.74505805969E-08  0.93827000000E+00  0.93827000000E+00 0. -1.
     999903    2    1    2    0    0 -0.57351601543E-01  0.71781630545E-01  0.65391441624E-01  0.11454877351E+00  0.20089106319E-01 0.  0.
         14    1    1    2    0    0  0.31758361425E-01 -0.69324455419E-02  0.26383993404E-01  0.41866065370E-01  0.00000000000E+00 0.  1.
     999901    1    1    2    0    0  0.25593240117E-01 -0.64849185003E-01 -0.91775435028E-01  0.88751516112E+00  0.88000000000E+00 0. -1.
        -11    1    3    3    0    0 -0.21578942765E-01  0.37896246361E-01  0.39706752599E-01  0.58980196525E-01  0.51100000000E-03 0.  1.
         11    1    3    3    0    0 -0.35772658778E-01  0.33885384184E-01  0.25684689025E-01  0.55568576990E-01  0.51100000000E-03 0. -1.
</event>
<event>
 8    1  0.1129676E+005  0.1043930E+01  0.7957747E-01            NaN
         13   -1    0    0    0    0  0.00000000000E+00  0.00000000000E+00  0.74505805969E-08  0.10566000000E+00  0.10566000000E+00 0.  1.
     999900   -1    0    0    0    0 -0.00000000000E+00 -0.00000000000E+00 -0.74505805969E-08  0.93827000000E+00  0.93827000000E+00 0.  1.
     999902    2    1    2    0    0  0.12444517891E-01  0.78674283798E-02  0.19098817489E-01  0.10198151232E+01  0.10195299692E+01 0.  0.
     999903    2    3    3    0    0 -0.12757686548E-01  0.93655620646E-01 -0.85582398470E-01  0.12911151253E+00  0.20280579261E-01 0.  0.
         14    1    1    2    0    0 -0.12444517891E-01 -0.78674283798E-02 -0.19098817489E-01  0.24114876826E-01  0.00000000000E+00 0. -1.
     999901    1    3    3    0    0  0.25202204438E-01 -0.85788192266E-01  0.10468121596E+00  0.89070361064E+00  0.88000000000E+00 0. -1.
        -11    1    4    4    0    0 -0.69386907428E-02  0.11737352547E-01 -0.18967204368E-01  0.23365077286E-01  0.51100000000E-03 0.  1.
         11    1    4    4    0    0 -0.58189958047E-02  0.81918268099E-01 -0.66615194103E-01  0.10574643524E+00  0.51100000000E-03 0. -1.
</event>
<event>
 8    1  0.1129676E+005  0.1043930E+01  0.7957747E-01            NaN
         13   -1    0    0    0    0  0.00000000000E+00  0.00000000000E+00  0.74505805969E-08  0.10566000000E+00  0.10566000000E+00 0. -1.
     999900   -1    0    0    0    0 -0.00000000000E+00 -0.00000000000E+00 -0.74505805969E-08  0.93827000000E+00  0.93827000000E+00 0.  1.
     999902    2    1    2    0    0  0.19038385087E-01  0.95329017272E-02  0.69195253897E-02  0.10215421427E+01  0.10212967900E+01 0.  0.
     999903    2    3    3    0    0  0.13209899362E+00  0.68869632149E-02  0.10157681072E-01  0.13429911635E+00  0.20868631725E-01 0.  0.
         14    1    1    2    0    0 -0.19038385087E-01 -0.95329017272E-02 -0.69195253897E-02  0.22387857282E-01  0.00000000000E+00 0.  1.
     999901    1    3    3    0    0 -0.11306060853E+00  0.26459385123E-02 -0.32381556819E-02  0.88724302637E+00  0.88000000000E+00 0. -1.
        -11    1    4    4    0    0  0.26142135667E-01  0.91955529797E-02  0.51959720571E-02  0.28199799617E-01  0.51100000000E-03 0. -1.
         11    1    4    4    0    0  0.10595685795E+00 -0.23085897648E-02  0.49617090145E-02  0.10609931673E+00  0.51100000000E-03 0.  1.
</event>
<event>
 8    1  0.1129676E+005  0.1043930E+01  0.7957747E-01            NaN
         13   -1    0    0    0    0  0.00000000000E+00  0.00000000000E+00  0.74505805969E-08  0.10566000000E+00  0.10566000000E+00 0.  1.
     999900   -1    0    0    0    0 -0.00000000000E+00 -0.00000000000E+00 -0.74505805969E-08  0.93827000000E+00  0.93827000000E+00 0.  1.
     999902    2    1    2    0    0 -0.15730627766E-01  0.32883813914E-01  0.96905996052E-02  0.10062112303E+01  0.10055040201E+01 0.  0.
     999903    2    3    3    0    0 -0.74670985894E-01  0.89383239358E-01 -0.30946194588E-01  0.12149799996E+00  0.15458894575E-01 0.  0.
         14    1    1    2    0    0  0.15730627766E-01 -0.32883813914E-01 -0.96905996052E-02  0.37718769706E-01  0.00000000000E+00 0. -1.
     999901    1    3    3    0    0  0.58940358128E-01 -0.56499425444E-01  0.40636794193E-01  0.88471323034E+00  0.88000000000E+00 0.  1.
        -11    1    4    4    0    0 -0.29561069311E-01  0.47399148975E-01 -0.14599774644E-01  0.57740373076E-01  0.51100000000E-03 0.  1.
         11    1    4    4    0    0 -0.45109916583E-01  0.41984090383E-01 -0.16346419943E-01  0.63757626880E-01  0.51100000000E-03 0. -1.
</event>
<event>
 8    1  0.1129676E+005  0.1043930E+01  0.7957747E-01            NaN
         13   -1    0    0    0    0  0.00000000000E+00  0.00000000000E+00  0.74505805969E-08  0.10566000000E+00  0.10566000000E+00 0.  1.
     999900   -1    0    0    0    0 -0.00000000000E+00 -0.00000000000E+00 -0.74505805969E-08  0.93827000000E+00  0.93827000000E+00 0.  1.
     999902    2    1    2    0    0  0.79152769778E-02 -0.13524331805E-01  0.15542333313E-01  0.10218591304E+01  0.10216207511E+01 0.  0.
     999903    2    3    3    0    0  0.56982580013E-02  0.10277553967E+00 -0.76876922152E-01  0.12940638987E+00  0.15513570891E-01 0.  0.
         14    1    1    2    0    0 -0.79152769778E-02  0.13524331805E-01 -0.15542333313E-01  0.22070869607E-01  0.00000000000E+00 0. -1.
     999901    1    3    3    0    0  0.22170189765E-02 -0.11629987148E+00  0.92419255465E-01  0.89245274052E+00  0.88000000000E+00 0.  1.
        -11    1    4    4    0    0  0.10692914874E-01  0.59966733627E-01 -0.42529471914E-01  0.74292426752E-01  0.51100000000E-03 0.  1.
         11    1    4    4    0    0 -0.49946568728E-02  0.42808806044E-01 -0.34347450238E-01  0.55113963123E-01  0.51100000000E-03 0. -1.
</event>
<event>
 8    1  0.1129676E+005  0.1043930E+01  0.7957747E-01            NaN
         13   -1    0    0    0    0  0.00000000000E+00  0.00000000000E+00  0.74505805969E-08  0.10566000000E+00  0.10566000000E+00 0.  1.
     999900   -1    0    0    0    0 -0.00000000000E+00 -0.00000000000E+00 -0.74505805969E-08  0.93827000000E+00  0.93827000000E+00 0.  1.
     999902    2    1    2    0    0  0.10206278938E-01 -0.21239355932E-01 -0.16991103905E-02  0.10203044768E+01  0.10200309113E+01 0.  0.
     999903    2    3    3    0    0 -0.49480163588E-01 -0.34717673731E-01  0.11381939200E+00  0.13064799205E+00  0.21457874394E-01 0.  0.
         14    1    1    2    0    0 -0.10206278938E-01  0.21239355932E-01  0.16991103905E-02  0.23625523196E-01  0.00000000000E+00 0. -1.
     999901    1    3    3    0    0  0.59686442526E-01  0.13478317799E-01 -0.11551850239E+00  0.88965648475E+00  0.88000000000E+00 0.  1.
        -11    1    4    4    0    0 -0.37421597627E-01 -0.25139948004E-01  0.10099522761E+00  0.11060149220E+00  0.51100000000E-03 0. -1.
         11    1    4    4    0    0 -0.12058565961E-01 -0.95777257274E-02  0.12824164387E-01  0.20046499853E-01  0.51100000000E-03 0.  1.
</event>
<event>
 8    1  0.1129676E+005  0.1043930E+01  0.7957747E-01            NaN
         13   -1    0    0    0    0  0.00000000000E+00  0.00000000000E+00  0.74505805969E-08  0.10566000000E+00  0.10566000000E+00 0.  1.
     999900   -1    0    0    0    0 -0.00000000000E+00 -0.00000000000E+00 -0.74505805969E-08  0.93827000000E+00  0.93827000000E+00 0. -1.
     999902    2    1    2    0    0 -0.15253368245E-01  0.42774326749E-02 -0.16751732049E-01  0.10208739336E+01  0.10206135439E+01 0.  0.
     999903    2    3    3    0    0 -0.40936743340E-01 -0.10747758762E+00 -0.61993816093E-01  0.13228197631E+00  0.20689108893E-01 0.  0.
         14    1    1    2    0    0  0.15253368245E-01 -0.42774326749E-02  0.16751732049E-01  0.23056066441E-01  0.00000000000E+00 0.  1.
     999901    1    3    3    0    0  0.25683375095E-01  0.11175502030E+00  0.45242084044E-01  0.88859195725E+00  0.88000000000E+00 0.  1.
        -11    1    4    4    0    0 -0.30405905280E-01 -0.78050018239E-01 -0.34285666493E-01  0.90510178825E-01  0.51100000000E-03 0.  1.
         11    1    4    4    0    0 -0.10530838059E-01 -0.29427569383E-01 -0.27708149599E-01  0.41771797486E-01  0.51100000000E-03 0. -1.
</event>
<event>
 8    1  0.1129676E+005  0.1043930E+01  0.7957747E-01            NaN
         13   -1    0    0    0    0  0.00000000000E+00  0.00000000000E+00  0.74505805969E-08  0.10566000000E+00  0.10566000000E+00 0. -1.
     999900   -1    0    0    0    0 -0.00000000000E+00 -0.00000000000E+00 -0.74505805969E-08  0.93827000000E+00  0.93827000000E+00 0. -1.
     999902    2    1    2    0    0 -0.69649982268E-02 -0.24801292159E-01  0.24824508760E-02  0.10180499332E+01  0.10177209287E+01 0.  0.
     999903    2    3    3    0    0 -0.18173667737E-01 -0.12469155758E+00  0.32983560029E-01  0.13180277976E+00  0.20144249504E-01 0.  0.
         14    1    1    2    0    0  0.69649982268E-02  0.24801292159E-01 -0.24824508760E-02  0.25880066759E-01  0.00000000000E+00 0.  1.
     999901    1    3    3    0    0  0.11208669510E-01  0.99890265424E-01 -0.30501109153E-01  0.88624715348E+00  0.88000000000E+00 0.  1.
        -11    1    4    4    0    0 -0.15523533390E-01 -0.52050657127E-01  0.20441820185E-01  0.58037747456E-01  0.51100000000E-03 0. -1.
         11    1    4    4    0    0 -0.26501343465E-02 -0.72640900456E-01  0.12541739844E-01  0.73765032302E-01  0.51100000000E-03 0.  1.
</event>
<event>
 8    1  0.1129676E+005  0.1043930E+01  0.7957747E-01            NaN
         13   -1    0    0    0    0  0.00000000000E+00  0.00000000000E+00  0.74505805969E-08  0.10566000000E+00  0.10566000000E+00 0. -1.
     999900   -1    0    0    0    0 -0.00000000000E+00 -0.00000000000E+00 -0.74505805969E-08  0.93827000000E+00  0.93827000000E+00 0.  1.
     999902    2    1    2    0    0  0.66950403578E-02 -0.24015590042E-01  0.75636160434E-02  0.10178765853E+01  0.10175431010E+01 0.  0.
     999903    2    3    3    0    0  0.14885536185E-01 -0.25504839059E-01 -0.12349164621E+00  0.12813236145E+00  0.17194166622E-01 0.  0.
         14    1    1    2    0    0 -0.66950403578E-02  0.24015590042E-01 -0.75636160434E-02  0.26053414711E-01  0.00000000000E+00 0. -1.
     999901    1    3    3    0    0 -0.81904958267E-02  0.14892490176E-02  0.13105526225E+00  0.88974422384E+00  0.88000000000E+00 0. -1.
        -11    1    4    4    0    0  0.14907975534E-01 -0.88004795444E-02 -0.68638665146E-01  0.70789996812E-01  0.51100000000E-03 0. -1.
         11    1    4    4    0    0 -0.22439349585E-04 -0.16704359515E-01 -0.54852981062E-01  0.57342364642E-01  0.51100000000E-03 0.  1.
</event>
<event>
 8    1  0.1129676E+005  0.1043930E+01  0.7957747E-01            NaN
         13   -1    0    0    0    0  0.00000000000E+00  0.00000000000E+00  0.74505805969E-08  0.10566000000E+00  0.10566000000E+00 0. -1.
     999900   -1    0    0    0    0 -0.00000000000E+00 -0.00000000000E+00 -0.74505805969E-08  0.93827000000E+00  0.93827000000E+00 0. -1.
     999902    2    1    2    0    0  0.11635456839E-01  0.95580065633E-02 -0.17551168662E-01  0.10208046272E+01  0.10205426518E+01 0.  0.
     999903    2    3    3    0    0 -0.10084718195E+00 -0.77608803312E-01  0.83519410578E-02  0.12899670626E+00  0.19419445072E-01 0.  0.
         14    1    1    2    0    0 -0.11635456839E-01 -0.95580065633E-02  0.17551168662E-01  0.23125372791E-01  0.00000000000E+00 0. -1.
     999901    1    3    3    0    0  0.11248263879E+00  0.87166809875E-01 -0.25903109720E-01  0.89180792095E+00  0.88000000000E+00 0. -1.
        -11    1    4    4    0    0 -0.65288761725E-01 -0.40166646499E-01  0.10154735302E-01  0.77326332311E-01  0.51100000000E-03 0.  1.
         11    1    4    4    0    0 -0.35558420229E-01 -0.37442156812E-01 -0.18027942446E-02  0.51670373949E-01  0.51100000000E-03 0. -1.
</event>
<event>
 8    1  0.1129676E+005  0.1043930E+01  0.7957747E-01            NaN
         13   -1    0    0    0    0  0.00000000000E+00  0.00000000000E+00  0.74505805969E-08  0.10566000000E+00  0.10566000000E+00 0. -1.
     999900   -1    0    0    0    0 -0.00000000000E+00 -0.00000000000E+00 -0.74505805969E-08  0.93827000000E+00  0.93827000000E+00 0. -1.
     999902    2    1    2    0    0  0.22659692177E-01  0.25720871134E-02 -0.14487228809E-02  0.10210788276E+01  0.10208230974E+01 0.  0.
     999903    2    3    3    0    0 -0.11144098379E+00  0.32149720226E-01 -0.52863042748E-01  0.12894584427E+00  0.19489281338E-01 0.  0.
         14    1    1    2    0    0 -0.22659692177E-01 -0.25720871134E-02  0.14487228809E-02  0.22851172391E-01  0.00000000000E+00 0. -1.
     999901    1    3    3    0    0  0.13410067597E+00 -0.29577633112E-01  0.51414319867E-01  0.89213298334E+00  0.88000000000E+00 0. -1.
        -11    1    4    4    0    0 -0.64510602248E-01  0.24608244908E-01 -0.39593471730E-01  0.79593263813E-01  0.51100000000E-03 0. -1.
         11    1    4    4    0    0 -0.46930381542E-01  0.75414753174E-02 -0.13269571018E-01  0.49352580456E-01  0.51100000000E-03 0.  1.
</event>
<event>
 8    1  0.1129676E+005  0.1043930E+01  0.7957747E-01            NaN
         13   -1    0    0    0    0  0.00000000000E+00  0.00000000000E+00  0.74505805969E-08  0.10566000000E+00  0.10566000000E+00 0.  1.
     999900   -1    0    0    0    0 -0.00000000000E+00 -0.00000000000E+00 -0.74505805969E-08  0.93827000000E+00  0.93827000000E+00 0.  1.
     999902    2    1    2    0    0  0.16331176996E-01 -0.13896206476E-01 -0.12094638575E-01  0.10193110606E+01  0.10190137124E+01 0.  0.
     999903    2    3    3    0    0  0.52089539446E-01 -0.65836828118E-01 -0.10076860146E+00  0.13260955479E+00  0.19574854401E-01 0.  0.
         14    1    1    2    0    0 -0.16331176996E-01  0.13896206476E-01  0.12094638575E-01  0.24618939432E-01  0.00000000000E+00 0.  1.
     999901    1    3    3    0    0 -0.35758362450E-01  0.51940621641E-01  0.88673962882E-01  0.88670150578E+00  0.88000000000E+00 0. -1.
        -11    1    4    4    0    0  0.27912018266E-01 -0.26173898163E-01 -0.33496890366E-01  0.50857216734E-01  0.51100000000E-03 0.  1.
         11    1    4    4    0    0  0.24177521180E-01 -0.39662929955E-01 -0.67271711090E-01  0.81752338052E-01  0.51100000000E-03 0. -1.
</event>
<event>
 8    1  0.1129676E+005  0.1043930E+01  0.7957747E-01            NaN
         13   -1    0    0    0    0  0.00000000000E+00  0.00000000000E+00  0.74505805969E-08  0.10566000000E+00  0.10566000000E+00 0.  1.
     999900   -1    0    0    0    0 -0.00000000000E+00 -0.00000000000E+00 -0.74505805969E-08  0.93827000000E+00  0.93827000000E+00 0.  1.
     999902    2    1    2    0    0 -0.86717290315E-02  0.83862591244E-02  0.19482554811E-01  0.10210149794E+01  0.10207578018E+01 0.  0.
     999903    2    3    3    0    0  0.10682827019E+00 -0.54144051301E-01  0.48672149204E-01  0.13078898453E+00  0.19822279475E-01 0.  0.
         14    1    1    2    0    0  0.86717290315E-02 -0.83862591244E-02 -0.19482554811E-01  0.22915020586E-01  0.00000000000E+00 0. -1.
     999901    1    3    3    0    0 -0.11549999922E+00  0.62530310425E-01 -0.29189594393E-01  0.89022599488E+00  0.88000000000E+00 0.  1.
        -11    1    4    4    0    0  0.86638234187E-01 -0.45312687309E-01  0.47535775499E-01  0.10871676194E+00  0.51100000000E-03 0. -1.
         11    1    4    4    0    0  0.20190036004E-01 -0.88313639914E-02  0.11363737044E-02  0.22072222589E-01  0.51100000000E-03 0.  1.
</event>
<event>
 8    1  0.1129676E+005  0.1043930E+01  0.7957747E-01            NaN
         13   -1    0    0    0    0  0.00000000000E+00  0.00000000000E+00  0.74505805969E-08  0.10566000000E+00  0.10566000000E+00 0. -1.
     999900   -1    0    0    0    0 -0.00000000000E+00 -0.00000000000E+00 -0.74505805969E-08  0.93827000000E+00  0.93827000000E+00 0.  1.
     999902    2    1    2    0    0 -0.16199773486E-01 -0.12146698587E-01 -0.76571014974E-03  0.10236676887E+01  0.10234671346E+01 0.  0.
     999903    2    3    3    0    0  0.42059256519E-03  0.99531678656E-01 -0.85222074071E-01  0.13244315249E+00  0.19278350021E-01 0.  0.
         14    1    1    2    0    0  0.16199773486E-01  0.12146698587E-01  0.76571014974E-03  0.20262311309E-01  0.00000000000E+00 0. -1.
     999901    1    3    3    0    0 -0.16620366051E-01 -0.11167837724E+00  0.84456363922E-01  0.89122453620E+00  0.88000000000E+00 0. -1.
        -11    1    4    4    0    0  0.42337302275E-02  0.71208841061E-01 -0.70485052596E-01  0.10028473103E+00  0.51100000000E-03 0.  1.
         11    1    4    4    0    0 -0.38131376623E-02  0.28322837595E-01 -0.14737021475E-01  0.32158421467E-01  0.51100000000E-03 0. -1.
</event>
<event>
 8    1  0.1129676E+005  0.1043930E+01  0.7957747E-01            NaN
         13   -1    0    0    0    0  0.00000000000E+00  0.00000000000E+00  0.74505805969E-08  0.10566000000E+00  0.10566000000E+00 0. -1.
     999900   -1    0    0    0    0 -0.00000000000E+00 -0.00000000000E+00 -0.74505805969E-08  0.93827000000E+00  0.93827000000E+00 0. -1.
     999902    2    1    2    0    0  0.13519253709E-01 -0.11487133805E-01  0.17301261796E-01  0.10191498038E+01  0.10188484993E+01 0.  0.
     999903    2    3    3    0    0 -0.33968577714E-01 -0.99765538151E-01  0.76121055959E-01  0.13150801851E+00  0.19822131524E-01 0.  0.
         14    1    1    2    0    0 -0.13519253709E-01  0.11487133805E-01 -0.17301261796E-01  0.24780196198E-01  0.00000000000E+00 0.  1.
     999901    1    3    3    0    0  0.47487831423E-01  0.88278404346E-01 -0.58819794163E-01  0.88764178529E+00  0.88000000000E+00 0. -1.
        -11    1    4    4    0    0 -0.17455303921E-01 -0.74952606692E-01  0.60232577173E-01  0.97728221915E-01  0.51100000000E-03 0.  1.
         11    1    4    4    0    0 -0.16513273793E-01 -0.24812931459E-01  0.15888478786E-01  0.33779796597E-01  0.51100000000E-03 0. -1.
</event>
<event>
 8    1  0.1129676E+005  0.1043930E+01  0.7957747E-01            NaN
         13   -1    0    0    0    0  0.00000000000E+00  0.00000000000E+00  0.74505805969E-08  0.10566000000E+00  0.10566000000E+00 0. -1.
     999900   -1    0    0    0    0 -0.00000000000E+00 -0.00000000000E+00 -0.74505805969E-08  0.93827000000E+00  0.93827000000E+00 0.  1.
     999902    2    1    2    0    0  0.82688061211E-02  0.21847101196E-01  0.31003326959E-02  0.10203655979E+01  0.10200934625E+01 0.  0.
     999903    2    3    3    0    0  0.12166424319E+00  0.45735623042E-01 -0.16468390069E-01  0.13255248603E+00  0.20125068850E-01 0.  0.
         14    1    1    2    0    0 -0.82688061211E-02 -0.21847101196E-01 -0.31003326959E-02  0.23564402139E-01  0.00000000000E+00 0. -1.
     999901    1    3    3    0    0 -0.11339543707E+00 -0.23888521846E-01  0.19568722765E-01  0.88781311183E+00  0.88000000000E+00 0.  1.
        -11    1    4    4    0    0  0.63307680983E-01  0.33340838409E-01 -0.13525084891E-01  0.72819386289E-01  0.51100000000E-03 0.  1.
         11    1    4    4    0    0  0.58356562206E-01  0.12394784633E-01 -0.29433051789E-02  0.59733099743E-01  0.51100000000E-03 0. -1.
</event>
<event>
 8    1  0.1129676E+005  0.1043930E+01  0.7957747E-01            NaN
         13   -1    0    0    0    0  0.00000000000E+00  0.00000000000E+00  0.74505805969E-08  0.10566000000E+00  0.10566000000E+00 0.  1.
     999900   -1    0    0    0    0 -0.00000000000E+00 -0.00000000000E+00 -0.74505805969E-08  0.93827000000E+00  0.93827000000E+00 0.  1.
     999902    2    1    2    0    0  0.19538222594E-01  0.39642900754E-02 -0.82985023504E-02  0.10223354896E+01  0.10221073967E+01 0.  0.
     999903    2    3    3    0    0  0.88653686474E-01  0.99299652243E-01 -0.30279318219E-02  0.13447651570E+00  0.18837936275E-01 0.  0.
         14    1    1    2    0    0 -0.19538222594E-01 -0.39642900754E-02  0.82985023504E-02  0.21594510395E-01  0.00000000000E+00 0.  1.
     999901    1    3    3    0    0 -0.69115463879E-01 -0.95335362168E-01 -0.52705705285E-02  0.88785897390E+00  0.88000000000E+00 0.  1.
        -11    1    4    4    0    0  0.70644742575E-01  0.67350171465E-01  0.69737327235E-03  0.97608773685E-01  0.51100000000E-03 0. -1.
         11    1    4    4    0    0  0.18008943899E-01  0.31949480778E-01 -0.37253050943E-02  0.36867742017E-01  0.51100000000E-03 0.  1.
</event>
<event>
 8    1  0.1129676E+005  0.1043930E+01  0.7957747E-01            NaN
         13   -1    0    0    0    0  0.00000000000E+00  0.00000000000E+00  0.74505805969E-08  0.10566000000E+00  0.10566000000E+00 0. -1.
     999900   -1    0    0    0    0 -0.00000000000E+00 -0.00000000000E+00 -0.74505805969E-08  0.93827000000E+00  0.93827000000E+00 0.  1.
     999902    2    1    2    0    0  0.21121562223E-01  0.92178706196E-02 -0.51491364916E-02  0.10203163782E+01  0.10200430915E+01 0.  0.
     999903    2    3    3    0    0 -0.65279559387E-01 -0.40819452014E-01 -0.10152842691E+00  0.12944160858E+00  0.22791665646E-01 0.  0.
         14    1    1    2    0    0 -0.21121562223E-01 -0.92178706196E-02  0.51491364916E-02  0.23613621833E-01  0.00000000000E+00 0. -1.
     999901    1    3    3    0    0  0.86401121610E-01  0.50037322634E-01  0.96379290420E-01  0.89087476959E+00  0.88000000000E+00 0. -1.
        -11    1    4    4    0    0 -0.34368428875E-01 -0.21009088056E-01 -0.71249319892E-01  0.81849235734E-01  0.51100000000E-03 0.  1.
         11    1    4    4    0    0 -0.30911130513E-01 -0.19810363959E-01 -0.30279107020E-01  0.47592372841E-01  0.51100000000E-03 0. -1.
</event>
<event>
 8    1  0.1129676E+005  0.1043930E+01  0.7957747E-01            NaN
         13   -1    0    0    0    0  0.00000000000E+00  0.00000000000E+00  0.74505805969E-08  0.10566000000E+00  0.10566000000E+00 0. -1.
     999900   -1    0    0    0    0 -0.00000000000E+00 -0.00000000000E+00 -0.74505805969E-08  0.93827000000E+00  0.93827000000E+00 0. -1.
     999902    2    1    2    0    0 -0.94710038076E-02  0.20614157652E-01  0.57060665097E-02  0.10205376379E+01  0.10202695074E+01 0.  0.
     999903    2    3    3    0    0 -0.11196958135E+00  0.54898473841E-01 -0.40665252094E-01  0.13271351574E+00  0.20203587630E-01 0.  0.
         14    1    1    2    0    0  0.94710038076E-02 -0.20614157652E-01 -0.57060665097E-02  0.23392362083E-01  0.00000000000E+00 0. -1.
     999901    1    3    3    0    0  0.10249857755E+00 -0.34284316189E-01  0.46371318603E-01  0.88782412218E+00  0.88000000000E+00 0.  1.
        -11    1    4    4    0    0 -0.52762299324E-01  0.22925878974E-01 -0.85848788145E-02  0.58167150712E-01  0.51100000000E-03 0.  1.
         11    1    4    4    0    0 -0.59207282029E-01  0.31972594867E-01 -0.32080373279E-01  0.74546365025E-01  0.51100000000E-03 0. -1.
</event>
<event>
 8    1  0.1129676E+005  0.1043930E+01  0.7957747E-01            NaN
         13   -1    0    0    0    0  0.00000000000E+00  0.00000000000E+00  0.74505805969E-08  0.10566000000E+00  0.10566000000E+00 0.  1.
     999900   -1    0    0    0    0 -0.00000000000E+00 -0.00000000000E+00 -0.74505805969E-08  0.93827000000E+00  0.93827000000E+00 0.  1.
     999902    2    1    2    0    0 -0.20402743473E-01 -0.12566721487E-01  0.10447466672E-02  0.10199448812E+01  0.10196628240E+01 0.  0.
     999903    2    3    3    0    0 -0.84019799840E-01 -0.21536147825E-02  0.10028582323E+00  0.13202351419E+00  0.17578314374E-01 0.  0.
         14    1    1    2    0    0  0.20402743473E-01  0.12566721487E-01 -0.10447466672E-02  0.23985118840E-01  0.00000000000E+00 0. -1.
     999901    1    3    3    0    0  0.63617056367E-01 -0.10413106705E-01 -0.99241076558E-01  0.88792136697E+00  0.88000000000E+00 0.  1.
        -11    1    4    4    0    0 -0.23820695703E-01  0.51908799852E-02  0.20856530020E-01  0.32087797435E-01  0.51100000000E-03 0.  1.
         11    1    4    4    0    0 -0.60199104137E-01 -0.73444947676E-02  0.79429293206E-01  0.99935716751E-01  0.51100000000E-03 0. -1.
</event>
<event>
 8    1  0.1129676E+005  0.1043930E+01  0.7957747E-01            NaN
         13   -1    0    0    0    0  0.00000000000E+00  0.00000000000E+00  0.74505805969E-08  0.10566000000E+00  0.10566000000E+00 0.  1.
     999900   -1    0    0    0    0 -0.00000000000E+00 -0.00000000000E+00 -0.74505805969E-08  0.93827000000E+00  0.93827000000E+00 0.  1.
     999902    2    1    2    0    0  0.13518618331E-01 -0.30633250560E-02 -0.18759005130E-01  0.10206053933E+01  0.10203388318E+01 0.  0.
     999903    2    3    3    0    0 -0.73728871694E-01  0.89233214181E-01 -0.57064365311E-01  0.13066265570E+00  0.20441985531E-01 0.  0.
         14    1    1    2    0    0 -0.13518618331E-01  0.30633250560E-02  0.18759005130E-01  0.23324606651E-01  0.00000000000E+00 0.  1.
     999901    1    3    3    0    0  0.87247490025E-01 -0.92296539237E-01  0.38305360180E-01  0.88994273765E+00  0.88000000000E+00 0.  1.
        -11    1    4    4    0    0 -0.13343348792E-01  0.72973508425E-02 -0.33793706233E-02  0.15587737267E-01  0.51100000000E-03 0. -1.
         11    1    4    4    0    0 -0.60385522902E-01  0.81935863339E-01 -0.53684994687E-01  0.11507491843E+00  0.51100000000E-03 0.  1.
</event>
<event>
 8    1  0.1129676E+005  0.1043930E+01  0.7957747E-01            NaN
         13   -1    0    0    0    0  0.00000000000E+00  0.00000000000E+00  0.74505805969E-08  0.10566000000E+00  0.10566000000E+00 0.  1.
     999900   -1    0    0    0    0 -0.00000000000E+00 -0.00000000000E+00 -0.74505805969E-08  0.93827000000E+00  0.93827000000E+00 0.  1.
     999902    2    1    2    0    0  0.13867103246E-01  0.17582155616E-01 -0.74878793567E-02  0.10203186238E+01  0.10200453897E+01 0.  0.
     999903    2    3    3    0    0  0.31164397844E-01 -0.11699726623E+00 -0.37342361857E-01  0.12941901818E+00  0.26367599033E-01 0.  0.
         14    1    1    2    0    0 -0.13867103246E-01 -0.17582155616E-01  0.74878793567E-02  0.23611376195E-01  0.00000000000E+00 0.  1.
     999901    1    3    3    0    0 -0.17297294598E-01  0.13457942184E+00  0.29854482500E-01  0.89089960563E+00  0.88000000000E+00 0. -1.
        -11    1    4    4    0    0  0.20355833967E-01 -0.46277638804E-01 -0.46872101158E-02  0.50776085803E-01  0.51100000000E-03 0.  1.
         11    1    4    4    0    0  0.10808563878E-01 -0.70719627424E-01 -0.32655151741E-01  0.78642932374E-01  0.51100000000E-03 0. -1.
</event>
<event>
 8    1  0.1129676E+005  0.1043930E+01  0.7957747E-01            NaN
         13   -1    0    0    0    0  0.00000000000E+00  0.00000000000E+00  0.74505805969E-08  0.10566000000E+00  0.10566000000E+00 0.  1.
     999900   -1    0    0    0    0 -0.00000000000E+00 -0.00000000000E+00 -0.74505805969E-08  0.93827000000E+00  0.93827000000E+00 0. -1.
     999902    2    1    2    0    0  0.11916097618E-01 -0.13814109181E-02 -0.21888349354E-01  0.10189700017E+01  0.10186642542E+01 0.  0.
     999903    2    3    3    0    0 -0.75895003485E-01 -0.99567506443E-01  0.18652952527E-01  0.12824282909E+00  0.20604627696E-01 0.  0.
         14    1    1    2    0    0 -0.11916097618E-01  0.13814109181E-02  0.21888349354E-01  0.24959998318E-01  0.00000000000E+00 0.  1.
     999901    1    3    3    0    0  0.87811101102E-01  0.98186095525E-01 -0.40541301882E-01  0.89072717259E+00  0.88000000000E+00 0. -1.
        -11    1    4    4    0    0 -0.27724945195E-01 -0.21411374243E-01  0.65102506716E-02  0.35633748299E-01  0.51100000000E-03 0.  1.
         11    1    4    4    0    0 -0.48170058290E-01 -0.78156132200E-01  0.12142701856E-01  0.92609080794E-01  0.51100000000E-03 0. -1.
</event>
<event>
 8    1  0.1129676E+005  0.1043930E+01  0.7957747E-01            NaN
         13   -1    0    0    0    0  0.00000000000E+00  0.00000000000E+00  0.74505805969E-08  0.10566000000E+00  0.10566000000E+00 0.  1.
     999900   -1    0    0    0    0 -0.00000000000E+00 -0.00000000000E+00 -0.74505805969E-08  0.93827000000E+00  0.93827000000E+00 0. -1.
     999902    2    1    2    0    0  0.12743192214E-01  0.11836460826E-01  0.16737634091E-01  0.10197920807E+01  0.10195063750E+01 0.  0.
     999903    2    3    3    0    0  0.43111079456E-01 -0.77910861105E-01  0.94125868717E-01  0.13132951581E+00  0.21426504882E-01 0.  0.
         14    1    1    2    0    0 -0.12743192214E-01 -0.11836460826E-01 -0.16737634091E-01  0.24137919290E-01  0.00000000000E+00 0. -1.
     999901    1    3    3    0    0 -0.30367887242E-01  0.89747321930E-01 -0.77388234625E-01  0.88846256490E+00  0.88000000000E+00 0. -1.
        -11    1    4    4    0    0  0.18764367992E-01 -0.14980368448E-01  0.22179701083E-01  0.32691179332E-01  0.51100000000E-03 0. -1.
         11    1    4    4    0    0  0.24346711464E-01 -0.62930492657E-01  0.71946167633E-01  0.98638336478E-01  0.51100000000E-03 0.  1.
</event>
<event>
 7    1  0.1129676E+005  0.1043930E+01  0.7957747E-01            NaN
         13   -1    0    0    0    0  0.00000000000E+00  0.00000000000E+00  0.74505805969E-08  0.10566000000E+00  0.10566000000E+00 0.  1.
     999900   -1    0    0    0    0 -0.00000000000E+00 -0.00000000000E+00 -0.74505805969E-08  0.93827000000E+00  0.93827000000E+00 0. -1.
     999903    2    1    2    0    0  0.91427227126E-01 -0.18167739007E-01 -0.55703915260E-01  0.11041806849E+00  0.20005476066E-01 0.  0.
         14    1    1    2    0    0  0.21673896026E-01  0.50478924930E-02  0.40307847227E-01  0.46043040034E-01  0.00000000000E+00 0.  1.
     999901    1    1    2    0    0 -0.11310112315E+00  0.13119846514E-01  0.15396068033E-01  0.88746889148E+00  0.88000000000E+00 0. -1.
        -11    1    3    3    0    0  0.18836834071E-01  0.43024399932E-02 -0.12173361368E-01  0.22842704649E-01  0.51100000000E-03 0. -1.
         11    1    3    3    0    0  0.72590393055E-01 -0.22470179000E-01 -0.43530553893E-01  0.87575363838E-01  0.51100000000E-03 0.  1.
</event>
<event>
 8    1  0.1129676E+005  0.1043930E+01  0.7957747E-01            NaN
         13   -1    0    0    0    0  0.00000000000E+00  0.00000000000E+00  0.74505805969E-08  0.10566000000E+00  0.10566000000E+00 0. -1.
     999900   -1    0    0    0    0 -0.00000000000E+00 -0.00000000000E+00 -0.74505805969E-08  0.93827000000E+00  0.93827000000E+00 0.  1.
     999902    2    1    2    0    0  0.12435911135E-01  0.18527140878E-01  0.75191744663E-02  0.10203833480E+01  0.10201116273E+01 0.  0.
     999903    2    3    3    0    0 -0.77642507440E-01 -0.80345171213E-01  0.60557224908E-01  0.12869792682E+00  0.20304516227E-01 0.  0.
         14    1    1    2    0    0 -0.12435911135E-01 -0.18527140878E-01 -0.75191744663E-02  0.23546651981E-01  0.00000000000E+00 0. -1.
     999901    1    3    3    0    0  0.90078418574E-01  0.98872312092E-01 -0.53038050442E-01  0.89168542120E+00  0.88000000000E+00 0.  1.
        -11    1    4    4    0    0 -0.52406990541E-01 -0.66577697011E-01  0.47271366930E-01  0.97025386623E-01  0.51100000000E-03 0.  1.
         11    1    4    4    0    0 -0.25235516899E-01 -0.13767474203E-01  0.13285857978E-01  0.31672540193E-01  0.51100000000E-03 0. -1.
</event>
<event>
 8    1  0.1129676E+005  0.1043930E+01  0.7957747E-01            NaN
         13   -1    0    0    0    0  0.00000000000E+00  0.00000000000E+00  0.74505805969E-08  0.10566000000E+00  0.10566000000E+00 0. -1.
     999900   -1    0    0    0    0 -0.00000000000E+00 -0.00000000000E+00 -0.74505805969E-08  0.93827000000E+00  0.93827000000E+00 0.  1.
     999902    2    1    2    0    0  0.13387176219E-01 -0.17498553714E-01  0.88538524814E-02  0.10201853885E+01  0.10199090256E+01 0.  0.
     999903    2    3    3    0    0  0.11721728938E-01  0.60226832119E-01 -0.11129272646E+00  0.12862540192E+00  0.19843205913E-01 0.  0.
         14    1    1    2    0    0 -0.13387176219E-01  0.17498553714E-01 -0.88538524814E-02  0.23744611451E-01  0.00000000000E+00 0. -1.
     999901    1    3    3    0    0  0.16654472814E-02 -0.77725385833E-01  0.12014657894E+00  0.89155998662E+00  0.88000000000E+00 0. -1.
        -11    1    4    4    0    0 -0.35896085157E-02  0.33369920272E-01 -0.57705676888E-01  0.66758094149E-01  0.51100000000E-03 0. -1.
         11    1    4    4    0    0  0.15311337453E-01  0.26856911846E-01 -0.53587049572E-01  0.61867307776E-01  0.51100000000E-03 0.  1.
</event>
<event>
 8    1  0.1129676E+005  0.1043930E+01  0.7957747E-01            NaN
         13   -1    0    0    0    0  0.00000000000E+00  0.00000000000E+00  0.74505805969E-08  0.10566000000E+00  0.10566000000E+00 0. -1.
     999900   -1    0    0    0    0 -0.00000000000E+00 -0.00000000000E+00 -0.74505805969E-08  0.93827000000E+00  0.93827000000E+00 0. -1.
     999902    2    1    2    0    0  0.63944375726E-02 -0.15313215678E-01  0.17414855133E-01  0.10198746350E+01  0.10195909035E+01 0.  0.
     999903    2    3    3    0    0  0.15240930756E-01  0.12486643980E+00  0.17751993519E-01  0.12873563915E+00  0.20828292159E-01 0.  0.
         14    1    1    2    0    0 -0.63944375726E-02  0.15313215678E-01 -0.17414855133E-01  0.24055365006E-01  0.00000000000E+00 0.  1.
     999901    1    3    3    0    0 -0.88464931831E-02 -0.14017965548E+00 -0.33713838610E-03  0.89113899584E+00  0.88000000000E+00 0. -1.
        -11    1    4    4    0    0  0.16817234164E-01  0.52708135120E-01  0.76171191583E-02  0.55850232748E-01  0.51100000000E-03 0.  1.
         11    1    4    4    0    0 -0.15763034083E-02  0.72158304682E-01  0.10134874361E-01  0.72885406401E-01  0.51100000000E-03 0. -1.
</event>
<event>
 8    1  0.1183651E+005  0.1043930E+01  0.7957747E-01            NaN
         13   -1    0    0    0    0  0.00000000000E+00  0.00000000000E+00  0.74505805969E-08  0.10566000000E+00  0.10566000000E+00 0.  1.
     999900   -1    0    0    0    0 -0.00000000000E+00 -0.00000000000E+00 -0.74505805969E-08  0.93827000000E+00  0.93827000000E+00 0. -1.
     999902    2    1    2    0    0 -0.22638848493E-01  0.76973227709E-02 -0.42647336186E-02  0.10196410274E+01  0.10193516913E+01 0.  0.
     999903    2    3    3    0    0 -0.44351094960E-02 -0.10745213878E+00  0.68421100018E-01  0.12898171819E+00  0.19728263327E-01 0.  0.
         14    1    1    2    0    0  0.22638848493E-01 -0.76973227709E-02  0.42647336186E-02  0.24288972638E-01  0.00000000000E+00 0. -1.
     999901    1    3    3    0    0 -0.18203738997E-01  0.11514946155E+00 -0.72685833637E-01  0.89065930918E+00  0.88000000000E+00 0. -1.
        -11    1    4    4    0    0  0.27528738486E-02 -0.85931769563E-01  0.48094442201E-01  0.98514891394E-01  0.51100000000E-03 0. -1.
         11    1    4    4    0    0 -0.71879833446E-02 -0.21520369218E-01  0.20326657817E-01  0.30466826793E-01  0.51100000000E-03 0.  1.
</event>
<event>
 8    1  0.1129676E+005  0.1043930E+01  0.7957747E-01            NaN
         13   -1    0    0    0    0  0.00000000000E+00  0.00000000000E+00  0.74505805969E-08  0.10566000000E+00  0.10566000000E+00 0.  1.
     999900   -1    0    0    0    0 -0.00000000000E+00 -0.00000000000E+00 -0.74505805969E-08  0.93827000000E+00  0.93827000000E+00 0. -1.
     999902    2    1    2    0    0 -0.27359421092E-01  0.32783123204E-02 -0.26546191160E-02  0.10162472932E+01  0.10158701830E+01 0.  0.
     999903    2    3    3    0    0 -0.45035139291E-01  0.21628318450E-01 -0.11665855619E+00  0.12852771392E+00  0.20352065811E-01 0.  0.
         14    1    1    2    0    0  0.27359421092E-01 -0.32783123204E-02  0.26546191160E-02  0.27682706818E-01  0.00000000000E+00 0.  1.
     999901    1    3    3    0    0  0.17675718199E-01 -0.18350006130E-01  0.11400393707E+00  0.88771957926E+00  0.88000000000E+00 0.  1.
        -11    1    4    4    0    0 -0.25334684305E-01  0.15440292669E-01 -0.44617239761E-01  0.53583654890E-01  0.51100000000E-03 0. -1.
         11    1    4    4    0    0 -0.19700454986E-01  0.61880257814E-02 -0.72041316429E-01  0.74944059028E-01  0.51100000000E-03 0.  1.
</event>
<event>
 8    1  0.1129676E+005  0.1043930E+01  0.7957747E-01            NaN
         13   -1    0    0    0    0  0.00000000000E+00  0.00000000000E+00  0.74505805969E-08  0.10566000000E+00  0.10566000000E+00 0.  1.
     999900   -1    0    0    0    0 -0.00000000000E+00 -0.00000000000E+00 -0.74505805969E-08  0.93827000000E+00  0.93827000000E+00 0.  1.
     999902    2    1    2    0    0  0.60328702491E-02 -0.37611347112E-02  0.21201087813E-01  0.10215686990E+01  0.10213239344E+01 0.  0.
     999903    2    3    3    0    0 -0.63000477632E-01 -0.10586414889E-01  0.11585785996E+00  0.13377813131E+00  0.19809400346E-01 0.  0.
         14    1    1    2    0    0 -0.60328702491E-02  0.37611347112E-02 -0.21201087813E-01  0.22361300996E-01  0.00000000000E+00 0. -1.
     999901    1    3    3    0    0  0.69033347881E-01  0.68252801774E-02 -0.94656772142E-01  0.88779056769E+00  0.88000000000E+00 0.  1.
        -11    1    4    4    0    0 -0.36414337082E-01 -0.11044276278E-01  0.50634698302E-01  0.63341248620E-01  0.51100000000E-03 0.  1.
         11    1    4    4    0    0 -0.26586140550E-01  0.45786138943E-03  0.65223161654E-01  0.70436882693E-01  0.51100000000E-03 0. -1.
</event>
<event>
 7    1  0.1129676E+005  0.1043930E+01  0.7957747E-01            NaN
         13   -1    0    0    0    0  0.00000000000E+00  0.00000000000E+00  0.74505805969E-08  0.10566000000E+00  0.10566000000E+00 0. -1.
     999900   -1    0    0    0    0 -0.00000000000E+00 -0.00000000000E+00 -0.74505805969E-08  0.93827000000E+00  0.93827000000E+00 0. -1.
     999903    2    1    2    0    0 -0.18003254011E-01  0.82786042969E-01 -0.75382426102E-01  0.11509050498E+00  0.19638434387E-01 0.  0.
         14    1    1    2    0    0 -0.35040694233E-01  0.16063130584E-01  0.59674967510E-02  0.39006223016E-01  0.00000000000E+00 0. -1.
     999901    1    1    2    0    0  0.53043948244E-01 -0.98849173552E-01  0.69414929351E-01  0.88983327201E+00  0.88000000000E+00 0.  1.
        -11    1    3    3    0    0 -0.54004051676E-02  0.35786513307E-01 -0.19951816630E-01  0.41330074019E-01  0.51100000000E-03 0. -1.
         11    1    3    3    0    0 -0.12602848844E-01  0.46999529662E-01 -0.55430609472E-01  0.73760430956E-01  0.51100000000E-03 0.  1.
</event>
<event>
 8    1  0.1129676E+005  0.1043930E+01  0.7957747E-01            NaN
         13   -1    0    0    0    0  0.00000000000E+00  0.00000000000E+00  0.74505805969E-08  0.10566000000E+00  0.10566000000E+00 0. -1.
     999900   -1    0    0    0    0 -0.00000000000E+00 -0.00000000000E+00 -0.74505805969E-08  0.93827000000E+00  0.93827000000E+00 0. -1.
     999902    2    1    2    0    0 -0.11367983867E-01  0.17419759897E-01 -0.16458514737E-01  0.10174052606E+01  0.10170594390E+01 0.  0.
     999903    2    3    3    0    0 -0.91629531735E-01 -0.68019681276E-01  0.51855105680E-01  0.12700727943E+00  0.20475568736E-01 0.  0.
         14    1    1    2    0    0  0.11367983867E-01 -0.17419759897E-01  0.16458514737E-01  0.26524739384E-01  0.00000000000E+00 0. -1.
     999901    1    3    3    0    0  0.80261547868E-01  0.85439441173E-01 -0.68313620417E-01  0.89039798119E+00  0.88000000000E+00 0. -1.
        -11    1    4    4    0    0 -0.61525632529E-01 -0.56857910386E-01  0.35770963675E-01  0.91093624337E-01  0.51100000000E-03 0. -1.
         11    1    4    4    0    0 -0.30103899205E-01 -0.11161770890E-01  0.16084142005E-01  0.35913655088E-01  0.51100000000E-03 0.  1.
</event>
<event>
 8    1  0.1129676E+005  0.1043930E+01  0.7957747E-01            NaN
         13   -1    0    0    0    0  0.00000000000E+00  0.00000000000E+00  0.74505805969E-08  0.10566000000E+00  0.10566000000E+00 0.  1.
     999900   -1    0    0    0    0 -0.00000000000E+00 -0.00000000000E+00 -0.74505805969E-08  0.93827000000E+00  0.93827000000E+00 0. -1.
     999902    2    1    2    0    0 -0.78937803090E-02 -0.10313741197E-01  0.21108567119E-01  0.10191457988E+01  0.10188443956E+01 0.  0.
     999903    2    3    3    0    0 -0.24837701636E-01 -0.11539225376E+00  0.55980436555E-01  0.13204679778E+00  0.19242241952E-01 0.  0.
         14    1    1    2    0    0  0.78937803090E-02  0.10313741197E-01 -0.21108567119E-01  0.24784201235E-01  0.00000000000E+00 0. -1.
     999901    1    3    3    0    0  0.16943921327E-01  0.10507851257E+00 -0.34871869436E-01  0.88709900099E+00  0.88000000000E+00 0. -1.
        -11    1    4    4    0    0 -0.15771104286E-01 -0.77897956637E-01  0.47348221795E-01  0.92514510249E-01  0.51100000000E-03 0. -1.
         11    1    4    4    0    0 -0.90665973499E-02 -0.37494297128E-01  0.86322147595E-02  0.39532287529E-01  0.51100000000E-03 0.  1.
</event>
<event>
 8    1  0.1129676E+005  0.1043930E+01  0.7957747E-01            NaN
         13   -1    0    0    0    0  0.00000000000E+00  0.00000000000E+00  0.74505805969E-08  0.10566000000E+00  0.10566000000E+00 0. -1.
     999900   -1    0    0    0    0 -0.00000000000E+00 -0.00000000000E+00 -0.74505805969E-08  0.93827000000E+00  0.93827000000E+00 0. -1.
     999902    2    1    2    0    0  0.89497769233E-02  0.13171667414E-01 -0.16032048247E-01  0.10213331440E+01  0.10210831372E+01 0.  0.
     999903    2    3    3    0    0  0.58006048024E-01  0.98169157913E-01 -0.68106916321E-01  0.13434786623E+00  0.20221571070E-01 0.  0.
         14    1    1    2    0    0 -0.89497769233E-02 -0.13171667414E-01  0.16032048247E-01  0.22596855986E-01  0.00000000000E+00 0. -1.
     999901    1    3    3    0    0 -0.49056271101E-01 -0.84997490498E-01  0.52074868074E-01  0.88698527779E+00  0.88000000000E+00 0.  1.
        -11    1    4    4    0    0  0.35205595000E-01  0.64805538822E-01 -0.54502616776E-01  0.91705987469E-01  0.51100000000E-03 0. -1.
         11    1    4    4    0    0  0.22800453024E-01  0.33363619090E-01 -0.13604299545E-01  0.42641878758E-01  0.51100000000E-03 0.  1.
</event>
<event>
 8    1  0.1129676E+005  0.1043930E+01  0.7957747E-01            NaN
         13   -1    0    0    0    0  0.00000000000E+00  0.00000000000E+00  0.74505805969E-08  0.10566000000E+00  0.10566000000E+00 0. -1.
     999900   -1    0    0    0    0 -0.00000000000E+00 -0.00000000000E+00 -0.74505805969E-08  0.93827000000E+00  0.93827000000E+00 0. -1.
     999902    2    1    2    0    0 -0.79699602117E-02  0.31133159242E-02 -0.21834614749E-01  0.10204787015E+01  0.10202092024E+01 0.  0.
     999903    2    3    3    0    0 -0.11265693029E+00 -0.57258783158E-01 -0.32585015043E-01  0.13215459217E+00  0.20806269133E-01 0.  0.
         14    1    1    2    0    0  0.79699602117E-02 -0.31133159242E-02  0.21834614749E-01  0.23451298537E-01  0.00000000000E+00 0. -1.
     999901    1    3    3    0    0  0.10468697007E+00  0.60372099082E-01  0.10750400294E-01  0.88832410930E+00  0.88000000000E+00 0.  1.
        -11    1    4    4    0    0 -0.19134500448E-02 -0.26923227014E-02  0.20618611674E-02  0.39271217292E-02  0.51100000000E-03 0.  1.
         11    1    4    4    0    0 -0.11074348024E+00 -0.54566460456E-01 -0.34646876211E-01  0.12822747044E+00  0.51100000000E-03 0. -1.
</event>
<event>
 8    1  0.1129676E+005  0.1043930E+01  0.7957747E-01            NaN
         13   -1    0    0    0    0  0.00000000000E+00  0.00000000000E+00  0.74505805969E-08  0.10566000000E+00  0.10566000000E+00 0.  1.
     999900   -1    0    0    0    0 -0.00000000000E+00 -0.00000000000E+00 -0.74505805969E-08  0.93827000000E+00  0.93827000000E+00 0. -1.
     999902    2    1    2    0    0  0.17662835957E-01  0.29428175267E-02  0.14684513959E-01  0.10207724764E+01  0.10205097636E+01 0.  0.
     999903    2    3    3    0    0  0.51449339543E-01  0.52982299398E-01  0.10965014594E+00  0.13360622996E+00  0.19321272997E-01 0.  0.
         14    1    1    2    0    0 -0.17662835957E-01 -0.29428175267E-02 -0.14684513959E-01  0.23157523599E-01  0.00000000000E+00 0.  1.
     999901    1    3    3    0    0 -0.33786503586E-01 -0.50039481872E-01 -0.94965631980E-01  0.88716624644E+00  0.88000000000E+00 0. -1.
        -11    1    4    4    0    0  0.86681869539E-02  0.21433816552E-01  0.30966716469E-01  0.38648992315E-01  0.51100000000E-03 0.  1.
         11    1    4    4    0    0  0.42781152589E-01  0.31548482847E-01  0.78683429469E-01  0.94957237643E-01  0.51100000000E-03 0. -1.
</event>
<event>
 8    1  0.1129676E+005  0.1043930E+01  0.7957747E-01            NaN
         13   -1    0    0    0    0  0.00000000000E+00  0.00000000000E+00  0.74505805969E-08  0.10566000000E+00  0.10566000000E+00 0.  1.
     999900   -1    0    0    0    0 -0.00000000000E+00 -0.00000000000E+00 -0.74505805969E-08  0.93827000000E+00  0.93827000000E+00 0. -1.
     999902    2    1    2    0    0 -0.19059816719E-01 -0.10857241564E-01  0.16233258047E-01  0.10166412665E+01  0.10162749578E+01 0.  0.
     999903    2    3    3    0    0 -0.46898300986E-01 -0.42072385976E-01  0.11288326348E+00  0.13036219648E+00  0.16796868802E-01 0.  0.
         14    1    1    2    0    0  0.19059816719E-01  0.10857241564E-01 -0.16233258047E-01  0.27288733473E-01  0.00000000000E+00 0. -1.
     999901    1    3    3    0    0  0.27838484266E-01  0.31215144412E-01 -0.96650005430E-01  0.88627907004E+00  0.88000000000E+00 0. -1.
        -11    1    4    4    0    0 -0.15848350120E-01 -0.16580244476E-01  0.57771816835E-01  0.62160426719E-01  0.51100000000E-03 0. -1.
         11    1    4    4    0    0 -0.31049950865E-01 -0.25492141500E-01  0.55111446642E-01  0.68201769764E-01  0.51100000000E-03 0.  1.
</event>
<event>
 8    1  0.1129676E+005  0.1043930E+01  0.7957747E-01            NaN
         13   -1    0    0    0    0  0.00000000000E+00  0.00000000000E+00  0.74505805969E-08  0.10566000000E+00  0.10566000000E+00 0. -1.
     999900   -1    0    0    0    0 -0.00000000000E+00 -0.00000000000E+00 -0.74505805969E-08  0.93827000000E+00  0.93827000000E+00 0. -1.
     999902    2    1    2    0    0  0.11298099121E-02  0.22754166381E-01  0.83090381100E-02  0.10196798727E+01  0.10193914725E+01 0.  0.
     999903    2    3    3    0    0 -0.10078886350E+00 -0.65914828068E-01 -0.38869190816E-01  0.12812202725E+00  0.20031982077E-01 0.  0.
         14    1    1    2    0    0 -0.11298099121E-02 -0.22754166381E-01 -0.83090381100E-02  0.24250127266E-01  0.00000000000E+00 0.  1.
     999901    1    3    3    0    0  0.10191867341E+00  0.88668994449E-01  0.47178228926E-01  0.89155784549E+00  0.88000000000E+00 0.  1.
        -11    1    4    4    0    0 -0.26477687461E-01 -0.28370952445E-01 -0.13297282071E-01  0.41025086318E-01  0.51100000000E-03 0. -1.
         11    1    4    4    0    0 -0.74311176038E-01 -0.37543875623E-01 -0.25571908745E-01  0.87096940927E-01  0.51100000000E-03 0.  1.
</event>
<event>
 8    1  0.1129676E+005  0.1043930E+01  0.7957747E-01            NaN
         13   -1    0    0    0    0  0.00000000000E+00  0.00000000000E+00  0.74505805969E-08  0.10566000000E+00  0.10566000000E+00 0.  1.
     999900   -1    0    0    0    0 -0.00000000000E+00 -0.00000000000E+00 -0.74505805969E-08  0.93827000000E+00  0.93827000000E+00 0.  1.
     999902    2    1    2    0    0 -0.17001504270E-01 -0.11167554611E-01  0.14004883433E-01  0.10192338022E+01  0.10189345619E+01 0.  0.
     999903    2    3    3    0    0 -0.13747484976E-01 -0.10125418145E+00  0.81236408872E-01  0.13207752121E+00  0.20092657304E-01 0.  0.
         14    1    1    2    0    0  0.17001504270E-01  0.11167554611E-01 -0.14004883433E-01  0.24696197752E-01  0.00000000000E+00 0. -1.
     999901    1    3    3    0    0 -0.32540192940E-02  0.90086626839E-01 -0.67231525439E-01  0.88715628104E+00  0.88000000000E+00 0.  1.
        -11    1    4    4    0    0  0.48306642223E-02 -0.32571903265E-01  0.23716096313E-01  0.40582983435E-01  0.51100000000E-03 0. -1.
         11    1    4    4    0    0 -0.18578149199E-01 -0.68682278185E-01  0.57520312559E-01  0.91494537772E-01  0.51100000000E-03 0.  1.
</event>
<event>
 8    1  0.1236493E+005  0.1043930E+01  0.7957747E-01            NaN
         13   -1    0    0    0    0  0.00000000000E+00  0.00000000000E+00  0.74505805969E-08  0.10566000000E+00  0.10566000000E+00 0. -1.
     999900   -1    0    0    0    0 -0.00000000000E+00 -0.00000000000E+00 -0.74505805969E-08  0.93827000000E+00  0.93827000000E+00 0.  1.
     999902    2    1    2    0    0 -0.12424966925E-01  0.11209855449E-01  0.16719438512E-01  0.10202745506E+01  0.10200002835E+01 0.  0.
     999903    2    3    3    0    0 -0.38899070144E-01 -0.52774099090E-01  0.11312271319E+00  0.13230584848E+00  0.20244656288E-01 0.  0.
         14    1    1    2    0    0  0.12424966925E-01 -0.11209855449E-01 -0.16719438512E-01  0.23655449403E-01  0.00000000000E+00 0. -1.
     999901    1    3    3    0    0  0.26474103219E-01  0.63983954539E-01 -0.96403274679E-01  0.88796870212E+00  0.88000000000E+00 0.  1.
        -11    1    4    4    0    0 -0.27750290959E-01 -0.24289365488E-01  0.73617850839E-01  0.82340154283E-01  0.51100000000E-03 0. -1.
         11    1    4    4    0    0 -0.11148779185E-01 -0.28484733602E-01  0.39504862352E-01  0.49965694192E-01  0.51100000000E-03 0.  1.
</event>
<event>
 8    1  0.1129676E+005  0.1043930E+01  0.7957747E-01            NaN
         13   -1    0    0    0    0  0.00000000000E+00  0.00000000000E+00  0.74505805969E-08  0.10566000000E+00  0.10566000000E+00 0.  1.
     999900   -1    0    0    0    0 -0.00000000000E+00 -0.00000000000E+00 -0.74505805969E-08  0.93827000000E+00  0.93827000000E+00 0. -1.
     999902    2    1    2    0    0  0.51051801711E-02  0.52194964274E-02  0.22503910071E-01  0.10202713446E+01  0.10199970023E+01 0.  0.
     999903    2    3    3    0    0 -0.11285381469E+00  0.42713419795E-01 -0.41795406306E-01  0.12928620394E+00  0.20190265536E-01 0.  0.
         14    1    1    2    0    0 -0.51051801711E-02 -0.52194964274E-02 -0.22503910071E-01  0.23658655414E-01  0.00000000000E+00 0. -1.
     999901    1    3    3    0    0  0.11795899486E+00 -0.37493923368E-01  0.64299316377E-01  0.89098514064E+00  0.88000000000E+00 0.  1.
        -11    1    4    4    0    0 -0.56186746180E-01  0.31489675663E-01 -0.25357670634E-01  0.69222992572E-01  0.51100000000E-03 0.  1.
         11    1    4    4    0    0 -0.56667068505E-01  0.11223744133E-01 -0.16437735672E-01  0.60063211372E-01  0.51100000000E-03 0. -1.
</event>
<event>
 8    1  0.1129676E+005  0.1043930E+01  0.7957747E-01            NaN
         13   -1    0    0    0    0  0.00000000000E+00  0.00000000000E+00  0.74505805969E-08  0.10566000000E+00  0.10566000000E+00 0. -1.
     999900   -1    0    0    0    0 -0.00000000000E+00 -0.00000000000E+00 -0.74505805969E-08  0.93827000000E+00  0.93827000000E+00 0.  1.
     999902    2    1    2    0    0  0.73207937489E-03 -0.62385663658E-02  0.23173521976E-01  0.10199202567E+01  0.10196376132E+01 0.  0.
     999903    2    3    3    0    0 -0.34100064010E-01 -0.22915013549E-01 -0.11923040846E+00  0.12763652300E+00  0.19679417926E-01 0.  0.
         14    1    1    2    0    0 -0.73207937489E-03  0.62385663658E-02 -0.23173521976E-01  0.24009743258E-01  0.00000000000E+00 0.  1.
     999901    1    3    3    0    0  0.34832143385E-01  0.16676447183E-01  0.14240393044E+00  0.89228373375E+00  0.88000000000E+00 0. -1.
        -11    1    4    4    0    0 -0.30654675765E-01 -0.14729003359E-01 -0.10845347099E+00  0.11366208329E+00  0.51100000000E-03 0. -1.
         11    1    4    4    0    0 -0.34453882450E-02 -0.81860101904E-02 -0.10776937467E-01  0.13974439709E-01  0.51100000000E-03 0.  1.
</event>
<event>
 8    1  0.1129676E+005  0.1043930E+01  0.7957747E-01            NaN
         13   -1    0    0    0    0  0.00000000000E+00  0.00000000000E+00  0.74505805969E-08  0.10566000000E+00  0.10566000000E+00 0. -1.
     999900   -1    0    0    0    0 -0.00000000000E+00 -0.00000000000E+00 -0.74505805969E-08  0.93827000000E+00  0.93827000000E+00 0. -1.
     999902    2    1    2    0    0 -0.28182175408E-02  0.22017726734E-01  0.86953944952E-02  0.10200902742E+01  0.10198116664E+01 0.  0.
     999903    2    3    3    0    0  0.70633553495E-01  0.39083305248E-01  0.10223273849E+00  0.13192608254E+00  0.20889107370E-01 0.  0.
         14    1    1    2    0    0  0.28182175408E-02 -0.22017726734E-01 -0.86953944952E-02  0.23839725797E-01  0.00000000000E+00 0.  1.
     999901    1    3    3    0    0 -0.73451771036E-01 -0.17065578513E-01 -0.93537343990E-01  0.88816419167E+00  0.88000000000E+00 0. -1.
        -11    1    4    4    0    0  0.19449580679E-01  0.18348809693E-01  0.22582958616E-01  0.35003087672E-01  0.51100000000E-03 0.  1.
         11    1    4    4    0    0  0.51183972816E-01  0.20734495554E-01  0.79649779869E-01  0.96922994864E-01  0.51100000000E-03 0. -1.
</event>
<event>
 8    1  0.1129676E+005  0.1043930E+01  0.7957747E-01            NaN
         13   -1    0    0    0    0  0.00000000000E+00  0.00000000000E+00  0.74505805969E-08  0.10566000000E+00  0.10566000000E+00 0.  1.
     999900   -1    0    0    0    0 -0.00000000000E+00 -0.00000000000E+00 -0.74505805969E-08  0.93827000000E+00  0.93827000000E+00 0. -1.
     999902    2    1    2    0    0  0.59016016225E-02  0.58729664427E-02 -0.21334191702E-01  0.10210287255E+01  0.10207718599E+01 0.  0.
     999903    2    3    3    0    0  0.47744973320E-01  0.22100880041E-01 -0.12178531243E+00  0.13417775689E+00  0.20099172714E-01 0.  0.
         14    1    1    2    0    0 -0.59016016225E-02 -0.58729664427E-02  0.21334191702E-01  0.22901274465E-01  0.00000000000E+00 0.  1.
     999901    1    3    3    0    0 -0.41843371697E-01 -0.16227913599E-01  0.10045112073E+00  0.88685096865E+00  0.88000000000E+00 0.  1.
        -11    1    4    4    0    0  0.63426174989E-02 -0.27732541362E-02 -0.25889981639E-01  0.26804328111E-01  0.51100000000E-03 0. -1.
         11    1    4    4    0    0  0.41402355821E-01  0.24874134178E-01 -0.95895330792E-01  0.10737342878E+00  0.51100000000E-03 0.  1.
</event>
<event>
 8    1  0.1129676E+005  0.1043930E+01  0.7957747E-01            NaN
         13   -1    0    0    0    0  0.00000000000E+00  0.00000000000E+00  0.74505805969E-08  0.10566000000E+00  0.10566000000E+00 0.  1.
     999900   -1    0    0    0    0 -0.00000000000E+00 -0.00000000000E+00 -0.74505805969E-08  0.93827000000E+00  0.93827000000E+00 0.  1.
     999902    2    1    2    0    0  0.15375998886E-01  0.91050777217E-02 -0.15598177627E-01  0.10202102418E+01  0.10199344639E+01 0.  0.
     999903    2    3    3    0    0 -0.32917355739E-01 -0.60522891125E-01  0.10630569534E+00  0.12777489046E+00  0.16701769658E-01 0.  0.
         14    1    1    2    0    0 -0.15375998886E-01 -0.91050777217E-02  0.15598177627E-01  0.23719758164E-01  0.00000000000E+00 0. -1.
     999901    1    3    3    0    0  0.48293354624E-01  0.69627968846E-01 -0.12190387297E+00  0.89243535138E+00  0.88000000000E+00 0.  1.
        -11    1    4    4    0    0 -0.26683636104E-01 -0.35790896486E-01  0.76182686664E-01  0.88301005517E-01  0.51100000000E-03 0. -1.
         11    1    4    4    0    0 -0.62337196350E-02 -0.24731994638E-01  0.30123008681E-01  0.39473884940E-01  0.51100000000E-03 0.  1.
</event>
<event>
 8    1  0.1129676E+005  0.1043930E+01  0.7957747E-01            NaN
         13   -1    0    0    0    0  0.00000000000E+00  0.00000000000E+00  0.74505805969E-08  0.10566000000E+00  0.10566000000E+00 0. -1.
     999900   -1    0    0    0    0 -0.00000000000E+00 -0.00000000000E+00 -0.74505805969E-08  0.93827000000E+00  0.93827000000E+00 0. -1.
     999902    2    1    2    0    0 -0.34734742046E-02 -0.22330490669E-01 -0.26373338435E-02  0.10211776075E+01  0.10209241082E+01 0.  0.
     999903    2    3    3    0    0  0.67022764863E-01 -0.16996008589E-02  0.11056002235E+00  0.13089170125E+00  0.20351394621E-01 0.  0.
         14    1    1    2    0    0  0.34734742046E-02  0.22330490669E-01  0.26373338435E-02  0.22752392542E-01  0.00000000000E+00 0. -1.
     999901    1    3    3    0    0 -0.70496239068E-01 -0.20630889810E-01 -0.11319735619E+00  0.89028590620E+00  0.88000000000E+00 0. -1.
        -11    1    4    4    0    0  0.61401690097E-03  0.54819207382E-03  0.11910568680E-01  0.11949907890E-01  0.51100000000E-03 0. -1.
         11    1    4    4    0    0  0.66408747962E-01 -0.22477929327E-02  0.98649453667E-01  0.11894179336E+00  0.51100000000E-03 0.  1.
</event>
<event>
 7    1  0.1129676E+005  0.1043930E+01  0.7957747E-01            NaN
         13   -1    0    0    0    0  0.00000000000E+00  0.00000000000E+00  0.74505805969E-08  0.10566000000E+00  0.10566000000E+00 0.  1.
     999900   -1    0    0    0    0 -0.00000000000E+00 -0.00000000000E+00 -0.74505805969E-08  0.93827000000E+00  0.93827000000E+00 0.  1.
     999903    2    1    2    0    0 -0.95441010619E-01  0.33252231997E-01 -0.42972663564E-01  0.11145690625E+00  0.19007753558E-01 0.  0.
         14    1    1    2    0    0 -0.33615326210E-02 -0.45350098572E-01 -0.37557148086E-02  0.45629340733E-01  0.00000000000E+00 0.  1.
     999901    1    1    2    0    0  0.98802543240E-01  0.12097866575E-01  0.46728378372E-01  0.88684375302E+00  0.88000000000E+00 0. -1.
        -11    1    3    3    0    0 -0.46916821387E-02 -0.71444603944E-03  0.12641156711E-02  0.49377549417E-02  0.51100000000E-03 0. -1.
         11    1    3    3    0    0 -0.90749328481E-01  0.33966678037E-01 -0.44236779235E-01  0.10651915130E+00  0.51100000000E-03 0.  1.
</event>
<event>
 8    1  0.1129676E+005  0.1043930E+01  0.7957747E-01            NaN
         13   -1    0    0    0    0  0.00000000000E+00  0.00000000000E+00  0.74505805969E-08  0.10566000000E+00  0.10566000000E+00 0.  1.
     999900   -1    0    0    0    0 -0.00000000000E+00 -0.00000000000E+00 -0.74505805969E-08  0.93827000000E+00  0.93827000000E+00 0.  1.
     999902    2    1    2    0    0  0.11461902040E-01 -0.53732870785E-02 -0.20124665335E-01  0.10201550222E+01  0.10198779436E+01 0.  0.
     999903    2    3    3    0    0  0.11428076526E+00 -0.10263276424E-01 -0.64258932026E-01  0.13305668264E+00  0.20234680628E-01 0.  0.
         14    1    1    2    0    0 -0.11461902040E-01  0.53732870785E-02  0.20124665335E-01  0.23774977755E-01  0.00000000000E+00 0. -1.
     999901    1    3    3    0    0 -0.10281886322E+00  0.48899893453E-02  0.44134266692E-01  0.88709833960E+00  0.88000000000E+00 0. -1.
        -11    1    4    4    0    0  0.10695187063E-02  0.58916170971E-03  0.12392700231E-02  0.18132548010E-02  0.51100000000E-03 0. -1.
         11    1    4    4    0    0  0.11321124655E+00 -0.10852438134E-01 -0.65498202049E-01  0.13124342784E+00  0.51100000000E-03 0.  1.
</event>
<event>
 8    1  0.1129676E+005  0.1043930E+01  0.7957747E-01            NaN
         13   -1    0    0    0    0  0.00000000000E+00  0.00000000000E+00  0.74505805969E-08  0.10566000000E+00  0.10566000000E+00 0.  1.
     999900   -1    0    0    0    0 -0.00000000000E+00 -0.00000000000E+00 -0.74505805969E-08  0.93827000000E+00  0.93827000000E+00 0.  1.
     999902    2    1    2    0    0  0.18341124027E-01  0.28600842439E-02 -0.14592030746E-01  0.10203184716E+01  0.10200452339E+01 0.  0.
     999903    2    3    3    0    0  0.51506504860E-01  0.93624279666E-01 -0.76406326325E-01  0.13287321199E+00  0.19973431745E-01 0.  0.
         14    1    1    2    0    0 -0.18341124027E-01 -0.28600842439E-02  0.14592030746E-01  0.23611528407E-01  0.00000000000E+00 0.  1.
     999901    1    3    3    0    0 -0.33165380833E-01 -0.90764195422E-01  0.61814295579E-01  0.88744525960E+00  0.88000000000E+00 0. -1.
        -11    1    4    4    0    0  0.21444018150E-01  0.20655857234E-01 -0.21686460733E-01  0.36838486025E-01  0.51100000000E-03 0.  1.
         11    1    4    4    0    0  0.30062486710E-01  0.72968422432E-01 -0.54719865592E-01  0.96034725964E-01  0.51100000000E-03 0. -1.
</event>
<event>
 8    1  0.1129676E+005  0.1043930E+01  0.7957747E-01            NaN
         13   -1    0    0    0    0  0.00000000000E+00  0.00000000000E+00  0.74505805969E-08  0.10566000000E+00  0.10566000000E+00 0.  1.
     999900   -1    0    0    0    0 -0.00000000000E+00 -0.00000000000E+00 -0.74505805969E-08  0.93827000000E+00  0.93827000000E+00 0. -1.
     999902    2    1    2    0    0 -0.99198654382E-02 -0.75528981350E-03 -0.25328528387E-01  0.10167177134E+01  0.10163534819E+01 0.  0.
     999903    2    3    3    0    0 -0.29500242107E-01 -0.56961986501E-01 -0.11138553383E+00  0.13051886882E+00  0.22660665979E-01 0.  0.
         14    1    1    2    0    0  0.99198654382E-02  0.75528981350E-03  0.25328528387E-01  0.27212286623E-01  0.00000000000E+00 0.  1.
     999901    1    3    3    0    0  0.19580376668E-01  0.56206696687E-01  0.86057005440E-01  0.88619884455E+00  0.88000000000E+00 0.  1.
        -11    1    4    4    0    0 -0.31191763237E-01 -0.40400438346E-01 -0.89278581739E-01  0.10283991341E+00  0.51100000000E-03 0. -1.
         11    1    4    4    0    0  0.16915211306E-02 -0.16561548155E-01 -0.22106952088E-01  0.27678955411E-01  0.51100000000E-03 0.  1.
</event>
<event>
 8    1  0.1129676E+005  0.1043930E+01  0.7957747E-01            NaN
         13   -1    0    0    0    0  0.00000000000E+00  0.00000000000E+00  0.74505805969E-08  0.10566000000E+00  0.10566000000E+00 0.  1.
     999900   -1    0    0    0    0 -0.00000000000E+00 -0.00000000000E+00 -0.74505805969E-08  0.93827000000E+00  0.93827000000E+00 0. -1.
     999902    2    1    2    0    0  0.11935614158E-01  0.11109232500E-01  0.17902374660E-01  0.10197149437E+01  0.10194273871E+01 0.  0.
     999903    2    3    3    0    0 -0.11072334062E+00 -0.20980545342E-01  0.61202347652E-01  0.12957458362E+00  0.18547342676E-01 0.  0.
         14    1    1    2    0    0 -0.11935614158E-01 -0.11109232500E-01 -0.17902374660E-01  0.24215056277E-01  0.00000000000E+00 0. -1.
     999901    1    3    3    0    0  0.12265895478E+00  0.32089777842E-01 -0.43299972993E-01  0.89014036011E+00  0.88000000000E+00 0.  1.
        -11    1    4    4    0    0 -0.31852883277E-01 -0.75403844318E-02  0.27508463831E-01  0.42760265128E-01  0.51100000000E-03 0.  1.
         11    1    4    4    0    0 -0.78870457342E-01 -0.13440160911E-01  0.33693883822E-01  0.86814318489E-01  0.51100000000E-03 0. -1.
</event>
<event>
 8    1  0.1129676E+005  0.1043930E+01  0.7957747E-01            NaN
         13   -1    0    0    0    0  0.00000000000E+00  0.00000000000E+00  0.74505805969E-08  0.10566000000E+00  0.10566000000E+00 0.  1.
     999900   -1    0    0    0    0 -0.00000000000E+00 -0.00000000000E+00 -0.74505805969E-08  0.93827000000E+00  0.93827000000E+00 0. -1.
     999902    2    1    2    0    0  0.20227354352E-01 -0.93021127903E-02  0.72484495043E-02  0.10205160045E+01  0.10202473721E+01 0.  0.
     999903    2    3    3    0    0  0.11371009595E+00  0.46025519611E-01 -0.46639433946E-01  0.13220070354E+00  0.15920265135E-01 0.  0.
         14    1    1    2    0    0 -0.20227354352E-01  0.93021127903E-02 -0.72484495043E-02  0.23413995530E-01  0.00000000000E+00 0. -1.
     999901    1    3    3    0    0 -0.93482741596E-01 -0.55327632401E-01  0.53887883450E-01  0.88831530093E+00  0.88000000000E+00 0.  1.
        -11    1    4    4    0    0  0.10389866466E+00  0.42347121273E-01 -0.47137682741E-01  0.12169812428E+00  0.51100000000E-03 0.  1.
         11    1    4    4    0    0  0.98114312899E-02  0.36783983380E-02  0.49824879516E-03  0.10502579262E-01  0.51100000000E-03 0. -1.
</event>
<event>
 8    1  0.1129676E+005  0.1043930E+01  0.7957747E-01            NaN
         13   -1    0    0    0    0  0.00000000000E+00  0.00000000000E+00  0.74505805969E-08  0.10566000000E+00  0.10566000000E+00 0. -1.
     999900   -1    0    0    0    0 -0.00000000000E+00 -0.00000000000E+00 -0.74505805969E-08  0.93827000000E+00  0.93827000000E+00 0. -1.
     999902    2    1    2    0    0  0.10004264659E-01 -0.18062645432E-01  0.11417508125E-01  0.10203354251E+01  0.10200625843E+01 0.  0.
     999903    2    3    3    0    0  0.90219876700E-01  0.38436377202E-01 -0.82734557986E-01  0.12989098805E+00  0.20240564422E-01 0.  0.
         14    1    1    2    0    0 -0.10004264659E-01  0.18062645432E-01 -0.11417508125E-01  0.23594574867E-01  0.00000000000E+00 0.  1.
     999901    1    3    3    0    0 -0.80215612040E-01 -0.56499022633E-01  0.94152066112E-01  0.89044443708E+00  0.88000000000E+00 0. -1.
        -11    1    4    4    0    0  0.18634114810E-01  0.15336973918E-01 -0.27347824556E-01  0.36477631950E-01  0.51100000000E-03 0.  1.
         11    1    4    4    0    0  0.71585761890E-01  0.23099403283E-01 -0.55386733430E-01  0.93413356103E-01  0.51100000000E-03 0. -1.
</event>
<event>
 8    1  0.1129676E+005  0.1043930E+01  0.7957747E-01            NaN
         13   -1    0    0    0    0  0.00000000000E+00  0.00000000000E+00  0.74505805969E-08  0.10566000000E+00  0.10566000000E+00 0. -1.
     999900   -1    0    0    0    0 -0.00000000000E+00 -0.00000000000E+00 -0.74505805969E-08  0.93827000000E+00  0.93827000000E+00 0.  1.
     999902    2    1    2    0    0  0.14968796564E-01  0.46499935943E-02  0.52122491213E-02  0.10274116813E+01  0.10272788852E+01 0.  0.
     999903    2    3    3    0    0  0.13556345833E+00 -0.20417087248E-01 -0.72638908552E-02  0.13874577950E+00  0.20082792008E-01 0.  0.
         14    1    1    2    0    0 -0.14968796564E-01 -0.46499935943E-02 -0.52122491213E-02  0.16518318676E-01  0.00000000000E+00 0.  1.
     999901    1    3    3    0    0 -0.12059466176E+00  0.25067080842E-01  0.12476139976E-01  0.88866590182E+00  0.88000000000E+00 0.  1.
        -11    1    4    4    0    0  0.27101087348E-01 -0.11761074824E-01 -0.46104626030E-02  0.29905004646E-01  0.51100000000E-03 0.  1.
         11    1    4    4    0    0  0.10846237098E+00 -0.86560124241E-02 -0.26534282522E-02  0.10884077486E+00  0.51100000000E-03 0. -1.
</event>
<event>
 8    1  0.1129676E+005  0.1043930E+01  0.7957747E-01            NaN
         13   -1    0    0    0    0  0.00000000000E+00  0.00000000000E+00  0.74505805969E-08  0.10566000000E+00  0.10566000000E+00 0.  1.
     999900   -1    0    0    0    0 -0.00000000000E+00 -0.00000000000E+00 -0.74505805969E-08  0.93827000000E+00  0.93827000000E+00 0. -1.
     999902    2    1    2    0    0 -0.64616461059E-02  0.16037585665E-01 -0.16613222951E-01  0.10199517557E+01  0.10196698621E+01 0.  0.
     999903    2    3    3    0    0  0.21486869227E-02  0.10872516564E+00 -0.74192937798E-01  0.13317075177E+00  0.20101706586E-01 0.  0.
         14    1    1    2    0    0  0.64616461059E-02 -0.16037585665E-01  0.16613222951E-01  0.23978244331E-01  0.00000000000E+00 0.  1.
     999901    1    3    3    0    0 -0.86103330285E-02 -0.92687579979E-01  0.57579714846E-01  0.88678100390E+00  0.88000000000E+00 0.  1.
        -11    1    4    4    0    0  0.72258486972E-02  0.19252057979E-01 -0.95962795596E-02  0.22698112878E-01  0.51100000000E-03 0. -1.
         11    1    4    4    0    0 -0.50771617745E-02  0.89473107665E-01 -0.64596658238E-01  0.11047263889E+00  0.51100000000E-03 0.  1.
</event>
<event>
 8    1  0.1129676E+005  0.1043930E+01  0.7957747E-01            NaN
         13   -1    0    0    0    0  0.00000000000E+00  0.00000000000E+00  0.74505805969E-08  0.10566000000E+00  0.10566000000E+00 0. -1.
     999900   -1    0    0    0    0 -0.00000000000E+00 -0.00000000000E+00 -0.74505805969E-08  0.93827000000E+00  0.93827000000E+00 0. -1.
     999902    2    1    2    0    0 -0.70379969719E-02 -0.12460110111E-01  0.19060008948E-01  0.10200957455E+01  0.10198172671E+01 0.  0.
     999903    2    3    3    0    0 -0.62793782449E-01  0.19942984251E-01  0.11353971646E+00  0.13269218272E+00  0.19369212859E-01 0.  0.
         14    1    1    2    0    0  0.70379969719E-02  0.12460110111E-01 -0.19060008948E-01  0.23834254476E-01  0.00000000000E+00 0.  1.
     999901    1    3    3    0    0  0.55755785477E-01 -0.32403094361E-01 -0.94479707513E-01  0.88740356280E+00  0.88000000000E+00 0. -1.
        -11    1    4    4    0    0 -0.50644670981E-01  0.18276274364E-01  0.10412793356E+00  0.11722539218E+00  0.51100000000E-03 0.  1.
         11    1    4    4    0    0 -0.12149111468E-01  0.16667098868E-02  0.94117828995E-02  0.15466790542E-01  0.51100000000E-03 0. -1.
</event>
<event>
 8    1  0.1129676E+005  0.1043930E+01  0.7957747E-01            NaN
         13   -1    0    0    0    0  0.00000000000E+00  0.00000000000E+00  0.74505805969E-08  0.10566000000E+00  0.10566000000E+00 0.  1.
     999900   -1    0    0    0    0 -0.00000000000E+00 -0.00000000000E+00 -0.74505805969E-08  0.93827000000E+00  0.93827000000E+00 0.  1.
     999902    2    1    2    0    0 -0.18033812780E-01  0.12075745184E-04 -0.18265083846E-01  0.10182622803E+01  0.10179387209E+01 0.  0.
     999903    2    3    3    0    0  0.35800132849E-01 -0.11908559213E+00 -0.24919975871E-01  0.12858445329E+00  0.21211522007E-01 0.  0.
         14    1    1    2    0    0  0.18033812780E-01 -0.12075745184E-04  0.18265083846E-01  0.25667719749E-01  0.00000000000E+00 0.  1.
     999901    1    3    3    0    0 -0.53833945629E-01  0.11909766788E+00  0.66548920250E-02  0.88967782696E+00  0.88000000000E+00 0.  1.
        -11    1    4    4    0    0  0.13330488565E-01 -0.17096325147E-01 -0.52540598477E-02  0.22312609099E-01  0.51100000000E-03 0.  1.
         11    1    4    4    0    0  0.22469644284E-01 -0.10198926698E+00 -0.19665916023E-01  0.10627184419E+00  0.51100000000E-03 0. -1.
</event>
<event>
 8    1  0.1129676E+005  0.1043930E+01  0.7957747E-01            NaN
         13   -1    0    0    0    0  0.00000000000E+00  0.00000000000E+00  0.74505805969E-08  0.10566000000E+00  0.10566000000E+00 0.  1.
     999900   -1    0    0    0    0 -0.00000000000E+00 -0.00000000000E+00 -0.74505805969E-08  0.93827000000E+00  0.93827000000E+00 0.  1.
     999902    2    1    2    0    0  0.22099763318E-01  0.55742492036E-02 -0.72194313017E-02  0.10200220101E+01  0.10197417855E+01 0.  0.
     999903    2    3    3    0    0 -0.10498593857E-01  0.12528583875E+00 -0.30534403958E-01  0.13101295192E+00  0.20622363627E-01 0.  0.
         14    1    1    2    0    0 -0.22099763318E-01 -0.55742492036E-02  0.72194313017E-02  0.23907989903E-01  0.00000000000E+00 0.  1.
     999901    1    3    3    0    0  0.32598357175E-01 -0.11971158955E+00  0.23314972656E-01  0.88900905817E+00  0.88000000000E+00 0. -1.
        -11    1    4    4    0    0 -0.45856570053E-02  0.10868468428E+00 -0.20404159321E-01  0.11067962634E+00  0.51100000000E-03 0.  1.
         11    1    4    4    0    0 -0.59129368521E-02  0.16601154473E-01 -0.10130244636E-01  0.20333325588E-01  0.51100000000E-03 0. -1.
</event>
<event>
 8    1  0.1129676E+005  0.1043930E+01  0.7957747E-01            NaN
         13   -1    0    0    0    0  0.00000000000E+00  0.00000000000E+00  0.74505805969E-08  0.10566000000E+00  0.10566000000E+00 0. -1.
     999900   -1    0    0    0    0 -0.00000000000E+00 -0.00000000000E+00 -0.74505805969E-08  0.93827000000E+00  0.93827000000E+00 0. -1.
     999902    2    1    2    0    0 -0.23679624360E-02  0.14583055529E-01  0.18978108481E-01  0.10198791922E+01  0.10195955695E+01 0.  0.
     999903    2    3    3    0    0 -0.20056934554E-01  0.62343101338E-01 -0.10960255747E+00  0.12907791841E+00  0.18959048224E-01 0.  0.
         14    1    1    2    0    0  0.23679624360E-02 -0.14583055529E-01 -0.18978108481E-01  0.24050807807E-01  0.00000000000E+00 0.  1.
     999901    1    3    3    0    0  0.17688972118E-01 -0.47760045810E-01  0.12858066595E+00  0.89080127378E+00  0.88000000000E+00 0.  1.
        -11    1    4    4    0    0 -0.10982706425E-01  0.37099123370E-01 -0.81528353954E-01  0.90244658649E-01  0.51100000000E-03 0. -1.
         11    1    4    4    0    0 -0.90742281286E-02  0.25243977969E-01 -0.28074203517E-01  0.38833259765E-01  0.51100000000E-03 0.  1.
</event>
<event>
 8    1  0.1129676E+005  0.1043930E+01  0.7957747E-01            NaN
         13   -1    0    0    0    0  0.00000000000E+00  0.00000000000E+00  0.74505805969E-08  0.10566000000E+00  0.10566000000E+00 0.  1.
     999900   -1    0    0    0    0 -0.00000000000E+00 -0.00000000000E+00 -0.74505805969E-08  0.93827000000E+00  0.93827000000E+00 0. -1.
     999902    2    1    2    0    0 -0.25045779345E-01  0.65658980298E-02  0.64452242897E-03  0.10180298554E+01  0.10177003336E+01 0.  0.
     999903    2    3    3    0    0  0.32313742560E-01  0.48957566032E-01 -0.11199548805E+00  0.12798775517E+00  0.19921217330E-01 0.  0.
         14    1    1    2    0    0  0.25045779345E-01 -0.65658980298E-02 -0.64452242897E-03  0.25900144577E-01  0.00000000000E+00 0. -1.
     999901    1    3    3    0    0 -0.57359521905E-01 -0.42391668002E-01  0.11264001048E+00  0.89004210026E+00  0.88000000000E+00 0.  1.
        -11    1    4    4    0    0  0.34035648460E-01  0.47885399951E-01 -0.10142536030E+00  0.11721263468E+00  0.51100000000E-03 0.  1.
         11    1    4    4    0    0 -0.17219059001E-02  0.10721660805E-02 -0.10570127744E-01  0.10775120489E-01  0.51100000000E-03 0. -1.
</event>
<event>
 8    1  0.1129676E+005  0.1043930E+01  0.7957747E-01            NaN
         13   -1    0    0    0    0  0.00000000000E+00  0.00000000000E+00  0.74505805969E-08  0.10566000000E+00  0.10566000000E+00 0. -1.
     999900   -1    0    0    0    0 -0.00000000000E+00 -0.00000000000E+00 -0.74505805969E-08  0.93827000000E+00  0.93827000000E+00 0. -1.
     999902    2    1    2    0    0  0.21133135995E-01 -0.13118489808E-01  0.47810330908E-02  0.10186009161E+01  0.10182859441E+01 0.  0.
     999903    2    3    3    0    0 -0.39443263285E-01 -0.43723321849E-01 -0.11219972563E+00  0.12826915000E+00  0.19917241709E-01 0.  0.
         14    1    1    2    0    0 -0.21133135995E-01  0.13118489808E-01 -0.47810330908E-02  0.25329083861E-01  0.00000000000E+00 0.  1.
     999901    1    3    3    0    0  0.60576399280E-01  0.30604832040E-01  0.11698075872E+00  0.89033176614E+00  0.88000000000E+00 0.  1.
        -11    1    4    4    0    0 -0.12968662096E-01 -0.29216798607E-01 -0.57615938713E-01  0.65891312266E-01  0.51100000000E-03 0.  1.
         11    1    4    4    0    0 -0.26474601188E-01 -0.14506523241E-01 -0.54583786916E-01  0.62377837729E-01  0.51100000000E-03 0. -1.
</event>
<event>
 8    1  0.1129676E+005  0.1043930E+01  0.7957747E-01            NaN
         13   -1    0    0    0    0  0.00000000000E+00  0.00000000000E+00  0.74505805969E-08  0.10566000000E+00  0.10566000000E+00 0.  1.
     999900   -1    0    0    0    0 -0.00000000000E+00 -0.00000000000E+00 -0.74505805969E-08  0.93827000000E+00  0.93827000000E+00 0. -1.
     999902    2    1    2    0    0 -0.21779485163E-01 -0.68854848923E-02 -0.34548129234E-02  0.10208282337E+01  0.10205667989E+01 0.  0.
     999903    2    3    3    0    0  0.97242748714E-01 -0.70622338200E-01 -0.44603001983E-01  0.12958087624E+00  0.18923764718E-01 0.  0.
         14    1    1    2    0    0  0.21779485163E-01  0.68854848923E-02  0.34548129234E-02  0.23101766350E-01  0.00000000000E+00 0.  1.
     999901    1    3    3    0    0 -0.11902223388E+00  0.63736853308E-01  0.41148189059E-01  0.89124735741E+00  0.88000000000E+00 0.  1.
        -11    1    4    4    0    0  0.38081598220E-01 -0.34852858286E-01 -0.11325805229E-01  0.52853238679E-01  0.51100000000E-03 0.  1.
         11    1    4    4    0    0  0.59161150494E-01 -0.35769479914E-01 -0.33277196754E-01  0.76727637562E-01  0.51100000000E-03 0. -1.
</event>
<event>
 8    1  0.1129676E+005  0.1043930E+01  0.7957747E-01            NaN
         13   -1    0    0    0    0  0.00000000000E+00  0.00000000000E+00  0.74505805969E-08  0.10566000000E+00  0.10566000000E+00 0. -1.
     999900   -1    0    0    0    0 -0.00000000000E+00 -0.00000000000E+00 -0.74505805969E-08  0.93827000000E+00  0.93827000000E+00 0.  1.
     999902    2    1    2    0    0  0.15248564400E-01 -0.17813975635E-01 -0.93646717049E-02  0.10186801778E+01  0.10183671986E+01 0.  0.
     999903    2    3    3    0    0  0.70702528475E-01  0.65683323431E-01  0.81973759847E-01  0.12829281820E+00  0.20644693969E-01 0.  0.
         14    1    1    2    0    0 -0.15248564400E-01  0.17813975635E-01  0.93646717049E-02  0.25249822184E-01  0.00000000000E+00 0. -1.
     999901    1    3    3    0    0 -0.55453964074E-01 -0.83497299066E-01 -0.91338431551E-01  0.89038735961E+00  0.88000000000E+00 0. -1.
        -11    1    4    4    0    0  0.48601347592E-01  0.31297807983E-01  0.48032944662E-01  0.75160286496E-01  0.51100000000E-03 0.  1.
         11    1    4    4    0    0  0.22101180883E-01  0.34385515448E-01  0.33940815184E-01  0.53132531705E-01  0.51100000000E-03 0. -1.
</event>
<event>
 8    1  0.1129676E+005  0.1043930E+01  0.7957747E-01            NaN
         13   -1    0    0    0    0  0.00000000000E+00  0.00000000000E+00  0.74505805969E-08  0.10566000000E+00  0.10566000000E+00 0.  1.
     999900   -1    0    0    0    0 -0.00000000000E+00 -0.00000000000E+00 -0.74505805969E-08  0.93827000000E+00  0.93827000000E+00 0. -1.
     999902    2    1    2    0    0 -0.20200999688E-01 -0.22306481716E-02  0.82961797836E-02  0.10219781714E+01  0.10217423844E+01 0.  0.
     999903    2    3    3    0    0  0.99103802358E-01  0.65402495981E-01 -0.48120220233E-01  0.12957092795E+00  0.19339587702E-01 0.  0.
         14    1    1    2    0    0  0.20200999688E-01  0.22306481716E-02 -0.82961797836E-02  0.21951828595E-01  0.00000000000E+00 0. -1.
     999901    1    3    3    0    0 -0.11930480205E+00 -0.67633144153E-01  0.56416400016E-01  0.89240724345E+00  0.88000000000E+00 0. -1.
        -11    1    4    4    0    0  0.46316886057E-01  0.36198658387E-01 -0.32838170345E-01  0.67336493491E-01  0.51100000000E-03 0.  1.
         11    1    4    4    0    0  0.52786916301E-01  0.29203837594E-01 -0.15282049887E-01  0.62234434460E-01  0.51100000000E-03 0. -1.
</event>
<event>
 8    1  0.1129676E+005  0.1043930E+01  0.7957747E-01            NaN
         13   -1    0    0    0    0  0.00000000000E+00  0.00000000000E+00  0.74505805969E-08  0.10566000000E+00  0.10566000000E+00 0.  1.
     999900   -1    0    0    0    0 -0.00000000000E+00 -0.00000000000E+00 -0.74505805969E-08  0.93827000000E+00  0.93827000000E+00 0.  1.
     999902    2    1    2    0    0  0.17457460126E-01 -0.69816833114E-02 -0.13232305560E-01  0.10209386815E+01  0.10206797689E+01 0.  0.
     999903    2    3    3    0    0  0.18108986642E-01 -0.12944366986E+00 -0.43346313883E-02  0.13241376275E+00  0.20760936203E-01 0.  0.
         14    1    1    2    0    0 -0.17457460126E-01  0.69816833114E-02  0.13232305560E-01  0.22991318499E-01  0.00000000000E+00 0.  1.
     999901    1    3    3    0    0 -0.65152651607E-03  0.12246198655E+00 -0.88976741715E-02  0.88852491875E+00  0.88000000000E+00 0. -1.
        -11    1    4    4    0    0  0.11161054065E-01 -0.53859351575E-01 -0.11420387107E-01  0.56179046295E-01  0.51100000000E-03 0. -1.
         11    1    4    4    0    0  0.69479325763E-02 -0.75584318286E-01  0.70857557191E-02  0.76234716455E-01  0.51100000000E-03 0.  1.
</event>
<event>
 8    1  0.1129676E+005  0.1043930E+01  0.7957747E-01            NaN
         13   -1    0    0    0    0  0.00000000000E+00  0.00000000000E+00  0.74505805969E-08  0.10566000000E+00  0.10566000000E+00 0.  1.
     999900   -1    0    0    0    0 -0.00000000000E+00 -0.00000000000E+00 -0.74505805969E-08  0.93827000000E+00  0.93827000000E+00 0.  1.
     999902    2    1    2    0    0 -0.59710794778E-02  0.20371287409E-01 -0.10817610376E-01  0.10201043031E+01  0.10198260270E+01 0.  0.
     999903    2    3    3    0    0 -0.76020588260E-01 -0.45711029845E-03 -0.10604648954E+00  0.13195493765E+00  0.19669998443E-01 0.  0.
         14    1    1    2    0    0  0.59710794778E-02 -0.20371287409E-01  0.10817610376E-01  0.23825696949E-01  0.00000000000E+00 0.  1.
     999901    1    3    3    0    0  0.70049508783E-01  0.20828397708E-01  0.95228879160E-01  0.88814936540E+00  0.88000000000E+00 0.  1.
        -11    1    4    4    0    0 -0.35971564621E-02 -0.40545465774E-03 -0.14806538122E-03  0.36588211831E-02  0.51100000000E-03 0. -1.
         11    1    4    4    0    0 -0.72423431798E-01 -0.51655640706E-04 -0.10589842415E+00  0.12829611647E+00  0.51100000000E-03 0.  1.
</event>
<event>
 8    1  0.1129676E+005  0.1043930E+01  0.7957747E-01            NaN
         13   -1    0    0    0    0  0.00000000000E+00  0.00000000000E+00  0.74505805969E-08  0.10566000000E+00  0.10566000000E+00 0.  1.
     999900   -1    0    0    0    0 -0.00000000000E+00 -0.00000000000E+00 -0.74505805969E-08  0.93827000000E+00  0.93827000000E+00 0.  1.
     999902    2    1    2    0    0 -0.44760075587E-02 -0.16876524856E-01 -0.16724095475E-01  0.10197525910E+01  0.10194659385E+01 0.  0.
     999903    2    3    3    0    0 -0.88989342370E-02  0.11871124474E+00 -0.45311425207E-01  0.12889859572E+00  0.19752773625E-01 0.  0.
         14    1    1    2    0    0  0.44760075587E-02  0.16876524856E-01  0.16724095475E-01  0.24177408966E-01  0.00000000000E+00 0.  1.
     999901    1    3    3    0    0  0.44229266783E-02 -0.13558776960E+00  0.28587329732E-01  0.89085399531E+00  0.88000000000E+00 0. -1.
        -11    1    4    4    0    0  0.43110794025E-02  0.59858460398E-01 -0.17785592397E-01  0.62595599723E-01  0.51100000000E-03 0.  1.
         11    1    4    4    0    0 -0.13210013639E-01  0.58852784343E-01 -0.27525832810E-01  0.66302995997E-01  0.51100000000E-03 0. -1.
</event>
<event>
 8    1  0.1129676E+005  0.1043930E+01  0.7957747E-01            NaN
         13   -1    0    0    0    0  0.00000000000E+00  0.00000000000E+00  0.74505805969E-08  0.10566000000E+00  0.10566000000E+00 0. -1.
     999900   -1    0    0    0    0 -0.00000000000E+00 -0.00000000000E+00 -0.74505805969E-08  0.93827000000E+00  0.93827000000E+00 0.  1.
     999902    2    1    2    0    0  0.10321195146E-01 -0.38670437382E-02 -0.20554488152E-01  0.10206068767E+01  0.10203403495E+01 0.  0.
     999903    2    3    3    0    0 -0.80079187471E-01 -0.86842933953E-01 -0.54120409421E-01  0.13145902703E+00  0.19952083296E-01 0.  0.
         14    1    1    2    0    0 -0.10321195146E-01  0.38670437382E-02  0.20554488152E-01  0.23323123284E-01  0.00000000000E+00 0. -1.
     999901    1    3    3    0    0  0.90400382617E-01  0.82975890214E-01  0.33565921269E-01  0.88914784969E+00  0.88000000000E+00 0. -1.
        -11    1    4    4    0    0 -0.25372606393E-01 -0.20339373924E-01 -0.23247859739E-01  0.39977285929E-01  0.51100000000E-03 0.  1.
         11    1    4    4    0    0 -0.54706581078E-01 -0.66503560028E-01 -0.30872549681E-01  0.91481741099E-01  0.51100000000E-03 0. -1.
</event>
<event>
 8    1  0.1129676E+005  0.1043930E+01  0.7957747E-01            NaN
         13   -1    0    0    0    0  0.00000000000E+00  0.00000000000E+00  0.74505805969E-08  0.10566000000E+00  0.10566000000E+00 0.  1.
     999900   -1    0    0    0    0 -0.00000000000E+00 -0.00000000000E+00 -0.74505805969E-08  0.93827000000E+00  0.93827000000E+00 0.  1.
     999902    2    1    2    0    0  0.21623260745E-01 -0.59913110406E-02 -0.60868224627E-02  0.10206811157E+01  0.10204163020E+01 0.  0.
     999903    2    3    3    0    0  0.65346763727E-01 -0.35455451692E-01 -0.10885407600E+00  0.13313337688E+00  0.18654693569E-01 0.  0.
         14    1    1    2    0    0 -0.21623260745E-01  0.59913110406E-02  0.60868224627E-02  0.23248884294E-01  0.00000000000E+00 0.  1.
     999901    1    3    3    0    0 -0.43723502982E-01  0.29464140652E-01  0.10276725354E+00  0.88754773883E+00  0.88000000000E+00 0. -1.
        -11    1    4    4    0    0  0.21393649017E-01 -0.21721181657E-01 -0.39956296853E-01  0.50261961065E-01  0.51100000000E-03 0. -1.
         11    1    4    4    0    0  0.43953114710E-01 -0.13734270035E-01 -0.68897779151E-01  0.82871415814E-01  0.51100000000E-03 0.  1.
</event>
<event>
 8    1  0.1129676E+005  0.1043930E+01  0.7957747E-01            NaN
         13   -1    0    0    0    0  0.00000000000E+00  0.00000000000E+00  0.74505805969E-08  0.10566000000E+00  0.10566000000E+00 0. -1.
     999900   -1    0    0    0    0 -0.00000000000E+00 -0.00000000000E+00 -0.74505805969E-08  0.93827000000E+00  0.93827000000E+00 0.  1.
     999902    2    1    2    0    0  0.15945758376E-01  0.16304385143E-01  0.10614854505E-01  0.10187749742E+01  0.10184643699E+01 0.  0.
     999903    2    3    3    0    0  0.99696210222E-02 -0.11996048109E+00  0.37566270266E-01  0.12785959846E+00  0.21141000178E-01 0.  0.
         14    1    1    2    0    0 -0.15945758376E-01 -0.16304385143E-01 -0.10614854505E-01  0.25155025765E-01  0.00000000000E+00 0.  1.
     999901    1    3    3    0    0  0.59761373542E-02  0.13626486623E+00 -0.26951415761E-01  0.89091537578E+00  0.88000000000E+00 0.  1.
        -11    1    4    4    0    0  0.82281029049E-02 -0.28603471129E-01  0.20957888163E-02  0.29841475999E-01  0.51100000000E-03 0.  1.
         11    1    4    4    0    0  0.17415181173E-02 -0.91357009962E-01  0.35470481450E-01  0.98018122456E-01  0.51100000000E-03 0. -1.
</event>
<event>
 8    1  0.1129676E+005  0.1043930E+01  0.7957747E-01            NaN
         13   -1    0    0    0    0  0.00000000000E+00  0.00000000000E+00  0.74505805969E-08  0.10566000000E+00  0.10566000000E+00 0.  1.
     999900   -1    0    0    0    0 -0.00000000000E+00 -0.00000000000E+00 -0.74505805969E-08  0.93827000000E+00  0.93827000000E+00 0. -1.
     999902    2    1    2    0    0  0.54406406911E-02 -0.21953131064E-01  0.66980269027E-02  0.10203417805E+01  0.10200690883E+01 0.  0.
     999903    2    3    3    0    0  0.72426892573E-01 -0.77192355600E-01 -0.76536418822E-01  0.13216020964E+00  0.20104304884E-01 0.  0.
         14    1    1    2    0    0 -0.54406406911E-02  0.21953131064E-01 -0.66980269027E-02  0.23588219496E-01  0.00000000000E+00 0.  1.
     999901    1    3    3    0    0 -0.66986251881E-01  0.55239224536E-01  0.83234445725E-01  0.88818157086E+00  0.88000000000E+00 0.  1.
        -11    1    4    4    0    0  0.39619767922E-01 -0.36251094831E-01 -0.27455458454E-01  0.60315265121E-01  0.51100000000E-03 0. -1.
         11    1    4    4    0    0  0.32807124651E-01 -0.40941260769E-01 -0.49080960368E-01  0.71844944518E-01  0.51100000000E-03 0.  1.
</event>
<event>
 8    1  0.1129676E+005  0.1043930E+01  0.7957747E-01            NaN
         13   -1    0    0    0    0  0.00000000000E+00  0.00000000000E+00  0.74505805969E-08  0.10566000000E+00  0.10566000000E+00 0.  1.
     999900   -1    0    0    0    0 -0.00000000000E+00 -0.00000000000E+00 -0.74505805969E-08  0.93827000000E+00  0.93827000000E+00 0.  1.
     999902    2    1    2    0    0  0.13576249530E-01  0.18204683962E-01  0.53353004580E-02  0.10206021090E+01  0.10203354715E+01 0.  0.
     999903    2    3    3    0    0 -0.76951694842E-01 -0.10043323316E+00 -0.12689868376E-02  0.12801380481E+00  0.19430034313E-01 0.  0.
         14    1    1    2    0    0 -0.13576249530E-01 -0.18204683962E-01 -0.53353004580E-02  0.23327891041E-01  0.00000000000E+00 0.  1.
     999901    1    3    3    0    0  0.90527944372E-01  0.11863791712E+00  0.66042872956E-02  0.89258830415E+00  0.88000000000E+00 0.  1.
        -11    1    4    4    0    0 -0.43238002308E-01 -0.49309501079E-01  0.80190827469E-02  0.66072070872E-01  0.51100000000E-03 0.  1.
         11    1    4    4    0    0 -0.33713692535E-01 -0.51123732077E-01 -0.92880695844E-02  0.61941733939E-01  0.51100000000E-03 0. -1.
</event>
<event>
 8    1  0.1129676E+005  0.1043930E+01  0.7957747E-01            NaN
         13   -1    0    0    0    0  0.00000000000E+00  0.00000000000E+00  0.74505805969E-08  0.10566000000E+00  0.10566000000E+00 0.  1.
     999900   -1    0    0    0    0 -0.00000000000E+00 -0.00000000000E+00 -0.74505805969E-08  0.93827000000E+00  0.93827000000E+00 0.  1.
     999902    2    1    2    0    0  0.23370427940E-02 -0.22286019608E-01  0.56983310776E-02  0.10208085940E+01  0.10205467094E+01 0.  0.
     999903    2    3    3    0    0  0.36873066363E-01  0.10318468578E+00  0.65463865158E-01  0.12923271169E+00  0.20220626223E-01 0.  0.
         14    1    1    2    0    0 -0.23370427940E-02  0.22286019608E-01 -0.56983310776E-02  0.23121406013E-01  0.00000000000E+00 0. -1.
     999901    1    3    3    0    0 -0.34536023569E-01 -0.12547070539E+00 -0.59765534080E-01  0.89157588230E+00  0.88000000000E+00 0.  1.
        -11    1    4    4    0    0  0.21953575317E-02  0.20354365847E-01  0.19823683979E-01  0.28501918729E-01  0.51100000000E-03 0. -1.
         11    1    4    4    0    0  0.34677708831E-01  0.82830319937E-01  0.45640181179E-01  0.10073079296E+00  0.51100000000E-03 0.  1.
</event>
<event>
 8    1  0.1129676E+005  0.1043930E+01  0.7957747E-01            NaN
         13   -1    0    0    0    0  0.00000000000E+00  0.00000000000E+00  0.74505805969E-08  0.10566000000E+00  0.10566000000E+00 0. -1.
     999900   -1    0    0    0    0 -0.00000000000E+00 -0.00000000000E+00 -0.74505805969E-08  0.93827000000E+00  0.93827000000E+00 0.  1.
     999902    2    1    2    0    0 -0.16946987902E-01 -0.11112018075E-01 -0.55232521524E-02  0.10229256276E+01  0.10227099569E+01 0.  0.
     999903    2    3    3    0    0  0.12867154763E+00 -0.83487912011E-02 -0.11316197537E-01  0.13093574453E+00  0.19749516100E-01 0.  0.
         14    1    1    2    0    0  0.16946987902E-01  0.11112018075E-01  0.55232521524E-02  0.21004372378E-01  0.00000000000E+00 0. -1.
     999901    1    3    3    0    0 -0.14561853553E+00 -0.27632268740E-02  0.57929453849E-02  0.89198988309E+00  0.88000000000E+00 0. -1.
        -11    1    4    4    0    0  0.16627748352E-01 -0.12488354560E-02  0.51629733859E-02  0.17463075915E-01  0.51100000000E-03 0. -1.
         11    1    4    4    0    0  0.11204379928E+00 -0.70999557451E-02 -0.16479170923E-01  0.11347266862E+00  0.51100000000E-03 0.  1.
</event>
<event>
 8    1  0.1129676E+005  0.1043930E+01  0.7957747E-01            NaN
         13   -1    0    0    0    0  0.00000000000E+00  0.00000000000E+00  0.74505805969E-08  0.10566000000E+00  0.10566000000E+00 0. -1.
     999900   -1    0    0    0    0 -0.00000000000E+00 -0.00000000000E+00 -0.74505805969E-08  0.93827000000E+00  0.93827000000E+00 0. -1.
     999902    2    1    2    0    0  0.26874514281E-01 -0.93916219337E-03  0.13496630860E-02  0.10170052320E+01  0.10166487588E+01 0.  0.
     999903    2    3    3    0    0  0.11110358110E+00 -0.47589304618E-01 -0.46257189938E-01  0.13047424889E+00  0.16584762780E-01 0.  0.
         14    1    1    2    0    0 -0.26874514281E-01  0.93916219337E-03 -0.13496630860E-02  0.26924768039E-01  0.00000000000E+00 0. -1.
     999901    1    3    3    0    0 -0.84229066816E-01  0.46650142425E-01  0.47606853024E-01  0.88653098307E+00  0.88000000000E+00 0.  1.
        -11    1    4    4    0    0  0.79709734246E-01 -0.38699551126E-01 -0.27223509536E-01  0.92696696723E-01  0.51100000000E-03 0.  1.
         11    1    4    4    0    0  0.31393846852E-01 -0.88897534918E-02 -0.19033680402E-01  0.37777552170E-01  0.51100000000E-03 0. -1.
</event>
<event>
 8    1  0.1129676E+005  0.1043930E+01  0.7957747E-01            NaN
         13   -1    0    0    0    0  0.00000000000E+00  0.00000000000E+00  0.74505805969E-08  0.10566000000E+00  0.10566000000E+00 0. -1.
     999900   -1    0    0    0    0 -0.00000000000E+00 -0.00000000000E+00 -0.74505805969E-08  0.93827000000E+00  0.93827000000E+00 0.  1.
     999902    2    1    2    0    0  0.13249843919E-01 -0.18828048300E-01  0.59599434505E-02  0.10201481857E+01  0.10198709458E+01 0.  0.
     999903    2    3    3    0    0  0.66984103478E-01 -0.74161504238E-02 -0.11025382592E+00  0.13080953125E+00  0.20331205787E-01 0.  0.
         14    1    1    2    0    0 -0.13249843919E-01  0.18828048300E-01 -0.59599434505E-02  0.23781814325E-01  0.00000000000E+00 0. -1.
     999901    1    3    3    0    0 -0.53734259559E-01 -0.11411897877E-01  0.11621376937E+00  0.88933865443E+00  0.88000000000E+00 0. -1.
        -11    1    4    4    0    0  0.11188555322E-01  0.17245579688E-02 -0.34282056964E-01  0.36106487243E-01  0.51100000000E-03 0. -1.
         11    1    4    4    0    0  0.55795548156E-01 -0.91407083926E-02 -0.75971768961E-01  0.94703044006E-01  0.51100000000E-03 0.  1.
</event>
<event>
 8    1  0.1129676E+005  0.1043930E+01  0.7957747E-01            NaN
         13   -1    0    0    0    0  0.00000000000E+00  0.00000000000E+00  0.74505805969E-08  0.10566000000E+00  0.10566000000E+00 0. -1.
     999900   -1    0    0    0    0 -0.00000000000E+00 -0.00000000000E+00 -0.74505805969E-08  0.93827000000E+00  0.93827000000E+00 0.  1.
     999902    2    1    2    0    0 -0.44198955714E-02 -0.22229076436E-01  0.54027991501E-02  0.10206306963E+01  0.10203647194E+01 0.  0.
     999903    2    3    3    0    0 -0.15697224484E-01  0.12552586130E+00 -0.61847395205E-02  0.12816614748E+00  0.19625637492E-01 0.  0.
         14    1    1    2    0    0  0.44198955714E-02  0.22229076436E-01 -0.54027991501E-02  0.23299303739E-01  0.00000000000E+00 0. -1.
     999901    1    3    3    0    0  0.11277328913E-01 -0.14775493773E+00  0.11587538671E-01  0.89246454878E+00  0.88000000000E+00 0.  1.
        -11    1    4    4    0    0 -0.18645718442E-01  0.92311352900E-01  0.37664352304E-03  0.94177766334E-01  0.51100000000E-03 0. -1.
         11    1    4    4    0    0  0.29484939580E-02  0.33214508398E-01 -0.65613830435E-02  0.33988381150E-01  0.51100000000E-03 0.  1.
</event>
<event>
 8    1  0.1129676E+005  0.1043930E+01  0.7957747E-01            NaN
         13   -1    0    0    0    0  0.00000000000E+00  0.00000000000E+00  0.74505805969E-08  0.10566000000E+00  0.10566000000E+00 0. -1.
     999900   -1    0    0    0    0 -0.00000000000E+00 -0.00000000000E+00 -0.74505805969E-08  0.93827000000E+00  0.93827000000E+00 0.  1.
     999902    2    1    2    0    0 -0.12380884855E-01  0.11987099085E-01 -0.15538529787E-01  0.10207260615E+01  0.10204622824E+01 0.  0.
     999903    2    3    3    0    0  0.44121689447E-01 -0.11733031045E+00  0.20484315010E-01  0.12875454925E+00  0.21095060103E-01 0.  0.
         14    1    1    2    0    0  0.12380884855E-01 -0.11987099085E-01  0.15538529787E-01  0.23203938507E-01  0.00000000000E+00 0. -1.
     999901    1    3    3    0    0 -0.56502574302E-01  0.12931740953E+00 -0.36022844797E-01  0.89197151225E+00  0.88000000000E+00 0. -1.
        -11    1    4    4    0    0  0.11124349080E-01 -0.55330876461E-01  0.38215398542E-02  0.56569623653E-01  0.51100000000E-03 0.  1.
         11    1    4    4    0    0  0.32997340367E-01 -0.61999433988E-01  0.16662775156E-01  0.72184925594E-01  0.51100000000E-03 0. -1.
</event>
<event>
 8    1  0.1129676E+005  0.1043930E+01  0.7957747E-01            NaN
         13   -1    0    0    0    0  0.00000000000E+00  0.00000000000E+00  0.74505805969E-08  0.10566000000E+00  0.10566000000E+00 0.  1.
     999900   -1    0    0    0    0 -0.00000000000E+00 -0.00000000000E+00 -0.74505805969E-08  0.93827000000E+00  0.93827000000E+00 0. -1.
     999902    2    1    2    0    0 -0.13069329828E-01  0.16098808528E-01  0.86056190256E-02  0.10214792607E+01  0.10212325123E+01 0.  0.
     999903    2    3    3    0    0 -0.10947852669E+00  0.74977725532E-01  0.13100022842E-02  0.13422806391E+00  0.20205194969E-01 0.  0.
         14    1    1    2    0    0  0.13069329828E-01 -0.16098808528E-01 -0.86056190256E-02  0.22450739342E-01  0.00000000000E+00 0. -1.
     999901    1    3    3    0    0  0.96409196859E-01 -0.58878917004E-01  0.72956167414E-02  0.88725119675E+00  0.88000000000E+00 0. -1.
        -11    1    4    4    0    0 -0.71669152425E-01  0.39725622778E-01  0.68795274200E-02  0.82232484658E-01  0.51100000000E-03 0.  1.
         11    1    4    4    0    0 -0.37809374262E-01  0.35252102753E-01 -0.55695251358E-02  0.51995579253E-01  0.51100000000E-03 0. -1.
</event>
<event>
 8    1  0.1129676E+005  0.1043930E+01  0.7957747E-01            NaN
         13   -1    0    0    0    0  0.00000000000E+00  0.00000000000E+00  0.74505805969E-08  0.10566000000E+00  0.10566000000E+00 0. -1.
     999900   -1    0    0    0    0 -0.00000000000E+00 -0.00000000000E+00 -0.74505805969E-08  0.93827000000E+00  0.93827000000E+00 0.  1.
     999902    2    1    2    0    0  0.21106350624E-01  0.89303559759E-02 -0.84441395723E-02  0.10195059793E+01  0.10192133776E+01 0.  0.
     999903    2    3    3    0    0 -0.33179549703E-01  0.43123596453E-01 -0.11682825801E+00  0.13053845806E+00  0.20758614472E-01 0.  0.
         14    1    1    2    0    0 -0.21106350624E-01 -0.89303559759E-02  0.84441395723E-02  0.24424020710E-01  0.00000000000E+00 0.  1.
     999901    1    3    3    0    0  0.54285900327E-01 -0.34193240477E-01  0.10838411843E+00  0.88896752123E+00  0.88000000000E+00 0. -1.
        -11    1    4    4    0    0 -0.35682916273E-01  0.37020661702E-01 -0.99752847310E-01  0.11222607350E+00  0.51100000000E-03 0.  1.
         11    1    4    4    0    0  0.25033665696E-02  0.61029347511E-02 -0.17075410697E-01  0.18312384559E-01  0.51100000000E-03 0. -1.
</event>
<event>
 8    1  0.1129676E+005  0.1043930E+01  0.7957747E-01            NaN
         13   -1    0    0    0    0  0.00000000000E+00  0.00000000000E+00  0.74505805969E-08  0.10566000000E+00  0.10566000000E+00 0. -1.
     999900   -1    0    0    0    0 -0.00000000000E+00 -0.00000000000E+00 -0.74505805969E-08  0.93827000000E+00  0.93827000000E+00 0.  1.
     999902    2    1    2    0    0  0.50910420419E-02 -0.19325858316E-01  0.11985652505E-01  0.10206262798E+01  0.10203602009E+01 0.  0.
     999903    2    3    3    0    0  0.46317349997E-01 -0.89671714143E-01  0.85508849600E-01  0.13380397043E+00  0.20135190963E-01 0.  0.
         14    1    1    2    0    0 -0.50910420419E-02  0.19325858316E-01 -0.11985652505E-01  0.23303720190E-01  0.00000000000E+00 0.  1.
     999901    1    3    3    0    0 -0.41226307955E-01  0.70345855827E-01 -0.73523197095E-01  0.88682230938E+00  0.88000000000E+00 0.  1.
        -11    1    4    4    0    0  0.28286755195E-01 -0.72060633503E-01  0.68716734722E-01  0.10351389362E+00  0.51100000000E-03 0. -1.
         11    1    4    4    0    0  0.18030594801E-01 -0.17611080641E-01  0.16792114878E-01  0.30290076812E-01  0.51100000000E-03 0.  1.
</event>
<event>
 8    1  0.1129676E+005  0.1043930E+01  0.7957747E-01            NaN
         13   -1    0    0    0    0  0.00000000000E+00  0.00000000000E+00  0.74505805969E-08  0.10566000000E+00  0.10566000000E+00 0.  1.
     999900   -1    0    0    0    0 -0.00000000000E+00 -0.00000000000E+00 -0.74505805969E-08  0.93827000000E+00  0.93827000000E+00 0. -1.
     999902    2    1    2    0    0 -0.13557804312E-01 -0.10994644140E-01  0.15512280051E-01  0.10205777605E+01  0.10203105596E+01 0.  0.
     999903    2    3    3    0    0  0.29744765189E-01  0.10290894158E+00 -0.67473125490E-01  0.12831338437E+00  0.20897383410E-01 0.  0.
         14    1    1    2    0    0  0.13557804312E-01  0.10994644140E-01 -0.15512280051E-01  0.23352239505E-01  0.00000000000E+00 0. -1.
     999901    1    3    3    0    0 -0.43302569501E-01 -0.11390358572E+00  0.82985405540E-01  0.89226437612E+00  0.88000000000E+00 0. -1.
        -11    1    4    4    0    0  0.44204408813E-02  0.32489748680E-01 -0.11101171594E-01  0.34621109147E-01  0.51100000000E-03 0.  1.
         11    1    4    4    0    0  0.25324324308E-01  0.70419192897E-01 -0.56371953896E-01  0.93692275226E-01  0.51100000000E-03 0. -1.
</event>
<event>
 8    1  0.1129676E+005  0.1043930E+01  0.7957747E-01            NaN
         13   -1    0    0    0    0  0.00000000000E+00  0.00000000000E+00  0.74505805969E-08  0.10566000000E+00  0.10566000000E+00 0. -1.
     999900   -1    0    0    0    0 -0.00000000000E+00 -0.00000000000E+00 -0.74505805969E-08  0.93827000000E+00  0.93827000000E+00 0.  1.
     999902    2    1    2    0    0 -0.12472730269E-01 -0.19790951412E-01  0.45885349455E-02  0.10200908429E+01  0.10198122486E+01 0.  0.
     999903    2    3    3    0    0 -0.25142607757E-01  0.11643473523E+00  0.44074492618E-01  0.12864420718E+00  0.20434599300E-01 0.  0.
         14    1    1    2    0    0  0.12472730269E-01  0.19790951412E-01 -0.45885349455E-02  0.23839157097E-01  0.00000000000E+00 0.  1.
     999901    1    3    3    0    0  0.12669877489E-01 -0.13622568664E+00 -0.39485957672E-01  0.89144663573E+00  0.88000000000E+00 0. -1.
        -11    1    4    4    0    0 -0.24436893125E-01  0.66362828025E-01  0.27763649374E-01  0.75975443642E-01  0.51100000000E-03 0.  1.
         11    1    4    4    0    0 -0.70571463236E-03  0.50071907201E-01  0.16310843243E-01  0.52668763534E-01  0.51100000000E-03 0. -1.
</event>
<event>
 8    1  0.1129676E+005  0.1043930E+01  0.7957747E-01            NaN
         13   -1    0    0    0    0  0.00000000000E+00  0.00000000000E+00  0.74505805969E-08  0.10566000000E+00  0.10566000000E+00 0. -1.
     999900   -1    0    0    0    0 -0.00000000000E+00 -0.00000000000E+00 -0.74505805969E-08  0.93827000000E+00  0.93827000000E+00 0. -1.
     999902    2    1    2    0    0  0.12207958413E-01  0.20080489907E-01 -0.96882057294E-03  0.10204098185E+01  0.10201387155E+01 0.  0.
     999903    2    3    3    0    0  0.60111426452E-01 -0.24745842038E-02  0.11497682345E+00  0.13122656070E+00  0.19525192579E-01 0.  0.
         14    1    1    2    0    0 -0.12207958413E-01 -0.20080489907E-01  0.96882057294E-03  0.23520181479E-01  0.00000000000E+00 0. -1.
     999901    1    3    3    0    0 -0.47903468039E-01  0.22555074110E-01 -0.11594564403E+00  0.88918325782E+00  0.88000000000E+00 0. -1.
        -11    1    4    4    0    0  0.53799845934E-02  0.44636548470E-02  0.22246114812E-01  0.23324219045E-01  0.51100000000E-03 0.  1.
         11    1    4    4    0    0  0.54731441859E-01 -0.69382390508E-02  0.92730708640E-01  0.10790234166E+00  0.51100000000E-03 0. -1.
</event>
<event>
 7    1  0.1129676E+005  0.1043930E+01  0.7957747E-01            NaN
         13   -1    0    0    0    0  0.00000000000E+00  0.00000000000E+00  0.74505805969E-08  0.10566000000E+00  0.10566000000E+00 0. -1.
     999900   -1    0    0    0    0 -0.00000000000E+00 -0.00000000000E+00 -0.74505805969E-08  0.93827000000E+00  0.93827000000E+00 0.  1.
     999903    2    1    2    0    0 -0.82786057297E-01  0.15432558619E-01  0.66126452941E-01  0.10889123817E+00  0.19821675620E-01 0.  0.
         14    1    1    2    0    0 -0.31006973327E-01 -0.70241160259E-03  0.29057024855E-01  0.42499840828E-01  0.00000000000E+00 0. -1.
     999901    1    1    2    0    0  0.11379303062E+00 -0.14730147016E-01 -0.95183477796E-01  0.89253892100E+00  0.88000000000E+00 0.  1.
        -11    1    3    3    0    0 -0.22854320506E-01  0.71452024314E-02  0.87246865277E-02  0.25490295400E-01  0.51100000000E-03 0.  1.
         11    1    3    3    0    0 -0.59931736791E-01  0.82873561874E-02  0.57401766413E-01  0.83400942775E-01  0.51100000000E-03 0. -1.
</event>
<event>
 8    1  0.1129676E+005  0.1043930E+01  0.7957747E-01            NaN
         13   -1    0    0    0    0  0.00000000000E+00  0.00000000000E+00  0.74505805969E-08  0.10566000000E+00  0.10566000000E+00 0.  1.
     999900   -1    0    0    0    0 -0.00000000000E+00 -0.00000000000E+00 -0.74505805969E-08  0.93827000000E+00  0.93827000000E+00 0.  1.
     999902    2    1    2    0    0 -0.14970174711E-01  0.11516063190E-01 -0.16997180445E-01  0.10185207500E+01  0.10182037557E+01 0.  0.
     999903    2    3    3    0    0 -0.53296307906E-01  0.10359889887E+00  0.54211916766E-01  0.13002827584E+00  0.19879444546E-01 0.  0.
         14    1    1    2    0    0  0.14970174711E-01 -0.11516063190E-01  0.16997180445E-01  0.25409249996E-01  0.00000000000E+00 0.  1.
     999901    1    3    3    0    0  0.38326133195E-01 -0.92082835683E-01 -0.71209097211E-01  0.88849247416E+00  0.88000000000E+00 0.  1.
        -11    1    4    4    0    0 -0.16928883746E-01  0.17299196984E-01  0.15137551510E-01  0.28552686527E-01  0.51100000000E-03 0.  1.
         11    1    4    4    0    0 -0.36367424159E-01  0.86299701889E-01  0.39074365256E-01  0.10147558932E+00  0.51100000000E-03 0. -1.
</event>
<event>
 8    1  0.1129676E+005  0.1043930E+01  0.7957747E-01            NaN
         13   -1    0    0    0    0  0.00000000000E+00  0.00000000000E+00  0.74505805969E-08  0.10566000000E+00  0.10566000000E+00 0. -1.
     999900   -1    0    0    0    0 -0.00000000000E+00 -0.00000000000E+00 -0.74505805969E-08  0.93827000000E+00  0.93827000000E+00 0. -1.
     999902    2    1    2    0    0  0.14711410237E-02 -0.23535446517E-01 -0.83396840484E-04  0.10203484722E+01  0.10200759365E+01 0.  0.
     999903    2    3    3    0    0 -0.72089940548E-01 -0.10407653380E+00  0.34995433048E-01  0.13292037721E+00  0.20353425463E-01 0.  0.
         14    1    1    2    0    0 -0.14711410237E-02  0.23535446517E-01  0.83396840484E-04  0.23581527807E-01  0.00000000000E+00 0. -1.
     999901    1    3    3    0    0  0.73561081572E-01  0.80541087278E-01 -0.35078829888E-01  0.88742809498E+00  0.88000000000E+00 0. -1.
        -11    1    4    4    0    0 -0.64519169031E-01 -0.79889695761E-01  0.30928695453E-01  0.10724706049E+00  0.51100000000E-03 0. -1.
         11    1    4    4    0    0 -0.75707715164E-02 -0.24186838034E-01  0.40667375954E-02  0.25673316714E-01  0.51100000000E-03 0.  1.
</event>
<event>
 8    1  0.1129676E+005  0.1043930E+01  0.7957747E-01            NaN
         13   -1    0    0    0    0  0.00000000000E+00  0.00000000000E+00  0.74505805969E-08  0.10566000000E+00  0.10566000000E+00 0.  1.
     999900   -1    0    0    0    0 -0.00000000000E+00 -0.00000000000E+00 -0.74505805969E-08  0.93827000000E+00  0.93827000000E+00 0. -1.
     999902    2    1    2    0    0 -0.62671364940E-02  0.16081776912E-01 -0.16533055868E-01  0.10200293204E+01  0.10197492692E+01 0.  0.
     999903    2    3    3    0    0 -0.12331832986E+00 -0.35619738272E-01 -0.15677477771E-01  0.13077414862E+00  0.19491495685E-01 0.  0.
         14    1    1    2    0    0  0.62671364940E-02 -0.16081776912E-01  0.16533055868E-01  0.23900679589E-01  0.00000000000E+00 0.  1.
     999901    1    3    3    0    0  0.11705119337E+00  0.51701515184E-01 -0.85557809731E-03  0.88925517179E+00  0.88000000000E+00 0.  1.
        -11    1    4    4    0    0 -0.30109323526E-01 -0.35194817305E-03 -0.20215924954E-02  0.30183491977E-01  0.51100000000E-03 0. -1.
         11    1    4    4    0    0 -0.93209006335E-01 -0.35267790099E-01 -0.13655885276E-01  0.10059065664E+00  0.51100000000E-03 0.  1.
</event>
<event>
 8    1  0.1129676E+005  0.1043930E+01  0.7957747E-01            NaN
         13   -1    0    0    0    0  0.00000000000E+00  0.00000000000E+00  0.74505805969E-08  0.10566000000E+00  0.10566000000E+00 0. -1.
     999900   -1    0    0    0    0 -0.00000000000E+00 -0.00000000000E+00 -0.74505805969E-08  0.93827000000E+00  0.93827000000E+00 0. -1.
     999902    2    1    2    0    0 -0.12850901182E-01 -0.18295327412E-01  0.79521293959E-02  0.10202002501E+01  0.10199242371E+01 0.  0.
     999903    2    3    3    0    0  0.48184545839E-01  0.11666716771E+00 -0.32072988213E-02  0.12775152124E+00  0.19421275292E-01 0.  0.
         14    1    1    2    0    0  0.12850901182E-01  0.18295327412E-01 -0.79521293959E-02  0.23729749856E-01  0.00000000000E+00 0.  1.
     999901    1    3    3    0    0 -0.61035447021E-01 -0.13496249512E+00  0.11159428217E-01  0.89244872890E+00  0.88000000000E+00 0. -1.
        -11    1    4    4    0    0  0.24861883693E-01  0.56418475899E-01  0.80226993702E-02  0.62175417246E-01  0.51100000000E-03 0. -1.
         11    1    4    4    0    0  0.23322662146E-01  0.60248691813E-01 -0.11229998191E-01  0.65576103995E-01  0.51100000000E-03 0.  1.
</event>
<event>
 8    1  0.1129676E+005  0.1043930E+01  0.7957747E-01            NaN
         13   -1    0    0    0    0  0.00000000000E+00  0.00000000000E+00  0.74505805969E-08  0.10566000000E+00  0.10566000000E+00 0.  1.
     999900   -1    0    0    0    0 -0.00000000000E+00 -0.00000000000E+00 -0.74505805969E-08  0.93827000000E+00  0.93827000000E+00 0. -1.
     999902    2    1    2    0    0 -0.10818709159E-01 -0.10783968123E-01 -0.18026893031E-01  0.10203014726E+01  0.10200278367E+01 0.  0.
     999903    2    3    3    0    0  0.48612908162E-01 -0.11080547116E+00 -0.52090787279E-01  0.13199028436E+00  0.81803279727E-02 0.  0.
         14    1    1    2    0    0  0.10818709159E-01  0.10783968123E-01  0.18026893031E-01  0.23628527434E-01  0.00000000000E+00 0.  1.
     999901    1    3    3    0    0 -0.59431617322E-01  0.10002150304E+00  0.34063894248E-01  0.88831118821E+00  0.88000000000E+00 0.  1.
        -11    1    4    4    0    0  0.30833982906E-01 -0.77208956584E-01 -0.32973568707E-01  0.89439783279E-01  0.51100000000E-03 0. -1.
         11    1    4    4    0    0  0.17778925256E-01 -0.33596514578E-01 -0.19117218572E-01  0.42550501078E-01  0.51100000000E-03 0.  1.
</event>
<event>
 8    1  0.1129676E+005  0.1043930E+01  0.7957747E-01            NaN
         13   -1    0    0    0    0  0.00000000000E+00  0.00000000000E+00  0.74505805969E-08  0.10566000000E+00  0.10566000000E+00 0. -1.
     999900   -1    0    0    0    0 -0.00000000000E+00 -0.00000000000E+00 -0.74505805969E-08  0.93827000000E+00  0.93827000000E+00 0. -1.
     999902    2    1    2    0    0 -0.18672489217E-01 -0.14005786051E-01 -0.36465252469E-02  0.10203054144E+01  0.10200318709E+01 0.  0.
     999903    2    3    3    0    0 -0.12742566051E-01 -0.10359187633E+00  0.77906053026E-01  0.13198584662E+00  0.21383656798E-01 0.  0.
         14    1    1    2    0    0  0.18672489217E-01  0.14005786051E-01  0.36465252469E-02  0.23624585559E-01  0.00000000000E+00 0. -1.
     999901    1    3    3    0    0 -0.59299231653E-02  0.89586090277E-01 -0.81552578273E-01  0.88831956783E+00  0.88000000000E+00 0. -1.
        -11    1    4    4    0    0 -0.44833730788E-02 -0.88600460753E-01  0.70555918839E-01  0.11335140530E+00  0.51100000000E-03 0.  1.
         11    1    4    4    0    0 -0.82591929726E-02 -0.14991415574E-01  0.73501341876E-02  0.18634441313E-01  0.51100000000E-03 0. -1.
</event>
<event>
 8    1  0.1129676E+005  0.1043930E+01  0.7957747E-01            NaN
         13   -1    0    0    0    0  0.00000000000E+00  0.00000000000E+00  0.74505805969E-08  0.10566000000E+00  0.10566000000E+00 0.  1.
     999900   -1    0    0    0    0 -0.00000000000E+00 -0.00000000000E+00 -0.74505805969E-08  0.93827000000E+00  0.93827000000E+00 0.  1.
     999902    2    1    2    0    0 -0.14832590282E-01  0.47563461253E-02 -0.18154099656E-01  0.10200092998E+01  0.10197287737E+01 0.  0.
     999903    2    3    3    0    0 -0.12720989215E+00 -0.29285911479E-01  0.13705325609E-02  0.13199536719E+00  0.19516078700E-01 0.  0.
         14    1    1    2    0    0  0.14832590282E-01 -0.47563461253E-02  0.18154099656E-01  0.23920700184E-01  0.00000000000E+00 0.  1.
     999901    1    3    3    0    0  0.11237730187E+00  0.34042257605E-01 -0.19524632217E-01  0.88801393263E+00  0.88000000000E+00 0.  1.
        -11    1    4    4    0    0 -0.35504722615E-01 -0.42917113493E-02  0.82134159043E-02  0.36697757917E-01  0.51100000000E-03 0.  1.
         11    1    4    4    0    0 -0.91705169534E-01 -0.24994200130E-01 -0.68428833434E-02  0.95297609272E-01  0.51100000000E-03 0. -1.
</event>
<event>
 8    1  0.1129676E+005  0.1043930E+01  0.7957747E-01            NaN
         13   -1    0    0    0    0  0.00000000000E+00  0.00000000000E+00  0.74505805969E-08  0.10566000000E+00  0.10566000000E+00 0. -1.
     999900   -1    0    0    0    0 -0.00000000000E+00 -0.00000000000E+00 -0.74505805969E-08  0.93827000000E+00  0.93827000000E+00 0. -1.
     999902    2    1    2    0    0 -0.14688464396E-01  0.65396734723E-02  0.21534594538E-01  0.10170551590E+01  0.10167000243E+01 0.  0.
     999903    2    3    3    0    0 -0.19113575538E-01  0.43481769675E-01  0.11997868978E+00  0.13078457959E+00  0.21300873071E-01 0.  0.
         14    1    1    2    0    0  0.14688464396E-01 -0.65396734723E-02 -0.21534594538E-01  0.26874840974E-01  0.00000000000E+00 0.  1.
     999901    1    3    3    0    0  0.44251111423E-02 -0.36942096203E-01 -0.98444095244E-01  0.88627057943E+00  0.88000000000E+00 0. -1.
        -11    1    4    4    0    0 -0.23487719430E-01  0.33862533651E-01  0.89824309963E-01  0.98828194006E-01  0.51100000000E-03 0.  1.
         11    1    4    4    0    0  0.43741438921E-02  0.96192360243E-02  0.30154379819E-01  0.31956385587E-01  0.51100000000E-03 0. -1.
</event>
<event>
 8    1  0.1129676E+005  0.1043930E+01  0.7957747E-01            NaN
         13   -1    0    0    0    0  0.00000000000E+00  0.00000000000E+00  0.74505805969E-08  0.10566000000E+00  0.10566000000E+00 0. -1.
     999900   -1    0    0    0    0 -0.00000000000E+00 -0.00000000000E+00 -0.74505805969E-08  0.93827000000E+00  0.93827000000E+00 0.  1.
     999902    2    1    2    0    0 -0.19762735961E-01  0.10863860971E-02  0.12859601801E-01  0.10203267094E+01  0.10200536646E+01 0.  0.
     999903    2    3    3    0    0  0.93130919740E-01 -0.23851071106E-01  0.84516303474E-01  0.12987652151E+00  0.21969603577E-01 0.  0.
         14    1    1    2    0    0  0.19762735961E-01 -0.10863860971E-02 -0.12859601801E-01  0.23603290574E-01  0.00000000000E+00 0. -1.
     999901    1    3    3    0    0 -0.11289365570E+00  0.24937457203E-01 -0.71656701673E-01  0.89045018792E+00  0.88000000000E+00 0.  1.
        -11    1    4    4    0    0  0.51426692026E-01 -0.13171627167E-01  0.32074809649E-01  0.62026211797E-01  0.51100000000E-03 0. -1.
         11    1    4    4    0    0  0.41704227715E-01 -0.10679443939E-01  0.52441493825E-01  0.67850309710E-01  0.51100000000E-03 0.  1.
</event>
<event>
 8    1  0.1129676E+005  0.1043930E+01  0.7957747E-01            NaN
         13   -1    0    0    0    0  0.00000000000E+00  0.00000000000E+00  0.74505805969E-08  0.10566000000E+00  0.10566000000E+00 0.  1.
     999900   -1    0    0    0    0 -0.00000000000E+00 -0.00000000000E+00 -0.74505805969E-08  0.93827000000E+00  0.93827000000E+00 0.  1.
     999902    2    1    2    0    0 -0.22654482505E-02  0.17201916789E-01  0.16339530533E-01  0.10200968622E+01  0.10198184103E+01 0.  0.
     999903    2    3    3    0    0  0.12531340508E+00 -0.22354705695E-01 -0.13031124474E-01  0.12953315000E+00  0.20145579747E-01 0.  0.
         14    1    1    2    0    0  0.22654482505E-02 -0.17201916789E-01 -0.16339530533E-01  0.23833137750E-01  0.00000000000E+00 0. -1.
     999901    1    3    3    0    0 -0.12757885333E+00  0.39556622483E-01  0.29370655007E-01  0.89056371225E+00  0.88000000000E+00 0.  1.
        -11    1    4    4    0    0  0.25173513399E-01  0.15464407781E-02  0.27542156672E-02  0.25376053296E-01  0.51100000000E-03 0. -1.
         11    1    4    4    0    0  0.10013989169E+00 -0.23901146473E-01 -0.15785340142E-01  0.10415709670E+00  0.51100000000E-03 0.  1.
</event>
<event>
 8    1  0.1129676E+005  0.1043930E+01  0.7957747E-01            NaN
         13   -1    0    0    0    0  0.00000000000E+00  0.00000000000E+00  0.74505805969E-08  0.10566000000E+00  0.10566000000E+00 0. -1.
     999900   -1    0    0    0    0 -0.00000000000E+00 -0.00000000000E+00 -0.74505805969E-08  0.93827000000E+00  0.93827000000E+00 0.  1.
     999902    2    1    2    0    0 -0.19790838940E-01 -0.11112826820E-01 -0.44716373122E-02  0.10207963067E+01  0.10205341405E+01 0.  0.
     999903    2    3    3    0    0  0.41921989606E-01  0.81133247231E-01  0.88782587272E-01  0.12893636153E+00  0.20054438469E-01 0.  0.
         14    1    1    2    0    0  0.19790838940E-01  0.11112826820E-01  0.44716373122E-02  0.23133693309E-01  0.00000000000E+00 0. -1.
     999901    1    3    3    0    0 -0.61712828546E-01 -0.92246074051E-01 -0.93254224584E-01  0.89185994516E+00  0.88000000000E+00 0.  1.
        -11    1    4    4    0    0  0.28480472766E-01  0.33538411263E-01  0.39960278906E-01  0.59439442883E-01  0.51100000000E-03 0.  1.
         11    1    4    4    0    0  0.13441516840E-01  0.47594835968E-01  0.48822308366E-01  0.69496918644E-01  0.51100000000E-03 0. -1.
</event>
<event>
 8    1  0.1129676E+005  0.1043930E+01  0.7957747E-01            NaN
         13   -1    0    0    0    0  0.00000000000E+00  0.00000000000E+00  0.74505805969E-08  0.10566000000E+00  0.10566000000E+00 0.  1.
     999900   -1    0    0    0    0 -0.00000000000E+00 -0.00000000000E+00 -0.74505805969E-08  0.93827000000E+00  0.93827000000E+00 0. -1.
     999902    2    1    2    0    0 -0.14341922272E-01 -0.18767084301E-01 -0.62258328518E-02  0.10195034738E+01  0.10192108113E+01 0.  0.
     999903    2    3    3    0    0 -0.53123920031E-01  0.21679825669E-01 -0.11610176808E+00  0.13090192247E+00  0.19066384949E-01 0.  0.
         14    1    1    2    0    0  0.14341922272E-01  0.18767084301E-01  0.62258328518E-02  0.24426526202E-01  0.00000000000E+00 0.  1.
     999901    1    3    3    0    0  0.38781997759E-01 -0.40446909970E-01  0.10987593523E+00  0.88860155133E+00  0.88000000000E+00 0.  1.
        -11    1    4    4    0    0 -0.31187391815E-01  0.10875981438E-01 -0.85939213008E-01  0.92069266500E-01  0.51100000000E-03 0. -1.
         11    1    4    4    0    0 -0.21936528216E-01  0.10803844231E-01 -0.30162555072E-01  0.38832655972E-01  0.51100000000E-03 0.  1.
</event>
<event>
 8    1  0.1129676E+005  0.1043930E+01  0.7957747E-01            NaN
         13   -1    0    0    0    0  0.00000000000E+00  0.00000000000E+00  0.74505805969E-08  0.10566000000E+00  0.10566000000E+00 0.  1.
     999900   -1    0    0    0    0 -0.00000000000E+00 -0.00000000000E+00 -0.74505805969E-08  0.93827000000E+00  0.93827000000E+00 0.  1.
     999902    2    1    2    0    0  0.24850118151E-01  0.91969580738E-02  0.76823040404E-02  0.10163414117E+01  0.10159668966E+01 0.  0.
     999903    2    3    3    0    0 -0.77955773465E-01  0.31971831522E-01 -0.89671750757E-01  0.12473300089E+00  0.20444999387E-01 0.  0.
         14    1    1    2    0    0 -0.24850118151E-01 -0.91969580738E-02 -0.76823040404E-02  0.27588588316E-01  0.00000000000E+00 0.  1.
     999901    1    3    3    0    0  0.10280589162E+00 -0.22774873448E-01  0.97354054798E-01  0.89160841079E+00  0.88000000000E+00 0. -1.
        -11    1    4    4    0    0 -0.13934613127E-01  0.14937852982E-01 -0.20092105309E-01  0.28657751333E-01  0.51100000000E-03 0. -1.
         11    1    4    4    0    0 -0.64021160338E-01  0.17033978540E-01 -0.69579645448E-01  0.96075249558E-01  0.51100000000E-03 0.  1.
</event>
<event>
 8    1  0.1129676E+005  0.1043930E+01  0.7957747E-01            NaN
         13   -1    0    0    0    0  0.00000000000E+00  0.00000000000E+00  0.74505805969E-08  0.10566000000E+00  0.10566000000E+00 0. -1.
     999900   -1    0    0    0    0 -0.00000000000E+00 -0.00000000000E+00 -0.74505805969E-08  0.93827000000E+00  0.93827000000E+00 0. -1.
     999902    2    1    2    0    0  0.13293898311E-01 -0.14793598834E-01 -0.13274674265E-01  0.10200177589E+01  0.10197374334E+01 0.  0.
     999903    2    3    3    0    0 -0.12608475983E+00 -0.10878992341E-01  0.12103771883E-01  0.12867842954E+00  0.19897683270E-01 0.  0.
         14    1    1    2    0    0 -0.13293898311E-01  0.14793598834E-01  0.13274674265E-01  0.23912241125E-01  0.00000000000E+00 0. -1.
     999901    1    3    3    0    0  0.13937865814E+00 -0.39146064931E-02 -0.25378446148E-01  0.89133932933E+00  0.88000000000E+00 0.  1.
        -11    1    4    4    0    0 -0.41471864943E-01 -0.63880469004E-02 -0.49205835416E-02  0.42251579716E-01  0.51100000000E-03 0.  1.
         11    1    4    4    0    0 -0.84612894887E-01 -0.44909454404E-02  0.17024355425E-01  0.86426849825E-01  0.51100000000E-03 0. -1.
</event>
<event>
 8    1  0.1129676E+005  0.1043930E+01  0.7957747E-01            NaN
         13   -1    0    0    0    0  0.00000000000E+00  0.00000000000E+00  0.74505805969E-08  0.10566000000E+00  0.10566000000E+00 0.  1.
     999900   -1    0    0    0    0 -0.00000000000E+00 -0.00000000000E+00 -0.74505805969E-08  0.93827000000E+00  0.93827000000E+00 0.  1.
     999902    2    1    2    0    0  0.19112448548E-01 -0.19511142548E-02  0.14351507070E-01  0.10199496270E+01  0.10196676827E+01 0.  0.
     999903    2    3    3    0    0  0.92898222723E-02  0.12706039221E+00  0.19656251154E-01  0.13047304317E+00  0.20154471394E-01 0.  0.
         14    1    1    2    0    0 -0.19112448548E-01  0.19511142548E-02 -0.14351507070E-01  0.23980373048E-01  0.00000000000E+00 0.  1.
     999901    1    3    3    0    0  0.98226262754E-02 -0.12901150647E+00 -0.53047440838E-02  0.88947658378E+00  0.88000000000E+00 0. -1.
        -11    1    4    4    0    0 -0.41634657931E-02  0.71545732593E-01  0.74038842167E-02  0.72050016809E-01  0.51100000000E-03 0. -1.
         11    1    4    4    0    0  0.13453288065E-01  0.55514659621E-01  0.12252366937E-01  0.58423026361E-01  0.51100000000E-03 0.  1.
</event>
<event>
 8    1  0.1129676E+005  0.1043930E+01  0.7957747E-01            NaN
         13   -1    0    0    0    0  0.00000000000E+00  0.00000000000E+00  0.74505805969E-08  0.10566000000E+00  0.10566000000E+00 0. -1.
     999900   -1    0    0    0    0 -0.00000000000E+00 -0.00000000000E+00 -0.74505805969E-08  0.93827000000E+00  0.93827000000E+00 0. -1.
     999902    2    1    2    0    0  0.10501939350E-01  0.14226548844E-01  0.17246388059E-01  0.10192293255E+01  0.10189299753E+01 0.  0.
     999903    2    3    3    0    0  0.84720763937E-01 -0.84426635981E-01 -0.42818942614E-01  0.12858420603E+00  0.19873889623E-01 0.  0.
         14    1    1    2    0    0 -0.10501939350E-01 -0.14226548844E-01 -0.17246388059E-01  0.24700674550E-01  0.00000000000E+00 0.  1.
     999901    1    3    3    0    0 -0.74218824587E-01  0.98653184825E-01  0.60065330672E-01  0.89064511942E+00  0.88000000000E+00 0.  1.
        -11    1    4    4    0    0  0.93097225267E-02 -0.62461871393E-02 -0.10206634417E-01  0.15169782280E-01  0.51100000000E-03 0.  1.
         11    1    4    4    0    0  0.75411041410E-01 -0.78180448841E-01 -0.32612308196E-01  0.11341442375E+00  0.51100000000E-03 0. -1.
</event>
<event>
 8    1  0.1129676E+005  0.1043930E+01  0.7957747E-01            NaN
         13   -1    0    0    0    0  0.00000000000E+00  0.00000000000E+00  0.74505805969E-08  0.10566000000E+00  0.10566000000E+00 0. -1.
     999900   -1    0    0    0    0 -0.00000000000E+00 -0.00000000000E+00 -0.74505805969E-08  0.93827000000E+00  0.93827000000E+00 0.  1.
     999902    2    1    2    0    0  0.45770828185E-02 -0.22948733107E-01 -0.13872825314E-01  0.10167261525E+01  0.10163621499E+01 0.  0.
     999903    2    3    3    0    0 -0.30985191673E-01  0.62992020882E-01 -0.10423325920E+00  0.12722320330E+00  0.19826606826E-01 0.  0.
         14    1    1    2    0    0 -0.45770828185E-02  0.22948733107E-01  0.13872825314E-01  0.27203847532E-01  0.00000000000E+00 0.  1.
     999901    1    3    3    0    0  0.35562274491E-01 -0.85940753989E-01  0.90360433881E-01  0.88950294917E+00  0.88000000000E+00 0. -1.
        -11    1    4    4    0    0 -0.10038337231E-01  0.39981297889E-01 -0.51213971514E-01  0.65744995205E-01  0.51100000000E-03 0.  1.
         11    1    4    4    0    0 -0.20946854441E-01  0.23010722994E-01 -0.53019287681E-01  0.61478208098E-01  0.51100000000E-03 0. -1.
</event>
<event>
 8    1  0.1129676E+005  0.1043930E+01  0.7957747E-01            NaN
         13   -1    0    0    0    0  0.00000000000E+00  0.00000000000E+00  0.74505805969E-08  0.10566000000E+00  0.10566000000E+00 0. -1.
     999900   -1    0    0    0    0 -0.00000000000E+00 -0.00000000000E+00 -0.74505805969E-08  0.93827000000E+00  0.93827000000E+00 0.  1.
     999902    2    1    2    0    0 -0.80874755162E-02  0.31166514042E-02  0.21474208473E-01  0.10207726598E+01  0.10205099512E+01 0.  0.
     999903    2    3    3    0    0 -0.10655591193E+00 -0.71868103177E-01 -0.15890208297E-01  0.13132628927E+00  0.21792404883E-01 0.  0.
         14    1    1    2    0    0  0.80874755162E-02 -0.31166514042E-02 -0.21474208473E-01  0.23157340213E-01  0.00000000000E+00 0.  1.
     999901    1    3    3    0    0  0.98468436419E-01  0.74984754581E-01  0.37364416770E-01  0.88944637052E+00  0.88000000000E+00 0. -1.
        -11    1    4    4    0    0 -0.37249687786E-01 -0.17730003738E-01  0.30284740589E-02  0.41368164678E-01  0.51100000000E-03 0.  1.
         11    1    4    4    0    0 -0.69306224149E-01 -0.54138099438E-01 -0.18918682356E-01  0.89958124590E-01  0.51100000000E-03 0. -1.
</event>
<event>
 8    1  0.1129676E+005  0.1043930E+01  0.7957747E-01            NaN
         13   -1    0    0    0    0  0.00000000000E+00  0.00000000000E+00  0.74505805969E-08  0.10566000000E+00  0.10566000000E+00 0. -1.
     999900   -1    0    0    0    0 -0.00000000000E+00 -0.00000000000E+00 -0.74505805969E-08  0.93827000000E+00  0.93827000000E+00 0. -1.
     999902    2    1    2    0    0  0.17659340481E-01 -0.12560359490E-01  0.25826581787E-02  0.10221060439E+01  0.10218730253E+01 0.  0.
     999903    2    3    3    0    0  0.98561220780E-01  0.79822391984E-01 -0.33834394959E-01  0.13283336987E+00  0.20347220102E-01 0.  0.
         14    1    1    2    0    0 -0.17659340481E-01  0.12560359490E-01 -0.25826581787E-02  0.21823956104E-01  0.00000000000E+00 0. -1.
     999901    1    3    3    0    0 -0.80901880299E-01 -0.92382751474E-01  0.36417053137E-01  0.88927267402E+00  0.88000000000E+00 0.  1.
        -11    1    4    4    0    0  0.25953918403E-01  0.17099868376E-01 -0.16964108221E-01  0.35412617352E-01  0.51100000000E-03 0. -1.
         11    1    4    4    0    0  0.72607302377E-01  0.62722523608E-01 -0.16870286737E-01  0.97420752521E-01  0.51100000000E-03 0.  1.
</event>
<event>
 8    1  0.1129676E+005  0.1043930E+01  0.7957747E-01            NaN
         13   -1    0    0    0    0  0.00000000000E+00  0.00000000000E+00  0.74505805969E-08  0.10566000000E+00  0.10566000000E+00 0. -1.
     999900   -1    0    0    0    0 -0.00000000000E+00 -0.00000000000E+00 -0.74505805969E-08  0.93827000000E+00  0.93827000000E+00 0. -1.
     999902    2    1    2    0    0 -0.14885922102E-01  0.54741614766E-02 -0.18419369591E-01  0.10196229990E+01  0.10193332281E+01 0.  0.
     999903    2    3    3    0    0 -0.49574175654E-01  0.98180403387E-01  0.66398721845E-01  0.13002093581E+00  0.19991572864E-01 0.  0.
         14    1    1    2    0    0  0.14885922102E-01 -0.54741614766E-02  0.18419369591E-01  0.24307000984E-01  0.00000000000E+00 0. -1.
     999901    1    3    3    0    0  0.34688253552E-01 -0.92706241911E-01 -0.84818091436E-01  0.88960206320E+00  0.88000000000E+00 0.  1.
        -11    1    4    4    0    0 -0.47841816337E-01  0.93691092724E-01  0.57493462088E-01  0.11988586051E+00  0.51100000000E-03 0. -1.
         11    1    4    4    0    0 -0.17323593170E-02  0.44893106637E-02  0.89052597577E-02  0.10135075303E-01  0.51100000000E-03 0.  1.
</event>
<event>
 8    1  0.1129676E+005  0.1043930E+01  0.7957747E-01            NaN
         13   -1    0    0    0    0  0.00000000000E+00  0.00000000000E+00  0.74505805969E-08  0.10566000000E+00  0.10566000000E+00 0.  1.
     999900   -1    0    0    0    0 -0.00000000000E+00 -0.00000000000E+00 -0.74505805969E-08  0.93827000000E+00  0.93827000000E+00 0. -1.
     999902    2    1    2    0    0 -0.16474372951E-01 -0.25591978192E-02 -0.17862877993E-01  0.10194956621E+01  0.10192028101E+01 0.  0.
     999903    2    3    3    0    0  0.11080016065E+00  0.28500732542E-01 -0.56100421100E-01  0.12897579379E+00  0.19963235754E-01 0.  0.
         14    1    1    2    0    0  0.16474372951E-01  0.25591978192E-02  0.17862877993E-01  0.24434337883E-01  0.00000000000E+00 0. -1.
     999901    1    3    3    0    0 -0.12727453360E+00 -0.31059930362E-01  0.38237543107E-01  0.89051986832E+00  0.88000000000E+00 0.  1.
        -11    1    4    4    0    0  0.67304038290E-01  0.71800450839E-02 -0.33264162053E-01  0.75419839669E-01  0.51100000000E-03 0.  1.
         11    1    4    4    0    0  0.43496122358E-01  0.21320687458E-01 -0.22836259047E-01  0.53555954124E-01  0.51100000000E-03 0. -1.
</event>
<event>
 8    1  0.1129676E+005  0.1043930E+01  0.7957747E-01            NaN
         13   -1    0    0    0    0  0.00000000000E+00  0.00000000000E+00  0.74505805969E-08  0.10566000000E+00  0.10566000000E+00 0. -1.
     999900   -1    0    0    0    0 -0.00000000000E+00 -0.00000000000E+00 -0.74505805969E-08  0.93827000000E+00  0.93827000000E+00 0.  1.
     999902    2    1    2    0    0  0.91479049550E-02  0.18815945529E-01  0.39052739569E-02  0.10226467875E+01  0.10224252915E+01 0.  0.
     999903    2    3    3    0    0  0.65885472355E-01 -0.70997411947E-02 -0.11326835462E+00  0.13269148881E+00  0.19647118134E-01 0.  0.
         14    1    1    2    0    0 -0.91479049550E-02 -0.18815945529E-01 -0.39052739569E-02  0.21283212537E-01  0.00000000000E+00 0.  1.
     999901    1    3    3    0    0 -0.56737567400E-01  0.25915686723E-01  0.11717362858E+00  0.88995529866E+00  0.88000000000E+00 0. -1.
        -11    1    4    4    0    0  0.39682681218E-01 -0.11717719412E-01 -0.56881918616E-01  0.70340841076E-01  0.51100000000E-03 0. -1.
         11    1    4    4    0    0  0.26202791137E-01  0.46179782178E-02 -0.56386436004E-01  0.62350647731E-01  0.51100000000E-03 0.  1.
</event>
<event>
 8    1  0.1129676E+005  0.1043930E+01  0.7957747E-01            NaN
         13   -1    0    0    0    0  0.00000000000E+00  0.00000000000E+00  0.74505805969E-08  0.10566000000E+00  0.10566000000E+00 0. -1.
     999900   -1    0    0    0    0 -0.00000000000E+00 -0.00000000000E+00 -0.74505805969E-08  0.93827000000E+00  0.93827000000E+00 0.  1.
     999902    2    1    2    0    0  0.15585096506E-02 -0.19272650421E-01  0.12768858729E-01  0.10207587299E+01  0.10204957015E+01 0.  0.
     999903    2    3    3    0    0 -0.75598314962E-01  0.98874860241E-01  0.29098953751E-01  0.12936729965E+00  0.19945071960E-01 0.  0.
         14    1    1    2    0    0 -0.15585096506E-02  0.19272650421E-01 -0.12768858729E-01  0.23171270138E-01  0.00000000000E+00 0.  1.
     999901    1    3    3    0    0  0.77156824613E-01 -0.11814751066E+00 -0.16330095022E-01  0.89139143022E+00  0.88000000000E+00 0. -1.
        -11    1    4    4    0    0 -0.32404521480E-01  0.54075712721E-01  0.74776966278E-02  0.63485532104E-01  0.51100000000E-03 0.  1.
         11    1    4    4    0    0 -0.43193793482E-01  0.44799147519E-01  0.21621257123E-01  0.65881767542E-01  0.51100000000E-03 0. -1.
</event>
<event>
 8    1  0.1129676E+005  0.1043930E+01  0.7957747E-01            NaN
         13   -1    0    0    0    0  0.00000000000E+00  0.00000000000E+00  0.74505805969E-08  0.10566000000E+00  0.10566000000E+00 0.  1.
     999900   -1    0    0    0    0 -0.00000000000E+00 -0.00000000000E+00 -0.74505805969E-08  0.93827000000E+00  0.93827000000E+00 0. -1.
     999902    2    1    2    0    0 -0.15616870437E-01  0.30377446728E-02 -0.17450736186E-01  0.10203155398E+01  0.10200422335E+01 0.  0.
     999903    2    3    3    0    0  0.88081247906E-01 -0.59947956818E-01  0.67762177328E-01  0.12791331048E+00  0.20445991377E-01 0.  0.
         14    1    1    2    0    0  0.15616870437E-01 -0.30377446728E-02  0.17450736186E-01  0.23614460154E-01  0.00000000000E+00 0.  1.
     999901    1    3    3    0    0 -0.10369811834E+00  0.62985701491E-01 -0.85212913514E-01  0.89240222936E+00  0.88000000000E+00 0. -1.
        -11    1    4    4    0    0  0.34863263787E-01 -0.34788354053E-01  0.36134824288E-01  0.61087342281E-01  0.51100000000E-03 0. -1.
         11    1    4    4    0    0  0.53217984119E-01 -0.25159602765E-01  0.31627353040E-01  0.66825968203E-01  0.51100000000E-03 0.  1.
</event>
<event>
 8    1  0.1129676E+005  0.1043930E+01  0.7957747E-01            NaN
         13   -1    0    0    0    0  0.00000000000E+00  0.00000000000E+00  0.74505805969E-08  0.10566000000E+00  0.10566000000E+00 0.  1.
     999900   -1    0    0    0    0 -0.00000000000E+00 -0.00000000000E+00 -0.74505805969E-08  0.93827000000E+00  0.93827000000E+00 0. -1.
     999902    2    1    2    0    0 -0.36476455381E-02 -0.96131484816E-02 -0.23732409836E-01  0.10180660247E+01  0.10177374344E+01 0.  0.
     999903    2    3    3    0    0  0.81225233725E-01  0.57012456019E-02  0.94094558751E-01  0.12603400127E+00  0.20018508788E-01 0.  0.
         14    1    1    2    0    0  0.36476455381E-02  0.96131484816E-02  0.23732409836E-01  0.25863975300E-01  0.00000000000E+00 0.  1.
     999901    1    3    3    0    0 -0.84872879263E-01 -0.15314394084E-01 -0.11782696859E+00  0.89203202343E+00  0.88000000000E+00 0.  1.
        -11    1    4    4    0    0  0.51814647455E-01  0.31226631734E-02  0.44787475028E-01  0.68561561801E-01  0.51100000000E-03 0.  1.
         11    1    4    4    0    0  0.29410586270E-01  0.25785824285E-02  0.49307083723E-01  0.57472439468E-01  0.51100000000E-03 0. -1.
</event>
<event>
 8    1  0.1129676E+005  0.1043930E+01  0.7957747E-01            NaN
         13   -1    0    0    0    0  0.00000000000E+00  0.00000000000E+00  0.74505805969E-08  0.10566000000E+00  0.10566000000E+00 0. -1.
     999900   -1    0    0    0    0 -0.00000000000E+00 -0.00000000000E+00 -0.74505805969E-08  0.93827000000E+00  0.93827000000E+00 0.  1.
     999902    2    1    2    0    0 -0.79703513430E-03 -0.37014221881E-02  0.23393973219E-01  0.10202316082E+01  0.10199563327E+01 0.  0.
     999903    2    3    3    0    0 -0.12302493594E+00 -0.10594511924E-02 -0.36001512510E-01  0.12979662266E+00  0.20366566977E-01 0.  0.
         14    1    1    2    0    0  0.79703513430E-03  0.37014221881E-02 -0.23393973219E-01  0.23698391806E-01  0.00000000000E+00 0.  1.
     999901    1    3    3    0    0  0.12222790080E+00 -0.26419709957E-02  0.59395485729E-01  0.89043498554E+00  0.88000000000E+00 0. -1.
        -11    1    4    4    0    0 -0.37828125990E-01 -0.63872974578E-02 -0.37783737828E-02  0.38552586349E-01  0.51100000000E-03 0.  1.
         11    1    4    4    0    0 -0.85196809948E-01  0.53278462654E-02 -0.32223138727E-01  0.91244036307E-01  0.51100000000E-03 0. -1.
</event>
<event>
 8    1  0.1129676E+005  0.1043930E+01  0.7957747E-01            NaN
         13   -1    0    0    0    0  0.00000000000E+00  0.00000000000E+00  0.74505805969E-08  0.10566000000E+00  0.10566000000E+00 0. -1.
     999900   -1    0    0    0    0 -0.00000000000E+00 -0.00000000000E+00 -0.74505805969E-08  0.93827000000E+00  0.93827000000E+00 0.  1.
     999902    2    1    2    0    0 -0.21159867723E-01  0.19314367012E-02  0.64784078041E-02  0.10217164857E+01  0.10214749811E+01 0.  0.
     999903    2    3    3    0    0 -0.75841841955E-01  0.42236973237E-01 -0.98763556516E-01  0.13284612078E+00  0.18918372328E-01 0.  0.
         14    1    1    2    0    0  0.21159867723E-01 -0.19314367012E-02 -0.64784078041E-02  0.22213514298E-01  0.00000000000E+00 0.  1.
     999901    1    3    3    0    0  0.54681974232E-01 -0.40305536535E-01  0.10524196432E+00  0.88887036492E+00  0.88000000000E+00 0. -1.
        -11    1    4    4    0    0 -0.32398299932E-01  0.17567308650E-01 -0.28310676586E-01  0.46475969075E-01  0.51100000000E-03 0.  1.
         11    1    4    4    0    0 -0.43443542023E-01  0.24669664587E-01 -0.70452879929E-01  0.86370151706E-01  0.51100000000E-03 0. -1.
</event>
<event>
 8    1  0.1129676E+005  0.1043930E+01  0.7957747E-01            NaN
         13   -1    0    0    0    0  0.00000000000E+00  0.00000000000E+00  0.74505805969E-08  0.10566000000E+00  0.10566000000E+00 0.  1.
     999900   -1    0    0    0    0 -0.00000000000E+00 -0.00000000000E+00 -0.74505805969E-08  0.93827000000E+00  0.93827000000E+00 0. -1.
     999902    2    1    2    0    0  0.12317807930E-01 -0.17084206651E-01 -0.14963897435E-01  0.10180936548E+01  0.10177657752E+01 0.  0.
     999903    2    3    3    0    0  0.19779789954E-01 -0.73415100501E-01 -0.10555760219E+00  0.13161970132E+00  0.20008031472E-01 0.  0.
         14    1    1    2    0    0 -0.12317807930E-01  0.17084206651E-01  0.14963897435E-01  0.25836345243E-01  0.00000000000E+00 0. -1.
     999901    1    3    3    0    0 -0.74619820238E-02  0.56330893850E-01  0.90593704756E-01  0.88647395344E+00  0.88000000000E+00 0.  1.
        -11    1    4    4    0    0  0.61332180134E-03 -0.39978948355E-01 -0.50578272655E-01  0.64475695118E-01  0.51100000000E-03 0.  1.
         11    1    4    4    0    0  0.19166468152E-01 -0.33436152146E-01 -0.54979329536E-01  0.67144006203E-01  0.51100000000E-03 0. -1.
</event>
<event>
 8    1  0.1129676E+005  0.1043930E+01  0.7957747E-01            NaN
         13   -1    0    0    0    0  0.00000000000E+00  0.00000000000E+00  0.74505805969E-08  0.10566000000E+00  0.10566000000E+00 0.  1.
     999900   -1    0    0    0    0 -0.00000000000E+00 -0.00000000000E+00 -0.74505805969E-08  0.93827000000E+00  0.93827000000E+00 0. -1.
     999902    2    1    2    0    0  0.22593252705E-01 -0.19468534187E-02 -0.57257637254E-02  0.10205413344E+01  0.10202732897E+01 0.  0.
     999903    2    3    3    0    0 -0.73593673957E-01  0.40843957629E-01 -0.95051477213E-01  0.12977646005E+00  0.26886586650E-01 0.  0.
         14    1    1    2    0    0 -0.22593252705E-01  0.19468534187E-02  0.57257637254E-02  0.23388665551E-01  0.00000000000E+00 0. -1.
     999901    1    3    3    0    0  0.96186926662E-01 -0.42790811048E-01  0.89325713487E-01  0.89076487440E+00  0.88000000000E+00 0.  1.
        -11    1    4    4    0    0 -0.46795818798E-01  0.21406337252E-01 -0.38590944188E-01  0.64324194716E-01  0.51100000000E-03 0.  1.
         11    1    4    4    0    0 -0.26797855159E-01  0.19437620377E-01 -0.56460533024E-01  0.65452265335E-01  0.51100000000E-03 0. -1.
</event>
<event>
 8    1  0.1129676E+005  0.1043930E+01  0.7957747E-01            NaN
         13   -1    0    0    0    0  0.00000000000E+00  0.00000000000E+00  0.74505805969E-08  0.10566000000E+00  0.10566000000E+00 0.  1.
     999900   -1    0    0    0    0 -0.00000000000E+00 -0.00000000000E+00 -0.74505805969E-08  0.93827000000E+00  0.93827000000E+00 0. -1.
     999902    2    1    2    0    0 -0.24754783509E-01 -0.27973158198E-01  0.93984225559E-03  0.10065645054E+01  0.10058707289E+01 0.  0.
     999903    2    3    3    0    0 -0.37170369203E-01 -0.11473840316E+00 -0.32757768492E-02  0.12220025578E+00  0.19381287133E-01 0.  0.
         14    1    1    2    0    0  0.24754783509E-01  0.27973158198E-01 -0.93984225559E-03  0.37365494639E-01  0.00000000000E+00 0. -1.
     999901    1    3    3    0    0  0.12415585694E-01  0.86765244963E-01  0.42156191048E-02  0.88436424959E+00  0.88000000000E+00 0.  1.
        -11    1    4    4    0    0 -0.19189804202E-02 -0.32518028435E-01 -0.32482284892E-02  0.32740140019E-01  0.51100000000E-03 0.  1.
         11    1    4    4    0    0 -0.35251388782E-01 -0.82220374726E-01 -0.27548360006E-04  0.89460115756E-01  0.51100000000E-03 0. -1.
</event>
<event>
 8    1  0.1129676E+005  0.1043930E+01  0.7957747E-01            NaN
         13   -1    0    0    0    0  0.00000000000E+00  0.00000000000E+00  0.74505805969E-08  0.10566000000E+00  0.10566000000E+00 0. -1.
     999900   -1    0    0    0    0 -0.00000000000E+00 -0.00000000000E+00 -0.74505805969E-08  0.93827000000E+00  0.93827000000E+00 0. -1.
     999902    2    1    2    0    0  0.11712007696E-02  0.24038188368E-01  0.53503971341E-02  0.10192757314E+01  0.10189775187E+01 0.  0.
     999903    2    3    3    0    0 -0.10065094310E+00 -0.29978467424E-02  0.79526943689E-01  0.12989344225E+00  0.20203270408E-01 0.  0.
         14    1    1    2    0    0 -0.11712007696E-02 -0.24038188368E-01 -0.53503971341E-02  0.24654268611E-01  0.00000000000E+00 0.  1.
     999901    1    3    3    0    0  0.10182214387E+00  0.27036035110E-01 -0.74176546555E-01  0.88938228914E+00  0.88000000000E+00 0. -1.
        -11    1    4    4    0    0 -0.53733143133E-01  0.81661343898E-02  0.45255904834E-01  0.70726900576E-01  0.51100000000E-03 0.  1.
         11    1    4    4    0    0 -0.46917799966E-01 -0.11163981132E-01  0.34271038855E-01  0.59166541673E-01  0.51100000000E-03 0. -1.
</event>
<event>
 8    1  0.1129676E+005  0.1043930E+01  0.7957747E-01            NaN
         13   -1    0    0    0    0  0.00000000000E+00  0.00000000000E+00  0.74505805969E-08  0.10566000000E+00  0.10566000000E+00 0. -1.
     999900   -1    0    0    0    0 -0.00000000000E+00 -0.00000000000E+00 -0.74505805969E-08  0.93827000000E+00  0.93827000000E+00 0. -1.
     999902    2    1    2    0    0  0.12039880022E-01  0.18109230267E-01  0.99509431760E-02  0.10200150632E+01  0.10197346738E+01 0.  0.
     999903    2    3    3    0    0  0.12443400433E+00 -0.31540376979E-01 -0.15367707628E-01  0.13111768063E+00  0.21841770116E-01 0.  0.
         14    1    1    2    0    0 -0.12039880022E-01 -0.18109230267E-01 -0.99509431760E-02  0.23914936795E-01  0.00000000000E+00 0.  1.
     999901    1    3    3    0    0 -0.11239412431E+00  0.49649607246E-01  0.25318650804E-01  0.88889738258E+00  0.88000000000E+00 0. -1.
        -11    1    4    4    0    0  0.10028942607E+00 -0.19320526660E-01 -0.54083953724E-02  0.10227787441E+00  0.51100000000E-03 0.  1.
         11    1    4    4    0    0  0.24144578259E-01 -0.12219850319E-01 -0.99593122556E-02  0.28839806218E-01  0.51100000000E-03 0. -1.
</event>
<event>
 8    1  0.1129676E+005  0.1043930E+01  0.7957747E-01            NaN
         13   -1    0    0    0    0  0.00000000000E+00  0.00000000000E+00  0.74505805969E-08  0.10566000000E+00  0.10566000000E+00 0.  1.
     999900   -1    0    0    0    0 -0.00000000000E+00 -0.00000000000E+00 -0.74505805969E-08  0.93827000000E+00  0.93827000000E+00 0.  1.
     999902    2    1    2    0    0  0.76081806134E-02 -0.34567705834E-02 -0.22423926836E-01  0.10199995556E+01  0.10197187981E+01 0.  0.
     999903    2    3    3    0    0  0.12698519934E+00  0.14484200527E-01  0.20475741843E-01  0.13072280866E+00  0.18280147255E-01 0.  0.
         14    1    1    2    0    0 -0.76081806134E-02  0.34567705834E-02  0.22423926836E-01  0.23930444414E-01  0.00000000000E+00 0.  1.
     999901    1    3    3    0    0 -0.11937701873E+00 -0.17940971111E-01 -0.42899668679E-01  0.88927674692E+00  0.88000000000E+00 0.  1.
        -11    1    4    4    0    0  0.33999694768E-01 -0.28502506368E-02  0.99867872690E-02  0.35554187010E-01  0.51100000000E-03 0. -1.
         11    1    4    4    0    0  0.92985504575E-01  0.17334451164E-01  0.10488954574E-01  0.95168621652E-01  0.51100000000E-03 0.  1.
</event>
<event>
 8    1  0.1129676E+005  0.1043930E+01  0.7957747E-01            NaN
         13   -1    0    0    0    0  0.00000000000E+00  0.00000000000E+00  0.74505805969E-08  0.10566000000E+00  0.10566000000E+00 0. -1.
     999900   -1    0    0    0    0 -0.00000000000E+00 -0.00000000000E+00 -0.74505805969E-08  0.93827000000E+00  0.93827000000E+00 0.  1.
     999902    2    1    2    0    0 -0.55584028374E-03  0.14581707237E-01  0.18915260854E-01  0.10200402064E+01  0.10197604133E+01 0.  0.
     999903    2    3    3    0    0  0.20449349979E-01  0.12531846984E+00 -0.27801244394E-01  0.13162235401E+00  0.20703624959E-01 0.  0.
         14    1    1    2    0    0  0.55584028374E-03 -0.14581707237E-01 -0.18915260854E-01  0.23889793585E-01  0.00000000000E+00 0.  1.
     999901    1    3    3    0    0 -0.21005190263E-01 -0.11073676261E+00  0.46716505248E-01  0.88841785241E+00  0.88000000000E+00 0. -1.
        -11    1    4    4    0    0  0.19569873988E-01  0.57810157563E-01 -0.15816710632E-01  0.63050961465E-01  0.51100000000E-03 0.  1.
         11    1    4    4    0    0  0.87947599109E-03  0.67508312280E-01 -0.11984533763E-01  0.68571392544E-01  0.51100000000E-03 0. -1.
</event>
<event>
 8    1  0.1129676E+005  0.1043930E+01  0.7957747E-01            NaN
         13   -1    0    0    0    0  0.00000000000E+00  0.00000000000E+00  0.74505805969E-08  0.10566000000E+00  0.10566000000E+00 0.  1.
     999900   -1    0    0    0    0 -0.00000000000E+00 -0.00000000000E+00 -0.74505805969E-08  0.93827000000E+00  0.93827000000E+00 0.  1.
     999902    2    1    2    0    0 -0.14883366893E-01  0.97149441696E-02 -0.15082361817E-01  0.10206196506E+01  0.10203534186E+01 0.  0.
     999903    2    3    3    0    0  0.93493439987E-01  0.45101091217E-01  0.71224177783E-01  0.12907799122E+00  0.28515128722E-01 0.  0.
         14    1    1    2    0    0  0.14883366893E-01 -0.97149441696E-02  0.15082361817E-01  0.23310349381E-01  0.00000000000E+00 0.  1.
     999901    1    3    3    0    0 -0.10837680688E+00 -0.35386147047E-01 -0.86306539600E-01  0.89154165940E+00  0.88000000000E+00 0.  1.
        -11    1    4    4    0    0  0.48406599601E-01  0.22932600201E-01  0.19601164102E-01  0.57040071810E-01  0.51100000000E-03 0. -1.
         11    1    4    4    0    0  0.45086840386E-01  0.22168491016E-01  0.51623013681E-01  0.72037919407E-01  0.51100000000E-03 0.  1.
</event>
<event>
 8    1  0.1129676E+005  0.1043930E+01  0.7957747E-01            NaN
         13   -1    0    0    0    0  0.00000000000E+00  0.00000000000E+00  0.74505805969E-08  0.10566000000E+00  0.10566000000E+00 0. -1.
     999900   -1    0    0    0    0 -0.00000000000E+00 -0.00000000000E+00 -0.74505805969E-08  0.93827000000E+00  0.93827000000E+00 0.  1.
     999902    2    1    2    0    0  0.14733250375E-01  0.12731535962E-01  0.12706255861E-01  0.10206789868E+01  0.10204141241E+01 0.  0.
     999903    2    3    3    0    0  0.42979724595E-01  0.11595560691E+00 -0.43102982239E-01  0.13244042476E+00  0.19739289025E-01 0.  0.
         14    1    1    2    0    0 -0.14733250375E-01 -0.12731535962E-01 -0.12706255861E-01  0.23251013151E-01  0.00000000000E+00 0.  1.
     999901    1    3    3    0    0 -0.28246474220E-01 -0.10322407095E+00  0.55809238100E-01  0.88823856209E+00  0.88000000000E+00 0. -1.
        -11    1    4    4    0    0  0.22667011305E-01  0.49248274426E-01 -0.95367736581E-02  0.55049042755E-01  0.51100000000E-03 0.  1.
         11    1    4    4    0    0  0.20312713290E-01  0.66707332486E-01 -0.33566208581E-01  0.77391382002E-01  0.51100000000E-03 0. -1.
</event>
<event>
 8    1  0.1129676E+005  0.1043930E+01  0.7957747E-01            NaN
         13   -1    0    0    0    0  0.00000000000E+00  0.00000000000E+00  0.74505805969E-08  0.10566000000E+00  0.10566000000E+00 0.  1.
     999900   -1    0    0    0    0 -0.00000000000E+00 -0.00000000000E+00 -0.74505805969E-08  0.93827000000E+00  0.93827000000E+00 0.  1.
     999902    2    1    2    0    0  0.15850258208E-01  0.17231622660E-01 -0.92947215263E-03  0.10204987511E+01  0.10202297181E+01 0.  0.
     999903    2    3    3    0    0  0.12400650023E+00 -0.12119598063E-01  0.40023222126E-01  0.13244673126E+00  0.20390722237E-01 0.  0.
         14    1    1    2    0    0 -0.15850258208E-01 -0.17231622660E-01  0.92947215263E-03  0.23431248862E-01  0.00000000000E+00 0. -1.
     999901    1    3    3    0    0 -0.10815624203E+00  0.29351220723E-01 -0.40952694279E-01  0.88805201988E+00  0.88000000000E+00 0.  1.
        -11    1    4    4    0    0  0.42916828402E-01  0.46721868936E-02  0.17850549929E-01  0.46718162894E-01  0.51100000000E-03 0. -1.
         11    1    4    4    0    0  0.81089671833E-01 -0.16791784956E-01  0.22172672198E-01  0.85728568362E-01  0.51100000000E-03 0.  1.
</event>
<event>
 8    1  0.1129676E+005  0.1043930E+01  0.7957747E-01            NaN
         13   -1    0    0    0    0  0.00000000000E+00  0.00000000000E+00  0.74505805969E-08  0.10566000000E+00  0.10566000000E+00 0.  1.
     999900   -1    0    0    0    0 -0.00000000000E+00 -0.00000000000E+00 -0.74505805969E-08  0.93827000000E+00  0.93827000000E+00 0. -1.
     999902    2    1    2    0    0  0.17729395113E-01 -0.14556769767E-01 -0.49459264904E-02  0.10204631471E+01  0.10201932863E+01 0.  0.
     999903    2    3    3    0    0  0.85347687446E-01 -0.36298833923E-01 -0.92829338405E-01  0.13323800942E+00  0.23092162912E-01 0.  0.
         14    1    1    2    0    0 -0.17729395113E-01  0.14556769767E-01  0.49459264904E-02  0.23466852920E-01  0.00000000000E+00 0.  1.
     999901    1    3    3    0    0 -0.67618292334E-01  0.21742064155E-01  0.87883411915E-01  0.88722513766E+00  0.88000000000E+00 0.  1.
        -11    1    4    4    0    0  0.20743842787E-01 -0.20001976613E-01 -0.31232104314E-01  0.42498135758E-01  0.51100000000E-03 0.  1.
         11    1    4    4    0    0  0.64603844659E-01 -0.16296857309E-01 -0.61597234091E-01  0.90739873659E-01  0.51100000000E-03 0. -1.
</event>
<event>
 8    1  0.1129676E+005  0.1043930E+01  0.7957747E-01            NaN
         13   -1    0    0    0    0  0.00000000000E+00  0.00000000000E+00  0.74505805969E-08  0.10566000000E+00  0.10566000000E+00 0. -1.
     999900   -1    0    0    0    0 -0.00000000000E+00 -0.00000000000E+00 -0.74505805969E-08  0.93827000000E+00  0.93827000000E+00 0.  1.
     999902    2    1    2    0    0 -0.26190567625E-01 -0.12430281518E-01 -0.82332535241E-02  0.10137929100E+01  0.10133448673E+01 0.  0.
     999903    2    3    3    0    0 -0.10198760374E+00 -0.33603829913E-01 -0.67211664735E-01  0.12831452921E+00  0.20408866411E-01 0.  0.
         14    1    1    2    0    0  0.26190567625E-01  0.12430281518E-01  0.82332535241E-02  0.30137090017E-01  0.00000000000E+00 0.  1.
     999901    1    3    3    0    0  0.75797036111E-01  0.21173548396E-01  0.58978411211E-01  0.88547838078E+00  0.88000000000E+00 0. -1.
        -11    1    4    4    0    0 -0.29623220729E-01 -0.89263043420E-02 -0.90210453037E-02  0.32231265798E-01  0.51100000000E-03 0. -1.
         11    1    4    4    0    0 -0.72364383007E-01 -0.24677525571E-01 -0.58190619431E-01  0.96083263407E-01  0.51100000000E-03 0.  1.
</event>
<event>
 8    1  0.1129676E+005  0.1043930E+01  0.7957747E-01            NaN
         13   -1    0    0    0    0  0.00000000000E+00  0.00000000000E+00  0.74505805969E-08  0.10566000000E+00  0.10566000000E+00 0. -1.
     999900   -1    0    0    0    0 -0.00000000000E+00 -0.00000000000E+00 -0.74505805969E-08  0.93827000000E+00  0.93827000000E+00 0. -1.
     999902    2    1    2    0    0  0.22283605993E-01 -0.72315956903E-02  0.17176774300E-02  0.10204394596E+01  0.10201690474E+01 0.  0.
     999903    2    3    3    0    0 -0.92027342545E-01 -0.46898889025E-01  0.74763653313E-01  0.12916161196E+00  0.20605353159E-01 0.  0.
         14    1    1    2    0    0 -0.22283605993E-01  0.72315956903E-02 -0.17176774300E-02  0.23490540395E-01  0.00000000000E+00 0.  1.
     999901    1    3    3    0    0  0.11431094854E+00  0.39667293335E-01 -0.73045975883E-01  0.89127784765E+00  0.88000000000E+00 0.  1.
        -11    1    4    4    0    0 -0.61840135277E-01 -0.29211752549E-01  0.60716176030E-01  0.91456240742E-01  0.51100000000E-03 0. -1.
         11    1    4    4    0    0 -0.30187207268E-01 -0.17687136476E-01  0.14047477283E-01  0.37705371214E-01  0.51100000000E-03 0.  1.
</event>
<event>
 8    1  0.1129676E+005  0.1043930E+01  0.7957747E-01            NaN
         13   -1    0    0    0    0  0.00000000000E+00  0.00000000000E+00  0.74505805969E-08  0.10566000000E+00  0.10566000000E+00 0. -1.
     999900   -1    0    0    0    0 -0.00000000000E+00 -0.00000000000E+00 -0.74505805969E-08  0.93827000000E+00  0.93827000000E+00 0. -1.
     999902    2    1    2    0    0  0.93588140777E-02  0.10993284003E-01  0.24496855713E-02  0.10292862077E+01  0.10291820328E+01 0.  0.
     999903    2    3    3    0    0 -0.12773501870E-01  0.13621622628E+00 -0.24159179736E-01  0.13974775635E+00  0.15091281783E-01 0.  0.
         14    1    1    2    0    0 -0.93588140777E-02 -0.10993284003E-01 -0.24496855713E-02  0.14643792320E-01  0.00000000000E+00 0. -1.
     999901    1    3    3    0    0  0.22132315947E-01 -0.12522294228E+00  0.26608865307E-01  0.88953845133E+00  0.88000000000E+00 0. -1.
        -11    1    4    4    0    0 -0.10625749203E-01  0.11598051546E+00 -0.15010821280E-01  0.11743071314E+00  0.51100000000E-03 0. -1.
         11    1    4    4    0    0 -0.21477526669E-02  0.20235710829E-01 -0.91483584558E-02  0.22317043212E-01  0.51100000000E-03 0.  1.
</event>
<event>
 8    1  0.1129676E+005  0.1043930E+01  0.7957747E-01            NaN
         13   -1    0    0    0    0  0.00000000000E+00  0.00000000000E+00  0.74505805969E-08  0.10566000000E+00  0.10566000000E+00 0. -1.
     999900   -1    0    0    0    0 -0.00000000000E+00 -0.00000000000E+00 -0.74505805969E-08  0.93827000000E+00  0.93827000000E+00 0.  1.
     999902    2    1    2    0    0 -0.23816538765E-01  0.34504742018E-02  0.37823435602E-03  0.10198618395E+01  0.10195778024E+01 0.  0.
     999903    2    3    3    0    0  0.63190332884E-01  0.50020221419E-02 -0.10952668350E+00  0.12876605673E+00  0.23802616932E-01 0.  0.
         14    1    1    2    0    0  0.23816538765E-01 -0.34504742018E-02 -0.37823435602E-03  0.24068160548E-01  0.00000000000E+00 0.  1.
     999901    1    3    3    0    0 -0.87006871649E-01 -0.15515479401E-02  0.10990491785E+00  0.89109578272E+00  0.88000000000E+00 0.  1.
        -11    1    4    4    0    0  0.39158799249E-01  0.13285232587E-01 -0.77813436600E-01  0.88119810485E-01  0.51100000000E-03 0.  1.
         11    1    4    4    0    0  0.24031533635E-01 -0.82832104448E-02 -0.31713246896E-01  0.40646246245E-01  0.51100000000E-03 0. -1.
</event>
<event>
 8    1  0.1129676E+005  0.1043930E+01  0.7957747E-01            NaN
         13   -1    0    0    0    0  0.00000000000E+00  0.00000000000E+00  0.74505805969E-08  0.10566000000E+00  0.10566000000E+00 0.  1.
     999900   -1    0    0    0    0 -0.00000000000E+00 -0.00000000000E+00 -0.74505805969E-08  0.93827000000E+00  0.93827000000E+00 0.  1.
     999902    2    1    2    0    0 -0.78489269337E-02  0.15981461303E-02  0.21996971967E-01  0.10205200342E+01  0.10202514953E+01 0.  0.
     999903    2    3    3    0    0  0.71185337451E-01  0.10721215998E+00  0.10962728431E-01  0.13061976480E+00  0.19481838376E-01 0.  0.
         14    1    1    2    0    0  0.78489269337E-02 -0.15981461303E-02 -0.21996971967E-01  0.23409965843E-01  0.00000000000E+00 0. -1.
     999901    1    3    3    0    0 -0.79034264385E-01 -0.10561401385E+00  0.11034243536E-01  0.88990026936E+00  0.88000000000E+00 0. -1.
        -11    1    4    4    0    0  0.58486052474E-01  0.99124480886E-01  0.98249803672E-02  0.11551221756E+00  0.51100000000E-03 0.  1.
         11    1    4    4    0    0  0.12699284978E-01  0.80876790943E-02  0.11377480639E-02  0.15107547244E-01  0.51100000000E-03 0. -1.
</event>
<event>
 8    1  0.1129676E+005  0.1043930E+01  0.7957747E-01            NaN
         13   -1    0    0    0    0  0.00000000000E+00  0.00000000000E+00  0.74505805969E-08  0.10566000000E+00  0.10566000000E+00 0.  1.
     999900   -1    0    0    0    0 -0.00000000000E+00 -0.00000000000E+00 -0.74505805969E-08  0.93827000000E+00  0.93827000000E+00 0.  1.
     999902    2    1    2    0    0 -0.34364745898E-02 -0.28477461552E-02 -0.22297436350E-01  0.10211902840E+01  0.10209370703E+01 0.  0.
     999903    2    3    3    0    0 -0.94295672468E-01 -0.17066058100E-02  0.86814070443E-01  0.12980820153E+00  0.20467046893E-01 0.  0.
         14    1    1    2    0    0  0.34364745898E-02  0.28477461552E-02  0.22297436350E-01  0.22739715995E-01  0.00000000000E+00 0.  1.
     999901    1    3    3    0    0  0.90859197878E-01 -0.11411403452E-02 -0.10911150679E+00  0.89138208247E+00  0.88000000000E+00 0.  1.
        -11    1    4    4    0    0 -0.75384472418E-01 -0.47753304185E-02  0.78425845058E-01  0.10888754179E+00  0.51100000000E-03 0. -1.
         11    1    4    4    0    0 -0.18911200050E-01  0.30687246085E-02  0.83882253846E-02  0.20920659745E-01  0.51100000000E-03 0.  1.
</event>
<event>
 8    1  0.1129676E+005  0.1043930E+01  0.7957747E-01            NaN
         13   -1    0    0    0    0  0.00000000000E+00  0.00000000000E+00  0.74505805969E-08  0.10566000000E+00  0.10566000000E+00 0.  1.
     999900   -1    0    0    0    0 -0.00000000000E+00 -0.00000000000E+00 -0.74505805969E-08  0.93827000000E+00  0.93827000000E+00 0.  1.
     999902    2    1    2    0    0  0.66525832505E-02  0.14426195651E-01 -0.18362044574E-01  0.10196496239E+01  0.10193604950E+01 0.  0.
     999903    2    3    3    0    0 -0.17324217492E-01  0.12087353146E+00  0.41554005634E-01  0.13088877000E+00  0.22239505598E-01 0.  0.
         14    1    1    2    0    0 -0.66525832505E-02 -0.14426195651E-01  0.18362044574E-01  0.24280376146E-01  0.00000000000E+00 0. -1.
     999901    1    3    3    0    0  0.23976800743E-01 -0.10644733580E+00 -0.59916050208E-01  0.88876085386E+00  0.88000000000E+00 0. -1.
        -11    1    4    4    0    0 -0.62803189073E-02  0.79384647573E-01  0.36681795183E-01  0.87676564113E-01  0.51100000000E-03 0. -1.
         11    1    4    4    0    0 -0.11043898585E-01  0.41488883883E-01  0.48722104504E-02  0.43212205885E-01  0.51100000000E-03 0.  1.
</event>
<event>
 8    1  0.1129676E+005  0.1043930E+01  0.7957747E-01            NaN
         13   -1    0    0    0    0  0.00000000000E+00  0.00000000000E+00  0.74505805969E-08  0.10566000000E+00  0.10566000000E+00 0. -1.
     999900   -1    0    0    0    0 -0.00000000000E+00 -0.00000000000E+00 -0.74505805969E-08  0.93827000000E+00  0.93827000000E+00 0. -1.
     999902    2    1    2    0    0  0.18787496070E-01 -0.12267702305E-01  0.66563949368E-02  0.10205254252E+01  0.10202570114E+01 0.  0.
     999903    2    3    3    0    0  0.12569169271E+00 -0.39534443523E-01  0.71157426555E-02  0.13363637157E+00  0.21134620238E-01 0.  0.
         14    1    1    2    0    0 -0.18787496070E-01  0.12267702305E-01 -0.66563949368E-02  0.23404574809E-01  0.00000000000E+00 0.  1.
     999901    1    3    3    0    0 -0.10690419664E+00  0.27266741218E-01 -0.45934771863E-03  0.88688905362E+00  0.88000000000E+00 0.  1.
        -11    1    4    4    0    0  0.71934836982E-01 -0.14504852186E-01 -0.31590614777E-02  0.73452381166E-01  0.51100000000E-03 0. -1.
         11    1    4    4    0    0  0.53756855724E-01 -0.25029591337E-01  0.10274804133E-01  0.60183990403E-01  0.51100000000E-03 0.  1.
</event>
<event>
 8    1  0.1129676E+005  0.1043930E+01  0.7957747E-01            NaN
         13   -1    0    0    0    0  0.00000000000E+00  0.00000000000E+00  0.74505805969E-08  0.10566000000E+00  0.10566000000E+00 0. -1.
     999900   -1    0    0    0    0 -0.00000000000E+00 -0.00000000000E+00 -0.74505805969E-08  0.93827000000E+00  0.93827000000E+00 0.  1.
     999902    2    1    2    0    0  0.56690757673E-02  0.25700914750E-01  0.12567577530E-02  0.10175812832E+01  0.10172400960E+01 0.  0.
     999903    2    3    3    0    0  0.11196181968E+00  0.43336704167E-01  0.45237175137E-01  0.12991949757E+00  0.20473271407E-01 0.  0.
         14    1    1    2    0    0 -0.56690757673E-02 -0.25700914750E-01 -0.12567577530E-02  0.26348716839E-01  0.00000000000E+00 0.  1.
     999901    1    3    3    0    0 -0.10629274391E+00 -0.17635789418E-01 -0.43980417384E-01  0.88766178559E+00  0.88000000000E+00 0. -1.
        -11    1    4    4    0    0  0.52744463988E-01  0.10282832887E-01  0.23970944221E-01  0.58843711826E-01  0.51100000000E-03 0. -1.
         11    1    4    4    0    0  0.59217355690E-01  0.33053871280E-01  0.21266230916E-01  0.71075785749E-01  0.51100000000E-03 0.  1.
</event>
<event>
 8    1  0.1129676E+005  0.1043930E+01  0.7957747E-01            NaN
         13   -1    0    0    0    0  0.00000000000E+00  0.00000000000E+00  0.74505805969E-08  0.10566000000E+00  0.10566000000E+00 0. -1.
     999900   -1    0    0    0    0 -0.00000000000E+00 -0.00000000000E+00 -0.74505805969E-08  0.93827000000E+00  0.93827000000E+00 0.  1.
     999902    2    1    2    0    0  0.35282150986E-02 -0.22660028850E-01 -0.10641613855E-01  0.10186482051E+01  0.10183344227E+01 0.  0.
     999903    2    3    3    0    0  0.12386058679E+00 -0.35258909706E-01 -0.65362635724E-02  0.13036026450E+00  0.19142626385E-01 0.  0.
         14    1    1    2    0    0 -0.35282150986E-02  0.22660028850E-01  0.10641613855E-01  0.25281794927E-01  0.00000000000E+00 0.  1.
     999901    1    3    3    0    0 -0.12033237169E+00  0.12598880856E-01 -0.41053502827E-02  0.88828794058E+00  0.88000000000E+00 0.  1.
        -11    1    4    4    0    0  0.63450335405E-02 -0.64041697545E-02  0.11842342872E-02  0.91069409091E-02  0.51100000000E-03 0.  1.
         11    1    4    4    0    0  0.11751555325E+00 -0.28854739951E-01 -0.77204978597E-02  0.12125332359E+00  0.51100000000E-03 0. -1.
</event>
<event>
 8    1  0.1129676E+005  0.1043930E+01  0.7957747E-01            NaN
         13   -1    0    0    0    0  0.00000000000E+00  0.00000000000E+00  0.74505805969E-08  0.10566000000E+00  0.10566000000E+00 0.  1.
     999900   -1    0    0    0    0 -0.00000000000E+00 -0.00000000000E+00 -0.74505805969E-08  0.93827000000E+00  0.93827000000E+00 0.  1.
     999902    2    1    2    0    0 -0.15986346423E-01 -0.51025842292E-02  0.17515756216E-01  0.10196730143E+01  0.10193844490E+01 0.  0.
     999903    2    3    3    0    0  0.84123941397E-01 -0.78930324987E-01 -0.52892381605E-01  0.12814067566E+00  0.17764993882E-01 0.  0.
         14    1    1    2    0    0  0.15986346423E-01  0.51025842292E-02 -0.17515756216E-01  0.24256985666E-01  0.00000000000E+00 0. -1.
     999901    1    3    3    0    0 -0.10011028782E+00  0.73827740758E-01  0.70408137821E-01  0.89153233868E+00  0.88000000000E+00 0.  1.
        -11    1    4    4    0    0  0.16203623084E-01 -0.68512241552E-02 -0.63522754954E-02  0.18711205157E-01  0.51100000000E-03 0. -1.
         11    1    4    4    0    0  0.67920318313E-01 -0.72079100832E-01 -0.46540106110E-01  0.10942947050E+00  0.51100000000E-03 0.  1.
</event>
<event>
 8    1  0.1129676E+005  0.1043930E+01  0.7957747E-01            NaN
         13   -1    0    0    0    0  0.00000000000E+00  0.00000000000E+00  0.74505805969E-08  0.10566000000E+00  0.10566000000E+00 0.  1.
     999900   -1    0    0    0    0 -0.00000000000E+00 -0.00000000000E+00 -0.74505805969E-08  0.93827000000E+00  0.93827000000E+00 0. -1.
     999902    2    1    2    0    0  0.15387273316E-01  0.13532470679E-01 -0.11582690740E-01  0.10203916341E+01  0.10201201068E+01 0.  0.
     999903    2    3    3    0    0  0.11973788758E+00  0.24742662072E-01 -0.49102229811E-01  0.13336151351E+00  0.20613181822E-01 0.  0.
         14    1    1    2    0    0 -0.15387273316E-01 -0.13532470679E-01  0.11582690740E-01  0.23538365864E-01  0.00000000000E+00 0. -1.
     999901    1    3    3    0    0 -0.10435061426E+00 -0.11210191393E-01  0.37519539071E-01  0.88703012063E+00  0.88000000000E+00 0. -1.
        -11    1    4    4    0    0  0.73489253370E-01  0.15033546644E-01 -0.40759009090E-01  0.85371165089E-01  0.51100000000E-03 0.  1.
         11    1    4    4    0    0  0.46248634207E-01  0.97091154287E-02 -0.83432207216E-02  0.47990348420E-01  0.51100000000E-03 0. -1.
</event>
<event>
 8    1  0.1129676E+005  0.1043930E+01  0.7957747E-01            NaN
         13   -1    0    0    0    0  0.00000000000E+00  0.00000000000E+00  0.74505805969E-08  0.10566000000E+00  0.10566000000E+00 0. -1.
     999900   -1    0    0    0    0 -0.00000000000E+00 -0.00000000000E+00 -0.74505805969E-08  0.93827000000E+00  0.93827000000E+00 0. -1.
     999902    2    1    2    0    0 -0.86542009558E-02 -0.29046607818E-02  0.21481165195E-01  0.10205896335E+01  0.10203227075E+01 0.  0.
     999903    2    3    3    0    0  0.75972967989E-01 -0.88396081699E-01  0.52980041871E-01  0.13184742119E+00  0.31481717131E-01 0.  0.
         14    1    1    2    0    0  0.86542009558E-02  0.29046607818E-02 -0.21481165195E-01  0.23340366462E-01  0.00000000000E+00 0.  1.
     999901    1    3    3    0    0 -0.84627168945E-01  0.85491420917E-01 -0.31498876676E-01  0.88874221235E+00  0.88000000000E+00 0. -1.
        -11    1    4    4    0    0  0.12578231652E-01 -0.34636355916E-01  0.23221762661E-01  0.43559160284E-01  0.51100000000E-03 0.  1.
         11    1    4    4    0    0  0.63394736337E-01 -0.53759725783E-01  0.29758279211E-01  0.88288260907E-01  0.51100000000E-03 0. -1.
</event>
<event>
 8    1  0.1129676E+005  0.1043930E+01  0.7957747E-01            NaN
         13   -1    0    0    0    0  0.00000000000E+00  0.00000000000E+00  0.74505805969E-08  0.10566000000E+00  0.10566000000E+00 0.  1.
     999900   -1    0    0    0    0 -0.00000000000E+00 -0.00000000000E+00 -0.74505805969E-08  0.93827000000E+00  0.93827000000E+00 0.  1.
     999902    2    1    2    0    0  0.29068924047E-02  0.19419207737E-01 -0.11172007166E-01  0.10213386433E+01  0.10210887596E+01 0.  0.
     999903    2    3    3    0    0 -0.60183453440E-01 -0.11122899659E+00 -0.20080554474E-01  0.12941448329E+00  0.18733447828E-01 0.  0.
         14    1    1    2    0    0 -0.29068924047E-02 -0.19419207737E-01  0.11172007166E-01  0.22591356681E-01  0.00000000000E+00 0.  1.
     999901    1    3    3    0    0  0.63090345844E-01  0.13064820432E+00  0.89085473078E-02  0.89192416003E+00  0.88000000000E+00 0. -1.
        -11    1    4    4    0    0 -0.34669564169E-01 -0.56321311500E-01 -0.17857677526E-02  0.66162821102E-01  0.51100000000E-03 0.  1.
         11    1    4    4    0    0 -0.25513889271E-01 -0.54907685085E-01 -0.18294786721E-01  0.63251662186E-01  0.51100000000E-03 0. -1.
</event>
<event>
 8    1  0.1129676E+005  0.1043930E+01  0.7957747E-01            NaN
         13   -1    0    0    0    0  0.00000000000E+00  0.00000000000E+00  0.74505805969E-08  0.10566000000E+00  0.10566000000E+00 0. -1.
     999900   -1    0    0    0    0 -0.00000000000E+00 -0.00000000000E+00 -0.74505805969E-08  0.93827000000E+00  0.93827000000E+00 0.  1.
     999902    2    1    2    0    0 -0.10195344005E-01 -0.20461619737E-01 -0.72910097528E-02  0.10199345474E+01  0.10196522443E+01 0.  0.
     999903    2    3    3    0    0 -0.82355700694E-02  0.83476289266E-01 -0.96278423194E-01  0.12935850384E+00  0.20687490375E-01 0.  0.
         14    1    1    2    0    0  0.10195344005E-01  0.20461619737E-01  0.72910097528E-02  0.23995452587E-01  0.00000000000E+00 0.  1.
     999901    1    3    3    0    0 -0.19597739352E-02 -0.10393790900E+00  0.88987413442E-01  0.89057604358E+00  0.88000000000E+00 0. -1.
        -11    1    4    4    0    0 -0.11568241960E-01  0.22679919459E-01 -0.26610196994E-01  0.36831598849E-01  0.51100000000E-03 0.  1.
         11    1    4    4    0    0  0.33326718908E-02  0.60796369807E-01 -0.69668226200E-01  0.92526904988E-01  0.51100000000E-03 0. -1.
</event>
<event>
 8    1  0.1129676E+005  0.1043930E+01  0.7957747E-01            NaN
         13   -1    0    0    0    0  0.00000000000E+00  0.00000000000E+00  0.74505805969E-08  0.10566000000E+00  0.10566000000E+00 0.  1.
     999900   -1    0    0    0    0 -0.00000000000E+00 -0.00000000000E+00 -0.74505805969E-08  0.93827000000E+00  0.93827000000E+00 0.  1.
     999902    2    1    2    0    0  0.13026658237E-01 -0.11051183617E-01  0.16145155102E-01  0.10204249257E+01  0.10201541749E+01 0.  0.
     999903    2    3    3    0    0 -0.95614899613E-01 -0.38712753875E-01  0.77544773120E-01  0.13119038766E+00  0.23597449787E-01 0.  0.
         14    1    1    2    0    0 -0.13026658237E-01  0.11051183617E-01 -0.16145155102E-01  0.23505074291E-01  0.00000000000E+00 0. -1.
     999901    1    3    3    0    0  0.10864155785E+00  0.27661570259E-01 -0.61399618018E-01  0.88923453805E+00  0.88000000000E+00 0.  1.
        -11    1    4    4    0    0 -0.88456520963E-02 -0.12125113645E-01  0.96411182541E-02  0.17845902166E-01  0.51100000000E-03 0.  1.
         11    1    4    4    0    0 -0.86769247516E-01 -0.26587640230E-01  0.67903654865E-01  0.11334448550E+00  0.51100000000E-03 0. -1.
</event>
<event>
 8    1  0.1129676E+005  0.1043930E+01  0.7957747E-01            NaN
         13   -1    0    0    0    0  0.00000000000E+00  0.00000000000E+00  0.74505805969E-08  0.10566000000E+00  0.10566000000E+00 0. -1.
     999900   -1    0    0    0    0 -0.00000000000E+00 -0.00000000000E+00 -0.74505805969E-08  0.93827000000E+00  0.93827000000E+00 0. -1.
     999902    2    1    2    0    0  0.14179407243E-01  0.71116287528E-02 -0.17337326563E-01  0.10204307714E+01  0.10201601568E+01 0.  0.
     999903    2    3    3    0    0  0.48635128829E-01  0.11425381678E+00  0.39512135293E-01  0.13144342247E+00  0.17229453598E-01 0.  0.
         14    1    1    2    0    0 -0.14179407243E-01 -0.71116287528E-02  0.17337326563E-01  0.23499228618E-01  0.00000000000E+00 0. -1.
     999901    1    3    3    0    0 -0.34455721586E-01 -0.10714218803E+00 -0.56849461857E-01  0.88898734891E+00  0.88000000000E+00 0.  1.
        -11    1    4    4    0    0  0.19791300835E-01  0.46315164337E-01  0.24953663846E-01  0.56211533485E-01  0.51100000000E-03 0.  1.
         11    1    4    4    0    0  0.28843827994E-01  0.67938652442E-01  0.14558471447E-01  0.75231888989E-01  0.51100000000E-03 0. -1.
</event>
<event>
 8    1  0.1129676E+005  0.1043930E+01  0.7957747E-01            NaN
         13   -1    0    0    0    0  0.00000000000E+00  0.00000000000E+00  0.74505805969E-08  0.10566000000E+00  0.10566000000E+00 0. -1.
     999900   -1    0    0    0    0 -0.00000000000E+00 -0.00000000000E+00 -0.74505805969E-08  0.93827000000E+00  0.93827000000E+00 0. -1.
     999902    2    1    2    0    0  0.58701858441E-02  0.18169370020E-01  0.16285142569E-01  0.10188343638E+01  0.10185252426E+01 0.  0.
     999903    2    3    3    0    0 -0.28205557657E-01  0.12771655767E+00  0.63003325614E-02  0.13133144038E+00  0.10058849636E-01 0.  0.
         14    1    1    2    0    0 -0.58701858441E-02 -0.18169370020E-01 -0.16285142569E-01  0.25095636219E-01  0.00000000000E+00 0.  1.
     999901    1    3    3    0    0  0.34075743501E-01 -0.10954718765E+00  0.99848100071E-02  0.88750292340E+00  0.88000000000E+00 0.  1.
        -11    1    4    4    0    0 -0.15243750568E-01  0.46627625176E-01  0.20559798272E-02  0.49101889322E-01  0.51100000000E-03 0. -1.
         11    1    4    4    0    0 -0.12961807088E-01  0.81088932493E-01  0.42443527342E-02  0.82229551056E-01  0.51100000000E-03 0.  1.
</event>
<event>
 8    1  0.1129676E+005  0.1043930E+01  0.7957747E-01            NaN
         13   -1    0    0    0    0  0.00000000000E+00  0.00000000000E+00  0.74505805969E-08  0.10566000000E+00  0.10566000000E+00 0. -1.
     999900   -1    0    0    0    0 -0.00000000000E+00 -0.00000000000E+00 -0.74505805969E-08  0.93827000000E+00  0.93827000000E+00 0.  1.
     999902    2    1    2    0    0 -0.55668635036E-02  0.20288158020E-01 -0.11347160177E-01  0.10200269172E+01  0.10197468089E+01 0.  0.
     999903    2    3    3    0    0  0.12049332647E+00 -0.38199344016E-01  0.17271131980E-01  0.12866225215E+00  0.16668878814E-01 0.  0.
         14    1    1    2    0    0  0.55668635036E-02 -0.20288158020E-01  0.11347160177E-01  0.23903082839E-01  0.00000000000E+00 0. -1.
     999901    1    3    3    0    0 -0.12606018997E+00  0.58487502036E-01 -0.28618292157E-01  0.89136466501E+00  0.88000000000E+00 0. -1.
        -11    1    4    4    0    0  0.54754218676E-01 -0.11507056500E-01  0.14759384486E-02  0.55972103118E-01  0.51100000000E-03 0.  1.
         11    1    4    4    0    0  0.65739107792E-01 -0.26692287515E-01  0.15795193532E-01  0.72690149029E-01  0.51100000000E-03 0. -1.
</event>
<event>
 8    1  0.1129676E+005  0.1043930E+01  0.7957747E-01            NaN
         13   -1    0    0    0    0  0.00000000000E+00  0.00000000000E+00  0.74505805969E-08  0.10566000000E+00  0.10566000000E+00 0. -1.
     999900   -1    0    0    0    0 -0.00000000000E+00 -0.00000000000E+00 -0.74505805969E-08  0.93827000000E+00  0.93827000000E+00 0. -1.
     999902    2    1    2    0    0  0.20992828927E-01  0.92357233591E-02  0.43659222724E-02  0.10205835071E+01  0.10203164393E+01 0.  0.
     999903    2    3    3    0    0 -0.52832171101E-01 -0.11650102715E+00 -0.47072996699E-02  0.12853968286E+00  0.11686050215E-01 0.  0.
         14    1    1    2    0    0 -0.20992828927E-01 -0.92357233591E-02 -0.43659222724E-02  0.23346492876E-01  0.00000000000E+00 0.  1.
     999901    1    3    3    0    0  0.73825000028E-01  0.12573675050E+00  0.90732219423E-02  0.89204382427E+00  0.88000000000E+00 0.  1.
        -11    1    4    4    0    0 -0.14495695615E-01 -0.21243167399E-01  0.44379385983E-03  0.25726551003E-01  0.51100000000E-03 0. -1.
         11    1    4    4    0    0 -0.38336475486E-01 -0.95257859746E-01 -0.51510935297E-02  0.10281313185E+00  0.51100000000E-03 0.  1.
</event>
<event>
 8    1  0.1129676E+005  0.1043930E+01  0.7957747E-01            NaN
         13   -1    0    0    0    0  0.00000000000E+00  0.00000000000E+00  0.74505805969E-08  0.10566000000E+00  0.10566000000E+00 0.  1.
     999900   -1    0    0    0    0 -0.00000000000E+00 -0.00000000000E+00 -0.74505805969E-08  0.93827000000E+00  0.93827000000E+00 0. -1.
     999902    2    1    2    0    0  0.10644256166E-01  0.44766504157E-02  0.22590804888E-01  0.10185590510E+01  0.10182430237E+01 0.  0.
     999903    2    3    3    0    0 -0.41157559457E-01 -0.99386972765E-01  0.69931741391E-01  0.12967646898E+00  0.18810186024E-01 0.  0.
         14    1    1    2    0    0 -0.10644256166E-01 -0.44766504157E-02 -0.22590804888E-01  0.25370949012E-01  0.00000000000E+00 0.  1.
     999901    1    3    3    0    0  0.51801815623E-01  0.10386362318E+00 -0.47340936503E-01  0.88888258200E+00  0.88000000000E+00 0. -1.
        -11    1    4    4    0    0 -0.84618059170E-02 -0.43146105135E-01  0.24605872436E-01  0.50387484826E-01  0.51100000000E-03 0.  1.
         11    1    4    4    0    0 -0.32695753540E-01 -0.56240867630E-01  0.45325868955E-01  0.79288984158E-01  0.51100000000E-03 0. -1.
</event>
<event>
 8    1  0.1129676E+005  0.1043930E+01  0.7957747E-01            NaN
         13   -1    0    0    0    0  0.00000000000E+00  0.00000000000E+00  0.74505805969E-08  0.10566000000E+00  0.10566000000E+00 0.  1.
     999900   -1    0    0    0    0 -0.00000000000E+00 -0.00000000000E+00 -0.74505805969E-08  0.93827000000E+00  0.93827000000E+00 0.  1.
     999902    2    1    2    0    0 -0.73466940402E-02  0.21165670348E-01  0.81046502265E-02  0.10201047011E+01  0.10198264344E+01 0.  0.
     999903    2    3    3    0    0 -0.10099492929E+00 -0.47416014406E-01  0.64973976552E-01  0.13066242652E+00  0.20069825883E-01 0.  0.
         14    1    1    2    0    0  0.73466940402E-02 -0.21165670348E-01 -0.81046502265E-02  0.23825298947E-01  0.00000000000E+00 0. -1.
     999901    1    3    3    0    0  0.93648235249E-01  0.68581684754E-01 -0.56869326325E-01  0.88944227453E+00  0.88000000000E+00 0.  1.
        -11    1    4    4    0    0 -0.69850264216E-01 -0.24394972669E-01  0.35943177242E-01  0.82257809439E-01  0.51100000000E-03 0. -1.
         11    1    4    4    0    0 -0.31144665074E-01 -0.23021041737E-01  0.29030799310E-01  0.48404617081E-01  0.51100000000E-03 0.  1.
</event>
<event>
 8    1  0.1129676E+005  0.1043930E+01  0.7957747E-01            NaN
         13   -1    0    0    0    0  0.00000000000E+00  0.00000000000E+00  0.74505805969E-08  0.10566000000E+00  0.10566000000E+00 0.  1.
     999900   -1    0    0    0    0 -0.00000000000E+00 -0.00000000000E+00 -0.74505805969E-08  0.93827000000E+00  0.93827000000E+00 0.  1.
     999902    2    1    2    0    0  0.99924845297E-02 -0.65478756904E-02 -0.20854433656E-01  0.10198960277E+01  0.10196128066E+01 0.  0.
     999903    2    3    3    0    0  0.78091376156E-01 -0.10376756499E+00 -0.95865333855E-02  0.13185543591E+00  0.20687768916E-01 0.  0.
         14    1    1    2    0    0 -0.99924845297E-02  0.65478756904E-02  0.20854433656E-01  0.24033972336E-01  0.00000000000E+00 0.  1.
     999901    1    3    3    0    0 -0.68098891626E-01  0.97219689299E-01 -0.11267900271E-01  0.88804059175E+00  0.88000000000E+00 0. -1.
        -11    1    4    4    0    0  0.50118067499E-01 -0.81628737342E-01 -0.55217030966E-02  0.95946973772E-01  0.51100000000E-03 0.  1.
         11    1    4    4    0    0  0.27973308656E-01 -0.22138827648E-01 -0.40648302889E-02  0.35908462137E-01  0.51100000000E-03 0. -1.
</event>
<event>
 8    1  0.1129676E+005  0.1043930E+01  0.7957747E-01            NaN
         13   -1    0    0    0    0  0.00000000000E+00  0.00000000000E+00  0.74505805969E-08  0.10566000000E+00  0.10566000000E+00 0. -1.
     999900   -1    0    0    0    0 -0.00000000000E+00 -0.00000000000E+00 -0.74505805969E-08  0.93827000000E+00  0.93827000000E+00 0. -1.
     999902    2    1    2    0    0 -0.22064593425E-01 -0.77522887963E-02 -0.32207417650E-02  0.10203224283E+01  0.10200492832E+01 0.  0.
     999903    2    3    3    0    0 -0.39813100555E-01 -0.24805921691E-01 -0.12182208158E+00  0.13202511674E+00  0.19738165151E-01 0.  0.
         14    1    1    2    0    0  0.22064593425E-01  0.77522887963E-02  0.32207417650E-02  0.23607571712E-01  0.00000000000E+00 0.  1.
     999901    1    3    3    0    0  0.17748507129E-01  0.17053632895E-01  0.11860133981E+00  0.88829731155E+00  0.88000000000E+00 0.  1.
        -11    1    4    4    0    0 -0.90073110164E-02 -0.37343758495E-02 -0.93420592330E-02  0.13513415795E-01  0.51100000000E-03 0.  1.
         11    1    4    4    0    0 -0.30805789539E-01 -0.21071545842E-01 -0.11248002234E+00  0.11851170094E+00  0.51100000000E-03 0. -1.
</event>
<event>
 8    1  0.1129676E+005  0.1043930E+01  0.7957747E-01            NaN
         13   -1    0    0    0    0  0.00000000000E+00  0.00000000000E+00  0.74505805969E-08  0.10566000000E+00  0.10566000000E+00 0. -1.
     999900   -1    0    0    0    0 -0.00000000000E+00 -0.00000000000E+00 -0.74505805969E-08  0.93827000000E+00  0.93827000000E+00 0.  1.
     999902    2    1    2    0    0  0.21813950881E-01  0.37498140235E-02  0.89418958151E-02  0.10200581115E+01  0.10197787426E+01 0.  0.
     999903    2    3    3    0    0  0.69390498689E-01  0.70577006481E-01 -0.83671508489E-01  0.13140371065E+00  0.21676224007E-01 0.  0.
         14    1    1    2    0    0 -0.21813950881E-01 -0.37498140235E-02 -0.89418958151E-02  0.23871888468E-01  0.00000000000E+00 0.  1.
     999901    1    3    3    0    0 -0.47576547808E-01 -0.66827192457E-01  0.92613404304E-01  0.88865440088E+00  0.88000000000E+00 0. -1.
        -11    1    4    4    0    0  0.38247678046E-01  0.42229840845E-01 -0.61391731992E-01  0.83758284436E-01  0.51100000000E-03 0.  1.
         11    1    4    4    0    0  0.31142820643E-01  0.28347165636E-01 -0.22279776497E-01  0.47645426212E-01  0.51100000000E-03 0. -1.
</event>
<event>
 8    1  0.1129676E+005  0.1043930E+01  0.7957747E-01            NaN
         13   -1    0    0    0    0  0.00000000000E+00  0.00000000000E+00  0.74505805969E-08  0.10566000000E+00  0.10566000000E+00 0.  1.
     999900   -1    0    0    0    0 -0.00000000000E+00 -0.00000000000E+00 -0.74505805969E-08  0.93827000000E+00  0.93827000000E+00 0. -1.
     999902    2    1    2    0    0 -0.11085552950E-01 -0.18855442675E-01  0.90657493883E-02  0.10202529011E+01  0.10199781258E+01 0.  0.
     999903    2    3    3    0    0  0.40530874717E-01  0.11633603378E+00 -0.25027157021E-01  0.12778255579E+00  0.22917207799E-01 0.  0.
         14    1    1    2    0    0  0.11085552950E-01  0.18855442675E-01 -0.90657493883E-02  0.23677098949E-01  0.00000000000E+00 0. -1.
     999901    1    3    3    0    0 -0.51616427667E-01 -0.13519147646E+00  0.34092906410E-01  0.89247034527E+00  0.88000000000E+00 0.  1.
        -11    1    4    4    0    0  0.36047597383E-01  0.71123880517E-01 -0.18755526697E-01  0.81914995938E-01  0.51100000000E-03 0. -1.
         11    1    4    4    0    0  0.44832773340E-02  0.45212153264E-01 -0.62716303241E-02  0.45867559847E-01  0.51100000000E-03 0.  1.
</event>
<event>
 8    1  0.1129676E+005  0.1043930E+01  0.7957747E-01            NaN
         13   -1    0    0    0    0  0.00000000000E+00  0.00000000000E+00  0.74505805969E-08  0.10566000000E+00  0.10566000000E+00 0.  1.
     999900   -1    0    0    0    0 -0.00000000000E+00 -0.00000000000E+00 -0.74505805969E-08  0.93827000000E+00  0.93827000000E+00 0.  1.
     999902    2    1    2    0    0 -0.65839599838E-02 -0.21392324467E-01 -0.75696885021E-02  0.10203020450E+01  0.10200284225E+01 0.  0.
     999903    2    3    3    0    0 -0.18684419867E-02 -0.12578172173E+00  0.38852646414E-01  0.13290449282E+00  0.18153332521E-01 0.  0.
         14    1    1    2    0    0  0.65839599838E-02  0.21392324467E-01  0.75696885021E-02  0.23627955036E-01  0.00000000000E+00 0. -1.
     999901    1    3    3    0    0 -0.47155179970E-02  0.10438939726E+00 -0.46422334916E-01  0.88739755214E+00  0.88000000000E+00 0.  1.
        -11    1    4    4    0    0  0.40549337046E-02 -0.40451299978E-01  0.20018029985E-01  0.45318128853E-01  0.51100000000E-03 0. -1.
         11    1    4    4    0    0 -0.59233756913E-02 -0.85330421753E-01  0.18834616428E-01  0.87586363967E-01  0.51100000000E-03 0.  1.
</event>
<event>
 8    1  0.1129676E+005  0.1043930E+01  0.7957747E-01            NaN
         13   -1    0    0    0    0  0.00000000000E+00  0.00000000000E+00  0.74505805969E-08  0.10566000000E+00  0.10566000000E+00 0. -1.
     999900   -1    0    0    0    0 -0.00000000000E+00 -0.00000000000E+00 -0.74505805969E-08  0.93827000000E+00  0.93827000000E+00 0. -1.
     999902    2    1    2    0    0  0.15393312668E-01 -0.47317613305E-02  0.16758584282E-01  0.10206879307E+01  0.10204232739E+01 0.  0.
     999903    2    3    3    0    0 -0.77061006096E-01  0.97151115126E-01 -0.26762397094E-01  0.12893572438E+00  0.23053357533E-01 0.  0.
         14    1    1    2    0    0 -0.15393312668E-01  0.47317613305E-02 -0.16758584282E-01  0.23242069342E-01  0.00000000000E+00 0.  1.
     999901    1    3    3    0    0  0.92454318764E-01 -0.10188287646E+00  0.43520981375E-01  0.89175220627E+00  0.88000000000E+00 0. -1.
        -11    1    4    4    0    0 -0.42996984886E-01  0.67185338778E-01 -0.24752483833E-01  0.83519800244E-01  0.51100000000E-03 0. -1.
         11    1    4    4    0    0 -0.34064021211E-01  0.29965776349E-01 -0.20099132607E-02  0.45415924140E-01  0.51100000000E-03 0.  1.
</event>
<event>
 8    1  0.1257852E+005  0.1043930E+01  0.7957747E-01            NaN
         13   -1    0    0    0    0  0.00000000000E+00  0.00000000000E+00  0.74505805969E-08  0.10566000000E+00  0.10566000000E+00 0.  1.
     999900   -1    0    0    0    0 -0.00000000000E+00 -0.00000000000E+00 -0.74505805969E-08  0.93827000000E+00  0.93827000000E+00 0. -1.
     999902    2    1    2    0    0 -0.75691260493E-02  0.17715559577E-01 -0.16094959245E-01  0.10188266051E+01  0.10185172904E+01 0.  0.
     999903    2    3    3    0    0  0.88612771288E-02 -0.42802551411E-01  0.11690363098E+00  0.12662650152E+00  0.21382967771E-01 0.  0.
         14    1    1    2    0    0  0.75691260493E-02 -0.17715559577E-01  0.16094959245E-01  0.25103394857E-01  0.00000000000E+00 0. -1.
     999901    1    3    3    0    0 -0.16430403178E-01  0.60518110988E-01 -0.13299859022E+00  0.89220010362E+00  0.88000000000E+00 0. -1.
        -11    1    4    4    0    0  0.55800770787E-02 -0.59422976386E-02  0.45231469350E-01  0.45962975339E-01  0.51100000000E-03 0.  1.
         11    1    4    4    0    0  0.32812000501E-02 -0.36860253772E-01  0.71672161630E-01  0.80663526179E-01  0.51100000000E-03 0. -1.
</event>
<event>
 8    1  0.1129676E+005  0.1043930E+01  0.7957747E-01            NaN
         13   -1    0    0    0    0  0.00000000000E+00  0.00000000000E+00  0.74505805969E-08  0.10566000000E+00  0.10566000000E+00 0. -1.
     999900   -1    0    0    0    0 -0.00000000000E+00 -0.00000000000E+00 -0.74505805969E-08  0.93827000000E+00  0.93827000000E+00 0.  1.
     999902    2    1    2    0    0 -0.23606494248E-01 -0.95554756904E-04  0.26224644171E-02  0.10201780944E+01  0.10199015596E+01 0.  0.
     999903    2    3    3    0    0 -0.27358852690E-01 -0.10801523284E+00 -0.66440988395E-01  0.13089158395E+00  0.17389780437E-01 0.  0.
         14    1    1    2    0    0  0.23606494248E-01  0.95554756904E-04 -0.26224644171E-02  0.23751905629E-01  0.00000000000E+00 0.  1.
     999901    1    3    3    0    0  0.37523584417E-02  0.10791967808E+00  0.69063452813E-01  0.88928651043E+00  0.88000000000E+00 0. -1.
        -11    1    4    4    0    0 -0.19622464223E-01 -0.50870523539E-01 -0.25670639536E-01  0.60266857579E-01  0.51100000000E-03 0. -1.
         11    1    4    4    0    0 -0.77363884670E-02 -0.57144709297E-01 -0.40770348860E-01  0.70624726367E-01  0.51100000000E-03 0.  1.
</event>
<event>
 8    1  0.1129676E+005  0.1043930E+01  0.7957747E-01            NaN
         13   -1    0    0    0    0  0.00000000000E+00  0.00000000000E+00  0.74505805969E-08  0.10566000000E+00  0.10566000000E+00 0.  1.
     999900   -1    0    0    0    0 -0.00000000000E+00 -0.00000000000E+00 -0.74505805969E-08  0.93827000000E+00  0.93827000000E+00 0. -1.
     999902    2    1    2    0    0  0.31219993369E-02 -0.23489745596E-01 -0.91756040751E-03  0.10202159336E+01  0.10199402895E+01 0.  0.
     999903    2    3    3    0    0 -0.37156167282E-01  0.11722821174E+00 -0.27532936298E-01  0.12772937770E+00  0.20825392021E-01 0.  0.
         14    1    1    2    0    0 -0.31219993369E-02  0.23489745596E-01  0.91756040751E-03  0.23714066398E-01  0.00000000000E+00 0.  1.
     999901    1    3    3    0    0  0.40278166619E-01 -0.14071795734E+00  0.26615375890E-01  0.89248655590E+00  0.88000000000E+00 0.  1.
        -11    1    4    4    0    0 -0.32006783036E-01  0.67329314624E-01 -0.15722545857E-01  0.76191405928E-01  0.51100000000E-03 0. -1.
         11    1    4    4    0    0 -0.51493842460E-02  0.49898897116E-01 -0.11810390440E-01  0.51537971777E-01  0.51100000000E-03 0.  1.
</event>
<event>
 8    1  0.1129676E+005  0.1043930E+01  0.7957747E-01            NaN
         13   -1    0    0    0    0  0.00000000000E+00  0.00000000000E+00  0.74505805969E-08  0.10566000000E+00  0.10566000000E+00 0. -1.
     999900   -1    0    0    0    0 -0.00000000000E+00 -0.00000000000E+00 -0.74505805969E-08  0.93827000000E+00  0.93827000000E+00 0. -1.
     999902    2    1    2    0    0  0.12026583447E-01 -0.28271825610E-02 -0.20750916971E-01  0.10197797986E+01  0.10194937987E+01 0.  0.
     999903    2    3    3    0    0 -0.85034280552E-01 -0.95255759020E-01 -0.88673227721E-02  0.12955225869E+00  0.20016738590E-01 0.  0.
         14    1    1    2    0    0 -0.12026583447E-01  0.28271825610E-02  0.20750916971E-01  0.24150201361E-01  0.00000000000E+00 0. -1.
     999901    1    3    3    0    0  0.97060863999E-01  0.92428576459E-01 -0.11883594199E-01  0.89022753995E+00  0.88000000000E+00 0.  1.
        -11    1    4    4    0    0 -0.40534723237E-01 -0.56874544656E-01 -0.11217458562E-01  0.70738038674E-01  0.51100000000E-03 0.  1.
         11    1    4    4    0    0 -0.44499557315E-01 -0.38381214364E-01  0.23501357901E-02  0.58814220020E-01  0.51100000000E-03 0. -1.
</event>
<event>
 8    1  0.1129676E+005  0.1043930E+01  0.7957747E-01            NaN
         13   -1    0    0    0    0  0.00000000000E+00  0.00000000000E+00  0.74505805969E-08  0.10566000000E+00  0.10566000000E+00 0. -1.
     999900   -1    0    0    0    0 -0.00000000000E+00 -0.00000000000E+00 -0.74505805969E-08  0.93827000000E+00  0.93827000000E+00 0. -1.
     999902    2    1    2    0    0 -0.23111918423E-01  0.52464168303E-02 -0.10619776882E-02  0.10202063102E+01  0.10199304397E+01 0.  0.
     999903    2    3    3    0    0  0.10063595544E+00  0.75575297640E-01 -0.17930828203E-01  0.12860985107E+00  0.19487381844E-01 0.  0.
         14    1    1    2    0    0  0.23111918423E-01 -0.52464168303E-02  0.10619776882E-02  0.23723689835E-01  0.00000000000E+00 0. -1.
     999901    1    3    3    0    0 -0.12374787386E+00 -0.70328880810E-01  0.16868850515E-01  0.89159645910E+00  0.88000000000E+00 0.  1.
        -11    1    4    4    0    0  0.37661654036E-01  0.35536228534E-01 -0.15057340229E-01  0.53927806732E-01  0.51100000000E-03 0.  1.
         11    1    4    4    0    0  0.62974301401E-01  0.40039069107E-01 -0.28734879741E-02  0.74682044334E-01  0.51100000000E-03 0. -1.
</event>
<event>
 8    1  0.1129676E+005  0.1043930E+01  0.7957747E-01            NaN
         13   -1    0    0    0    0  0.00000000000E+00  0.00000000000E+00  0.74505805969E-08  0.10566000000E+00  0.10566000000E+00 0. -1.
     999900   -1    0    0    0    0 -0.00000000000E+00 -0.00000000000E+00 -0.74505805969E-08  0.93827000000E+00  0.93827000000E+00 0.  1.
     999902    2    1    2    0    0  0.20923893447E-01  0.10541658980E-01  0.23368913102E-02  0.10203843645E+01  0.10201126675E+01 0.  0.
     999903    2    3    3    0    0 -0.10415570057E+00  0.63297371571E-01  0.37333397188E-01  0.12928794687E+00  0.21601468766E-01 0.  0.
         14    1    1    2    0    0 -0.20923893447E-01 -0.10541658980E-01 -0.23368913102E-02  0.23545635520E-01  0.00000000000E+00 0.  1.
     999901    1    3    3    0    0  0.12507959401E+00 -0.52755712591E-01 -0.34996505878E-01  0.89109641761E+00  0.88000000000E+00 0.  1.
        -11    1    4    4    0    0 -0.38581641005E-01  0.12588350478E-01  0.80847250342E-02  0.41383976250E-01  0.51100000000E-03 0. -1.
         11    1    4    4    0    0 -0.65574059561E-01  0.50709021093E-01  0.29248672154E-01  0.87903970623E-01  0.51100000000E-03 0.  1.
</event>
<event>
 8    1  0.1129676E+005  0.1043930E+01  0.7957747E-01            NaN
         13   -1    0    0    0    0  0.00000000000E+00  0.00000000000E+00  0.74505805969E-08  0.10566000000E+00  0.10566000000E+00 0. -1.
     999900   -1    0    0    0    0 -0.00000000000E+00 -0.00000000000E+00 -0.74505805969E-08  0.93827000000E+00  0.93827000000E+00 0.  1.
     999902    2    1    2    0    0  0.24273943664E-01 -0.17365176104E-02  0.70182929412E-02  0.10186022233E+01  0.10182872842E+01 0.  0.
     999903    2    3    3    0    0  0.96058064218E-01 -0.46811560187E-01 -0.71961416913E-01  0.13100855843E+00  0.23797541682E-01 0.  0.
         14    1    1    2    0    0 -0.24273943664E-01  0.17365176104E-02 -0.70182929412E-02  0.25327776653E-01  0.00000000000E+00 0.  1.
     999901    1    3    3    0    0 -0.71784120554E-01  0.45075042577E-01  0.78979709854E-01  0.88759366491E+00  0.88000000000E+00 0. -1.
        -11    1    4    4    0    0  0.51026888171E-01 -0.34953945230E-01 -0.49931206003E-01  0.79491559662E-01  0.51100000000E-03 0. -1.
         11    1    4    4    0    0  0.45031176046E-01 -0.11857614957E-01 -0.22030210910E-01  0.51516998771E-01  0.51100000000E-03 0.  1.
</event>
<event>
 8    1  0.1129676E+005  0.1043930E+01  0.7957747E-01            NaN
         13   -1    0    0    0    0  0.00000000000E+00  0.00000000000E+00  0.74505805969E-08  0.10566000000E+00  0.10566000000E+00 0. -1.
     999900   -1    0    0    0    0 -0.00000000000E+00 -0.00000000000E+00 -0.74505805969E-08  0.93827000000E+00  0.93827000000E+00 0.  1.
     999902    2    1    2    0    0  0.17627292902E-01 -0.24019060176E-03  0.16637675763E-01  0.10196897153E+01  0.10194015520E+01 0.  0.
     999903    2    3    3    0    0 -0.70724950518E-01 -0.10444405484E+00 -0.17087652274E-01  0.12850962017E+00  0.17667920067E-01 0.  0.
         14    1    1    2    0    0 -0.17627292902E-01  0.24019060176E-03 -0.16637675763E-01  0.24240284680E-01  0.00000000000E+00 0.  1.
     999901    1    3    3    0    0  0.88352243420E-01  0.10420386424E+00  0.33725328036E-01  0.89118009515E+00  0.88000000000E+00 0. -1.
        -11    1    4    4    0    0 -0.39775877135E-01 -0.73517625310E-01 -0.12383116125E-01  0.84501859855E-01  0.51100000000E-03 0. -1.
         11    1    4    4    0    0 -0.30949073383E-01 -0.30926429529E-01 -0.47045361488E-02  0.44007760316E-01  0.51100000000E-03 0.  1.
</event>
<event>
 7    1  0.1129676E+005  0.1043930E+01  0.7957747E-01            NaN
         13   -1    0    0    0    0  0.00000000000E+00  0.00000000000E+00  0.74505805969E-08  0.10566000000E+00  0.10566000000E+00 0.  1.
     999900   -1    0    0    0    0 -0.00000000000E+00 -0.00000000000E+00 -0.74505805969E-08  0.93827000000E+00  0.93827000000E+00 0. -1.
     999902    2    1    2    0    0 -0.13333226492E-01  0.79312290501E-02 -0.17452039933E-01  0.10205793465E+01  0.10203121823E+01 0.  0.
         14    1    1    2    0    0  0.13333226492E-01 -0.79312290501E-02  0.17452039933E-01  0.23350653540E-01  0.00000000000E+00 0.  1.
     999901    1    3    3    0    0  0.10416670293E+00  0.14323895566E-01  0.32659527440E-01  0.88686104927E+00  0.88000000000E+00 0. -1.
        -11    1    3    3    0    0 -0.55636357907E-01  0.13473752378E-01 -0.34685783874E-01  0.66935125668E-01  0.51100000000E-03 0. -1.
         11    1    3    3    0    0 -0.61863571517E-01 -0.19866418894E-01 -0.15425783499E-01  0.66783171519E-01  0.51100000000E-03 0.  1.
</event>
<event>
 8    1  0.1129676E+005  0.1043930E+01  0.7957747E-01            NaN
         13   -1    0    0    0    0  0.00000000000E+00  0.00000000000E+00  0.74505805969E-08  0.10566000000E+00  0.10566000000E+00 0.  1.
     999900   -1    0    0    0    0 -0.00000000000E+00 -0.00000000000E+00 -0.74505805969E-08  0.93827000000E+00  0.93827000000E+00 0. -1.
     999902    2    1    2    0    0  0.20434969054E-01  0.10829103950E-01 -0.28569610117E-02  0.10206272174E+01  0.10203611601E+01 0.  0.
     999903    2    3    3    0    0 -0.22210183970E-01 -0.12384771835E+00 -0.21304643821E-01  0.12916955008E+00  0.19983373281E-01 0.  0.
         14    1    1    2    0    0 -0.20434969054E-01 -0.10829103950E-01  0.28569610117E-02  0.23302782641E-01  0.00000000000E+00 0.  1.
     999901    1    3    3    0    0  0.42645153024E-01  0.13467682230E+00  0.18447682810E-01  0.89145766727E+00  0.88000000000E+00 0.  1.
        -11    1    4    4    0    0 -0.25742388021E-01 -0.11100846837E+00 -0.20770787564E-01  0.11583279901E+00  0.51100000000E-03 0.  1.
         11    1    4    4    0    0  0.35322040508E-02 -0.12839249987E-01 -0.53385625739E-03  0.13336751073E-01  0.51100000000E-03 0. -1.
</event>
<event>
 8    1  0.1129676E+005  0.1043930E+01  0.7957747E-01            NaN
         13   -1    0    0    0    0  0.00000000000E+00  0.00000000000E+00  0.74505805969E-08  0.10566000000E+00  0.10566000000E+00 0. -1.
     999900   -1    0    0    0    0 -0.00000000000E+00 -0.00000000000E+00 -0.74505805969E-08  0.93827000000E+00  0.93827000000E+00 0. -1.
     999902    2    1    2    0    0 -0.16087070120E-01  0.78718831636E-02  0.94942085423E-02  0.10236593225E+01  0.10234586011E+01 0.  0.
     999903    2    3    3    0    0 -0.51141989133E-02 -0.95532035303E-01 -0.88972840429E-01  0.13208289058E+00  0.19421607837E-01 0.  0.
         14    1    1    2    0    0  0.16087070120E-01 -0.78718831636E-02 -0.94942085423E-02  0.20270677479E-01  0.00000000000E+00 0.  1.
     999901    1    3    3    0    0 -0.10972871207E-01  0.10340391847E+00  0.98467048971E-01  0.89157643194E+00  0.88000000000E+00 0.  1.
        -11    1    4    4    0    0  0.57861808331E-02 -0.60977309804E-01 -0.52576702484E-01  0.80723496980E-01  0.51100000000E-03 0. -1.
         11    1    4    4    0    0 -0.10900379746E-01 -0.34554725499E-01 -0.36396137944E-01  0.51359393602E-01  0.51100000000E-03 0.  1.
</event>
<event>
 8    1  0.1129676E+005  0.1043930E+01  0.7957747E-01            NaN
         13   -1    0    0    0    0  0.00000000000E+00  0.00000000000E+00  0.74505805969E-08  0.10566000000E+00  0.10566000000E+00 0. -1.
     999900   -1    0    0    0    0 -0.00000000000E+00 -0.00000000000E+00 -0.74505805969E-08  0.93827000000E+00  0.93827000000E+00 0. -1.
     999902    2    1    2    0    0  0.60980519968E-02  0.93513591755E-02  0.20090047449E-01  0.10209464371E+01  0.10206877012E+01 0.  0.
     999903    2    3    3    0    0 -0.69187366885E-02  0.11179405940E+00  0.69781815857E-01  0.13351575505E+00  0.20277435414E-01 0.  0.
         14    1    1    2    0    0 -0.60980519968E-02 -0.93513591755E-02 -0.20090047449E-01  0.22983562889E-01  0.00000000000E+00 0.  1.
     999901    1    3    3    0    0  0.13016788685E-01 -0.10244270023E+00 -0.49691768408E-01  0.88743068206E+00  0.88000000000E+00 0. -1.
        -11    1    4    4    0    0 -0.13843245901E-01  0.74447156797E-01  0.49298628109E-01  0.90358344754E-01  0.51100000000E-03 0.  1.
         11    1    4    4    0    0  0.69245092128E-02  0.37346902606E-01  0.20483187748E-01  0.43157410295E-01  0.51100000000E-03 0. -1.
</event>
<event>
 8    1  0.1129676E+005  0.1043930E+01  0.7957747E-01            NaN
         13   -1    0    0    0    0  0.00000000000E+00  0.00000000000E+00  0.74505805969E-08  0.10566000000E+00  0.10566000000E+00 0.  1.
     999900   -1    0    0    0    0 -0.00000000000E+00 -0.00000000000E+00 -0.74505805969E-08  0.93827000000E+00  0.93827000000E+00 0. -1.
     999902    2    1    2    0    0 -0.21542270181E-01  0.55738062447E-02  0.19836169845E-01  0.10141204318E+01  0.10136822184E+01 0.  0.
     999903    2    3    3    0    0 -0.10152816501E+00 -0.70807599260E-01 -0.16673169578E-01  0.12644662105E+00  0.19724831761E-01 0.  0.
         14    1    1    2    0    0  0.21542270181E-01 -0.55738062447E-02 -0.19836169845E-01  0.29809568174E-01  0.00000000000E+00 0. -1.
     999901    1    3    3    0    0  0.79985894824E-01  0.76381405504E-01  0.36509339423E-01  0.88767381078E+00  0.88000000000E+00 0.  1.
        -11    1    4    4    0    0 -0.75040637167E-01 -0.41548763038E-01 -0.13702649541E-01  0.86864380858E-01  0.51100000000E-03 0. -1.
         11    1    4    4    0    0 -0.26487527839E-01 -0.29258836222E-01 -0.29705200369E-02  0.39582240189E-01  0.51100000000E-03 0.  1.
</event>
<event>
 8    1  0.1129676E+005  0.1043930E+01  0.7957747E-01            NaN
         13   -1    0    0    0    0  0.00000000000E+00  0.00000000000E+00  0.74505805969E-08  0.10566000000E+00  0.10566000000E+00 0.  1.
     999900   -1    0    0    0    0 -0.00000000000E+00 -0.00000000000E+00 -0.74505805969E-08  0.93827000000E+00  0.93827000000E+00 0. -1.
     999902    2    1    2    0    0 -0.45492890978E-02 -0.23115961861E-01  0.14881502288E-02  0.10203236806E+01  0.10200505649E+01 0.  0.
     999903    2    3    3    0    0  0.98851345384E-01  0.38369435273E-01  0.71173593808E-01  0.12940942754E+00  0.20912136038E-01 0.  0.
         14    1    1    2    0    0  0.45492890978E-02  0.23115961861E-01 -0.14881502288E-02  0.23606319391E-01  0.00000000000E+00 0. -1.
     999901    1    3    3    0    0 -0.10340063448E+00 -0.61485397134E-01 -0.69685443579E-01  0.89091425307E+00  0.88000000000E+00 0. -1.
        -11    1    4    4    0    0  0.61726570052E-01  0.20091441323E-01  0.54620796164E-01  0.84838245853E-01  0.51100000000E-03 0. -1.
         11    1    4    4    0    0  0.37124775332E-01  0.18277993950E-01  0.16552797645E-01  0.44571181689E-01  0.51100000000E-03 0.  1.
</event>
<event>
 8    1  0.1129676E+005  0.1043930E+01  0.7957747E-01            NaN
         13   -1    0    0    0    0  0.00000000000E+00  0.00000000000E+00  0.74505805969E-08  0.10566000000E+00  0.10566000000E+00 0. -1.
     999900   -1    0    0    0    0 -0.00000000000E+00 -0.00000000000E+00 -0.74505805969E-08  0.93827000000E+00  0.93827000000E+00 0. -1.
     999902    2    1    2    0    0 -0.27713166949E-02 -0.87928718080E-02 -0.74079647013E-02  0.10321032197E+01  0.10320354565E+01 0.  0.
     999903    2    3    3    0    0  0.21588387519E-01 -0.13860190178E+00  0.12764375469E-01  0.14201855927E+00  0.18160293041E-01 0.  0.
         14    1    1    2    0    0  0.27713166949E-02  0.87928718080E-02  0.74079647013E-02  0.11826780283E-01  0.00000000000E+00 0.  1.
     999901    1    3    3    0    0 -0.24359704214E-01  0.12980902997E+00 -0.20172340170E-01  0.89008466045E+00  0.88000000000E+00 0. -1.
        -11    1    4    4    0    0  0.18331257916E-01 -0.11562936211E+00  0.37898940311E-02  0.11713585624E+00  0.51100000000E-03 0.  1.
         11    1    4    4    0    0  0.32571296034E-02 -0.22972539674E-01  0.89744814377E-02  0.24882703036E-01  0.51100000000E-03 0. -1.
</event>
<event>
 8    1  0.1129676E+005  0.1043930E+01  0.7957747E-01            NaN
         13   -1    0    0    0    0  0.00000000000E+00  0.00000000000E+00  0.74505805969E-08  0.10566000000E+00  0.10566000000E+00 0. -1.
     999900   -1    0    0    0    0 -0.00000000000E+00 -0.00000000000E+00 -0.74505805969E-08  0.93827000000E+00  0.93827000000E+00 0. -1.
     999902    2    1    2    0    0  0.24321896998E-02 -0.74649664863E-02  0.22361475518E-01  0.10202302772E+01  0.10199549705E+01 0.  0.
     999903    2    3    3    0    0  0.12424734044E+00 -0.15993316698E-01 -0.30023939380E-01  0.13025505545E+00  0.19280942694E-01 0.  0.
         14    1    1    2    0    0 -0.24321896998E-02  0.74649664863E-02 -0.22361475518E-01  0.23699722756E-01  0.00000000000E+00 0.  1.
     999901    1    3    3    0    0 -0.12181515074E+00  0.85283502118E-02  0.52385414897E-01  0.88997522179E+00  0.88000000000E+00 0. -1.
        -11    1    4    4    0    0  0.83312108536E-01 -0.26338444851E-02 -0.15324436218E-01  0.84752250896E-01  0.51100000000E-03 0. -1.
         11    1    4    4    0    0  0.40935231899E-01 -0.13359472213E-01 -0.14699503162E-01  0.45502804558E-01  0.51100000000E-03 0.  1.
</event>
<event>
 8    1  0.1129676E+005  0.1043930E+01  0.7957747E-01            NaN
         13   -1    0    0    0    0  0.00000000000E+00  0.00000000000E+00  0.74505805969E-08  0.10566000000E+00  0.10566000000E+00 0. -1.
     999900   -1    0    0    0    0 -0.00000000000E+00 -0.00000000000E+00 -0.74505805969E-08  0.93827000000E+00  0.93827000000E+00 0. -1.
     999902    2    1    2    0    0  0.11877082775E-02  0.23036683892E-01  0.76401986124E-02  0.10196303685E+01  0.10193407754E+01 0.  0.
     999903    2    3    3    0    0  0.11590793603E+00 -0.42460375604E-01 -0.31224561390E-01  0.12892218677E+00  0.20209499645E-01 0.  0.
         14    1    1    2    0    0 -0.11877082775E-02 -0.23036683892E-01 -0.76401986124E-02  0.24299631490E-01  0.00000000000E+00 0. -1.
     999901    1    3    3    0    0 -0.11472022775E+00  0.65497059496E-01  0.38864760003E-01  0.89070818175E+00  0.88000000000E+00 0. -1.
        -11    1    4    4    0    0  0.89251453399E-01 -0.23982989650E-01 -0.26488014175E-01  0.96139907127E-01  0.51100000000E-03 0.  1.
         11    1    4    4    0    0  0.26656482628E-01 -0.18477385954E-01 -0.47365472153E-02  0.32782279638E-01  0.51100000000E-03 0. -1.
</event>
<event>
 8    1  0.1129676E+005  0.1043930E+01  0.7957747E-01            NaN
         13   -1    0    0    0    0  0.00000000000E+00  0.00000000000E+00  0.74505805969E-08  0.10566000000E+00  0.10566000000E+00 0.  1.
     999900   -1    0    0    0    0 -0.00000000000E+00 -0.00000000000E+00 -0.74505805969E-08  0.93827000000E+00  0.93827000000E+00 0.  1.
     999902    2    1    2    0    0  0.14972581482E-01 -0.11227616358E-01  0.16951691942E-01  0.10186793084E+01  0.10183663074E+01 0.  0.
     999903    2    3    3    0    0 -0.73301333195E-01  0.39310123773E-02 -0.10083833202E+00  0.12632480612E+00  0.20026211072E-01 0.  0.
         14    1    1    2    0    0 -0.14972581482E-01  0.11227616358E-01 -0.16951691942E-01  0.25250691575E-01  0.00000000000E+00 0. -1.
     999901    1    3    3    0    0  0.88273914677E-01 -0.15158628736E-01  0.11779002396E+00  0.89235450230E+00  0.88000000000E+00 0. -1.
        -11    1    4    4    0    0 -0.15730464117E-01 -0.10435076409E-02 -0.36966594345E-01  0.40191126235E-01  0.51100000000E-03 0. -1.
         11    1    4    4    0    0 -0.57570869077E-01  0.49745200182E-02 -0.63871737677E-01  0.86133679886E-01  0.51100000000E-03 0.  1.
</event>
<event>
 8    1  0.1129676E+005  0.1043930E+01  0.7957747E-01            NaN
         13   -1    0    0    0    0  0.00000000000E+00  0.00000000000E+00  0.74505805969E-08  0.10566000000E+00  0.10566000000E+00 0.  1.
     999900   -1    0    0    0    0 -0.00000000000E+00 -0.00000000000E+00 -0.74505805969E-08  0.93827000000E+00  0.93827000000E+00 0.  1.
     999902    2    1    2    0    0  0.86127775681E-02 -0.87338945749E-02 -0.20162731291E-01  0.10203292249E+01  0.10200562389E+01 0.  0.
     999903    2    3    3    0    0 -0.11802586173E+00  0.48675354052E-01  0.10406491355E-02  0.12915990871E+00  0.19539829490E-01 0.  0.
         14    1    1    2    0    0 -0.86127775681E-02  0.87338945749E-02  0.20162731291E-01  0.23600775093E-01  0.00000000000E+00 0.  1.
     999901    1    3    3    0    0  0.12663863930E+00 -0.57409248627E-01 -0.21203380427E-01  0.89116931620E+00  0.88000000000E+00 0.  1.
        -11    1    4    4    0    0 -0.61049908064E-01  0.27337394746E-01  0.10083836471E-01  0.67648867730E-01  0.51100000000E-03 0. -1.
         11    1    4    4    0    0 -0.56975953671E-01  0.21337959306E-01 -0.90431873359E-02  0.61511040978E-01  0.51100000000E-03 0.  1.
</event>
<event>
 8    1  0.1129676E+005  0.1043930E+01  0.7957747E-01            NaN
         13   -1    0    0    0    0  0.00000000000E+00  0.00000000000E+00  0.74505805969E-08  0.10566000000E+00  0.10566000000E+00 0.  1.
     999900   -1    0    0    0    0 -0.00000000000E+00 -0.00000000000E+00 -0.74505805969E-08  0.93827000000E+00  0.93827000000E+00 0.  1.
     999902    2    1    2    0    0  0.16494701101E-01 -0.27406507070E-02 -0.16909749115E-01  0.10201492106E+01  0.10198719949E+01 0.  0.
     999903    2    3    3    0    0  0.91478915222E-01  0.55003616226E-01  0.69289002092E-01  0.13088701221E+00  0.30604810493E-01 0.  0.
         14    1    1    2    0    0 -0.16494701101E-01  0.27406507070E-02  0.16909749115E-01  0.23780789429E-01  0.00000000000E+00 0.  1.
     999901    1    3    3    0    0 -0.74984214121E-01 -0.57744266933E-01 -0.86198751207E-01  0.88926219836E+00  0.88000000000E+00 0. -1.
        -11    1    4    4    0    0  0.69611153910E-01  0.25631906663E-01  0.42301703652E-01  0.85395565697E-01  0.51100000000E-03 0. -1.
         11    1    4    4    0    0  0.21867761312E-01  0.29371709562E-01  0.26987298440E-01  0.45491446509E-01  0.51100000000E-03 0.  1.
</event>
<event>
 8    1  0.1129676E+005  0.1043930E+01  0.7957747E-01            NaN
         13   -1    0    0    0    0  0.00000000000E+00  0.00000000000E+00  0.74505805969E-08  0.10566000000E+00  0.10566000000E+00 0. -1.
     999900   -1    0    0    0    0 -0.00000000000E+00 -0.00000000000E+00 -0.74505805969E-08  0.93827000000E+00  0.93827000000E+00 0.  1.
     999902    2    1    2    0    0  0.10157000881E-01 -0.21035668565E-01 -0.83828136476E-02  0.10191119504E+01  0.10188097133E+01 0.  0.
     999903    2    3    3    0    0  0.11932945331E+00  0.32312906514E-01 -0.35195726220E-01  0.13035797599E+00  0.21698396379E-01 0.  0.
         14    1    1    2    0    0 -0.10157000881E-01  0.21035668565E-01  0.83828136476E-02  0.24818049551E-01  0.00000000000E+00 0.  1.
     999901    1    3    3    0    0 -0.10917245243E+00 -0.53348575079E-01  0.26812912573E-01  0.88875397446E+00  0.88000000000E+00 0.  1.
        -11    1    4    4    0    0  0.34987866323E-01  0.13453867943E-01 -0.20383284598E-01  0.42671966963E-01  0.51100000000E-03 0.  1.
         11    1    4    4    0    0  0.84341586989E-01  0.18859038571E-01 -0.14812441622E-01  0.87686009029E-01  0.51100000000E-03 0. -1.
</event>
<event>
 7    1  0.1129676E+005  0.1043930E+01  0.7957747E-01            NaN
         13   -1    0    0    0    0  0.00000000000E+00  0.00000000000E+00  0.74505805969E-08  0.10566000000E+00  0.10566000000E+00 0. -1.
     999900   -1    0    0    0    0 -0.00000000000E+00 -0.00000000000E+00 -0.74505805969E-08  0.93827000000E+00  0.93827000000E+00 0.  1.
     999903    2    1    2    0    0 -0.52825872758E-01 -0.22443585722E-01 -0.39298286725E-01  0.71567656922E-01  0.16831126080E-01 0.  0.
         14    1    1    2    0    0 -0.30865212433E-01 -0.71847973264E-01  0.28748616267E-01  0.83314317725E-01  0.00000000000E+00 0. -1.
     999901    1    1    2    0    0  0.83691085191E-01  0.94291558987E-01  0.10549670458E-01  0.88904802535E+00  0.88000000000E+00 0. -1.
        -11    1    3    3    0    0 -0.29420265643E-01 -0.19388114445E-01 -0.17127218245E-01  0.39179761843E-01  0.51100000000E-03 0. -1.
         11    1    3    3    0    0 -0.23405607114E-01 -0.30554712773E-02 -0.22171068480E-01  0.32387895079E-01  0.51100000000E-03 0.  1.
</event>
<event>
 8    1  0.1129676E+005  0.1043930E+01  0.7957747E-01            NaN
         13   -1    0    0    0    0  0.00000000000E+00  0.00000000000E+00  0.74505805969E-08  0.10566000000E+00  0.10566000000E+00 0. -1.
     999900   -1    0    0    0    0 -0.00000000000E+00 -0.00000000000E+00 -0.74505805969E-08  0.93827000000E+00  0.93827000000E+00 0. -1.
     999902    2    1    2    0    0 -0.22318366234E-01  0.85391489150E-02 -0.45767726871E-02  0.10195994968E+01  0.10193091585E+01 0.  0.
     999903    2    3    3    0    0 -0.80976256370E-01 -0.87082479348E-01 -0.51999019642E-01  0.13121156729E+00  0.19288987602E-01 0.  0.
         14    1    1    2    0    0  0.22318366234E-01 -0.85391489150E-02  0.45767726871E-02  0.24330503155E-01  0.00000000000E+00 0.  1.
     999901    1    3    3    0    0  0.58657890136E-01  0.95621628263E-01  0.47422246955E-01  0.88838792955E+00  0.88000000000E+00 0. -1.
        -11    1    4    4    0    0 -0.23326283276E-01 -0.31280877361E-01 -0.25908603813E-01  0.46841494986E-01  0.51100000000E-03 0.  1.
         11    1    4    4    0    0 -0.57649973094E-01 -0.55801601987E-01 -0.26090415829E-01  0.84370072308E-01  0.51100000000E-03 0. -1.
</event>
<event>
 8    1  0.1129676E+005  0.1043930E+01  0.7957747E-01            NaN
         13   -1    0    0    0    0  0.00000000000E+00  0.00000000000E+00  0.74505805969E-08  0.10566000000E+00  0.10566000000E+00 0.  1.
     999900   -1    0    0    0    0 -0.00000000000E+00 -0.00000000000E+00 -0.74505805969E-08  0.93827000000E+00  0.93827000000E+00 0.  1.
     999902    2    1    2    0    0 -0.25601817370E-02  0.64304230442E-02 -0.23383709162E-01  0.10195434725E+01  0.10192517793E+01 0.  0.
     999903    2    3    3    0    0  0.78456613353E-01  0.55133736229E-02  0.98277530088E-01  0.12748628865E+00  0.20209982808E-01 0.  0.
         14    1    1    2    0    0  0.25601817370E-02 -0.64304230442E-02  0.23383709162E-01  0.24386527535E-01  0.00000000000E+00 0.  1.
     999901    1    3    3    0    0 -0.81016795090E-01  0.91704942134E-03 -0.12166123925E+00  0.89205718382E+00  0.88000000000E+00 0.  1.
        -11    1    4    4    0    0  0.96100221660E-02  0.16960345669E-02  0.25121972646E-01  0.26955587360E-01  0.51100000000E-03 0.  1.
         11    1    4    4    0    0  0.68846591187E-01  0.38173390559E-02  0.73155557442E-01  0.10053070129E+00  0.51100000000E-03 0. -1.
</event>
<event>
 8    1  0.1129676E+005  0.1043930E+01  0.7957747E-01            NaN
         13   -1    0    0    0    0  0.00000000000E+00  0.00000000000E+00  0.74505805969E-08  0.10566000000E+00  0.10566000000E+00 0.  1.
     999900   -1    0    0    0    0 -0.00000000000E+00 -0.00000000000E+00 -0.74505805969E-08  0.93827000000E+00  0.93827000000E+00 0. -1.
     999902    2    1    2    0    0 -0.21594491248E-01 -0.44026191864E-02 -0.31120176060E-02  0.10216726470E+01  0.10214301777E+01 0.  0.
     999903    2    3    3    0    0  0.11225054612E+00  0.48421686870E-01  0.36493677143E-01  0.12910695622E+00  0.19798303178E-01 0.  0.
         14    1    1    2    0    0  0.21594491248E-01  0.44026191864E-02  0.31120176060E-02  0.22257352977E-01  0.00000000000E+00 0. -1.
     999901    1    3    3    0    0 -0.13384503737E+00 -0.52824306057E-01 -0.39605694749E-01  0.89256569080E+00  0.88000000000E+00 0. -1.
        -11    1    4    4    0    0  0.65140060809E-01  0.34538148514E-01  0.29843517472E-01  0.79542491042E-01  0.51100000000E-03 0.  1.
         11    1    4    4    0    0  0.47110485315E-01  0.13883538357E-01  0.66501596714E-02  0.49564465179E-01  0.51100000000E-03 0. -1.
</event>
<event>
 8    1  0.1129676E+005  0.1043930E+01  0.7957747E-01            NaN
         13   -1    0    0    0    0  0.00000000000E+00  0.00000000000E+00  0.74505805969E-08  0.10566000000E+00  0.10566000000E+00 0.  1.
     999900   -1    0    0    0    0 -0.00000000000E+00 -0.00000000000E+00 -0.74505805969E-08  0.93827000000E+00  0.93827000000E+00 0.  1.
     999902    2    1    2    0    0  0.15595786167E-01 -0.14648572595E-01  0.57623907623E-03  0.10225257650E+01  0.10223017161E+01 0.  0.
     999903    2    3    3    0    0 -0.94501128514E-01 -0.52914517239E-01 -0.72447059126E-01  0.13184174962E+00  0.20081363045E-01 0.  0.
         14    1    1    2    0    0 -0.15595786167E-01  0.14648572595E-01 -0.57623907623E-03  0.21404235018E-01  0.00000000000E+00 0.  1.
     999901    1    3    3    0    0  0.11009691468E+00  0.38265944643E-01  0.73023298202E-01  0.89068401536E+00  0.88000000000E+00 0. -1.
        -11    1    4    4    0    0 -0.21074494559E-01 -0.28379714180E-02 -0.13573437225E-01  0.25232671713E-01  0.51100000000E-03 0. -1.
         11    1    4    4    0    0 -0.73426633955E-01 -0.50076545821E-01 -0.58873621901E-01  0.10660907791E+00  0.51100000000E-03 0.  1.
</event>
<event>
 8    1  0.1129676E+005  0.1043930E+01  0.7957747E-01            NaN
         13   -1    0    0    0    0  0.00000000000E+00  0.00000000000E+00  0.74505805969E-08  0.10566000000E+00  0.10566000000E+00 0. -1.
     999900   -1    0    0    0    0 -0.00000000000E+00 -0.00000000000E+00 -0.74505805969E-08  0.93827000000E+00  0.93827000000E+00 0.  1.
     999902    2    1    2    0    0  0.48804786706E-02  0.23092796450E-02 -0.22013463055E-01  0.10212640696E+01  0.10210125149E+01 0.  0.
     999903    2    3    3    0    0 -0.11523932167E+00  0.34630578451E-01  0.44272635169E-01  0.13004732852E+00  0.21745418084E-01 0.  0.
         14    1    1    2    0    0 -0.48804786706E-02 -0.23092796450E-02  0.22013463055E-01  0.22665930385E-01  0.00000000000E+00 0. -1.
     999901    1    3    3    0    0  0.12011980034E+00 -0.32321298806E-01 -0.66286098225E-01  0.89121674110E+00  0.88000000000E+00 0. -1.
        -11    1    4    4    0    0 -0.55120598936E-01  0.74961079848E-02  0.27142234837E-01  0.61898579103E-01  0.51100000000E-03 0. -1.
         11    1    4    4    0    0 -0.60118722733E-01  0.27134470466E-01  0.17130400332E-01  0.68148749417E-01  0.51100000000E-03 0.  1.
</event>
<event>
 8    1  0.1129676E+005  0.1043930E+01  0.7957747E-01            NaN
         13   -1    0    0    0    0  0.00000000000E+00  0.00000000000E+00  0.74505805969E-08  0.10566000000E+00  0.10566000000E+00 0. -1.
     999900   -1    0    0    0    0 -0.00000000000E+00 -0.00000000000E+00 -0.74505805969E-08  0.93827000000E+00  0.93827000000E+00 0. -1.
     999902    2    1    2    0    0  0.12648557648E-02  0.14726576044E-01  0.20015950917E-01  0.10190480750E+01  0.10187442608E+01 0.  0.
     999903    2    3    3    0    0 -0.13204806104E-01 -0.84075116236E-01  0.96411125086E-01  0.13011198720E+00  0.19774531532E-01 0.  0.
         14    1    1    2    0    0 -0.12648557648E-02 -0.14726576044E-01 -0.20015950917E-01  0.24881925030E-01  0.00000000000E+00 0.  1.
     999901    1    3    3    0    0  0.14469661869E-01  0.98801692280E-01 -0.76395174170E-01  0.88893608777E+00  0.88000000000E+00 0. -1.
        -11    1    4    4    0    0 -0.17385524262E-01 -0.52331058537E-01  0.56639752039E-01  0.79051367942E-01  0.51100000000E-03 0. -1.
         11    1    4    4    0    0  0.41807181582E-02 -0.31744057699E-01  0.39771373047E-01  0.51060619253E-01  0.51100000000E-03 0.  1.
</event>
<event>
 8    1  0.1129676E+005  0.1043930E+01  0.7957747E-01            NaN
         13   -1    0    0    0    0  0.00000000000E+00  0.00000000000E+00  0.74505805969E-08  0.10566000000E+00  0.10566000000E+00 0.  1.
     999900   -1    0    0    0    0 -0.00000000000E+00 -0.00000000000E+00 -0.74505805969E-08  0.93827000000E+00  0.93827000000E+00 0.  1.
     999902    2    1    2    0    0  0.14591350055E-01  0.15114844444E-01 -0.10757055215E-01  0.10203274523E+01  0.10200544249E+01 0.  0.
     999903    2    3    3    0    0  0.10982488717E+00  0.65894705301E-01 -0.31924426806E-01  0.13348131096E+00  0.19861352443E-01 0.  0.
         14    1    1    2    0    0 -0.14591350055E-01 -0.15114844444E-01  0.10757055215E-01  0.23602547657E-01  0.00000000000E+00 0.  1.
     999901    1    3    3    0    0 -0.95233537116E-01 -0.50779860857E-01  0.21167371591E-01  0.88684614138E+00  0.88000000000E+00 0. -1.
        -11    1    4    4    0    0  0.31545816105E-01  0.11190561446E-01 -0.25858641021E-02  0.33575511811E-01  0.51100000000E-03 0.  1.
         11    1    4    4    0    0  0.78279071066E-01  0.54704143854E-01 -0.29338562704E-01  0.99905799153E-01  0.51100000000E-03 0. -1.
</event>
<event>
 8    1  0.1129676E+005  0.1043930E+01  0.7957747E-01            NaN
         13   -1    0    0    0    0  0.00000000000E+00  0.00000000000E+00  0.74505805969E-08  0.10566000000E+00  0.10566000000E+00 0.  1.
     999900   -1    0    0    0    0 -0.00000000000E+00 -0.00000000000E+00 -0.74505805969E-08  0.93827000000E+00  0.93827000000E+00 0. -1.
     999902    2    1    2    0    0 -0.48713861783E-03 -0.18184569505E-01 -0.11397605774E-01  0.10224632515E+01  0.10222378781E+01 0.  0.
     999903    2    3    3    0    0  0.12092937287E+00  0.28652594453E-01 -0.41109444132E-01  0.13239669081E+00  0.19849759434E-01 0.  0.
         14    1    1    2    0    0  0.48713861783E-03  0.18184569505E-01  0.11397605774E-01  0.21466748461E-01  0.00000000000E+00 0.  1.
     999901    1    3    3    0    0 -0.12141651149E+00 -0.46837163958E-01  0.29711838359E-01  0.89006656073E+00  0.88000000000E+00 0.  1.
        -11    1    4    4    0    0  0.77737699427E-01  0.27958592778E-01 -0.25439424710E-01  0.86442225057E-01  0.51100000000E-03 0. -1.
         11    1    4    4    0    0  0.43191673442E-01  0.69400167560E-03 -0.15670019422E-01  0.45954465754E-01  0.51100000000E-03 0.  1.
</event>
<event>
 8    1  0.1129676E+005  0.1043930E+01  0.7957747E-01            NaN
         13   -1    0    0    0    0  0.00000000000E+00  0.00000000000E+00  0.74505805969E-08  0.10566000000E+00  0.10566000000E+00 0.  1.
     999900   -1    0    0    0    0 -0.00000000000E+00 -0.00000000000E+00 -0.74505805969E-08  0.93827000000E+00  0.93827000000E+00 0. -1.
     999902    2    1    2    0    0  0.23830346107E-02 -0.45996730584E-02  0.23290430620E-01  0.10200704106E+01  0.10197913329E+01 0.  0.
     999903    2    3    3    0    0 -0.75484896273E-01  0.72323172423E-01 -0.71748359373E-01  0.12821116702E+00  0.19017503559E-01 0.  0.
         14    1    1    2    0    0 -0.23830346107E-02  0.45996730584E-02 -0.23290430620E-01  0.23859589365E-01  0.00000000000E+00 0. -1.
     999901    1    3    3    0    0  0.77867930883E-01 -0.76922845481E-01  0.95038789993E-01  0.89185924361E+00  0.88000000000E+00 0.  1.
        -11    1    4    4    0    0 -0.46746598348E-01  0.34565307832E-01 -0.46570679686E-01  0.74492243154E-01  0.51100000000E-03 0.  1.
         11    1    4    4    0    0 -0.28738297925E-01  0.37757864591E-01 -0.25177679686E-01  0.53718923867E-01  0.51100000000E-03 0. -1.
</event>
<event>
 8    1  0.1129676E+005  0.1043930E+01  0.7957747E-01            NaN
         13   -1    0    0    0    0  0.00000000000E+00  0.00000000000E+00  0.74505805969E-08  0.10566000000E+00  0.10566000000E+00 0.  1.
     999900   -1    0    0    0    0 -0.00000000000E+00 -0.00000000000E+00 -0.74505805969E-08  0.93827000000E+00  0.93827000000E+00 0.  1.
     999902    2    1    2    0    0  0.21177441502E-01 -0.33068426597E-02  0.11188334924E-01  0.10197515370E+01  0.10194648592E+01 0.  0.
     999903    2    3    3    0    0  0.10875099785E+00  0.72260761771E-01  0.31338295115E-03  0.13211543179E+00  0.20149240223E-01 0.  0.
         14    1    1    2    0    0 -0.21177441502E-01  0.33068426597E-02 -0.11188334924E-01  0.24178463047E-01  0.00000000000E+00 0. -1.
     999901    1    3    3    0    0 -0.87573556352E-01 -0.75567604431E-01  0.10874951973E-01  0.88763610516E+00  0.88000000000E+00 0. -1.
        -11    1    4    4    0    0  0.79720546370E-01  0.60296862688E-01 -0.57914010496E-02  0.10012431578E+00  0.51100000000E-03 0.  1.
         11    1    4    4    0    0  0.29030451484E-01  0.11963899083E-01  0.61047840008E-02  0.31991116007E-01  0.51100000000E-03 0. -1.
</event>
<event>
 8    1  0.1129676E+005  0.1043930E+01  0.7957747E-01            NaN
         13   -1    0    0    0    0  0.00000000000E+00  0.00000000000E+00  0.74505805969E-08  0.10566000000E+00  0.10566000000E+00 0. -1.
     999900   -1    0    0    0    0 -0.00000000000E+00 -0.00000000000E+00 -0.74505805969E-08  0.93827000000E+00  0.93827000000E+00 0. -1.
     999902    2    1    2    0    0 -0.15150683152E-01 -0.90929385680E-02 -0.16019024657E-01  0.10200797614E+01  0.10198009049E+01 0.  0.
     999903    2    3    3    0    0 -0.12156150293E-01  0.54982158443E-01 -0.11762137656E+00  0.13191444838E+00  0.19895319292E-01 0.  0.
         14    1    1    2    0    0  0.15150683152E-01  0.90929385680E-02  0.16019024657E-01  0.23850238630E-01  0.00000000000E+00 0. -1.
     999901    1    3    3    0    0 -0.29945328585E-02 -0.64075097011E-01  0.10160235191E+00  0.88816531299E+00  0.88000000000E+00 0.  1.
        -11    1    4    4    0    0  0.37373856705E-02  0.93814301979E-02 -0.32627500707E-01  0.34158369510E-01  0.51100000000E-03 0. -1.
         11    1    4    4    0    0 -0.15893535964E-01  0.45600728245E-01 -0.84993875858E-01  0.97756078871E-01  0.51100000000E-03 0.  1.
</event>
<event>
 8    1  0.1129676E+005  0.1043930E+01  0.7957747E-01            NaN
         13   -1    0    0    0    0  0.00000000000E+00  0.00000000000E+00  0.74505805969E-08  0.10566000000E+00  0.10566000000E+00 0.  1.
     999900   -1    0    0    0    0 -0.00000000000E+00 -0.00000000000E+00 -0.74505805969E-08  0.93827000000E+00  0.93827000000E+00 0.  1.
     999902    2    1    2    0    0 -0.16993869755E-01 -0.13730191847E-02 -0.16706548700E-01  0.10200598186E+01  0.10197804901E+01 0.  0.
     999903    2    3    3    0    0  0.11097750382E+00 -0.42029542126E-01  0.44532574732E-01  0.12777070875E+00  0.16115676719E-01 0.  0.
         14    1    1    2    0    0  0.16993869755E-01  0.13730191847E-02  0.16706548700E-01  0.23870181407E-01  0.00000000000E+00 0.  1.
     999901    1    3    3    0    0 -0.12797137357E+00  0.40656522942E-01 -0.61239123432E-01  0.89228910985E+00  0.88000000000E+00 0.  1.
        -11    1    4    4    0    0  0.73187635302E-01 -0.23041194710E-01  0.21870002963E-01  0.79786494881E-01  0.51100000000E-03 0. -1.
         11    1    4    4    0    0  0.37789868517E-01 -0.18988347416E-01  0.22662571769E-01  0.47984213866E-01  0.51100000000E-03 0.  1.
</event>
<event>
 8    1  0.1129676E+005  0.1043930E+01  0.7957747E-01            NaN
         13   -1    0    0    0    0  0.00000000000E+00  0.00000000000E+00  0.74505805969E-08  0.10566000000E+00  0.10566000000E+00 0.  1.
     999900   -1    0    0    0    0 -0.00000000000E+00 -0.00000000000E+00 -0.74505805969E-08  0.93827000000E+00  0.93827000000E+00 0. -1.
     999902    2    1    2    0    0 -0.10926050758E-01  0.19421985938E-01 -0.81829652749E-02  0.10201907278E+01  0.10199144906E+01 0.  0.
     999903    2    3    3    0    0 -0.45379157741E-01  0.11951758909E+00  0.30698017550E-01  0.13299408830E+00  0.20033401656E-01 0.  0.
         14    1    1    2    0    0  0.10926050758E-01 -0.19421985938E-01  0.81829652749E-02  0.23739272180E-01  0.00000000000E+00 0. -1.
     999901    1    3    3    0    0  0.34453106983E-01 -0.10009560315E+00 -0.38880982825E-01  0.88719663952E+00  0.88000000000E+00 0.  1.
        -11    1    4    4    0    0 -0.43163130730E-01  0.11914349903E+00  0.31456047703E-01  0.13056788761E+00  0.51100000000E-03 0.  1.
         11    1    4    4    0    0 -0.22160270116E-02  0.37409005789E-03 -0.75803015330E-03  0.24262006926E-02  0.51100000000E-03 0. -1.
</event>
<event>
 8    1  0.1129676E+005  0.1043930E+01  0.7957747E-01            NaN
         13   -1    0    0    0    0  0.00000000000E+00  0.00000000000E+00  0.74505805969E-08  0.10566000000E+00  0.10566000000E+00 0. -1.
     999900   -1    0    0    0    0 -0.00000000000E+00 -0.00000000000E+00 -0.74505805969E-08  0.93827000000E+00  0.93827000000E+00 0. -1.
     999902    2    1    2    0    0  0.53009158327E-03 -0.48660880223E-02  0.23152123612E-01  0.10202660900E+01  0.10199916243E+01 0.  0.
     999903    2    3    3    0    0 -0.11866187274E+00 -0.22828414061E-01 -0.42287730629E-01  0.12964173368E+00  0.20419363790E-01 0.  0.
         14    1    1    2    0    0 -0.53009158327E-03  0.48660880223E-02 -0.23152123612E-01  0.23663910021E-01  0.00000000000E+00 0.  1.
     999901    1    3    3    0    0  0.11919196433E+00  0.17962326039E-01  0.65439854241E-01  0.89062435630E+00  0.88000000000E+00 0. -1.
        -11    1    4    4    0    0 -0.54982191800E-01 -0.59175637333E-03 -0.16254719749E-01  0.57339939186E-01  0.51100000000E-03 0. -1.
         11    1    4    4    0    0 -0.63679680943E-01 -0.22236657688E-01 -0.26033010880E-01  0.72301794491E-01  0.51100000000E-03 0.  1.
</event>
<event>
 8    1  0.1129676E+005  0.1043930E+01  0.7957747E-01            NaN
         13   -1    0    0    0    0  0.00000000000E+00  0.00000000000E+00  0.74505805969E-08  0.10566000000E+00  0.10566000000E+00 0.  1.
     999900   -1    0    0    0    0 -0.00000000000E+00 -0.00000000000E+00 -0.74505805969E-08  0.93827000000E+00  0.93827000000E+00 0.  1.
     999902    2    1    2    0    0  0.14936732829E-02 -0.11396772973E-01  0.20150599079E-01  0.10207316350E+01  0.10204679841E+01 0.  0.
     999903    2    3    3    0    0  0.11954662615E+00  0.24527490137E-02 -0.47693146807E-01  0.13015256342E+00  0.19173985226E-01 0.  0.
         14    1    1    2    0    0 -0.14936732829E-02  0.11396772973E-01 -0.20150599079E-01  0.23198364971E-01  0.00000000000E+00 0. -1.
     999901    1    3    3    0    0 -0.11805295287E+00 -0.13849521987E-01  0.67843745886E-01  0.89057907161E+00  0.88000000000E+00 0. -1.
        -11    1    4    4    0    0  0.66278019976E-01 -0.71020191264E-02 -0.21615537807E-01  0.70076438289E-01  0.51100000000E-03 0.  1.
         11    1    4    4    0    0  0.53268606175E-01  0.95547681402E-02 -0.26077608999E-01  0.60076125126E-01  0.51100000000E-03 0. -1.
</event>
<event>
 8    1  0.1129676E+005  0.1043930E+01  0.7957747E-01            NaN
         13   -1    0    0    0    0  0.00000000000E+00  0.00000000000E+00  0.74505805969E-08  0.10566000000E+00  0.10566000000E+00 0. -1.
     999900   -1    0    0    0    0 -0.00000000000E+00 -0.00000000000E+00 -0.74505805969E-08  0.93827000000E+00  0.93827000000E+00 0. -1.
     999902    2    1    2    0    0  0.12733160009E-02  0.17786819143E-01  0.14304024437E-01  0.10210696110E+01  0.10208136721E+01 0.  0.
     999903    2    3    3    0    0 -0.63887582397E-01 -0.10157725517E-01  0.11398132885E+00  0.13260891675E+00  0.20213334801E-01 0.  0.
         14    1    1    2    0    0 -0.12733160009E-02 -0.17786819143E-01 -0.14304024437E-01  0.22860388972E-01  0.00000000000E+00 0.  1.
     999901    1    3    3    0    0  0.65160898398E-01  0.27944544660E-01 -0.99677304414E-01  0.88846069427E+00  0.88000000000E+00 0. -1.
        -11    1    4    4    0    0 -0.45853565402E-01 -0.14847811634E-01  0.91372123371E-01  0.10330601638E+00  0.51100000000E-03 0.  1.
         11    1    4    4    0    0 -0.18034016995E-01  0.46900861171E-02  0.22609205480E-01  0.29302900372E-01  0.51100000000E-03 0. -1.
</event>
<event>
 8    1  0.1129676E+005  0.1043930E+01  0.7957747E-01            NaN
         13   -1    0    0    0    0  0.00000000000E+00  0.00000000000E+00  0.74505805969E-08  0.10566000000E+00  0.10566000000E+00 0. -1.
     999900   -1    0    0    0    0 -0.00000000000E+00 -0.00000000000E+00 -0.74505805969E-08  0.93827000000E+00  0.93827000000E+00 0.  1.
     999902    2    1    2    0    0  0.74109690861E-02 -0.17890648090E-01 -0.10514943126E-01  0.10218945336E+01  0.10216569267E+01 0.  0.
     999903    2    3    3    0    0  0.30228773945E-01 -0.99433402414E-01 -0.83562091145E-01  0.13481744626E+00  0.19807585634E-01 0.  0.
         14    1    1    2    0    0 -0.74109690861E-02  0.17890648090E-01  0.10514943126E-01  0.22035466431E-01  0.00000000000E+00 0. -1.
     999901    1    3    3    0    0 -0.22817804859E-01  0.81542754325E-01  0.73047148019E-01  0.88707708731E+00  0.88000000000E+00 0. -1.
        -11    1    4    4    0    0  0.11350325039E-01 -0.56361385671E-01 -0.56234354142E-01  0.80423873197E-01  0.51100000000E-03 0. -1.
         11    1    4    4    0    0  0.18878448907E-01 -0.43072016744E-01 -0.27327737003E-01  0.54393573060E-01  0.51100000000E-03 0.  1.
</event>
<event>
 8    1  0.1274531E+005  0.1043930E+01  0.7957747E-01            NaN
         13   -1    0    0    0    0  0.00000000000E+00  0.00000000000E+00  0.74505805969E-08  0.10566000000E+00  0.10566000000E+00 0.  1.
     999900   -1    0    0    0    0 -0.00000000000E+00 -0.00000000000E+00 -0.74505805969E-08  0.93827000000E+00  0.93827000000E+00 0. -1.
     999902    2    1    2    0    0 -0.14998743293E-01  0.95124910159E-02  0.87174377472E-02  0.10241450687E+01  0.10239539434E+01 0.  0.
     999903    2    3    3    0    0  0.45782296739E-01  0.94438213307E-01 -0.79971483001E-01  0.13354277935E+00  0.20582541029E-01 0.  0.
         14    1    1    2    0    0  0.14998743293E-01 -0.95124910159E-02 -0.87174377472E-02  0.19784931301E-01  0.00000000000E+00 0. -1.
     999901    1    3    3    0    0 -0.60781040032E-01 -0.84925722292E-01  0.88688920748E-01  0.89060228935E+00  0.88000000000E+00 0.  1.
        -11    1    4    4    0    0  0.25610998544E-01  0.55121109364E-01 -0.33456881535E-01  0.69382158996E-01  0.51100000000E-03 0.  1.
         11    1    4    4    0    0  0.20171298195E-01  0.39317103943E-01 -0.46514601466E-01  0.64160620352E-01  0.51100000000E-03 0. -1.
</event>
<event>
 8    1  0.1129676E+005  0.1043930E+01  0.7957747E-01            NaN
         13   -1    0    0    0    0  0.00000000000E+00  0.00000000000E+00  0.74505805969E-08  0.10566000000E+00  0.10566000000E+00 0.  1.
     999900   -1    0    0    0    0 -0.00000000000E+00 -0.00000000000E+00 -0.74505805969E-08  0.93827000000E+00  0.93827000000E+00 0. -1.
     999902    2    1    2    0    0  0.19189888217E-01 -0.13066374263E-01  0.13307854915E-01  0.10171703111E+01  0.10168182536E+01 0.  0.
     999903    2    3    3    0    0 -0.96234241365E-01  0.41680433533E-01  0.67437031492E-01  0.12630000047E+00  0.20140733639E-01 0.  0.
         14    1    1    2    0    0 -0.19189888217E-01  0.13066374263E-01 -0.13307854915E-01  0.26759688873E-01  0.00000000000E+00 0. -1.
     999901    1    3    3    0    0  0.11542412958E+00 -0.54746807796E-01 -0.54129176577E-01  0.89087031066E+00  0.88000000000E+00 0.  1.
        -11    1    4    4    0    0 -0.61228688268E-01  0.34617427407E-01  0.37576436772E-01  0.79746901312E-01  0.51100000000E-03 0.  1.
         11    1    4    4    0    0 -0.35005553097E-01  0.70630061260E-02  0.29860594720E-01  0.46553099158E-01  0.51100000000E-03 0. -1.
</event>
<event>
 8    1  0.1129676E+005  0.1043930E+01  0.7957747E-01            NaN
         13   -1    0    0    0    0  0.00000000000E+00  0.00000000000E+00  0.74505805969E-08  0.10566000000E+00  0.10566000000E+00 0.  1.
     999900   -1    0    0    0    0 -0.00000000000E+00 -0.00000000000E+00 -0.74505805969E-08  0.93827000000E+00  0.93827000000E+00 0. -1.
     999902    2    1    2    0    0 -0.21764964806E-01 -0.59248785059E-02 -0.90316094548E-02  0.10196321020E+01  0.10193425506E+01 0.  0.
     999903    2    3    3    0    0  0.23153482464E-01 -0.10109792162E+00  0.75653944796E-01  0.12932472915E+00  0.15636262336E-01 0.  0.
         14    1    1    2    0    0  0.21764964806E-01  0.59248785059E-02  0.90316094548E-02  0.24297898009E-01  0.00000000000E+00 0.  1.
     999901    1    3    3    0    0 -0.44918447270E-01  0.95173043114E-01 -0.84685554251E-01  0.89030737284E+00  0.88000000000E+00 0.  1.
        -11    1    4    4    0    0  0.12232414410E-01 -0.54604748184E-01  0.31167216514E-01  0.64054406506E-01  0.51100000000E-03 0. -1.
         11    1    4    4    0    0  0.10921068053E-01 -0.46493173436E-01  0.44486728282E-01  0.65270322642E-01  0.51100000000E-03 0.  1.
</event>
<event>
 8    1  0.1180562E+005  0.1043930E+01  0.7957747E-01            NaN
         13   -1    0    0    0    0  0.00000000000E+00  0.00000000000E+00  0.74505805969E-08  0.10566000000E+00  0.10566000000E+00 0.  1.
     999900   -1    0    0    0    0 -0.00000000000E+00 -0.00000000000E+00 -0.74505805969E-08  0.93827000000E+00  0.93827000000E+00 0.  1.
     999902    2    1    2    0    0 -0.15713242561E-01  0.14287507216E-01  0.11418316276E-01  0.10198174141E+01  0.10195323149E+01 0.  0.
     999903    2    3    3    0    0 -0.59589686853E-01 -0.10607523847E+00 -0.39162400684E-01  0.12910380024E+00  0.18199192670E-01 0.  0.
         14    1    1    2    0    0  0.15713242561E-01 -0.14287507216E-01 -0.11418316276E-01  0.24112585942E-01  0.00000000000E+00 0.  1.
     999901    1    3    3    0    0  0.43876444292E-01  0.12036274568E+00  0.50580716959E-01  0.89071361382E+00  0.88000000000E+00 0.  1.
        -11    1    4    4    0    0 -0.28433294576E-01 -0.67256978629E-01 -0.19478090668E-01  0.75575197994E-01  0.51100000000E-03 0. -1.
         11    1    4    4    0    0 -0.31156392277E-01 -0.38818259839E-01 -0.19684310015E-01  0.53528602247E-01  0.51100000000E-03 0.  1.
</event>
<event>
 8    1  0.1129676E+005  0.1043930E+01  0.7957747E-01            NaN
         13   -1    0    0    0    0  0.00000000000E+00  0.00000000000E+00  0.74505805969E-08  0.10566000000E+00  0.10566000000E+00 0.  1.
     999900   -1    0    0    0    0 -0.00000000000E+00 -0.00000000000E+00 -0.74505805969E-08  0.93827000000E+00  0.93827000000E+00 0.  1.
     999902    2    1    2    0    0  0.14828041992E-01 -0.20802470534E-01 -0.40267791116E-02  0.10180682800E+01  0.10177397478E+01 0.  0.
     999903    2    3    3    0    0 -0.12402134631E+00 -0.15279662823E-02  0.16515730561E-01  0.12673632512E+00  0.20141939514E-01 0.  0.
         14    1    1    2    0    0 -0.14828041992E-01  0.20802470534E-01  0.40267791116E-02  0.25861719967E-01  0.00000000000E+00 0. -1.
     999901    1    3    3    0    0  0.13884938830E+00 -0.19274504252E-01 -0.20542509672E-01  0.89133195491E+00  0.88000000000E+00 0. -1.
        -11    1    4    4    0    0 -0.79975265411E-01 -0.10616557565E-01  0.10719218962E-01  0.81387450803E-01  0.51100000000E-03 0.  1.
         11    1    4    4    0    0 -0.44046080899E-01  0.90885912824E-02  0.57965115986E-02  0.45348874317E-01  0.51100000000E-03 0. -1.
</event>
<event>
 8    1  0.1129676E+005  0.1043930E+01  0.7957747E-01            NaN
         13   -1    0    0    0    0  0.00000000000E+00  0.00000000000E+00  0.74505805969E-08  0.10566000000E+00  0.10566000000E+00 0. -1.
     999900   -1    0    0    0    0 -0.00000000000E+00 -0.00000000000E+00 -0.74505805969E-08  0.93827000000E+00  0.93827000000E+00 0.  1.
     999902    2    1    2    0    0  0.16090914591E-01 -0.16802692316E-01 -0.74607718242E-03  0.10206533028E+01  0.10203878478E+01 0.  0.
     999903    2    3    3    0    0 -0.96229529500E-01 -0.62195565504E-01 -0.59419229844E-01  0.13041797776E+00  0.18702762695E-01 0.  0.
         14    1    1    2    0    0 -0.16090914591E-01  0.16802692316E-01  0.74607718242E-03  0.23276697202E-01  0.00000000000E+00 0. -1.
     999901    1    3    3    0    0  0.11232044409E+00  0.45392873188E-01  0.58673152661E-01  0.89023532504E+00  0.88000000000E+00 0.  1.
        -11    1    4    4    0    0 -0.74671140027E-01 -0.52548096477E-01 -0.39378486035E-01  0.99438462778E-01  0.51100000000E-03 0. -1.
         11    1    4    4    0    0 -0.21558389473E-01 -0.96474690274E-02 -0.20040743809E-01  0.30979514985E-01  0.51100000000E-03 0.  1.
</event>
<event>
 8    1  0.1129676E+005  0.1043930E+01  0.7957747E-01            NaN
         13   -1    0    0    0    0  0.00000000000E+00  0.00000000000E+00  0.74505805969E-08  0.10566000000E+00  0.10566000000E+00 0.  1.
     999900   -1    0    0    0    0 -0.00000000000E+00 -0.00000000000E+00 -0.74505805969E-08  0.93827000000E+00  0.93827000000E+00 0.  1.
     999902    2    1    2    0    0 -0.33560352711E-02  0.28762852351E-02  0.23417314418E-01  0.10200992089E+01  0.10198208124E+01 0.  0.
     999903    2    3    3    0    0  0.50822893237E-01  0.11823309744E+00  0.16072256189E-01  0.13088804147E+00  0.17644550790E-01 0.  0.
         14    1    1    2    0    0  0.33560352711E-02 -0.28762852351E-02 -0.23417314418E-01  0.23830791091E-01  0.00000000000E+00 0. -1.
     999901    1    3    3    0    0 -0.54178928508E-01 -0.11535681221E+00  0.73450582288E-02  0.88921116744E+00  0.88000000000E+00 0.  1.
        -11    1    4    4    0    0  0.11099099895E-01  0.41677187691E-01 -0.11130415654E-03  0.43132951463E-01  0.51100000000E-03 0.  1.
         11    1    4    4    0    0  0.39723793342E-01  0.76555909753E-01  0.16183560346E-01  0.87755090006E-01  0.51100000000E-03 0. -1.
</event>
<event>
 8    1  0.1129676E+005  0.1043930E+01  0.7957747E-01            NaN
         13   -1    0    0    0    0  0.00000000000E+00  0.00000000000E+00  0.74505805969E-08  0.10566000000E+00  0.10566000000E+00 0. -1.
     999900   -1    0    0    0    0 -0.00000000000E+00 -0.00000000000E+00 -0.74505805969E-08  0.93827000000E+00  0.93827000000E+00 0. -1.
     999902    2    1    2    0    0  0.68277646976E-02 -0.21366872719E-01  0.80335057599E-02  0.10201035686E+01  0.10198252751E+01 0.  0.
     999903    2    3    3    0    0  0.11444457293E+00  0.45904427556E-01 -0.35952494287E-01  0.12991169404E+00  0.19485627000E-01 0.  0.
         14    1    1    2    0    0 -0.68277646976E-02  0.21366872719E-01 -0.80335057599E-02  0.23826431444E-01  0.00000000000E+00 0.  1.
     999901    1    3    3    0    0 -0.10761680824E+00 -0.67271300275E-01  0.43986000047E-01  0.89019187452E+00  0.88000000000E+00 0.  1.
        -11    1    4    4    0    0  0.56366964719E-01  0.28622817762E-01 -0.10060544949E-01  0.64015436372E-01  0.51100000000E-03 0. -1.
         11    1    4    4    0    0  0.58077608214E-01  0.17281609793E-01 -0.25891949339E-01  0.65896257667E-01  0.51100000000E-03 0.  1.
</event>
<event>
 8    1  0.1129676E+005  0.1043930E+01  0.7957747E-01            NaN
         13   -1    0    0    0    0  0.00000000000E+00  0.00000000000E+00  0.74505805969E-08  0.10566000000E+00  0.10566000000E+00 0.  1.
     999900   -1    0    0    0    0 -0.00000000000E+00 -0.00000000000E+00 -0.74505805969E-08  0.93827000000E+00  0.93827000000E+00 0. -1.
     999902    2    1    2    0    0  0.89767887453E-02  0.18078231248E-01  0.13420581861E-01  0.10196912459E+01  0.10194031194E+01 0.  0.
     999903    2    3    3    0    0 -0.88866136375E-03 -0.10781587735E+00 -0.64672870281E-01  0.12725343804E+00  0.19641899458E-01 0.  0.
         14    1    1    2    0    0 -0.89767887453E-02 -0.18078231248E-01 -0.13420581861E-01  0.24238754067E-01  0.00000000000E+00 0. -1.
     999901    1    3    3    0    0  0.98654501091E-02  0.12589410860E+00  0.78093452142E-01  0.89243780789E+00  0.88000000000E+00 0. -1.
        -11    1    4    4    0    0 -0.53146879576E-02 -0.87232428158E-01 -0.44425270635E-01  0.98038809777E-01  0.51100000000E-03 0. -1.
         11    1    4    4    0    0  0.44260265938E-02 -0.20583449196E-01 -0.20247599647E-01  0.29214628265E-01  0.51100000000E-03 0.  1.
</event>
<event>
 8    1  0.1129676E+005  0.1043930E+01  0.7957747E-01            NaN
         13   -1    0    0    0    0  0.00000000000E+00  0.00000000000E+00  0.74505805969E-08  0.10566000000E+00  0.10566000000E+00 0. -1.
     999900   -1    0    0    0    0 -0.00000000000E+00 -0.00000000000E+00 -0.74505805969E-08  0.93827000000E+00  0.93827000000E+00 0.  1.
     999902    2    1    2    0    0  0.11536056386E-01  0.20084726609E-01 -0.75280634990E-02  0.10195753581E+01  0.10192844364E+01 0.  0.
     999903    2    3    3    0    0  0.91682298210E-01 -0.86212235509E-01  0.21459737561E-01  0.12909079520E+00  0.19123799628E-01 0.  0.
         14    1    1    2    0    0 -0.11536056386E-01 -0.20084726609E-01  0.75280634990E-02  0.24354641856E-01  0.00000000000E+00 0. -1.
     999901    1    3    3    0    0 -0.80146241824E-01  0.10629696212E+00 -0.28987801060E-01  0.89048456295E+00  0.88000000000E+00 0.  1.
        -11    1    4    4    0    0  0.53536597821E-01 -0.47612821246E-01  0.21556384126E-01  0.74820364012E-01  0.51100000000E-03 0. -1.
         11    1    4    4    0    0  0.38145700389E-01 -0.38599414263E-01 -0.96646564812E-04  0.54270431187E-01  0.51100000000E-03 0.  1.
</event>
<event>
 8    1  0.1129676E+005  0.1043930E+01  0.7957747E-01            NaN
         13   -1    0    0    0    0  0.00000000000E+00  0.00000000000E+00  0.74505805969E-08  0.10566000000E+00  0.10566000000E+00 0. -1.
     999900   -1    0    0    0    0 -0.00000000000E+00 -0.00000000000E+00 -0.74505805969E-08  0.93827000000E+00  0.93827000000E+00 0.  1.
     999902    2    1    2    0    0 -0.10408008303E-01 -0.92949765909E-02 -0.10039174743E-01  0.10267396464E+01  0.10265957302E+01 0.  0.
     999903    2    3    3    0    0  0.11603421274E+00 -0.13097985498E-01  0.63683165360E-01  0.13464263288E+00  0.20918826149E-01 0.  0.
         14    1    1    2    0    0  0.10408008303E-01  0.92949765909E-02  0.10039174743E-01  0.17190353579E-01  0.00000000000E+00 0. -1.
     999901    1    3    3    0    0 -0.12644222105E+00  0.38030089071E-02 -0.73722340103E-01  0.89209701354E+00  0.88000000000E+00 0.  1.
        -11    1    4    4    0    0  0.60218302596E-01 -0.62628380942E-02  0.21146576161E-01  0.64131941440E-01  0.51100000000E-03 0. -1.
         11    1    4    4    0    0  0.55815910147E-01 -0.68351474038E-02  0.42536589199E-01  0.70510691439E-01  0.51100000000E-03 0.  1.
</event>
<event>
 8    1  0.1129676E+005  0.1043930E+01  0.7957747E-01            NaN
         13   -1    0    0    0    0  0.00000000000E+00  0.00000000000E+00  0.74505805969E-08  0.10566000000E+00  0.10566000000E+00 0.  1.
     999900   -1    0    0    0    0 -0.00000000000E+00 -0.00000000000E+00 -0.74505805969E-08  0.93827000000E+00  0.93827000000E+00 0. -1.
     999902    2    1    2    0    0  0.11209334625E-01  0.17124393890E-01 -0.14854515703E-01  0.10186406606E+01  0.10183266886E+01 0.  0.
     999903    2    3    3    0    0 -0.12140092595E+00 -0.24202873950E-01 -0.24056675910E-01  0.12769840435E+00  0.20104598701E-01 0.  0.
         14    1    1    2    0    0 -0.11209334625E-01 -0.17124393890E-01  0.14854515703E-01  0.25289339367E-01  0.00000000000E+00 0.  1.
     999901    1    3    3    0    0  0.13261026058E+00  0.41327267840E-01  0.92021602069E-02  0.89094225628E+00  0.88000000000E+00 0. -1.
        -11    1    4    4    0    0 -0.36482514864E-01 -0.35168438799E-02 -0.15769087232E-01  0.39903224366E-01  0.51100000000E-03 0. -1.
         11    1    4    4    0    0 -0.84918411086E-01 -0.20686030070E-01 -0.82875886779E-02  0.87795179985E-01  0.51100000000E-03 0.  1.
</event>
<event>
 8    1  0.1129676E+005  0.1043930E+01  0.7957747E-01            NaN
         13   -1    0    0    0    0  0.00000000000E+00  0.00000000000E+00  0.74505805969E-08  0.10566000000E+00  0.10566000000E+00 0. -1.
     999900   -1    0    0    0    0 -0.00000000000E+00 -0.00000000000E+00 -0.74505805969E-08  0.93827000000E+00  0.93827000000E+00 0. -1.
     999902    2    1    2    0    0 -0.11821655100E-01  0.71904812960E-02 -0.19093791927E-01  0.10203497659E+01  0.10200772605E+01 0.  0.
     999903    2    3    3    0    0  0.13255009153E-01 -0.12287101798E+00  0.31234136672E-01  0.12901496174E+00  0.19907454196E-01 0.  0.
         14    1    1    2    0    0  0.11821655100E-01 -0.71904812960E-02  0.19093791927E-01  0.23580234110E-01  0.00000000000E+00 0. -1.
     999901    1    3    3    0    0 -0.25076664252E-01  0.13006149928E+00 -0.50327928598E-01  0.89133480415E+00  0.88000000000E+00 0.  1.
        -11    1    4    4    0    0  0.17274787378E-01 -0.96021832049E-01  0.19805735636E-01  0.99554702521E-01  0.51100000000E-03 0.  1.
         11    1    4    4    0    0 -0.40197782249E-02 -0.26849185934E-01  0.11428401036E-01  0.29460259223E-01  0.51100000000E-03 0. -1.
</event>
<event>
 8    1  0.1129676E+005  0.1043930E+01  0.7957747E-01            NaN
         13   -1    0    0    0    0  0.00000000000E+00  0.00000000000E+00  0.74505805969E-08  0.10566000000E+00  0.10566000000E+00 0.  1.
     999900   -1    0    0    0    0 -0.00000000000E+00 -0.00000000000E+00 -0.74505805969E-08  0.93827000000E+00  0.93827000000E+00 0.  1.
     999902    2    1    2    0    0 -0.68165624882E-02  0.14971777428E-01  0.17274401299E-01  0.10200757638E+01  0.10197968128E+01 0.  0.
     999903    2    3    3    0    0  0.84806153636E-01 -0.68723724570E-01 -0.63761668367E-01  0.12768207057E+00  0.17947890651E-01 0.  0.
         14    1    1    2    0    0  0.68165624882E-02 -0.14971777428E-01 -0.17274401299E-01  0.23854236181E-01  0.00000000000E+00 0. -1.
     999901    1    3    3    0    0 -0.91622716124E-01  0.83695501998E-01  0.81036069666E-01  0.89239369325E+00  0.88000000000E+00 0.  1.
        -11    1    4    4    0    0  0.35909461416E-01 -0.27087596388E-01 -0.16384917028E-01  0.47874355602E-01  0.51100000000E-03 0.  1.
         11    1    4    4    0    0  0.48896692219E-01 -0.41636128182E-01 -0.47376751339E-01  0.79807714968E-01  0.51100000000E-03 0. -1.
</event>
<event>
 8    1  0.1129676E+005  0.1043930E+01  0.7957747E-01            NaN
         13   -1    0    0    0    0  0.00000000000E+00  0.00000000000E+00  0.74505805969E-08  0.10566000000E+00  0.10566000000E+00 0. -1.
     999900   -1    0    0    0    0 -0.00000000000E+00 -0.00000000000E+00 -0.74505805969E-08  0.93827000000E+00  0.93827000000E+00 0.  1.
     999902    2    1    2    0    0 -0.21050082261E-01 -0.31664292075E-02  0.96262035787E-02  0.10205677220E+01  0.10203002887E+01 0.  0.
     999903    2    3    3    0    0 -0.32981029488E-01 -0.91215216848E-01 -0.86071948364E-01  0.13093123851E+00  0.18073318225E-01 0.  0.
         14    1    1    2    0    0  0.21050082261E-01  0.31664292075E-02 -0.96262035787E-02  0.23362277981E-01  0.00000000000E+00 0.  1.
     999901    1    3    3    0    0  0.11930947227E-01  0.88048787641E-01  0.95698151943E-01  0.88963648351E+00  0.88000000000E+00 0. -1.
        -11    1    4    4    0    0 -0.10385590564E-01 -0.41043461570E-01 -0.27084343086E-01  0.50261804488E-01  0.51100000000E-03 0. -1.
         11    1    4    4    0    0 -0.22595438924E-01 -0.50171755278E-01 -0.58987605278E-01  0.80669434021E-01  0.51100000000E-03 0.  1.
</event>
<event>
 8    1  0.1129676E+005  0.1043930E+01  0.7957747E-01            NaN
         13   -1    0    0    0    0  0.00000000000E+00  0.00000000000E+00  0.74505805969E-08  0.10566000000E+00  0.10566000000E+00 0.  1.
     999900   -1    0    0    0    0 -0.00000000000E+00 -0.00000000000E+00 -0.74505805969E-08  0.93827000000E+00  0.93827000000E+00 0. -1.
     999902    2    1    2    0    0 -0.12289022410E-01 -0.26805606763E-01  0.23598243747E-02  0.10143474140E+01  0.10139159466E+01 0.  0.
     999903    2    3    3    0    0 -0.11367325292E-01 -0.10845393105E+00  0.65209674927E-01  0.12833533611E+00  0.18060607587E-01 0.  0.
         14    1    1    2    0    0  0.12289022410E-01  0.26805606763E-01 -0.23598243747E-02  0.29582586040E-01  0.00000000000E+00 0. -1.
     999901    1    3    3    0    0 -0.92169711856E-03  0.81648324282E-01 -0.62849850552E-01  0.88601207785E+00  0.88000000000E+00 0. -1.
        -11    1    4    4    0    0 -0.90875255145E-02 -0.19416309571E-01  0.11661782073E-01  0.24409721003E-01  0.51100000000E-03 0. -1.
         11    1    4    4    0    0 -0.22797997774E-02 -0.89037621475E-01  0.53547892854E-01  0.10392561511E+00  0.51100000000E-03 0.  1.
</event>
<event>
 8    1  0.1129676E+005  0.1043930E+01  0.7957747E-01            NaN
         13   -1    0    0    0    0  0.00000000000E+00  0.00000000000E+00  0.74505805969E-08  0.10566000000E+00  0.10566000000E+00 0.  1.
     999900   -1    0    0    0    0 -0.00000000000E+00 -0.00000000000E+00 -0.74505805969E-08  0.93827000000E+00  0.93827000000E+00 0. -1.
     999902    2    1    2    0    0  0.25808543898E-01  0.12815088960E-01  0.35508405451E-03  0.10151127564E+01  0.10147036389E+01 0.  0.
     999903    2    3    3    0    0  0.89113277712E-01  0.79509966709E-01  0.46751244343E-01  0.12910581528E+00  0.14819636367E-01 0.  0.
         14    1    1    2    0    0 -0.25808543898E-01 -0.12815088960E-01 -0.35508405451E-03  0.28817243585E-01  0.00000000000E+00 0. -1.
     999901    1    3    3    0    0 -0.63304733814E-01 -0.66694877750E-01 -0.46396160288E-01  0.88600694113E+00  0.88000000000E+00 0. -1.
        -11    1    4    4    0    0  0.34161896413E-01  0.38233254581E-01  0.15195541754E-01  0.53478804517E-01  0.51100000000E-03 0.  1.
         11    1    4    4    0    0  0.54951381299E-01  0.41276712129E-01  0.31555702588E-01  0.75627010768E-01  0.51100000000E-03 0. -1.
</event>
<event>
 8    1  0.1129676E+005  0.1043930E+01  0.7957747E-01            NaN
         13   -1    0    0    0    0  0.00000000000E+00  0.00000000000E+00  0.74505805969E-08  0.10566000000E+00  0.10566000000E+00 0. -1.
     999900   -1    0    0    0    0 -0.00000000000E+00 -0.00000000000E+00 -0.74505805969E-08  0.93827000000E+00  0.93827000000E+00 0. -1.
     999902    2    1    2    0    0 -0.59269744932E-02 -0.14332073393E-01  0.17850164357E-01  0.10202833148E+01  0.10200092532E+01 0.  0.
     999903    2    3    3    0    0 -0.98271841883E-01  0.71860009828E-01 -0.35938406431E-01  0.12963756023E+00  0.26327021230E-01 0.  0.
         14    1    1    2    0    0  0.59269744932E-02  0.14332073393E-01 -0.17850164357E-01  0.23646685221E-01  0.00000000000E+00 0. -1.
     999901    1    3    3    0    0  0.92344867390E-01 -0.86192083221E-01  0.53788570788E-01  0.89064575455E+00  0.88000000000E+00 0.  1.
        -11    1    4    4    0    0 -0.47656214843E-01  0.45264257045E-01 -0.87010515038E-02  0.66301864206E-01  0.51100000000E-03 0.  1.
         11    1    4    4    0    0 -0.50615627040E-01  0.26595752783E-01 -0.27237354927E-01  0.63335696027E-01  0.51100000000E-03 0. -1.
</event>
<event>
 8    1  0.1129676E+005  0.1043930E+01  0.7957747E-01            NaN
         13   -1    0    0    0    0  0.00000000000E+00  0.00000000000E+00  0.74505805969E-08  0.10566000000E+00  0.10566000000E+00 0.  1.
     999900   -1    0    0    0    0 -0.00000000000E+00 -0.00000000000E+00 -0.74505805969E-08  0.93827000000E+00  0.93827000000E+00 0. -1.
     999902    2    1    2    0    0  0.23103129461E-01 -0.15498223949E-02  0.62139620624E-02  0.10199556415E+01  0.10196738404E+01 0.  0.
     999903    2    3    3    0    0  0.10825970288E-01  0.11790154972E+00 -0.49865387530E-01  0.13003190748E+00  0.20093855564E-01 0.  0.
         14    1    1    2    0    0 -0.23103129461E-01  0.15498223949E-02 -0.62139620624E-02  0.23974358487E-01  0.00000000000E+00 0.  1.
     999901    1    3    3    0    0  0.12277159173E-01 -0.11945137211E+00  0.56079349593E-01  0.88992373403E+00  0.88000000000E+00 0. -1.
        -11    1    4    4    0    0  0.33220016014E-02  0.30703649646E-01 -0.37777843203E-02  0.31117239138E-01  0.51100000000E-03 0. -1.
         11    1    4    4    0    0  0.75039686867E-02  0.87197900073E-01 -0.46087603210E-01  0.98914668345E-01  0.51100000000E-03 0.  1.
</event>
<event>
 8    1  0.1129676E+005  0.1043930E+01  0.7957747E-01            NaN
         13   -1    0    0    0    0  0.00000000000E+00  0.00000000000E+00  0.74505805969E-08  0.10566000000E+00  0.10566000000E+00 0.  1.
     999900   -1    0    0    0    0 -0.00000000000E+00 -0.00000000000E+00 -0.74505805969E-08  0.93827000000E+00  0.93827000000E+00 0. -1.
     999902    2    1    2    0    0  0.50863565751E-02 -0.22860498512E-01 -0.41424061383E-02  0.10201469610E+01  0.10198696922E+01 0.  0.
     999903    2    3    3    0    0 -0.11485715630E+00 -0.35844354692E-01  0.46372794348E-01  0.13048027494E+00  0.19941965213E-01 0.  0.
         14    1    1    2    0    0 -0.50863565751E-02  0.22860498512E-01  0.41424061383E-02  0.23783039000E-01  0.00000000000E+00 0.  1.
     999901    1    3    3    0    0  0.11994351288E+00  0.12983856179E-01 -0.50515200487E-01  0.88966668606E+00  0.88000000000E+00 0.  1.
        -11    1    4    4    0    0 -0.89704113211E-01 -0.21266632800E-01  0.29173667532E-01  0.96697784856E-01  0.51100000000E-03 0.  1.
         11    1    4    4    0    0 -0.25153043089E-01 -0.14577721892E-01  0.17199126816E-01  0.33782490086E-01  0.51100000000E-03 0. -1.
</event>
<event>
 7    1  0.1129676E+005  0.1043930E+01  0.7957747E-01            NaN
         13   -1    0    0    0    0  0.00000000000E+00  0.00000000000E+00  0.74505805969E-08  0.10566000000E+00  0.10566000000E+00 0. -1.
     999900   -1    0    0    0    0 -0.00000000000E+00 -0.00000000000E+00 -0.74505805969E-08  0.93827000000E+00  0.93827000000E+00 0. -1.
     999903    2    1    2    0    0 -0.25844483714E-01  0.83939683804E-01  0.44600768745E-01  0.10048460058E+00  0.19852418609E-01 0.  0.
         14    1    1    2    0    0 -0.92538576085E-02 -0.54809425790E-01  0.21932978960E-01  0.59755858308E-01  0.00000000000E+00 0.  1.
     999901    1    1    2    0    0  0.35098341322E-01 -0.29130258015E-01 -0.66533747705E-01  0.88368954112E+00  0.88000000000E+00 0. -1.
        -11    1    3    3    0    0 -0.29170913894E-01  0.76655272536E-01  0.40652046186E-01  0.91541373187E-01  0.51100000000E-03 0.  1.
         11    1    3    3    0    0  0.33264301801E-02  0.72844112684E-02  0.39487225588E-02  0.89432273882E-02  0.51100000000E-03 0. -1.
</event>
<event>
 8    1  0.1129676E+005  0.1043930E+01  0.7957747E-01            NaN
         13   -1    0    0    0    0  0.00000000000E+00  0.00000000000E+00  0.74505805969E-08  0.10566000000E+00  0.10566000000E+00 0.  1.
     999900   -1    0    0    0    0 -0.00000000000E+00 -0.00000000000E+00 -0.74505805969E-08  0.93827000000E+00  0.93827000000E+00 0. -1.
     999902    2    1    2    0    0  0.12395415097E-01 -0.20751283598E-01 -0.48491537897E-02  0.10192768789E+01  0.10189786943E+01 0.  0.
     999903    2    3    3    0    0 -0.99545427117E-01  0.75878927636E-01  0.33403626082E-02  0.12690071493E+00  0.20633218575E-01 0.  0.
         14    1    1    2    0    0 -0.12395415097E-01  0.20751283598E-01  0.48491537897E-02  0.24653121078E-01  0.00000000000E+00 0.  1.
     999901    1    3    3    0    0  0.11194084221E+00 -0.96630211234E-01 -0.81895163979E-02  0.89237616399E+00  0.88000000000E+00 0.  1.
        -11    1    4    4    0    0 -0.73223054570E-01  0.66135932669E-01  0.36358894119E-03  0.98671022233E-01  0.51100000000E-03 0.  1.
         11    1    4    4    0    0 -0.26322372547E-01  0.97429949676E-02  0.29767736670E-02  0.28229692699E-01  0.51100000000E-03 0. -1.
</event>
<event>
 8    1  0.1129676E+005  0.1043930E+01  0.7957747E-01            NaN
         13   -1    0    0    0    0  0.00000000000E+00  0.00000000000E+00  0.74505805969E-08  0.10566000000E+00  0.10566000000E+00 0.  1.
     999900   -1    0    0    0    0 -0.00000000000E+00 -0.00000000000E+00 -0.74505805969E-08  0.93827000000E+00  0.93827000000E+00 0.  1.
     999902    2    1    2    0    0 -0.17338120042E-01 -0.14226265817E-01 -0.45385641922E-02  0.10210477883E+01  0.10207913550E+01 0.  0.
     999903    2    3    3    0    0  0.23600180653E-01  0.12520556411E+00 -0.62189446562E-02  0.12912850761E+00  0.20052291438E-01 0.  0.
         14    1    1    2    0    0  0.17338120042E-01  0.14226265817E-01  0.45385641922E-02  0.22882211663E-01  0.00000000000E+00 0.  1.
     999901    1    3    3    0    0 -0.40938300695E-01 -0.13943182993E+00  0.16803804640E-02  0.89191928073E+00  0.88000000000E+00 0.  1.
        -11    1    4    4    0    0  0.15097336981E-01  0.11295670936E+00 -0.70972322699E-02  0.11418309683E+00  0.51100000000E-03 0. -1.
         11    1    4    4    0    0  0.85028436721E-02  0.12248854750E-01  0.87828761372E-03  0.14945410779E-01  0.51100000000E-03 0.  1.
</event>
<event>
 8    1  0.1129676E+005  0.1043930E+01  0.7957747E-01            NaN
         13   -1    0    0    0    0  0.00000000000E+00  0.00000000000E+00  0.74505805969E-08  0.10566000000E+00  0.10566000000E+00 0. -1.
     999900   -1    0    0    0    0 -0.00000000000E+00 -0.00000000000E+00 -0.74505805969E-08  0.93827000000E+00  0.93827000000E+00 0.  1.
     999902    2    1    2    0    0  0.11915223463E-01 -0.17211155111E-01 -0.11346757884E-01  0.10201193863E+01  0.10198414666E+01 0.  0.
     999903    2    3    3    0    0 -0.12115283053E+00  0.29826506116E-01  0.22165027543E-01  0.12824344855E+00  0.19684126562E-01 0.  0.
         14    1    1    2    0    0 -0.11915223463E-01  0.17211155111E-01  0.11346757884E-01  0.23810613703E-01  0.00000000000E+00 0.  1.
     999901    1    3    3    0    0  0.13306805399E+00 -0.47037661227E-01 -0.33511785427E-01  0.89187593775E+00  0.88000000000E+00 0. -1.
        -11    1    4    4    0    0 -0.44318440089E-01  0.19874447218E-01  0.45325763182E-02  0.48784456062E-01  0.51100000000E-03 0.  1.
         11    1    4    4    0    0 -0.76834390438E-01  0.99520588989E-02  0.17632451225E-01  0.79458992490E-01  0.51100000000E-03 0. -1.
</event>
<event>
 8    1  0.1129676E+005  0.1043930E+01  0.7957747E-01            NaN
         13   -1    0    0    0    0  0.00000000000E+00  0.00000000000E+00  0.74505805969E-08  0.10566000000E+00  0.10566000000E+00 0. -1.
     999900   -1    0    0    0    0 -0.00000000000E+00 -0.00000000000E+00 -0.74505805969E-08  0.93827000000E+00  0.93827000000E+00 0. -1.
     999902    2    1    2    0    0  0.23173994963E-01 -0.28404428176E-02  0.22373589059E-02  0.10204756202E+01  0.10202060495E+01 0.  0.
     999903    2    3    3    0    0 -0.43038705914E-01  0.71823033636E-01  0.97442756414E-01  0.12973277054E+00  0.18017286316E-01 0.  0.
         14    1    1    2    0    0 -0.23173994963E-01  0.28404428176E-02 -0.22373589059E-02  0.23454379822E-01  0.00000000000E+00 0.  1.
     999901    1    3    3    0    0  0.66212700877E-01 -0.74663476453E-01 -0.95205397508E-01  0.89074284964E+00  0.88000000000E+00 0. -1.
        -11    1    4    4    0    0 -0.13758480783E-01  0.28308925036E-01  0.24499162301E-01  0.39889360795E-01  0.51100000000E-03 0.  1.
         11    1    4    4    0    0 -0.29280225131E-01  0.43514108599E-01  0.72943594113E-01  0.89843409742E-01  0.51100000000E-03 0. -1.
</event>
<event>
 8    1  0.1129676E+005  0.1043930E+01  0.7957747E-01            NaN
         13   -1    0    0    0    0  0.00000000000E+00  0.00000000000E+00  0.74505805969E-08  0.10566000000E+00  0.10566000000E+00 0. -1.
     999900   -1    0    0    0    0 -0.00000000000E+00 -0.00000000000E+00 -0.74505805969E-08  0.93827000000E+00  0.93827000000E+00 0. -1.
     999902    2    1    2    0    0  0.14530449809E-01  0.51761358903E-02 -0.17400000972E-01  0.10206773359E+01  0.10204124351E+01 0.  0.
     999903    2    3    3    0    0  0.27716105774E-01  0.11845222289E+00 -0.49356476202E-01  0.13274347027E+00  0.19638114204E-01 0.  0.
         14    1    1    2    0    0 -0.14530449809E-01 -0.51761358903E-02  0.17400000972E-01  0.23252664110E-01  0.00000000000E+00 0.  1.
     999901    1    3    3    0    0 -0.13185655964E-01 -0.11327608700E+00  0.31956475230E-01  0.88793386562E+00  0.88000000000E+00 0. -1.
        -11    1    4    4    0    0  0.22236525113E-01  0.97097780207E-01 -0.31829587679E-01  0.10457449853E+00  0.51100000000E-03 0.  1.
         11    1    4    4    0    0  0.54795806611E-02  0.21354442680E-01 -0.17526888523E-01  0.28168971737E-01  0.51100000000E-03 0. -1.
</event>
<event>
 8    1  0.1129676E+005  0.1043930E+01  0.7957747E-01            NaN
         13   -1    0    0    0    0  0.00000000000E+00  0.00000000000E+00  0.74505805969E-08  0.10566000000E+00  0.10566000000E+00 0.  1.
     999900   -1    0    0    0    0 -0.00000000000E+00 -0.00000000000E+00 -0.74505805969E-08  0.93827000000E+00  0.93827000000E+00 0. -1.
     999902    2    1    2    0    0 -0.32366083541E-02 -0.15200181441E-01  0.17905575173E-01  0.10202207028E+01  0.10199451709E+01 0.  0.
     999903    2    3    3    0    0  0.40453408175E-03  0.55416803948E-01  0.11873171666E+00  0.13164547960E+00  0.12732868968E-01 0.  0.
         14    1    1    2    0    0  0.32366083541E-02  0.15200181441E-01 -0.17905575173E-01  0.23709297159E-01  0.00000000000E+00 0. -1.
     999901    1    3    3    0    0 -0.36411424358E-02 -0.70616985389E-01 -0.10082614148E+00  0.88857522324E+00  0.88000000000E+00 0. -1.
        -11    1    4    4    0    0  0.60990557955E-02  0.38936731068E-01  0.82997651116E-01  0.91881111876E-01  0.51100000000E-03 0.  1.
         11    1    4    4    0    0 -0.56945217137E-02  0.16480072880E-01  0.35734065542E-01  0.39764367728E-01  0.51100000000E-03 0. -1.
</event>
<event>
 8    1  0.1129676E+005  0.1043930E+01  0.7957747E-01            NaN
         13   -1    0    0    0    0  0.00000000000E+00  0.00000000000E+00  0.74505805969E-08  0.10566000000E+00  0.10566000000E+00 0.  1.
     999900   -1    0    0    0    0 -0.00000000000E+00 -0.00000000000E+00 -0.74505805969E-08  0.93827000000E+00  0.93827000000E+00 0. -1.
     999902    2    1    2    0    0  0.13210479559E-01  0.11871558265E-01 -0.16586527633E-01  0.10196284864E+01  0.10193388478E+01 0.  0.
     999903    2    3    3    0    0 -0.27525361180E-01 -0.27108152495E-01 -0.12376255988E+00  0.13133488149E+00  0.20956679797E-01 0.  0.
         14    1    1    2    0    0 -0.13210479559E-01 -0.11871558265E-01  0.16586527633E-01  0.24301513631E-01  0.00000000000E+00 0.  1.
     999901    1    3    3    0    0  0.40735840739E-01  0.38979710760E-01  0.10717603225E+00  0.88829360487E+00  0.88000000000E+00 0. -1.
        -11    1    4    4    0    0 -0.15818882563E-01 -0.21806085795E-01 -0.53468331304E-01  0.59873750482E-01  0.51100000000E-03 0. -1.
         11    1    4    4    0    0 -0.11706478617E-01 -0.53020666995E-02 -0.70294228581E-01  0.71461131013E-01  0.51100000000E-03 0.  1.
</event>
<event>
 8    1  0.1129676E+005  0.1043930E+01  0.7957747E-01            NaN
         13   -1    0    0    0    0  0.00000000000E+00  0.00000000000E+00  0.74505805969E-08  0.10566000000E+00  0.10566000000E+00 0.  1.
     999900   -1    0    0    0    0 -0.00000000000E+00 -0.00000000000E+00 -0.74505805969E-08  0.93827000000E+00  0.93827000000E+00 0.  1.
     999902    2    1    2    0    0  0.93809302680E-02 -0.20531480044E-01 -0.75879777422E-02  0.10201156990E+01  0.10198376922E+01 0.  0.
     999903    2    3    3    0    0 -0.51868984443E-01  0.11952218390E-01  0.11692821828E+00  0.12865003742E+00  0.67362323770E-02 0.  0.
         14    1    1    2    0    0 -0.93809302680E-02  0.20531480044E-01  0.75879777422E-02  0.23814300991E-01  0.00000000000E+00 0.  1.
     999901    1    3    3    0    0  0.61249914711E-01 -0.32483698434E-01 -0.12451619602E+00  0.89146566159E+00  0.88000000000E+00 0.  1.
        -11    1    4    4    0    0 -0.17855914819E-01  0.24489286941E-02  0.46194153425E-01  0.49588223172E-01  0.51100000000E-03 0.  1.
         11    1    4    4    0    0 -0.34013069624E-01  0.95032896957E-02  0.70734064857E-01  0.79061814249E-01  0.51100000000E-03 0. -1.
</event>
<event>
 8    1  0.1129676E+005  0.1043930E+01  0.7957747E-01            NaN
         13   -1    0    0    0    0  0.00000000000E+00  0.00000000000E+00  0.74505805969E-08  0.10566000000E+00  0.10566000000E+00 0.  1.
     999900   -1    0    0    0    0 -0.00000000000E+00 -0.00000000000E+00 -0.74505805969E-08  0.93827000000E+00  0.93827000000E+00 0. -1.
     999902    2    1    2    0    0 -0.16932009179E-01  0.74272979158E-02 -0.16079399097E-01  0.10194268417E+01  0.10191323177E+01 0.  0.
     999903    2    3    3    0    0  0.49571459053E-01  0.14814625280E-01  0.11457812851E+00  0.12726728572E+00  0.19799287987E-01 0.  0.
         14    1    1    2    0    0  0.16932009179E-01 -0.74272979158E-02  0.16079399097E-01  0.24503158255E-01  0.00000000000E+00 0. -1.
     999901    1    3    3    0    0 -0.66503468232E-01 -0.73873273645E-02 -0.13065752761E+00  0.89215955603E+00  0.88000000000E+00 0. -1.
        -11    1    4    4    0    0  0.34403038208E-01  0.10514300603E-01  0.97944569952E-01  0.10434327702E+00  0.51100000000E-03 0.  1.
         11    1    4    4    0    0  0.15168420845E-01  0.43003246768E-02  0.16633558563E-01  0.22924008696E-01  0.51100000000E-03 0. -1.
</event>
<event>
 8    1  0.1129676E+005  0.1043930E+01  0.7957747E-01            NaN
         13   -1    0    0    0    0  0.00000000000E+00  0.00000000000E+00  0.74505805969E-08  0.10566000000E+00  0.10566000000E+00 0. -1.
     999900   -1    0    0    0    0 -0.00000000000E+00 -0.00000000000E+00 -0.74505805969E-08  0.93827000000E+00  0.93827000000E+00 0.  1.
     999902    2    1    2    0    0  0.19107923632E-01 -0.43899676978E-02  0.12740748389E-01  0.10205481431E+01  0.10202802562E+01 0.  0.
     999903    2    3    3    0    0  0.62233903278E-01 -0.74095860299E-01  0.89189034433E-01  0.13343873497E+00  0.22089746395E-01 0.  0.
         14    1    1    2    0    0 -0.19107923632E-01  0.43899676978E-02 -0.12740748389E-01  0.23381856886E-01  0.00000000000E+00 0.  1.
     999901    1    3    3    0    0 -0.43125979646E-01  0.69705892601E-01 -0.76448286044E-01  0.88710940815E+00  0.88000000000E+00 0. -1.
        -11    1    4    4    0    0  0.90542164522E-02 -0.24847371855E-01  0.19236659555E-01  0.32705976755E-01  0.51100000000E-03 0.  1.
         11    1    4    4    0    0  0.53179686826E-01 -0.49248488444E-01  0.69952374878E-01  0.10073275821E+00  0.51100000000E-03 0. -1.
</event>
<event>
 8    1  0.1129676E+005  0.1043930E+01  0.7957747E-01            NaN
         13   -1    0    0    0    0  0.00000000000E+00  0.00000000000E+00  0.74505805969E-08  0.10566000000E+00  0.10566000000E+00 0. -1.
     999900   -1    0    0    0    0 -0.00000000000E+00 -0.00000000000E+00 -0.74505805969E-08  0.93827000000E+00  0.93827000000E+00 0.  1.
     999902    2    1    2    0    0  0.21948823585E-01 -0.94482200780E-02  0.34115551615E-02  0.10197916813E+01  0.10195059661E+01 0.  0.
     999903    2    3    3    0    0  0.71352443673E-01  0.56722654766E-01  0.92661754049E-01  0.13143088731E+00  0.19474257218E-01 0.  0.
         14    1    1    2    0    0 -0.21948823585E-01  0.94482200780E-02 -0.34115551615E-02  0.24138318666E-01  0.00000000000E+00 0.  1.
     999901    1    3    3    0    0 -0.49403620088E-01 -0.66170874844E-01 -0.89250198887E-01  0.88836079402E+00  0.88000000000E+00 0.  1.
        -11    1    4    4    0    0  0.29103843568E-01  0.32438584227E-01  0.52850299229E-01  0.68503362740E-01  0.51100000000E-03 0.  1.
         11    1    4    4    0    0  0.42248600105E-01  0.24284070539E-01  0.39811454820E-01  0.62927524571E-01  0.51100000000E-03 0. -1.
</event>
<event>
 8    1  0.1129676E+005  0.1043930E+01  0.7957747E-01            NaN
         13   -1    0    0    0    0  0.00000000000E+00  0.00000000000E+00  0.74505805969E-08  0.10566000000E+00  0.10566000000E+00 0.  1.
     999900   -1    0    0    0    0 -0.00000000000E+00 -0.00000000000E+00 -0.74505805969E-08  0.93827000000E+00  0.93827000000E+00 0. -1.
     999902    2    1    2    0    0  0.21869824754E-02  0.19214131062E-01 -0.13745830232E-01  0.10202042003E+01  0.10199282801E+01 0.  0.
     999903    2    3    3    0    0  0.56624502871E-01 -0.79121003240E-01 -0.84303407566E-01  0.13025385670E+00  0.19812500600E-01 0.  0.
         14    1    1    2    0    0 -0.21869824754E-02 -0.19214131062E-01  0.13745830232E-01  0.23725799746E-01  0.00000000000E+00 0.  1.
     999901    1    3    3    0    0 -0.54437520396E-01  0.98335134302E-01  0.70557577334E-01  0.88995034355E+00  0.88000000000E+00 0.  1.
        -11    1    4    4    0    0  0.21893143422E-01 -0.38076483890E-01 -0.26459709975E-01  0.51278706373E-01  0.51100000000E-03 0.  1.
         11    1    4    4    0    0  0.34731359449E-01 -0.41044519350E-01 -0.57843697591E-01  0.78975150331E-01  0.51100000000E-03 0. -1.
</event>
<event>
 8    1  0.1129676E+005  0.1043930E+01  0.7957747E-01            NaN
         13   -1    0    0    0    0  0.00000000000E+00  0.00000000000E+00  0.74505805969E-08  0.10566000000E+00  0.10566000000E+00 0. -1.
     999900   -1    0    0    0    0 -0.00000000000E+00 -0.00000000000E+00 -0.74505805969E-08  0.93827000000E+00  0.93827000000E+00 0.  1.
     999902    2    1    2    0    0  0.40094371712E-02 -0.24024195118E-01  0.46521876275E-02  0.10191332182E+01  0.10188315052E+01 0.  0.
     999903    2    3    3    0    0 -0.30882159141E-02 -0.90591953809E-01  0.93994816855E-01  0.13207981025E+00  0.19839644836E-01 0.  0.
         14    1    1    2    0    0 -0.40094371712E-02  0.24024195118E-01 -0.46521876275E-02  0.24796781791E-01  0.00000000000E+00 0. -1.
     999901    1    3    3    0    0  0.70976530853E-02  0.66567758691E-01 -0.89342629228E-01  0.88705340796E+00  0.88000000000E+00 0. -1.
        -11    1    4    4    0    0 -0.11299494825E-01 -0.41515253657E-01  0.43752403590E-01  0.61365534385E-01  0.51100000000E-03 0.  1.
         11    1    4    4    0    0  0.82112789106E-02 -0.49076700152E-01  0.50242413265E-01  0.70714275863E-01  0.51100000000E-03 0. -1.
</event>
<event>
 8    1  0.1129676E+005  0.1043930E+01  0.7957747E-01            NaN
         13   -1    0    0    0    0  0.00000000000E+00  0.00000000000E+00  0.74505805969E-08  0.10566000000E+00  0.10566000000E+00 0.  1.
     999900   -1    0    0    0    0 -0.00000000000E+00 -0.00000000000E+00 -0.74505805969E-08  0.93827000000E+00  0.93827000000E+00 0.  1.
     999902    2    1    2    0    0  0.22878839760E-01  0.46497522078E-02 -0.14048154956E-02  0.10205412204E+01  0.10202731730E+01 0.  0.
     999903    2    3    3    0    0  0.76119319908E-01 -0.10509697765E+00  0.14981083735E-01  0.13197642753E+00  0.18810076531E-01 0.  0.
         14    1    1    2    0    0 -0.22878839760E-01 -0.46497522078E-02  0.14048154956E-02  0.23388779595E-01  0.00000000000E+00 0.  1.
     999901    1    3    3    0    0 -0.53240480148E-01  0.10974672986E+00 -0.16385899230E-01  0.88856479287E+00  0.88000000000E+00 0.  1.
        -11    1    4    4    0    0  0.25815092834E-01 -0.45324236668E-01 -0.12721883745E-02  0.52178396218E-01  0.51100000000E-03 0. -1.
         11    1    4    4    0    0  0.50304227074E-01 -0.59772740984E-01  0.16253272109E-01  0.79798031313E-01  0.51100000000E-03 0.  1.
</event>
<event>
 8    1  0.1129676E+005  0.1043930E+01  0.7957747E-01            NaN
         13   -1    0    0    0    0  0.00000000000E+00  0.00000000000E+00  0.74505805969E-08  0.10566000000E+00  0.10566000000E+00 0.  1.
     999900   -1    0    0    0    0 -0.00000000000E+00 -0.00000000000E+00 -0.74505805969E-08  0.93827000000E+00  0.93827000000E+00 0. -1.
     999902    2    1    2    0    0  0.76050452507E-02 -0.18086387624E-01 -0.13249958275E-01  0.10202547909E+01  0.10199800600E+01 0.  0.
     999903    2    3    3    0    0  0.78417251129E-01  0.54688087464E-01  0.83934536768E-01  0.12910086550E+00  0.21953925034E-01 0.  0.
         14    1    1    2    0    0 -0.76050452507E-02  0.18086387624E-01  0.13249958275E-01  0.23675209077E-01  0.00000000000E+00 0. -1.
     999901    1    3    3    0    0 -0.70812205878E-01 -0.72774475088E-01 -0.97184495043E-01  0.89115392543E+00  0.88000000000E+00 0. -1.
        -11    1    4    4    0    0  0.33354359271E-01  0.10728691208E-01  0.27304163420E-01  0.44422928297E-01  0.51100000000E-03 0. -1.
         11    1    4    4    0    0  0.45062891858E-01  0.43959396257E-01  0.56630373348E-01  0.84677937200E-01  0.51100000000E-03 0.  1.
</event>
<event>
 8    1  0.1129676E+005  0.1043930E+01  0.7957747E-01            NaN
         13   -1    0    0    0    0  0.00000000000E+00  0.00000000000E+00  0.74505805969E-08  0.10566000000E+00  0.10566000000E+00 0.  1.
     999900   -1    0    0    0    0 -0.00000000000E+00 -0.00000000000E+00 -0.74505805969E-08  0.93827000000E+00  0.93827000000E+00 0.  1.
     999902    2    1    2    0    0  0.13483154282E-01  0.18827628597E-01 -0.36693687929E-02  0.10204834797E+01  0.10202140917E+01 0.  0.
     999903    2    3    3    0    0  0.12947258745E+00 -0.77290598655E-02  0.17395667331E-01  0.13222532911E+00  0.18921922420E-01 0.  0.
         14    1    1    2    0    0 -0.13483154282E-01 -0.18827628597E-01  0.36693687929E-02  0.23446520324E-01  0.00000000000E+00 0.  1.
     999901    1    3    3    0    0 -0.11598943317E+00  0.26556688462E-01 -0.21065036124E-01  0.88825815057E+00  0.88000000000E+00 0.  1.
        -11    1    4    4    0    0  0.46944054969E-01 -0.23991859564E-02 -0.28057536670E-02  0.47091758991E-01  0.51100000000E-03 0. -1.
         11    1    4    4    0    0  0.82528532479E-01 -0.53298739090E-02  0.20201420998E-01  0.85133570114E-01  0.51100000000E-03 0.  1.
</event>
<event>
 8    1  0.1129676E+005  0.1043930E+01  0.7957747E-01            NaN
         13   -1    0    0    0    0  0.00000000000E+00  0.00000000000E+00  0.74505805969E-08  0.10566000000E+00  0.10566000000E+00 0. -1.
     999900   -1    0    0    0    0 -0.00000000000E+00 -0.00000000000E+00 -0.74505805969E-08  0.93827000000E+00  0.93827000000E+00 0.  1.
     999902    2    1    2    0    0  0.16876414951E-01  0.54464331063E-02 -0.16913980266E-01  0.10194236795E+01  0.10191290785E+01 0.  0.
     999903    2    3    3    0    0  0.98038981803E-01 -0.23926617272E-01 -0.83723167640E-01  0.13268042137E+00  0.20258342701E-01 0.  0.
         14    1    1    2    0    0 -0.16876414951E-01 -0.54464331063E-02  0.16913980266E-01  0.24506320483E-01  0.00000000000E+00 0. -1.
     999901    1    3    3    0    0 -0.81162566852E-01  0.29373050378E-01  0.66809187374E-01  0.88674325814E+00  0.88000000000E+00 0.  1.
        -11    1    4    4    0    0  0.78733936010E-01 -0.11978764259E-01 -0.70740491578E-01  0.10652230631E+00  0.51100000000E-03 0.  1.
         11    1    4    4    0    0  0.19305045793E-01 -0.11947853013E-01 -0.12982676061E-01  0.26158115059E-01  0.51100000000E-03 0. -1.
</event>
<event>
 8    1  0.1129676E+005  0.1043930E+01  0.7957747E-01            NaN
         13   -1    0    0    0    0  0.00000000000E+00  0.00000000000E+00  0.74505805969E-08  0.10566000000E+00  0.10566000000E+00 0.  1.
     999900   -1    0    0    0    0 -0.00000000000E+00 -0.00000000000E+00 -0.74505805969E-08  0.93827000000E+00  0.93827000000E+00 0. -1.
     999902    2    1    2    0    0 -0.14035381334E-01 -0.91458712119E-02 -0.16729211687E-01  0.10202550045E+01  0.10199802786E+01 0.  0.
     999903    2    3    3    0    0 -0.33872017727E-01  0.10804269163E-01  0.12226809688E+00  0.12890111738E+00  0.20049058120E-01 0.  0.
         14    1    1    2    0    0  0.14035381334E-01  0.91458712119E-02  0.16729211687E-01  0.23674995524E-01  0.00000000000E+00 0.  1.
     999901    1    3    3    0    0  0.19836636393E-01 -0.19950140375E-01 -0.13899730857E+00  0.89135388709E+00  0.88000000000E+00 0. -1.
        -11    1    4    4    0    0 -0.26975325645E-01  0.64338429550E-02  0.60035148927E-01  0.66132766134E-01  0.51100000000E-03 0.  1.
         11    1    4    4    0    0 -0.68966920817E-02  0.43704262083E-02  0.62232947952E-01  0.62768351250E-01  0.51100000000E-03 0. -1.
</event>
<event>
 8    1  0.1129676E+005  0.1043930E+01  0.7957747E-01            NaN
         13   -1    0    0    0    0  0.00000000000E+00  0.00000000000E+00  0.74505805969E-08  0.10566000000E+00  0.10566000000E+00 0.  1.
     999900   -1    0    0    0    0 -0.00000000000E+00 -0.00000000000E+00 -0.74505805969E-08  0.93827000000E+00  0.93827000000E+00 0. -1.
     999902    2    1    2    0    0  0.28470929810E-02  0.11159640476E-01 -0.19210860041E-01  0.10215313246E+01  0.10212857321E+01 0.  0.
     999903    2    3    3    0    0  0.81584103427E-01  0.59103061855E-01  0.81359163304E-01  0.13101887776E+00  0.19937277226E-01 0.  0.
         14    1    1    2    0    0 -0.28470929810E-02 -0.11159640476E-01  0.19210860041E-01  0.22398675352E-01  0.00000000000E+00 0.  1.
     999901    1    3    3    0    0 -0.78737010446E-01 -0.47943421380E-01 -0.10057002335E+00  0.89051244689E+00  0.88000000000E+00 0. -1.
        -11    1    4    4    0    0  0.24070969114E-01  0.16870893941E-01  0.35949116539E-01  0.46439624432E-01  0.51100000000E-03 0. -1.
         11    1    4    4    0    0  0.57513134313E-01  0.42232167914E-01  0.45410046765E-01  0.84579253328E-01  0.51100000000E-03 0.  1.
</event>
<event>
 8    1  0.1129676E+005  0.1043930E+01  0.7957747E-01            NaN
         13   -1    0    0    0    0  0.00000000000E+00  0.00000000000E+00  0.74505805969E-08  0.10566000000E+00  0.10566000000E+00 0. -1.
     999900   -1    0    0    0    0 -0.00000000000E+00 -0.00000000000E+00 -0.74505805969E-08  0.93827000000E+00  0.93827000000E+00 0.  1.
     999902    2    1    2    0    0 -0.13940382934E-01  0.72671757354E-02 -0.21428713822E-01  0.10173530194E+01  0.10170058162E+01 0.  0.
     999903    2    3    3    0    0  0.98213205007E-01 -0.20869482233E-01 -0.77072883810E-01  0.12804633867E+00  0.19345968626E-01 0.  0.
         14    1    1    2    0    0  0.13940382934E-01 -0.72671757354E-02  0.21428713822E-01  0.26576980558E-01  0.00000000000E+00 0. -1.
     999901    1    3    3    0    0 -0.11215358794E+00  0.28136657969E-01  0.55644169988E-01  0.88930668077E+00  0.88000000000E+00 0. -1.
        -11    1    4    4    0    0  0.86899898846E-01 -0.11769729465E-01 -0.67189432385E-01  0.11047533615E+00  0.51100000000E-03 0. -1.
         11    1    4    4    0    0  0.11313306160E-01 -0.90997527679E-02 -0.98834514243E-02  0.17571002526E-01  0.51100000000E-03 0.  1.
</event>
<event>
 8    1  0.1129676E+005  0.1043930E+01  0.7957747E-01            NaN
         13   -1    0    0    0    0  0.00000000000E+00  0.00000000000E+00  0.74505805969E-08  0.10566000000E+00  0.10566000000E+00 0.  1.
     999900   -1    0    0    0    0 -0.00000000000E+00 -0.00000000000E+00 -0.74505805969E-08  0.93827000000E+00  0.93827000000E+00 0.  1.
     999902    2    1    2    0    0 -0.86565935771E-02 -0.14678852389E-01  0.15502981797E-01  0.10208920365E+01  0.10206320602E+01 0.  0.
     999903    2    3    3    0    0 -0.10412923450E+00 -0.79220532090E-01 -0.14905434185E-01  0.13285750709E+00  0.17611219096E-01 0.  0.
         14    1    1    2    0    0  0.86565935771E-02  0.14678852389E-01 -0.15502981797E-01  0.23037963548E-01  0.00000000000E+00 0. -1.
     999901    1    3    3    0    0  0.95472640926E-01  0.64541679701E-01  0.30408415982E-01  0.88803452937E+00  0.88000000000E+00 0. -1.
        -11    1    4    4    0    0 -0.80355113132E-01 -0.57822787253E-01 -0.18344251724E-01  0.10068362143E+00  0.51100000000E-03 0. -1.
         11    1    4    4    0    0 -0.23774121370E-01 -0.21397744837E-01  0.34388175386E-02  0.32173885655E-01  0.51100000000E-03 0.  1.
</event>
<event>
 7    1  0.1129676E+005  0.1043930E+01  0.7957747E-01            NaN
         13   -1    0    0    0    0  0.00000000000E+00  0.00000000000E+00  0.74505805969E-08  0.10566000000E+00  0.10566000000E+00 0. -1.
     999900   -1    0    0    0    0 -0.00000000000E+00 -0.00000000000E+00 -0.74505805969E-08  0.93827000000E+00  0.93827000000E+00 0.  1.
     999903    2    1    2    0    0  0.98005096260E-01 -0.44094908040E-03  0.53676871580E-01  0.11364372726E+00  0.20700166043E-01 0.  0.
         14    1    1    2    0    0  0.28372990852E-01  0.26201480444E-01  0.50435627050E-02  0.38948449419E-01  0.00000000000E+00 0.  1.
     999901    1    1    2    0    0 -0.12637808711E+00 -0.25760531364E-01 -0.58720434285E-01  0.89133782332E+00  0.88000000000E+00 0. -1.
        -11    1    3    3    0    0  0.45809070363E-01  0.96449985970E-02  0.28614254446E-01  0.54868329699E-01  0.51100000000E-03 0. -1.
         11    1    3    3    0    0  0.52196025897E-01 -0.10085947677E-01  0.25062617134E-01  0.58775397562E-01  0.51100000000E-03 0.  1.
</event>
<event>
 8    1  0.1129676E+005  0.1043930E+01  0.7957747E-01            NaN
         13   -1    0    0    0    0  0.00000000000E+00  0.00000000000E+00  0.74505805969E-08  0.10566000000E+00  0.10566000000E+00 0.  1.
     999900   -1    0    0    0    0 -0.00000000000E+00 -0.00000000000E+00 -0.74505805969E-08  0.93827000000E+00  0.93827000000E+00 0.  1.
     999902    2    1    2    0    0  0.21746997387E-02 -0.21059407173E-01 -0.93611166533E-02  0.10207813833E+01  0.10205188749E+01 0.  0.
     999903    2    3    3    0    0 -0.52819960469E-02  0.37535156690E-01  0.12171820851E+00  0.12911400435E+00  0.20452783813E-01 0.  0.
         14    1    1    2    0    0 -0.21746997387E-02  0.21059407173E-01  0.93611166533E-02  0.23148616685E-01  0.00000000000E+00 0.  1.
     999901    1    3    3    0    0  0.74566957856E-02 -0.58594563863E-01 -0.13107932516E+00  0.89166737897E+00  0.88000000000E+00 0.  1.
        -11    1    4    4    0    0 -0.95055442190E-02  0.71914174473E-02  0.25893773133E-01  0.28510006381E-01  0.51100000000E-03 0. -1.
         11    1    4    4    0    0  0.42235481721E-02  0.30343739243E-01  0.95824435379E-01  0.10060399797E+00  0.51100000000E-03 0.  1.
</event>
<event>
 8    1  0.1129676E+005  0.1043930E+01  0.7957747E-01            NaN
         13   -1    0    0    0    0  0.00000000000E+00  0.00000000000E+00  0.74505805969E-08  0.10566000000E+00  0.10566000000E+00 0.  1.
     999900   -1    0    0    0    0 -0.00000000000E+00 -0.00000000000E+00 -0.74505805969E-08  0.93827000000E+00  0.93827000000E+00 0. -1.
     999902    2    1    2    0    0  0.90975188624E-03  0.22072031283E-01  0.90271507209E-02  0.10200659755E+01  0.10197867928E+01 0.  0.
     999903    2    3    3    0    0  0.11136412916E+00 -0.40272159498E-01 -0.47575522927E-01  0.12917269896E+00  0.19958448875E-01 0.  0.
         14    1    1    2    0    0 -0.90975188624E-03 -0.22072031283E-01 -0.90271507209E-02  0.23864024463E-01  0.00000000000E+00 0. -1.
     999901    1    3    3    0    0 -0.11045437727E+00  0.62344190781E-01  0.56602673648E-01  0.89089327658E+00  0.88000000000E+00 0.  1.
        -11    1    4    4    0    0  0.73328925907E-01 -0.33153951332E-01 -0.24534751801E-01  0.84134006386E-01  0.51100000000E-03 0.  1.
         11    1    4    4    0    0  0.38035203251E-01 -0.71182081651E-02 -0.23040771126E-01  0.45038692575E-01  0.51100000000E-03 0. -1.
</event>
<event>
 8    1  0.1129676E+005  0.1043930E+01  0.7957747E-01            NaN
         13   -1    0    0    0    0  0.00000000000E+00  0.00000000000E+00  0.74505805969E-08  0.10566000000E+00  0.10566000000E+00 0. -1.
     999900   -1    0    0    0    0 -0.00000000000E+00 -0.00000000000E+00 -0.74505805969E-08  0.93827000000E+00  0.93827000000E+00 0.  1.
     999902    2    1    2    0    0 -0.77095233656E-02  0.10203636445E-01  0.19815070065E-01  0.10203463627E+01  0.10200737777E+01 0.  0.
     999903    2    3    3    0    0  0.67639165166E-01 -0.77568462067E-01  0.78370556566E-01  0.13084644074E+00  0.19670382470E-01 0.  0.
         14    1    1    2    0    0  0.77095233656E-02 -0.10203636445E-01 -0.19815070065E-01  0.23583637313E-01  0.00000000000E+00 0.  1.
     999901    1    3    3    0    0 -0.75348688532E-01  0.87772098513E-01 -0.58555486501E-01  0.88949992195E+00  0.88000000000E+00 0. -1.
        -11    1    4    4    0    0  0.52806718336E-01 -0.68641456583E-01  0.58625911453E-01  0.10458230098E+00  0.51100000000E-03 0.  1.
         11    1    4    4    0    0  0.14832446830E-01 -0.89270054846E-02  0.19744645113E-01  0.26264139764E-01  0.51100000000E-03 0. -1.
</event>
<event>
 8    1  0.1129676E+005  0.1043930E+01  0.7957747E-01            NaN
         13   -1    0    0    0    0  0.00000000000E+00  0.00000000000E+00  0.74505805969E-08  0.10566000000E+00  0.10566000000E+00 0. -1.
     999900   -1    0    0    0    0 -0.00000000000E+00 -0.00000000000E+00 -0.74505805969E-08  0.93827000000E+00  0.93827000000E+00 0.  1.
     999902    2    1    2    0    0  0.86161229250E-02  0.21373159619E-01 -0.63173516720E-03  0.10208768307E+01  0.10206165072E+01 0.  0.
     999903    2    3    3    0    0 -0.11450205675E+00 -0.49458730522E-01 -0.27221145767E-01  0.12909084762E+00  0.19145995343E-01 0.  0.
         14    1    1    2    0    0 -0.86161229250E-02 -0.21373159619E-01  0.63173516720E-03  0.23053169320E-01  0.00000000000E+00 0. -1.
     999901    1    3    3    0    0  0.12311817967E+00  0.70831890141E-01  0.26589410600E-01  0.89178598306E+00  0.88000000000E+00 0. -1.
        -11    1    4    4    0    0 -0.32351212378E-01 -0.17989012155E-01 -0.60501086291E-04  0.37019863344E-01  0.51100000000E-03 0.  1.
         11    1    4    4    0    0 -0.82150844371E-01 -0.31469718367E-01 -0.27160644681E-01  0.92070984276E-01  0.51100000000E-03 0. -1.
</event>
<event>
 8    1  0.1129676E+005  0.1043930E+01  0.7957747E-01            NaN
         13   -1    0    0    0    0  0.00000000000E+00  0.00000000000E+00  0.74505805969E-08  0.10566000000E+00  0.10566000000E+00 0.  1.
     999900   -1    0    0    0    0 -0.00000000000E+00 -0.00000000000E+00 -0.74505805969E-08  0.93827000000E+00  0.93827000000E+00 0.  1.
     999902    2    1    2    0    0  0.26851452476E-01 -0.56601014267E-02 -0.81483891524E-02  0.10153042512E+01  0.10149006301E+01 0.  0.
     999903    2    3    3    0    0  0.76634659008E-01 -0.72836520525E-01  0.69179397009E-01  0.12796518104E+00  0.20279765872E-01 0.  0.
         14    1    1    2    0    0 -0.26851452476E-01  0.56601014267E-02  0.81483891524E-02  0.28625748794E-01  0.00000000000E+00 0.  1.
     999901    1    3    3    0    0 -0.49783206532E-01  0.67176419098E-01 -0.77327786162E-01  0.88733907017E+00  0.88000000000E+00 0.  1.
        -11    1    4    4    0    0  0.33718106019E-01 -0.26382077319E-01  0.17360384897E-01  0.46201393507E-01  0.51100000000E-03 0.  1.
         11    1    4    4    0    0  0.42916552989E-01 -0.46454443206E-01  0.51819012113E-01  0.81763787530E-01  0.51100000000E-03 0. -1.
</event>
<event>
 8    1  0.1129676E+005  0.1043930E+01  0.7957747E-01            NaN
         13   -1    0    0    0    0  0.00000000000E+00  0.00000000000E+00  0.74505805969E-08  0.10566000000E+00  0.10566000000E+00 0.  1.
     999900   -1    0    0    0    0 -0.00000000000E+00 -0.00000000000E+00 -0.74505805969E-08  0.93827000000E+00  0.93827000000E+00 0. -1.
     999902    2    1    2    0    0 -0.17792735390E-01  0.12745503453E-01 -0.99373524794E-02  0.10198929398E+01  0.10196096451E+01 0.  0.
     999903    2    3    3    0    0  0.89890465465E-01 -0.56196096026E-01 -0.69995177864E-01  0.12862667299E+00  0.20179174658E-01 0.  0.
         14    1    1    2    0    0  0.17792735390E-01 -0.12745503453E-01  0.99373524794E-02  0.24037060245E-01  0.00000000000E+00 0.  1.
     999901    1    3    3    0    0 -0.10768320085E+00  0.68941599480E-01  0.60057825384E-01  0.89126626677E+00  0.88000000000E+00 0. -1.
        -11    1    4    4    0    0  0.65587541069E-01 -0.37702787217E-01 -0.39013214542E-01  0.85120607008E-01  0.51100000000E-03 0.  1.
         11    1    4    4    0    0  0.24302924396E-01 -0.18493308809E-01 -0.30981963322E-01  0.43506065981E-01  0.51100000000E-03 0. -1.
</event>
<event>
 8    1  0.1129676E+005  0.1043930E+01  0.7957747E-01            NaN
         13   -1    0    0    0    0  0.00000000000E+00  0.00000000000E+00  0.74505805969E-08  0.10566000000E+00  0.10566000000E+00 0.  1.
     999900   -1    0    0    0    0 -0.00000000000E+00 -0.00000000000E+00 -0.74505805969E-08  0.93827000000E+00  0.93827000000E+00 0.  1.
     999902    2    1    2    0    0 -0.13764200583E-02  0.16957190506E-01  0.14648837367E-01  0.10214794036E+01  0.10212326585E+01 0.  0.
     999903    2    3    3    0    0  0.68373252623E-02 -0.12322454494E+00 -0.33918361834E-01  0.12902371429E+00  0.16298039393E-01 0.  0.
         14    1    1    2    0    0  0.13764200583E-02 -0.16957190506E-01 -0.14648837367E-01  0.22450596389E-01  0.00000000000E+00 0. -1.
     999901    1    3    3    0    0 -0.82137453205E-02  0.14018173544E+00  0.48567199200E-01  0.89245568932E+00  0.88000000000E+00 0.  1.
        -11    1    4    4    0    0  0.10429552798E-01 -0.61319082898E-01 -0.21247849129E-01  0.65730797292E-01  0.51100000000E-03 0.  1.
         11    1    4    4    0    0 -0.35922275362E-02 -0.61905462039E-01 -0.12670512704E-01  0.63292916998E-01  0.51100000000E-03 0. -1.
</event>
<event>
 8    1  0.1129676E+005  0.1043930E+01  0.7957747E-01            NaN
         13   -1    0    0    0    0  0.00000000000E+00  0.00000000000E+00  0.74505805969E-08  0.10566000000E+00  0.10566000000E+00 0.  1.
     999900   -1    0    0    0    0 -0.00000000000E+00 -0.00000000000E+00 -0.74505805969E-08  0.93827000000E+00  0.93827000000E+00 0.  1.
     999902    2    1    2    0    0  0.15416866509E-01  0.16702761593E-01 -0.99928510724E-03  0.10211778443E+01  0.10209243503E+01 0.  0.
     999903    2    3    3    0    0 -0.29147380275E-01 -0.12406698274E+00  0.42888546343E-02  0.12886060396E+00  0.18560037558E-01 0.  0.
         14    1    1    2    0    0 -0.15416866509E-01 -0.16702761593E-01  0.99928510724E-03  0.22752155690E-01  0.00000000000E+00 0.  1.
     999901    1    3    3    0    0  0.44564246784E-01  0.14076974434E+00 -0.52881397415E-02  0.89231724035E+00  0.88000000000E+00 0. -1.
        -11    1    4    4    0    0 -0.10559582573E-01 -0.51358540774E-01 -0.72361049018E-02  0.52932285325E-01  0.51100000000E-03 0.  1.
         11    1    4    4    0    0 -0.18587797702E-01 -0.72708441968E-01  0.11524959536E-01  0.75928318631E-01  0.51100000000E-03 0. -1.
</event>
<event>
 8    1  0.1129676E+005  0.1043930E+01  0.7957747E-01            NaN
         13   -1    0    0    0    0  0.00000000000E+00  0.00000000000E+00  0.74505805969E-08  0.10566000000E+00  0.10566000000E+00 0.  1.
     999900   -1    0    0    0    0 -0.00000000000E+00 -0.00000000000E+00 -0.74505805969E-08  0.93827000000E+00  0.93827000000E+00 0. -1.
     999902    2    1    2    0    0 -0.48523080575E-02  0.15962686967E-01  0.16453293350E-01  0.10204979038E+01  0.10202288511E+01 0.  0.
     999903    2    3    3    0    0 -0.10344724860E+00  0.76424509641E-01  0.26497443581E-01  0.13287327638E+00  0.20276936280E-01 0.  0.
         14    1    1    2    0    0  0.48523080575E-02 -0.15962686967E-01 -0.16453293350E-01  0.23432096166E-01  0.00000000000E+00 0. -1.
     999901    1    3    3    0    0  0.98594940538E-01 -0.60461822675E-01 -0.10044150232E-01  0.88762462745E+00  0.88000000000E+00 0.  1.
        -11    1    4    4    0    0 -0.97516782335E-01  0.65883396034E-01  0.20871351001E-01  0.11952413615E+00  0.51100000000E-03 0. -1.
         11    1    4    4    0    0 -0.59304662604E-02  0.10541113607E-01  0.56260925803E-02  0.13349140230E-01  0.51100000000E-03 0.  1.
</event>
<event>
 8    1  0.1129676E+005  0.1043930E+01  0.7957747E-01            NaN
         13   -1    0    0    0    0  0.00000000000E+00  0.00000000000E+00  0.74505805969E-08  0.10566000000E+00  0.10566000000E+00 0.  1.
     999900   -1    0    0    0    0 -0.00000000000E+00 -0.00000000000E+00 -0.74505805969E-08  0.93827000000E+00  0.93827000000E+00 0.  1.
     999902    2    1    2    0    0  0.21930976763E-01 -0.56229201299E-02  0.31551628560E-02  0.10210708656E+01  0.10208149551E+01 0.  0.
     999903    2    3    3    0    0  0.97094172283E-01  0.70993693358E-01 -0.51171665420E-01  0.13288675423E+00  0.23936735808E-01 0.  0.
         14    1    1    2    0    0 -0.21930976763E-01  0.56229201299E-02 -0.31551628560E-02  0.22859134394E-01  0.00000000000E+00 0.  1.
     999901    1    3    3    0    0 -0.75163195520E-01 -0.76616613488E-01  0.54326828276E-01  0.88818411137E+00  0.88000000000E+00 0. -1.
        -11    1    4    4    0    0  0.32102716411E-01  0.10314879172E-01 -0.14055171748E-01  0.36534779419E-01  0.51100000000E-03 0.  1.
         11    1    4    4    0    0  0.64991455872E-01  0.60678814186E-01 -0.37116493671E-01  0.96351974816E-01  0.51100000000E-03 0. -1.
</event>
<event>
 8    1  0.1129676E+005  0.1043930E+01  0.7957747E-01            NaN
         13   -1    0    0    0    0  0.00000000000E+00  0.00000000000E+00  0.74505805969E-08  0.10566000000E+00  0.10566000000E+00 0.  1.
     999900   -1    0    0    0    0 -0.00000000000E+00 -0.00000000000E+00 -0.74505805969E-08  0.93827000000E+00  0.93827000000E+00 0.  1.
     999902    2    1    2    0    0 -0.12580313713E-01 -0.43067565790E-02  0.18885278654E-01  0.10208331129E+01  0.10205717898E+01 0.  0.
     999903    2    3    3    0    0  0.98875594995E-01 -0.79233942503E-01  0.24811639913E-01  0.13062435952E+00  0.19816783162E-01 0.  0.
         14    1    1    2    0    0  0.12580313713E-01  0.43067565790E-02 -0.18885278654E-01  0.23096887132E-01  0.00000000000E+00 0. -1.
     999901    1    3    3    0    0 -0.11145590871E+00  0.74927185924E-01 -0.59263612582E-02  0.89020875335E+00  0.88000000000E+00 0.  1.
        -11    1    4    4    0    0  0.66286861810E-01 -0.60460634260E-01  0.24520198952E-01  0.93010416736E-01  0.51100000000E-03 0. -1.
         11    1    4    4    0    0  0.32588733185E-01 -0.18773308243E-01  0.29144096027E-03  0.37613942785E-01  0.51100000000E-03 0.  1.
</event>
<event>
 8    1  0.1129676E+005  0.1043930E+01  0.7957747E-01            NaN
         13   -1    0    0    0    0  0.00000000000E+00  0.00000000000E+00  0.74505805969E-08  0.10566000000E+00  0.10566000000E+00 0.  1.
     999900   -1    0    0    0    0 -0.00000000000E+00 -0.00000000000E+00 -0.74505805969E-08  0.93827000000E+00  0.93827000000E+00 0. -1.
     999902    2    1    2    0    0 -0.31118975412E-02 -0.37821917885E-02 -0.22008321603E-01  0.10213832685E+01  0.10211343820E+01 0.  0.
     999903    2    3    3    0    0 -0.17647541221E-01 -0.85629343516E-01  0.93990556570E-01  0.12988678455E+00  0.19812417667E-01 0.  0.
         14    1    1    2    0    0  0.31118975412E-02  0.37821917885E-02  0.22008321603E-01  0.22546731488E-01  0.00000000000E+00 0.  1.
     999901    1    3    3    0    0  0.14535643679E-01  0.81847151728E-01 -0.11599887817E+00  0.89149648396E+00  0.88000000000E+00 0. -1.
        -11    1    4    4    0    0  0.23774622089E-02 -0.12018497270E-01  0.20927186926E-01  0.24254996945E-01  0.51100000000E-03 0.  1.
         11    1    4    4    0    0 -0.20025003430E-01 -0.73610846246E-01  0.73063369644E-01  0.10563178760E+00  0.51100000000E-03 0. -1.
</event>
<event>
 8    1  0.1129676E+005  0.1043930E+01  0.7957747E-01            NaN
         13   -1    0    0    0    0  0.00000000000E+00  0.00000000000E+00  0.74505805969E-08  0.10566000000E+00  0.10566000000E+00 0.  1.
     999900   -1    0    0    0    0 -0.00000000000E+00 -0.00000000000E+00 -0.74505805969E-08  0.93827000000E+00  0.93827000000E+00 0. -1.
     999902    2    1    2    0    0 -0.14067635604E-01 -0.20305262949E-02  0.18658304858E-01  0.10204746435E+01  0.10202050501E+01 0.  0.
     999903    2    3    3    0    0 -0.48575794542E-01 -0.11547167713E+00  0.35739390831E-01  0.13235783179E+00  0.23408877453E-01 0.  0.
         14    1    1    2    0    0  0.14067635604E-01  0.20305262949E-02 -0.18658304858E-01  0.23455356503E-01  0.00000000000E+00 0.  1.
     999901    1    3    3    0    0  0.34508158939E-01  0.11344115084E+00 -0.17081085973E-01  0.88811681171E+00  0.88000000000E+00 0.  1.
        -11    1    4    4    0    0 -0.16737853443E-01 -0.33144126111E-01  0.21122403870E-04  0.37134221423E-01  0.51100000000E-03 0.  1.
         11    1    4    4    0    0 -0.31837941099E-01 -0.82327551023E-01  0.35718268427E-01  0.95223610367E-01  0.51100000000E-03 0. -1.
</event>
<event>
 8    1  0.1129676E+005  0.1043930E+01  0.7957747E-01            NaN
         13   -1    0    0    0    0  0.00000000000E+00  0.00000000000E+00  0.74505805969E-08  0.10566000000E+00  0.10566000000E+00 0.  1.
     999900   -1    0    0    0    0 -0.00000000000E+00 -0.00000000000E+00 -0.74505805969E-08  0.93827000000E+00  0.93827000000E+00 0.  1.
     999902    2    1    2    0    0 -0.10397999504E-01 -0.12140451789E-01 -0.12192422777E-01  0.10238261661E+01  0.10236287678E+01 0.  0.
     999903    2    3    3    0    0 -0.10498968630E+00  0.66059319577E-01 -0.48192526740E-01  0.13457996909E+00  0.20064409176E-01 0.  0.
         14    1    1    2    0    0  0.10397999504E-01  0.12140451789E-01  0.12192422777E-01  0.20103833876E-01  0.00000000000E+00 0.  1.
     999901    1    3    3    0    0  0.94591686792E-01 -0.78199771366E-01  0.36000103963E-01  0.88924619703E+00  0.88000000000E+00 0. -1.
        -11    1    4    4    0    0 -0.29483338084E-01  0.19942682241E-01 -0.23732375987E-01  0.42783929115E-01  0.51100000000E-03 0. -1.
         11    1    4    4    0    0 -0.75506348212E-01  0.46116637336E-01 -0.24460150753E-01  0.91796039976E-01  0.51100000000E-03 0.  1.
</event>
<event>
 8    1  0.1129676E+005  0.1043930E+01  0.7957747E-01            NaN
         13   -1    0    0    0    0  0.00000000000E+00  0.00000000000E+00  0.74505805969E-08  0.10566000000E+00  0.10566000000E+00 0. -1.
     999900   -1    0    0    0    0 -0.00000000000E+00 -0.00000000000E+00 -0.74505805969E-08  0.93827000000E+00  0.93827000000E+00 0. -1.
     999902    2    1    2    0    0  0.17202253800E-01  0.85290964069E-02 -0.13232602790E-01  0.10206112351E+01  0.10203448086E+01 0.  0.
     999903    2    3    3    0    0  0.82218679145E-01  0.74160466102E-01 -0.72908734803E-01  0.13376522082E+00  0.17825957430E-01 0.  0.
         14    1    1    2    0    0 -0.17202253800E-01 -0.85290964069E-02  0.13232602790E-01  0.23318764931E-01  0.00000000000E+00 0. -1.
     999901    1    3    3    0    0 -0.65016425345E-01 -0.65631369695E-01  0.59676132013E-01  0.88684601425E+00  0.88000000000E+00 0.  1.
        -11    1    4    4    0    0  0.69084363557E-01  0.68843435112E-01 -0.59486140688E-01  0.11424066658E+00  0.51100000000E-03 0.  1.
         11    1    4    4    0    0  0.13134315588E-01  0.53170309893E-02 -0.13422594115E-01  0.19524554240E-01  0.51100000000E-03 0. -1.
</event>
<event>
 8    1  0.1129676E+005  0.1043930E+01  0.7957747E-01            NaN
         13   -1    0    0    0    0  0.00000000000E+00  0.00000000000E+00  0.74505805969E-08  0.10566000000E+00  0.10566000000E+00 0. -1.
     999900   -1    0    0    0    0 -0.00000000000E+00 -0.00000000000E+00 -0.74505805969E-08  0.93827000000E+00  0.93827000000E+00 0. -1.
     999902    2    1    2    0    0 -0.23553126200E-02  0.82193607209E-02  0.22166295280E-01  0.10201718428E+01  0.10198951607E+01 0.  0.
     999903    2    3    3    0    0 -0.39376449091E-02  0.66751064675E-01  0.11383621484E+00  0.13347469138E+00  0.19636693892E-01 0.  0.
         14    1    1    2    0    0  0.23553126200E-02 -0.82193607209E-02 -0.22166295280E-01  0.23758157223E-01  0.00000000000E+00 0.  1.
     999901    1    3    3    0    0  0.15823322891E-02 -0.58531703954E-01 -0.91669919562E-01  0.88669715140E+00  0.88000000000E+00 0. -1.
        -11    1    4    4    0    0 -0.10350219281E-01  0.24745348199E-01  0.37517496980E-01  0.46122478222E-01  0.51100000000E-03 0.  1.
         11    1    4    4    0    0  0.64125743719E-02  0.42005716476E-01  0.76318717861E-01  0.87352213159E-01  0.51100000000E-03 0. -1.
</event>
<event>
 8    1  0.1129676E+005  0.1043930E+01  0.7957747E-01            NaN
         13   -1    0    0    0    0  0.00000000000E+00  0.00000000000E+00  0.74505805969E-08  0.10566000000E+00  0.10566000000E+00 0.  1.
     999900   -1    0    0    0    0 -0.00000000000E+00 -0.00000000000E+00 -0.74505805969E-08  0.93827000000E+00  0.93827000000E+00 0.  1.
     999902    2    1    2    0    0  0.21342246236E-01 -0.46532195014E-02 -0.51925321862E-02  0.10214776879E+01  0.10212309047E+01 0.  0.
     999903    2    3    3    0    0  0.28612825834E-01 -0.90611735872E-01 -0.91124643152E-01  0.13309373066E+00  0.19520760016E-01 0.  0.
         14    1    1    2    0    0 -0.21342246236E-01  0.46532195014E-02  0.51925321862E-02  0.22452312055E-01  0.00000000000E+00 0.  1.
     999901    1    3    3    0    0 -0.72705795977E-02  0.85958516371E-01  0.85932110966E-01  0.88838395728E+00  0.88000000000E+00 0. -1.
        -11    1    4    4    0    0  0.31227746113E-01 -0.87502189049E-01 -0.87470902093E-01  0.12760574066E+00  0.51100000000E-03 0. -1.
         11    1    4    4    0    0 -0.26149202790E-02 -0.31095468236E-02 -0.36537410590E-02  0.54879900000E-02  0.51100000000E-03 0.  1.
</event>
<event>
 8    1  0.1129676E+005  0.1043930E+01  0.7957747E-01            NaN
         13   -1    0    0    0    0  0.00000000000E+00  0.00000000000E+00  0.74505805969E-08  0.10566000000E+00  0.10566000000E+00 0.  1.
     999900   -1    0    0    0    0 -0.00000000000E+00 -0.00000000000E+00 -0.74505805969E-08  0.93827000000E+00  0.93827000000E+00 0. -1.
     999902    2    1    2    0    0  0.15569745470E-01  0.17624227740E-01 -0.32551903742E-02  0.10201891777E+01  0.10199129040E+01 0.  0.
     999903    2    3    3    0    0  0.79747033122E-01 -0.39568720440E-01  0.93428699064E-01  0.13073005442E+00  0.20884261800E-01 0.  0.
         14    1    1    2    0    0 -0.15569745470E-01 -0.17624227740E-01  0.32551903742E-02  0.23740822264E-01  0.00000000000E+00 0.  1.
     999901    1    3    3    0    0 -0.64177287652E-01  0.57192948180E-01 -0.96683889439E-01  0.88945912332E+00  0.88000000000E+00 0. -1.
        -11    1    4    4    0    0  0.58554725029E-01 -0.27929690489E-01  0.80231896307E-01  0.10318014218E+00  0.51100000000E-03 0.  1.
         11    1    4    4    0    0  0.21192308093E-01 -0.11639029951E-01  0.13196802758E-01  0.27549912242E-01  0.51100000000E-03 0. -1.
</event>
<event>
 8    1  0.1129676E+005  0.1043930E+01  0.7957747E-01            NaN
         13   -1    0    0    0    0  0.00000000000E+00  0.00000000000E+00  0.74505805969E-08  0.10566000000E+00  0.10566000000E+00 0. -1.
     999900   -1    0    0    0    0 -0.00000000000E+00 -0.00000000000E+00 -0.74505805969E-08  0.93827000000E+00  0.93827000000E+00 0. -1.
     999902    2    1    2    0    0  0.97838717381E-02  0.21486605741E-01  0.40229765318E-02  0.10199804131E+01  0.10196992009E+01 0.  0.
     999903    2    3    3    0    0  0.12545197289E+00  0.26626198963E-01  0.25245030890E-01  0.13214264603E+00  0.19422032405E-01 0.  0.
         14    1    1    2    0    0 -0.97838717381E-02 -0.21486605741E-01 -0.40229765318E-02  0.23949586899E-01  0.00000000000E+00 0.  1.
     999901    1    3    3    0    0 -0.11566810115E+00 -0.51395932219E-02 -0.21222054358E-01  0.88783776707E+00  0.88000000000E+00 0. -1.
        -11    1    4    4    0    0  0.46094819880E-01  0.11509840056E-01  0.18811219507E-01  0.51101193119E-01  0.51100000000E-03 0. -1.
         11    1    4    4    0    0  0.79357153009E-01  0.15116358907E-01  0.64338113838E-02  0.81041452913E-01  0.51100000000E-03 0.  1.
</event>
<event>
 8    1  0.1129676E+005  0.1043930E+01  0.7957747E-01            NaN
         13   -1    0    0    0    0  0.00000000000E+00  0.00000000000E+00  0.74505805969E-08  0.10566000000E+00  0.10566000000E+00 0.  1.
     999900   -1    0    0    0    0 -0.00000000000E+00 -0.00000000000E+00 -0.74505805969E-08  0.93827000000E+00  0.93827000000E+00 0. -1.
     999902    2    1    2    0    0  0.66886036483E-02 -0.54458436665E-02  0.21796230887E-01  0.10204892169E+01  0.10202199623E+01 0.  0.
     999903    2    3    3    0    0 -0.30834854919E-01 -0.50515496865E-01  0.11774358676E+00  0.13333354922E+00  0.20289884747E-01 0.  0.
         14    1    1    2    0    0 -0.66886036483E-02  0.54458436665E-02 -0.21796230887E-01  0.23440783112E-01  0.00000000000E+00 0. -1.
     999901    1    3    3    0    0  0.37523458567E-01  0.45069653199E-01 -0.95947355870E-01  0.88715566767E+00  0.88000000000E+00 0. -1.
        -11    1    4    4    0    0 -0.78048814278E-02 -0.34583692861E-02  0.29436976084E-01  0.30654089029E-01  0.51100000000E-03 0. -1.
         11    1    4    4    0    0 -0.23029973491E-01 -0.47057127579E-01  0.88306610673E-01  0.10267946019E+00  0.51100000000E-03 0.  1.
</event>
<event>
 8    1  0.1129676E+005  0.1043930E+01  0.7957747E-01            NaN
         13   -1    0    0    0    0  0.00000000000E+00  0.00000000000E+00  0.74505805969E-08  0.10566000000E+00  0.10566000000E+00 0.  1.
     999900   -1    0    0    0    0 -0.00000000000E+00 -0.00000000000E+00 -0.74505805969E-08  0.93827000000E+00  0.93827000000E+00 0.  1.
     999902    2    1    2    0    0 -0.19221894896E-01 -0.12504811375E-01 -0.51014367303E-02  0.10204379544E+01  0.10201675071E+01 0.  0.
     999903    2    3    3    0    0  0.58291386858E-01 -0.11386240652E+00  0.19589780471E-01  0.13089238098E+00  0.19660175464E-01 0.  0.
         14    1    1    2    0    0  0.19221894896E-01  0.12504811375E-01  0.51014367303E-02  0.23492045625E-01  0.00000000000E+00 0.  1.
     999901    1    3    3    0    0 -0.77513281754E-01  0.10135759514E+00 -0.24691217201E-01  0.88954557340E+00  0.88000000000E+00 0. -1.
        -11    1    4    4    0    0  0.46331693491E-01 -0.82659370161E-01  0.64419136924E-02  0.94978716932E-01  0.51100000000E-03 0.  1.
         11    1    4    4    0    0  0.11959693367E-01 -0.31203036359E-01  0.13147866778E-01  0.35913664047E-01  0.51100000000E-03 0. -1.
</event>
<event>
 8    1  0.1129676E+005  0.1043930E+01  0.7957747E-01            NaN
         13   -1    0    0    0    0  0.00000000000E+00  0.00000000000E+00  0.74505805969E-08  0.10566000000E+00  0.10566000000E+00 0. -1.
     999900   -1    0    0    0    0 -0.00000000000E+00 -0.00000000000E+00 -0.74505805969E-08  0.93827000000E+00  0.93827000000E+00 0. -1.
     999902    2    1    2    0    0 -0.24051972511E-01  0.11516505860E-02  0.22326294327E-02  0.10197471897E+01  0.10194604075E+01 0.  0.
     999903    2    3    3    0    0 -0.76374760009E-01 -0.23019212394E-01 -0.10283155603E+00  0.13162535807E+00  0.19695630673E-01 0.  0.
         14    1    1    2    0    0  0.24051972511E-01 -0.11516505860E-02 -0.22326294327E-02  0.24182810319E-01  0.00000000000E+00 0. -1.
     999901    1    3    3    0    0  0.52322787498E-01  0.24170862981E-01  0.10506418546E+00  0.88812183161E+00  0.88000000000E+00 0.  1.
        -11    1    4    4    0    0 -0.52968162768E-01 -0.17090971181E-01 -0.85010777927E-01  0.10161112659E+00  0.51100000000E-03 0.  1.
         11    1    4    4    0    0 -0.23406597241E-01 -0.59282412133E-02 -0.17820778100E-01  0.30014231481E-01  0.51100000000E-03 0. -1.
</event>
<event>
 8    1  0.1129676E+005  0.1043930E+01  0.7957747E-01            NaN
         13   -1    0    0    0    0  0.00000000000E+00  0.00000000000E+00  0.74505805969E-08  0.10566000000E+00  0.10566000000E+00 0. -1.
     999900   -1    0    0    0    0 -0.00000000000E+00 -0.00000000000E+00 -0.74505805969E-08  0.93827000000E+00  0.93827000000E+00 0.  1.
     999902    2    1    2    0    0  0.15458031134E-01 -0.47225438696E-02 -0.15623260215E-01  0.10214502445E+01  0.10212028509E+01 0.  0.
     999903    2    3    3    0    0  0.81995517349E-01  0.71619935773E-01  0.71022559541E-01  0.13141490288E+00  0.19313018143E-01 0.  0.
         14    1    1    2    0    0 -0.15458031134E-01  0.47225438696E-02  0.15623260215E-01  0.22479755490E-01  0.00000000000E+00 0. -1.
     999901    1    3    3    0    0 -0.66537486215E-01 -0.76342479643E-01 -0.86645819756E-01  0.89003534163E+00  0.88000000000E+00 0.  1.
        -11    1    4    4    0    0  0.25533082221E-01  0.34139979435E-01  0.30923692256E-01  0.52668893545E-01  0.51100000000E-03 0.  1.
         11    1    4    4    0    0  0.56462435127E-01  0.37479956339E-01  0.40098867284E-01  0.78746009335E-01  0.51100000000E-03 0. -1.
</event>
<event>
 8    1  0.1129676E+005  0.1043930E+01  0.7957747E-01            NaN
         13   -1    0    0    0    0  0.00000000000E+00  0.00000000000E+00  0.74505805969E-08  0.10566000000E+00  0.10566000000E+00 0. -1.
     999900   -1    0    0    0    0 -0.00000000000E+00 -0.00000000000E+00 -0.74505805969E-08  0.93827000000E+00  0.93827000000E+00 0.  1.
     999902    2    1    2    0    0 -0.20923543450E-01  0.95067506533E-02  0.21613909960E-03  0.10209469694E+01  0.10206882456E+01 0.  0.
     999903    2    3    3    0    0 -0.10886394541E+00 -0.72290542548E-01 -0.11174655382E-01  0.13271610885E+00  0.20283280607E-01 0.  0.
         14    1    1    2    0    0  0.20923543450E-01 -0.95067506533E-02 -0.21613909960E-03  0.22983030579E-01  0.00000000000E+00 0.  1.
     999901    1    3    3    0    0  0.87940401964E-01  0.81797293201E-01  0.11390794482E-01  0.88823086057E+00  0.88000000000E+00 0.  1.
        -11    1    4    4    0    0 -0.25497807234E-01 -0.19755930579E-01 -0.11284110723E-01  0.34176413542E-01  0.51100000000E-03 0. -1.
         11    1    4    4    0    0 -0.83366138181E-01 -0.52534611969E-01  0.10945534057E-03  0.98539695308E-01  0.51100000000E-03 0.  1.
</event>
<event>
 8    1  0.1129676E+005  0.1043930E+01  0.7957747E-01            NaN
         13   -1    0    0    0    0  0.00000000000E+00  0.00000000000E+00  0.74505805969E-08  0.10566000000E+00  0.10566000000E+00 0.  1.
     999900   -1    0    0    0    0 -0.00000000000E+00 -0.00000000000E+00 -0.74505805969E-08  0.93827000000E+00  0.93827000000E+00 0.  1.
     999902    2    1    2    0    0  0.13387373575E-01  0.39206150165E-02 -0.18203446279E-01  0.10209962160E+01  0.10207386123E+01 0.  0.
     999903    2    3    3    0    0  0.87899185726E-01  0.10002220361E-01  0.94195607072E-01  0.13070270074E+00  0.19597763274E-01 0.  0.
         14    1    1    2    0    0 -0.13387373575E-01 -0.39206150165E-02  0.18203446279E-01  0.22933784027E-01  0.00000000000E+00 0.  1.
     999901    1    3    3    0    0 -0.74511812151E-01 -0.60816053443E-02 -0.11239905335E+00  0.89029351523E+00  0.88000000000E+00 0. -1.
        -11    1    4    4    0    0  0.41100430892E-01  0.50078612299E-02  0.30145754691E-01  0.51218665938E-01  0.51100000000E-03 0.  1.
         11    1    4    4    0    0  0.46798754834E-01  0.49943591308E-02  0.64049852382E-01  0.79484034801E-01  0.51100000000E-03 0. -1.
</event>
<event>
 8    1  0.1129676E+005  0.1043930E+01  0.7957747E-01            NaN
         13   -1    0    0    0    0  0.00000000000E+00  0.00000000000E+00  0.74505805969E-08  0.10566000000E+00  0.10566000000E+00 0.  1.
     999900   -1    0    0    0    0 -0.00000000000E+00 -0.00000000000E+00 -0.74505805969E-08  0.93827000000E+00  0.93827000000E+00 0.  1.
     999902    2    1    2    0    0  0.41175181376E-02  0.18481460313E-01 -0.96336092959E-02  0.10226855946E+01  0.10224649142E+01 0.  0.
     999903    2    3    3    0    0 -0.76989660965E-01  0.32881074906E-01  0.10008249461E+00  0.13205472450E+00  0.20331540810E-01 0.  0.
         14    1    1    2    0    0 -0.41175181376E-02 -0.18481460313E-01  0.96336092959E-02  0.21244405357E-01  0.00000000000E+00 0. -1.
     999901    1    3    3    0    0  0.81107179103E-01 -0.14399614593E-01 -0.10971610391E+00  0.89063087015E+00  0.88000000000E+00 0.  1.
        -11    1    4    4    0    0 -0.48689707820E-01  0.10958481427E-01  0.51628149507E-01  0.71808794066E-01  0.51100000000E-03 0.  1.
         11    1    4    4    0    0 -0.28299953145E-01  0.21922593479E-01  0.48454345104E-01  0.60245930429E-01  0.51100000000E-03 0. -1.
</event>
<event>
 8    1  0.1129676E+005  0.1043930E+01  0.7957747E-01            NaN
         13   -1    0    0    0    0  0.00000000000E+00  0.00000000000E+00  0.74505805969E-08  0.10566000000E+00  0.10566000000E+00 0. -1.
     999900   -1    0    0    0    0 -0.00000000000E+00 -0.00000000000E+00 -0.74505805969E-08  0.93827000000E+00  0.93827000000E+00 0.  1.
     999902    2    1    2    0    0 -0.29100087971E-02  0.20457418238E-01 -0.12761337370E-01  0.10196436696E+01  0.10193543972E+01 0.  0.
     999903    2    3    3    0    0 -0.94412148993E-01  0.17967402265E-01  0.84418281501E-01  0.12957472837E+00  0.20656295878E-01 0.  0.
         14    1    1    2    0    0  0.29100087971E-02 -0.20457418238E-01  0.12761337370E-01  0.24286330386E-01  0.00000000000E+00 0. -1.
     999901    1    3    3    0    0  0.91502140195E-01  0.24900159732E-02 -0.97179618871E-01  0.89006894124E+00  0.88000000000E+00 0.  1.
        -11    1    4    4    0    0 -0.75482886872E-01  0.14567480414E-01  0.55404304322E-01  0.94761678724E-01  0.51100000000E-03 0.  1.
         11    1    4    4    0    0 -0.18929262121E-01  0.33999218507E-02  0.29013977179E-01  0.34813049648E-01  0.51100000000E-03 0. -1.
</event>
<event>
 8    1  0.1129676E+005  0.1043930E+01  0.7957747E-01            NaN
         13   -1    0    0    0    0  0.00000000000E+00  0.00000000000E+00  0.74505805969E-08  0.10566000000E+00  0.10566000000E+00 0.  1.
     999900   -1    0    0    0    0 -0.00000000000E+00 -0.00000000000E+00 -0.74505805969E-08  0.93827000000E+00  0.93827000000E+00 0. -1.
     999902    2    1    2    0    0 -0.14116835125E-01  0.13851894125E-01  0.10280306114E-01  0.10216399866E+01  0.10213967973E+01 0.  0.
     999903    2    3    3    0    0  0.56783820972E-01  0.10609274119E+00  0.52985519339E-01  0.13295612144E+00  0.19743173810E-01 0.  0.
         14    1    1    2    0    0  0.14116835125E-01 -0.13851894125E-01 -0.10280306114E-01  0.22290013427E-01  0.00000000000E+00 0.  1.
     999901    1    3    3    0    0 -0.70900656097E-01 -0.92240847068E-01 -0.42705213225E-01  0.88868386513E+00  0.88000000000E+00 0.  1.
        -11    1    4    4    0    0  0.26308855466E-01  0.68492550395E-01  0.35311372004E-01  0.81428124438E-01  0.51100000000E-03 0. -1.
         11    1    4    4    0    0  0.30474965505E-01  0.37600190797E-01  0.17674147335E-01  0.51527997007E-01  0.51100000000E-03 0.  1.
</event>
<event>
 8    1  0.1129676E+005  0.1043930E+01  0.7957747E-01            NaN
         13   -1    0    0    0    0  0.00000000000E+00  0.00000000000E+00  0.74505805969E-08  0.10566000000E+00  0.10566000000E+00 0.  1.
     999900   -1    0    0    0    0 -0.00000000000E+00 -0.00000000000E+00 -0.74505805969E-08  0.93827000000E+00  0.93827000000E+00 0.  1.
     999902    2    1    2    0    0  0.82264822773E-02  0.20927278977E-01 -0.74461120787E-02  0.10202430711E+01  0.10199680649E+01 0.  0.
     999903    2    3    3    0    0  0.69858292510E-02 -0.93059361140E-01  0.84825861012E-01  0.12810596820E+00  0.22513682163E-01 0.  0.
         14    1    1    2    0    0 -0.82264822773E-02 -0.20927278977E-01  0.74461120787E-02  0.23686928909E-01  0.00000000000E+00 0.  1.
     999901    1    3    3    0    0  0.12406530263E-02  0.11398664012E+00 -0.92271973091E-01  0.89213710290E+00  0.88000000000E+00 0.  1.
        -11    1    4    4    0    0 -0.89968896943E-03 -0.54909130222E-01  0.36108614803E-01  0.65726061848E-01  0.51100000000E-03 0. -1.
         11    1    4    4    0    0  0.78855182205E-02 -0.38150230918E-01  0.48717246209E-01  0.62379906347E-01  0.51100000000E-03 0.  1.
</event>
<event>
 8    1  0.1129676E+005  0.1043930E+01  0.7957747E-01            NaN
         13   -1    0    0    0    0  0.00000000000E+00  0.00000000000E+00  0.74505805969E-08  0.10566000000E+00  0.10566000000E+00 0.  1.
     999900   -1    0    0    0    0 -0.00000000000E+00 -0.00000000000E+00 -0.74505805969E-08  0.93827000000E+00  0.93827000000E+00 0.  1.
     999902    2    1    2    0    0  0.11878742528E-01  0.18562635467E-01 -0.10073927494E-01  0.10196986159E+01  0.10194106667E+01 0.  0.
     999903    2    3    3    0    0 -0.12403609656E-01 -0.11488939786E+00 -0.52865327288E-01  0.12827829882E+00  0.17525862197E-01 0.  0.
         14    1    1    2    0    0 -0.11878742528E-01 -0.18562635467E-01  0.10073927494E-01  0.24231384085E-01  0.00000000000E+00 0. -1.
     999901    1    3    3    0    0  0.24282352184E-01  0.13345203333E+00  0.42791399794E-01  0.89142031709E+00  0.88000000000E+00 0.  1.
        -11    1    4    4    0    0 -0.11542867494E-01 -0.99932095024E-01 -0.39109795078E-01  0.10793284300E+00  0.51100000000E-03 0. -1.
         11    1    4    4    0    0 -0.86074216168E-03 -0.14957302840E-01 -0.13755532210E-01  0.20345455824E-01  0.51100000000E-03 0.  1.
</event>
<event>
 8    1  0.1129676E+005  0.1043930E+01  0.7957747E-01            NaN
         13   -1    0    0    0    0  0.00000000000E+00  0.00000000000E+00  0.74505805969E-08  0.10566000000E+00  0.10566000000E+00 0.  1.
     999900   -1    0    0    0    0 -0.00000000000E+00 -0.00000000000E+00 -0.74505805969E-08  0.93827000000E+00  0.93827000000E+00 0. -1.
     999902    2    1    2    0    0  0.22061556698E-01  0.59748089639E-04 -0.75694045491E-02  0.10206059408E+01  0.10203393919E+01 0.  0.
     999903    2    3    3    0    0  0.71715447184E-01  0.23475333166E-02  0.10796399350E+00  0.13166347420E+00  0.23031071818E-01 0.  0.
         14    1    1    2    0    0 -0.22061556698E-01 -0.59748089639E-04  0.75694045491E-02  0.23324059231E-01  0.00000000000E+00 0.  1.
     999901    1    3    3    0    0 -0.49653890486E-01 -0.22877852270E-02 -0.11553339805E+00  0.88894246657E+00  0.88000000000E+00 0. -1.
        -11    1    4    4    0    0  0.40645353590E-01 -0.10913114887E-04  0.80257426920E-01  0.89964218356E-01  0.51100000000E-03 0.  1.
         11    1    4    4    0    0  0.31070093594E-01  0.23584464315E-02  0.27706566580E-01  0.41699255847E-01  0.51100000000E-03 0. -1.
</event>
<event>
 8    1  0.1129676E+005  0.1043930E+01  0.7957747E-01            NaN
         13   -1    0    0    0    0  0.00000000000E+00  0.00000000000E+00  0.74505805969E-08  0.10566000000E+00  0.10566000000E+00 0. -1.
     999900   -1    0    0    0    0 -0.00000000000E+00 -0.00000000000E+00 -0.74505805969E-08  0.93827000000E+00  0.93827000000E+00 0.  1.
     999902    2    1    2    0    0  0.10835224037E-01  0.13281673467E-01 -0.15364027826E-01  0.10209113493E+01  0.10206518137E+01 0.  0.
     999903    2    3    3    0    0  0.73714799924E-01 -0.84481630295E-01  0.62432511236E-01  0.12986488241E+00  0.19901046188E-01 0.  0.
         14    1    1    2    0    0 -0.10835224037E-01 -0.13281673467E-01  0.15364027826E-01  0.23018650722E-01  0.00000000000E+00 0. -1.
     999901    1    3    3    0    0 -0.62879575887E-01  0.97763303762E-01 -0.77796539061E-01  0.89104646687E+00  0.88000000000E+00 0. -1.
        -11    1    4    4    0    0  0.19672147047E-01 -0.10765081437E-01  0.11005337389E-01  0.24985174000E-01  0.51100000000E-03 0.  1.
         11    1    4    4    0    0  0.54042652877E-01 -0.73716548858E-01  0.51427173846E-01  0.10487970841E+00  0.51100000000E-03 0. -1.
</event>
<event>
 8    1  0.1129676E+005  0.1043930E+01  0.7957747E-01            NaN
         13   -1    0    0    0    0  0.00000000000E+00  0.00000000000E+00  0.74505805969E-08  0.10566000000E+00  0.10566000000E+00 0. -1.
     999900   -1    0    0    0    0 -0.00000000000E+00 -0.00000000000E+00 -0.74505805969E-08  0.93827000000E+00  0.93827000000E+00 0.  1.
     999902    2    1    2    0    0  0.17461779956E-01  0.16985839106E-01  0.47305122913E-02  0.10191144759E+01  0.10188123011E+01 0.  0.
     999903    2    3    3    0    0 -0.43760606393E-01  0.68615718972E-01 -0.98860507974E-01  0.12942637069E+00  0.18832892284E-01 0.  0.
         14    1    1    2    0    0 -0.17461779956E-01 -0.16985839106E-01 -0.47305122913E-02  0.24815524091E-01  0.00000000000E+00 0.  1.
     999901    1    3    3    0    0  0.61222386349E-01 -0.51629879866E-01  0.10359102027E+00  0.88968810522E+00  0.88000000000E+00 0. -1.
        -11    1    4    4    0    0 -0.29926023403E-01  0.60135536453E-01 -0.82343193975E-01  0.10626623328E+00  0.51100000000E-03 0.  1.
         11    1    4    4    0    0 -0.13834582990E-01  0.84801825188E-02 -0.16517313998E-01  0.23160137409E-01  0.51100000000E-03 0. -1.
</event>
<event>
 8    1  0.1129676E+005  0.1043930E+01  0.7957747E-01            NaN
         13   -1    0    0    0    0  0.00000000000E+00  0.00000000000E+00  0.74505805969E-08  0.10566000000E+00  0.10566000000E+00 0.  1.
     999900   -1    0    0    0    0 -0.00000000000E+00 -0.00000000000E+00 -0.74505805969E-08  0.93827000000E+00  0.93827000000E+00 0.  1.
     999902    2    1    2    0    0 -0.50901607979E-02  0.22710145489E-01  0.45202528541E-02  0.10202214967E+01  0.10199459834E+01 0.  0.
     999903    2    3    3    0    0 -0.40762081368E-01  0.11083772501E+00  0.59084118549E-01  0.13342040755E+00  0.19066292909E-01 0.  0.
         14    1    1    2    0    0  0.50901607979E-02 -0.22710145489E-01 -0.45202528541E-02  0.23708503347E-01  0.00000000000E+00 0.  1.
     999901    1    3    3    0    0  0.35671920570E-01 -0.88127579517E-01 -0.54563865694E-01  0.88680108910E+00  0.88000000000E+00 0.  1.
        -11    1    4    4    0    0 -0.34316936022E-02  0.33267614368E-01  0.14231067815E-01  0.36349623091E-01  0.51100000000E-03 0. -1.
         11    1    4    4    0    0 -0.37330387766E-01  0.77570110638E-01  0.44853050734E-01  0.97070784463E-01  0.51100000000E-03 0.  1.
</event>
<event>
 8    1  0.1129676E+005  0.1043930E+01  0.7957747E-01            NaN
         13   -1    0    0    0    0  0.00000000000E+00  0.00000000000E+00  0.74505805969E-08  0.10566000000E+00  0.10566000000E+00 0. -1.
     999900   -1    0    0    0    0 -0.00000000000E+00 -0.00000000000E+00 -0.74505805969E-08  0.93827000000E+00  0.93827000000E+00 0.  1.
     999902    2    1    2    0    0 -0.96865024225E-02  0.20698550772E-02 -0.20867990526E-01  0.10208305269E+01  0.10205691446E+01 0.  0.
     999903    2    3    3    0    0  0.33146138866E-01  0.11723849448E+00  0.40566794941E-01  0.13017195958E+00  0.21343455641E-01 0.  0.
         14    1    1    2    0    0  0.96865024225E-02 -0.20698550772E-02  0.20867990526E-01  0.23099473107E-01  0.00000000000E+00 0. -1.
     999901    1    3    3    0    0 -0.42832641289E-01 -0.11516863941E+00 -0.61434785467E-01  0.89065856731E+00  0.88000000000E+00 0. -1.
        -11    1    4    4    0    0  0.12905453145E-01  0.71059633420E-01  0.32130976024E-01  0.79048611398E-01  0.51100000000E-03 0. -1.
         11    1    4    4    0    0  0.20240685722E-01  0.46178861063E-01  0.84358189172E-02  0.51123348182E-01  0.51100000000E-03 0.  1.
</event>
<event>
 8    1  0.1129676E+005  0.1043930E+01  0.7957747E-01            NaN
         13   -1    0    0    0    0  0.00000000000E+00  0.00000000000E+00  0.74505805969E-08  0.10566000000E+00  0.10566000000E+00 0.  1.
     999900   -1    0    0    0    0 -0.00000000000E+00 -0.00000000000E+00 -0.74505805969E-08  0.93827000000E+00  0.93827000000E+00 0. -1.
     999902    2    1    2    0    0 -0.68572809060E-02  0.11269446925E-02 -0.21672883324E-01  0.10211702509E+01  0.10209165858E+01 0.  0.
     999903    2    3    3    0    0 -0.29240079159E-01  0.10379930672E+00  0.70318103213E-01  0.13015681379E+00  0.19154170049E-01 0.  0.
         14    1    1    2    0    0  0.68572809060E-02 -0.11269446925E-02  0.21672883324E-01  0.22759749061E-01  0.00000000000E+00 0.  1.
     999901    1    3    3    0    0  0.22382798253E-01 -0.10267236203E+00 -0.91990986537E-01  0.89101343715E+00  0.88000000000E+00 0.  1.
        -11    1    4    4    0    0 -0.24784618594E-01  0.53396564377E-01  0.39861849893E-01  0.71096403594E-01  0.51100000000E-03 0.  1.
         11    1    4    4    0    0 -0.44554605648E-02  0.50402742346E-01  0.30456253320E-01  0.59060410192E-01  0.51100000000E-03 0. -1.
</event>
<event>
 8    1  0.1129676E+005  0.1043930E+01  0.7957747E-01            NaN
         13   -1    0    0    0    0  0.00000000000E+00  0.00000000000E+00  0.74505805969E-08  0.10566000000E+00  0.10566000000E+00 0. -1.
     999900   -1    0    0    0    0 -0.00000000000E+00 -0.00000000000E+00 -0.74505805969E-08  0.93827000000E+00  0.93827000000E+00 0. -1.
     999902    2    1    2    0    0  0.55135570644E-02  0.11379662594E-01  0.22206775157E-01  0.10183754134E+01  0.10180547361E+01 0.  0.
     999903    2    3    3    0    0  0.28130062252E-01 -0.69667210656E-01  0.10475325640E+00  0.13051617709E+00  0.20406055834E-01 0.  0.
         14    1    1    2    0    0 -0.55135570644E-02 -0.11379662594E-01 -0.22206775157E-01  0.25554586577E-01  0.00000000000E+00 0.  1.
     999901    1    3    3    0    0 -0.22616505187E-01  0.81046873250E-01 -0.82546481239E-01  0.88785923633E+00  0.88000000000E+00 0. -1.
        -11    1    4    4    0    0  0.11530035710E-01 -0.46526822005E-01  0.77293558379E-01  0.90951867365E-01  0.51100000000E-03 0.  1.
         11    1    4    4    0    0  0.16600026541E-01 -0.23140388651E-01  0.27459698017E-01  0.39564309728E-01  0.51100000000E-03 0. -1.
</event>
<event>
 8    1  0.1129676E+005  0.1043930E+01  0.7957747E-01            NaN
         13   -1    0    0    0    0  0.00000000000E+00  0.00000000000E+00  0.74505805969E-08  0.10566000000E+00  0.10566000000E+00 0. -1.
     999900   -1    0    0    0    0 -0.00000000000E+00 -0.00000000000E+00 -0.74505805969E-08  0.93827000000E+00  0.93827000000E+00 0.  1.
     999902    2    1    2    0    0 -0.90920118229E-02 -0.21400357973E-01  0.61292361536E-02  0.10198840536E+01  0.10196005469E+01 0.  0.
     999903    2    3    3    0    0 -0.20643425735E-01 -0.12668429191E+00  0.29724472890E-01  0.13321902270E+00  0.19715549133E-01 0.  0.
         14    1    1    2    0    0  0.90920118229E-02  0.21400357973E-01 -0.61292361536E-02  0.24045946357E-01  0.00000000000E+00 0. -1.
     999901    1    3    3    0    0  0.11551413912E-01  0.10528393393E+00 -0.23595236736E-01  0.88666503095E+00  0.88000000000E+00 0.  1.
        -11    1    4    4    0    0 -0.11306911552E-01 -0.70103903030E-01  0.26450174186E-01  0.75777808786E-01  0.51100000000E-03 0.  1.
         11    1    4    4    0    0 -0.93365141827E-02 -0.56580388876E-01  0.32742987036E-02  0.57441213910E-01  0.51100000000E-03 0. -1.
</event>
<event>
 8    1  0.1129676E+005  0.1043930E+01  0.7957747E-01            NaN
         13   -1    0    0    0    0  0.00000000000E+00  0.00000000000E+00  0.74505805969E-08  0.10566000000E+00  0.10566000000E+00 0. -1.
     999900   -1    0    0    0    0 -0.00000000000E+00 -0.00000000000E+00 -0.74505805969E-08  0.93827000000E+00  0.93827000000E+00 0. -1.
     999902    2    1    2    0    0 -0.18360265081E-01 -0.70195182728E-03  0.14910875569E-01  0.10202672385E+01  0.10199927998E+01 0.  0.
     999903    2    3    3    0    0  0.42876047395E-01 -0.12088521260E+00 -0.80547017077E-02  0.12969364815E+00  0.17434852628E-01 0.  0.
         14    1    1    2    0    0  0.18360265081E-01  0.70195182728E-03 -0.14910875569E-01  0.23662761471E-01  0.00000000000E+00 0.  1.
     999901    1    3    3    0    0 -0.61236312476E-01  0.12018326077E+00  0.22965577276E-01  0.89057359038E+00  0.88000000000E+00 0.  1.
        -11    1    4    4    0    0  0.12316733715E-01 -0.52342050741E-01 -0.96244608835E-02  0.54628596664E-01  0.51100000000E-03 0.  1.
         11    1    4    4    0    0  0.30559313680E-01 -0.68543161858E-01  0.15697591758E-02  0.75065051489E-01  0.51100000000E-03 0. -1.
</event>
<event>
 8    1  0.1129676E+005  0.1043930E+01  0.7957747E-01            NaN
         13   -1    0    0    0    0  0.00000000000E+00  0.00000000000E+00  0.74505805969E-08  0.10566000000E+00  0.10566000000E+00 0. -1.
     999900   -1    0    0    0    0 -0.00000000000E+00 -0.00000000000E+00 -0.74505805969E-08  0.93827000000E+00  0.93827000000E+00 0. -1.
     999902    2    1    2    0    0  0.19882665340E-01 -0.64108288881E-02  0.10459651601E-01  0.10205671359E+01  0.10202996890E+01 0.  0.
     999903    2    3    3    0    0 -0.66653509864E-01  0.42796851427E-01 -0.98853315503E-01  0.12823354905E+00  0.19940016202E-01 0.  0.
         14    1    1    2    0    0 -0.19882665340E-01  0.64108288881E-02 -0.10459651601E-01  0.23362864115E-01  0.00000000000E+00 0. -1.
     999901    1    3    3    0    0  0.86536175203E-01 -0.49207680315E-01  0.10931296710E+00  0.89233358684E+00  0.88000000000E+00 0. -1.
        -11    1    4    4    0    0 -0.28444679533E-01  0.22486028074E-01 -0.59834964258E-01  0.69965743911E-01  0.51100000000E-03 0.  1.
         11    1    4    4    0    0 -0.38208830330E-01  0.20310823353E-01 -0.39018351245E-01  0.58267805136E-01  0.51100000000E-03 0. -1.
</event>
<event>
 8    1  0.1129676E+005  0.1043930E+01  0.7957747E-01            NaN
         13   -1    0    0    0    0  0.00000000000E+00  0.00000000000E+00  0.74505805969E-08  0.10566000000E+00  0.10566000000E+00 0.  1.
     999900   -1    0    0    0    0 -0.00000000000E+00 -0.00000000000E+00 -0.74505805969E-08  0.93827000000E+00  0.93827000000E+00 0.  1.
     999902    2    1    2    0    0 -0.19050790673E-01  0.13460545684E-01 -0.32407667396E-02  0.10203795969E+01  0.10201077886E+01 0.  0.
     999903    2    3    3    0    0  0.53575911169E-01  0.11142162241E+00  0.38640282499E-01  0.13098371621E+00  0.19455237875E-01 0.  0.
         14    1    1    2    0    0  0.19050790673E-01 -0.13460545684E-01  0.32407667396E-02  0.23550403063E-01  0.00000000000E+00 0. -1.
     999901    1    3    3    0    0 -0.72626701842E-01 -0.97961076729E-01 -0.41881049239E-01  0.88939588073E+00  0.88000000000E+00 0.  1.
        -11    1    4    4    0    0  0.51041027474E-01  0.10792430283E+00  0.33003960681E-01  0.12386429739E+00  0.51100000000E-03 0.  1.
         11    1    4    4    0    0  0.25348836952E-02  0.34973195848E-02  0.56363218179E-02  0.71194188148E-02  0.51100000000E-03 0. -1.
</event>
<event>
 8    1  0.1344159E+005  0.1043930E+01  0.7957747E-01            NaN
         13   -1    0    0    0    0  0.00000000000E+00  0.00000000000E+00  0.74505805969E-08  0.10566000000E+00  0.10566000000E+00 0. -1.
     999900   -1    0    0    0    0 -0.00000000000E+00 -0.00000000000E+00 -0.74505805969E-08  0.93827000000E+00  0.93827000000E+00 0. -1.
     999902    2    1    2    0    0 -0.15576535949E-01  0.57060899492E-02 -0.16906054807E-01  0.10202445060E+01  0.10199695336E+01 0.  0.
     999903    2    3    3    0    0  0.16049230666E-01  0.96663975745E-03  0.12570349952E+00  0.12819061951E+00  0.19311989561E-01 0.  0.
         14    1    1    2    0    0  0.15576535949E-01 -0.57060899492E-02  0.16906054807E-01  0.23685493953E-01  0.00000000000E+00 0. -1.
     999901    1    3    3    0    0 -0.31625766615E-01  0.47394501918E-02 -0.14260955433E+00  0.89205388654E+00  0.88000000000E+00 0. -1.
        -11    1    4    4    0    0  0.14616170632E-01 -0.74928572726E-02  0.87829457965E-01  0.89353512306E-01  0.51100000000E-03 0.  1.
         11    1    4    4    0    0  0.14330600337E-02  0.84594970300E-02  0.37874041556E-01  0.38837107203E-01  0.51100000000E-03 0. -1.
</event>
<event>
 8    1  0.1129676E+005  0.1043930E+01  0.7957747E-01            NaN
         13   -1    0    0    0    0  0.00000000000E+00  0.00000000000E+00  0.74505805969E-08  0.10566000000E+00  0.10566000000E+00 0.  1.
     999900   -1    0    0    0    0 -0.00000000000E+00 -0.00000000000E+00 -0.74505805969E-08  0.93827000000E+00  0.93827000000E+00 0. -1.
     999902    2    1    2    0    0  0.58384145936E-02 -0.69276375073E-02 -0.21747407858E-01  0.10203709466E+01  0.10200989363E+01 0.  0.
     999903    2    3    3    0    0  0.31383201781E-01  0.12390348173E+00 -0.16836660531E-01  0.13031845755E+00  0.19038096002E-01 0.  0.
         14    1    1    2    0    0 -0.58384145936E-02  0.69276375073E-02  0.21747407858E-01  0.23559053354E-01  0.00000000000E+00 0.  1.
     999901    1    3    3    0    0 -0.25544787187E-01 -0.13083111924E+00 -0.49107473273E-02  0.89005248910E+00  0.88000000000E+00 0. -1.
        -11    1    4    4    0    0  0.33425855188E-01  0.10472233009E+00 -0.14121885977E-01  0.11083204861E+00  0.51100000000E-03 0. -1.
         11    1    4    4    0    0 -0.20426534068E-02  0.19181151645E-01 -0.27147745534E-02  0.19486408936E-01  0.51100000000E-03 0.  1.
</event>
<event>
 7    1  0.1129676E+005  0.1043930E+01  0.7957747E-01            NaN
         13   -1    0    0    0    0  0.00000000000E+00  0.00000000000E+00  0.74505805969E-08  0.10566000000E+00  0.10566000000E+00 0.  1.
     999900   -1    0    0    0    0 -0.00000000000E+00 -0.00000000000E+00 -0.74505805969E-08  0.93827000000E+00  0.93827000000E+00 0.  1.
     999902    2    1    2    0    0 -0.21274250025E-01  0.98644389734E-02  0.28290206517E-02  0.10203100036E+01  0.10200365676E+01 0.  0.
         14    1    1    2    0    0  0.21274250025E-01 -0.98644389734E-02 -0.28290206517E-02  0.23619996364E-01  0.00000000000E+00 0.  1.
     999901    1    3    3    0    0 -0.75179560758E-01  0.99156404658E-01 -0.59107035999E-01  0.89071746398E+00  0.88000000000E+00 0.  1.
        -11    1    3    3    0    0 -0.31329024166E-02 -0.34533142198E-01  0.16600143388E-01  0.38447091816E-01  0.51100000000E-03 0.  1.
         11    1    3    3    0    0  0.57038213149E-01 -0.54758823487E-01  0.45335913263E-01  0.91145447837E-01  0.51100000000E-03 0. -1.
</event>
<event>
 8    1  0.1129676E+005  0.1043930E+01  0.7957747E-01            NaN
         13   -1    0    0    0    0  0.00000000000E+00  0.00000000000E+00  0.74505805969E-08  0.10566000000E+00  0.10566000000E+00 0. -1.
     999900   -1    0    0    0    0 -0.00000000000E+00 -0.00000000000E+00 -0.74505805969E-08  0.93827000000E+00  0.93827000000E+00 0.  1.
     999902    2    1    2    0    0 -0.22841443462E-02 -0.17474646731E-01  0.16268529983E-01  0.10199457205E+01  0.10196636834E+01 0.  0.
     999903    2    3    3    0    0  0.39665474503E-01  0.11863010164E+00  0.23085421699E-01  0.12846900010E+00  0.18024883050E-01 0.  0.
         14    1    1    2    0    0  0.22841443462E-02  0.17474646731E-01 -0.16268529983E-01  0.23984279468E-01  0.00000000000E+00 0.  1.
     999901    1    3    3    0    0 -0.41949618849E-01 -0.13610474838E+00 -0.68168917161E-02  0.89147672043E+00  0.88000000000E+00 0.  1.
        -11    1    4    4    0    0  0.16616781998E-01  0.27828251437E-01  0.22279270686E-02  0.32492365288E-01  0.51100000000E-03 0. -1.
         11    1    4    4    0    0  0.23048692506E-01  0.90801850208E-01  0.20857494631E-01  0.95976634816E-01  0.51100000000E-03 0.  1.
</event>
<event>
 8    1  0.1129676E+005  0.1043930E+01  0.7957747E-01            NaN
         13   -1    0    0    0    0  0.00000000000E+00  0.00000000000E+00  0.74505805969E-08  0.10566000000E+00  0.10566000000E+00 0. -1.
     999900   -1    0    0    0    0 -0.00000000000E+00 -0.00000000000E+00 -0.74505805969E-08  0.93827000000E+00  0.93827000000E+00 0. -1.
     999902    2    1    2    0    0  0.47456972833E-02 -0.19708828480E-02  0.22464517147E-01  0.10208852489E+01  0.10206251177E+01 0.  0.
     999903    2    3    3    0    0  0.10325456471E+00 -0.30129820761E-01  0.75776140465E-01  0.13333860117E+00  0.21629791138E-01 0.  0.
         14    1    1    2    0    0 -0.47456972833E-02  0.19708828480E-02 -0.22464517147E-01  0.23044751085E-01  0.00000000000E+00 0.  1.
     999901    1    3    3    0    0 -0.98508867428E-01  0.28158937913E-01 -0.53311623318E-01  0.88754664775E+00  0.88000000000E+00 0.  1.
        -11    1    4    4    0    0  0.60892304552E-01 -0.19389451835E-01  0.57495086417E-01  0.85963769573E-01  0.51100000000E-03 0. -1.
         11    1    4    4    0    0  0.42362260160E-01 -0.10740368926E-01  0.18281054048E-01  0.47374831595E-01  0.51100000000E-03 0.  1.
</event>
<event>
 8    1  0.1129676E+005  0.1043930E+01  0.7957747E-01            NaN
         13   -1    0    0    0    0  0.00000000000E+00  0.00000000000E+00  0.74505805969E-08  0.10566000000E+00  0.10566000000E+00 0.  1.
     999900   -1    0    0    0    0 -0.00000000000E+00 -0.00000000000E+00 -0.74505805969E-08  0.93827000000E+00  0.93827000000E+00 0. -1.
     999902    2    1    2    0    0  0.18672832882E-01 -0.42707751804E-02  0.10219696109E-01  0.10222192562E+01  0.10219886747E+01 0.  0.
     999903    2    3    3    0    0  0.13221856363E-02 -0.28006627019E-01 -0.12650104620E+00  0.13117661018E+00  0.20461403604E-01 0.  0.
         14    1    1    2    0    0 -0.18672832882E-01  0.42707751804E-02 -0.10219696109E-01  0.21710743816E-01  0.00000000000E+00 0. -1.
     999901    1    3    3    0    0  0.17350647246E-01  0.23735851839E-01  0.13672074231E+00  0.89104264600E+00  0.88000000000E+00 0.  1.
        -11    1    4    4    0    0 -0.42612742171E-02 -0.29462797852E-02 -0.58845739176E-02  0.78567393821E-02  0.51100000000E-03 0.  1.
         11    1    4    4    0    0  0.55834598534E-02 -0.25060347234E-01 -0.12061647228E+00  0.12331987080E+00  0.51100000000E-03 0. -1.
</event>
<event>
 8    1  0.1129676E+005  0.1043930E+01  0.7957747E-01            NaN
         13   -1    0    0    0    0  0.00000000000E+00  0.00000000000E+00  0.74505805969E-08  0.10566000000E+00  0.10566000000E+00 0.  1.
     999900   -1    0    0    0    0 -0.00000000000E+00 -0.00000000000E+00 -0.74505805969E-08  0.93827000000E+00  0.93827000000E+00 0. -1.
     999902    2    1    2    0    0 -0.90104563386E-02  0.64833453666E-02  0.19479001086E-01  0.10215100630E+01  0.10212639988E+01 0.  0.
     999903    2    3    3    0    0 -0.10538175906E+00 -0.56149279124E-03  0.80627902196E-01  0.13411147962E+00  0.19478191273E-01 0.  0.
         14    1    1    2    0    0  0.90104563386E-02 -0.64833453666E-02 -0.19479001086E-01  0.22419936973E-01  0.00000000000E+00 0. -1.
     999901    1    3    3    0    0  0.96371302722E-01  0.70448381578E-02 -0.61148901111E-01  0.88739858341E+00  0.88000000000E+00 0. -1.
        -11    1    4    4    0    0 -0.21768612015E-01  0.68606889983E-02  0.12684910476E-01  0.26117227981E-01  0.51100000000E-03 0. -1.
         11    1    4    4    0    0 -0.83613147045E-01 -0.74221817896E-02  0.67942991720E-01  0.10799425164E+00  0.51100000000E-03 0.  1.
</event>
<event>
 8    1  0.1129676E+005  0.1043930E+01  0.7957747E-01            NaN
         13   -1    0    0    0    0  0.00000000000E+00  0.00000000000E+00  0.74505805969E-08  0.10566000000E+00  0.10566000000E+00 0. -1.
     999900   -1    0    0    0    0 -0.00000000000E+00 -0.00000000000E+00 -0.74505805969E-08  0.93827000000E+00  0.93827000000E+00 0.  1.
     999902    2    1    2    0    0  0.14989599466E-01  0.20943139818E-01  0.34234985670E-02  0.10179487849E+01  0.10176171702E+01 0.  0.
     999903    2    3    3    0    0  0.86625616967E-01 -0.61231440411E-01  0.70048356902E-01  0.12872257495E+00  0.20234677865E-01 0.  0.
         14    1    1    2    0    0 -0.14989599466E-01 -0.20943139818E-01 -0.34234985670E-02  0.25981215138E-01  0.00000000000E+00 0. -1.
     999901    1    3    3    0    0 -0.71636017501E-01  0.82174580229E-01 -0.66624858335E-01  0.88922620991E+00  0.88000000000E+00 0.  1.
        -11    1    4    4    0    0  0.69037019705E-01 -0.40140635320E-01  0.45666380467E-01  0.91994891813E-01  0.51100000000E-03 0. -1.
         11    1    4    4    0    0  0.17588597262E-01 -0.21090805091E-01  0.24381976435E-01  0.36727683142E-01  0.51100000000E-03 0.  1.
</event>
<event>
 8    1  0.1129676E+005  0.1043930E+01  0.7957747E-01            NaN
         13   -1    0    0    0    0  0.00000000000E+00  0.00000000000E+00  0.74505805969E-08  0.10566000000E+00  0.10566000000E+00 0.  1.
     999900   -1    0    0    0    0 -0.00000000000E+00 -0.00000000000E+00 -0.74505805969E-08  0.93827000000E+00  0.93827000000E+00 0.  1.
     999902    2    1    2    0    0  0.60502581238E-02  0.21428582919E-01 -0.82196396255E-02  0.10201949570E+01  0.10199188194E+01 0.  0.
     999903    2    3    3    0    0  0.55856381738E-01 -0.82134771941E-01  0.78786919696E-01  0.12846845199E+00  0.20753512944E-01 0.  0.
         14    1    1    2    0    0 -0.60502581238E-02 -0.21428582919E-01  0.82196396255E-02  0.23735042971E-01  0.00000000000E+00 0.  1.
     999901    1    3    3    0    0 -0.49806123614E-01  0.10356335486E+00 -0.87006559321E-01  0.89172650504E+00  0.88000000000E+00 0. -1.
        -11    1    4    4    0    0  0.21825970838E-01 -0.50001499379E-01  0.45330369830E-01  0.70933958673E-01  0.51100000000E-03 0. -1.
         11    1    4    4    0    0  0.34030410899E-01 -0.32133272563E-01  0.33456549866E-01  0.57534493319E-01  0.51100000000E-03 0.  1.
</event>
<event>
 8    1  0.1129676E+005  0.1043930E+01  0.7957747E-01            NaN
         13   -1    0    0    0    0  0.00000000000E+00  0.00000000000E+00  0.74505805969E-08  0.10566000000E+00  0.10566000000E+00 0. -1.
     999900   -1    0    0    0    0 -0.00000000000E+00 -0.00000000000E+00 -0.74505805969E-08  0.93827000000E+00  0.93827000000E+00 0. -1.
     999902    2    1    2    0    0  0.12750908471E-01  0.76819854876E-02 -0.13935484456E-01  0.10235389163E+01  0.10233357791E+01 0.  0.
     999903    2    3    3    0    0  0.10583411685E+00 -0.65225210895E-01  0.44840328790E-01  0.13368806407E+00  0.20165687771E-01 0.  0.
         14    1    1    2    0    0 -0.12750908471E-01 -0.76819854876E-02  0.13935484456E-01  0.20391083710E-01  0.00000000000E+00 0. -1.
     999901    1    3    3    0    0 -0.93083208383E-01  0.72907196382E-01 -0.58775813246E-01  0.88985085222E+00  0.88000000000E+00 0.  1.
        -11    1    4    4    0    0  0.15861283566E-01 -0.78815537437E-02 -0.57966364503E-03  0.17728404799E-01  0.51100000000E-03 0. -1.
         11    1    4    4    0    0  0.89972833288E-01 -0.57343657151E-01  0.45419992435E-01  0.11595965928E+00  0.51100000000E-03 0.  1.
</event>
<event>
 8    1  0.1129676E+005  0.1043930E+01  0.7957747E-01            NaN
         13   -1    0    0    0    0  0.00000000000E+00  0.00000000000E+00  0.74505805969E-08  0.10566000000E+00  0.10566000000E+00 0. -1.
     999900   -1    0    0    0    0 -0.00000000000E+00 -0.00000000000E+00 -0.74505805969E-08  0.93827000000E+00  0.93827000000E+00 0. -1.
     999902    2    1    2    0    0 -0.22167895410E-01 -0.66248397352E-02  0.39866181692E-02  0.10204524104E+01  0.10201822997E+01 0.  0.
     999903    2    3    3    0    0 -0.62471809521E-01  0.10010957036E+00  0.55050266992E-01  0.13161939121E+00  0.19195811667E-01 0.  0.
         14    1    1    2    0    0  0.22167895410E-01  0.66248397352E-02 -0.39866181692E-02  0.23477589588E-01  0.00000000000E+00 0. -1.
     999901    1    3    3    0    0  0.40303914111E-01 -0.10673441009E+00 -0.51063648823E-01  0.88883301920E+00  0.88000000000E+00 0. -1.
        -11    1    4    4    0    0 -0.23639569759E-01  0.36329500576E-01  0.30546677513E-01  0.53028506471E-01  0.51100000000E-03 0.  1.
         11    1    4    4    0    0 -0.38832239761E-01  0.63780069779E-01  0.24503589479E-01  0.78590884741E-01  0.51100000000E-03 0. -1.
</event>
<event>
 8    1  0.1129676E+005  0.1043930E+01  0.7957747E-01            NaN
         13   -1    0    0    0    0  0.00000000000E+00  0.00000000000E+00  0.74505805969E-08  0.10566000000E+00  0.10566000000E+00 0.  1.
     999900   -1    0    0    0    0 -0.00000000000E+00 -0.00000000000E+00 -0.74505805969E-08  0.93827000000E+00  0.93827000000E+00 0. -1.
     999902    2    1    2    0    0  0.10811406738E-01 -0.64690252595E-02 -0.21829845430E-01  0.10187252990E+01  0.10184134513E+01 0.  0.
     999903    2    3    3    0    0 -0.10857305747E+00 -0.59933781154E-01  0.24974629941E-01  0.12782587178E+00  0.18318144659E-01 0.  0.
         14    1    1    2    0    0 -0.10811406738E-01  0.64690252595E-02  0.21829845430E-01  0.25204701049E-01  0.00000000000E+00 0.  1.
     999901    1    3    3    0    0  0.11938446421E+00  0.53464755894E-01 -0.46804475372E-01  0.89089942717E+00  0.88000000000E+00 0. -1.
        -11    1    4    4    0    0 -0.63591857101E-01 -0.35299848235E-01  0.23785706541E-01  0.76524666165E-01  0.51100000000E-03 0.  1.
         11    1    4    4    0    0 -0.44981200370E-01 -0.24633932918E-01  0.11889234001E-02  0.51301205616E-01  0.51100000000E-03 0. -1.
</event>
<event>
 8    1  0.1129676E+005  0.1043930E+01  0.7957747E-01            NaN
         13   -1    0    0    0    0  0.00000000000E+00  0.00000000000E+00  0.74505805969E-08  0.10566000000E+00  0.10566000000E+00 0.  1.
     999900   -1    0    0    0    0 -0.00000000000E+00 -0.00000000000E+00 -0.74505805969E-08  0.93827000000E+00  0.93827000000E+00 0. -1.
     999902    2    1    2    0    0 -0.75540175246E-02 -0.13077268004E-01  0.18211245485E-01  0.10202714375E+01  0.10199970973E+01 0.  0.
     999903    2    3    3    0    0  0.10842924496E+00 -0.29742915174E-01 -0.60026192785E-01  0.12906385350E+00  0.20317290511E-01 0.  0.
         14    1    1    2    0    0  0.75540175246E-02  0.13077268004E-01 -0.18211245485E-01  0.23658562537E-01  0.00000000000E+00 0. -1.
     999901    1    3    3    0    0 -0.11598326248E+00  0.16665647170E-01  0.78237438270E-01  0.89120758397E+00  0.88000000000E+00 0.  1.
        -11    1    4    4    0    0  0.26092016629E-01 -0.37028875712E-02 -0.23447219126E-01  0.35278008928E-01  0.51100000000E-03 0.  1.
         11    1    4    4    0    0  0.82337228330E-01 -0.26040027602E-01 -0.36578973658E-01  0.93785844569E-01  0.51100000000E-03 0. -1.
</event>
<event>
 8    1  0.1129676E+005  0.1043930E+01  0.7957747E-01            NaN
         13   -1    0    0    0    0  0.00000000000E+00  0.00000000000E+00  0.74505805969E-08  0.10566000000E+00  0.10566000000E+00 0. -1.
     999900   -1    0    0    0    0 -0.00000000000E+00 -0.00000000000E+00 -0.74505805969E-08  0.93827000000E+00  0.93827000000E+00 0. -1.
     999902    2    1    2    0    0 -0.74814272554E-03 -0.23011222411E-01 -0.29566812116E-02  0.10207175456E+01  0.10204535707E+01 0.  0.
     999903    2    3    3    0    0 -0.10453985776E+00  0.67110001004E-01 -0.31220154746E-01  0.12959837348E+00  0.19715634695E-01 0.  0.
         14    1    1    2    0    0  0.74814272554E-03  0.23011222411E-01  0.29566812116E-02  0.23212454376E-01  0.00000000000E+00 0.  1.
     999901    1    3    3    0    0  0.10379171504E+00 -0.90121223414E-01  0.28263473534E-01  0.89111917214E+00  0.88000000000E+00 0.  1.
        -11    1    4    4    0    0 -0.52747112143E-01  0.39834414677E-01 -0.25240022100E-01  0.70755623583E-01  0.51100000000E-03 0. -1.
         11    1    4    4    0    0 -0.51792745620E-01  0.27275586327E-01 -0.59801326453E-02  0.58842749900E-01  0.51100000000E-03 0.  1.
</event>
<event>
 8    1  0.1129676E+005  0.1043930E+01  0.7957747E-01            NaN
         13   -1    0    0    0    0  0.00000000000E+00  0.00000000000E+00  0.74505805969E-08  0.10566000000E+00  0.10566000000E+00 0.  1.
     999900   -1    0    0    0    0 -0.00000000000E+00 -0.00000000000E+00 -0.74505805969E-08  0.93827000000E+00  0.93827000000E+00 0.  1.
     999902    2    1    2    0    0  0.21684797597E-01 -0.56186417756E-02  0.84505405192E-02  0.10199881701E+01  0.10197071423E+01 0.  0.
     999903    2    3    3    0    0 -0.56789464567E-01 -0.70495088367E-01 -0.88964911511E-01  0.12877723358E+00  0.21776584632E-01 0.  0.
         14    1    1    2    0    0 -0.21684797597E-01  0.56186417756E-02 -0.84505405192E-02  0.23941829865E-01  0.00000000000E+00 0.  1.
     999901    1    3    3    0    0  0.78474262164E-01  0.64876446591E-01  0.97415452030E-01  0.89121093656E+00  0.88000000000E+00 0.  1.
        -11    1    4    4    0    0 -0.21876458082E-01 -0.33801487854E-01 -0.25845939293E-01  0.47847609118E-01  0.51100000000E-03 0.  1.
         11    1    4    4    0    0 -0.34913006484E-01 -0.36693600513E-01 -0.63118972218E-01  0.80929624460E-01  0.51100000000E-03 0. -1.
</event>
<event>
 8    1  0.1129676E+005  0.1043930E+01  0.7957747E-01            NaN
         13   -1    0    0    0    0  0.00000000000E+00  0.00000000000E+00  0.74505805969E-08  0.10566000000E+00  0.10566000000E+00 0.  1.
     999900   -1    0    0    0    0 -0.00000000000E+00 -0.00000000000E+00 -0.74505805969E-08  0.93827000000E+00  0.93827000000E+00 0. -1.
     999902    2    1    2    0    0  0.34045912081E-03  0.47041214009E-02 -0.23415464431E-01  0.10200442585E+01  0.10197645614E+01 0.  0.
     999903    2    3    3    0    0  0.10223759542E+00  0.45729024964E-01 -0.67276851071E-01  0.13213103624E+00  0.19717160195E-01 0.  0.
         14    1    1    2    0    0 -0.34045912081E-03 -0.47041214009E-02  0.23415464431E-01  0.23885741460E-01  0.00000000000E+00 0.  1.
     999901    1    3    3    0    0 -0.10189713630E+00 -0.41024903563E-01  0.43861386640E-01  0.88791322230E+00  0.88000000000E+00 0.  1.
        -11    1    4    4    0    0  0.37137829523E-01  0.24377818945E-01 -0.34113086605E-01  0.56013036312E-01  0.51100000000E-03 0. -1.
         11    1    4    4    0    0  0.65099765897E-01  0.21351206019E-01 -0.33163764467E-01  0.76117999928E-01  0.51100000000E-03 0.  1.
</event>
<event>
 8    1  0.1129676E+005  0.1043930E+01  0.7957747E-01            NaN
         13   -1    0    0    0    0  0.00000000000E+00  0.00000000000E+00  0.74505805969E-08  0.10566000000E+00  0.10566000000E+00 0.  1.
     999900   -1    0    0    0    0 -0.00000000000E+00 -0.00000000000E+00 -0.74505805969E-08  0.93827000000E+00  0.93827000000E+00 0.  1.
     999902    2    1    2    0    0 -0.15998664714E-01  0.20951853365E-02  0.24473876602E-01  0.10146158787E+01  0.10141923208E+01 0.  0.
     999903    2    3    3    0    0 -0.78077212920E-01 -0.65047637495E-01  0.75898827758E-01  0.12838428906E+00  0.19865731802E-01 0.  0.
         14    1    1    2    0    0  0.15998664714E-01 -0.20951853365E-02 -0.24473876602E-01  0.29314121344E-01  0.00000000000E+00 0. -1.
     999901    1    3    3    0    0  0.62078548206E-01  0.67142822832E-01 -0.51424951156E-01  0.88623158960E+00  0.88000000000E+00 0.  1.
        -11    1    4    4    0    0 -0.12948879498E-01 -0.12625225973E-01  0.50183333668E-02  0.18775372217E-01  0.51100000000E-03 0. -1.
         11    1    4    4    0    0 -0.65128333423E-01 -0.52422411522E-01  0.70880494391E-01  0.10960891684E+00  0.51100000000E-03 0.  1.
</event>
<event>
 8    1  0.1129676E+005  0.1043930E+01  0.7957747E-01            NaN
         13   -1    0    0    0    0  0.00000000000E+00  0.00000000000E+00  0.74505805969E-08  0.10566000000E+00  0.10566000000E+00 0.  1.
     999900   -1    0    0    0    0 -0.00000000000E+00 -0.00000000000E+00 -0.74505805969E-08  0.93827000000E+00  0.93827000000E+00 0. -1.
     999902    2    1    2    0    0 -0.19413804039E-01 -0.12543078414E-01  0.92659436523E-02  0.10190285479E+01  0.10187242508E+01 0.  0.
     999903    2    3    3    0    0 -0.10959025523E+00 -0.69775337420E-01  0.17542467150E-01  0.13253217193E+00  0.19452935226E-01 0.  0.
         14    1    1    2    0    0  0.19413804039E-01  0.12543078414E-01 -0.92659436523E-02  0.24901452069E-01  0.00000000000E+00 0. -1.
     999901    1    3    3    0    0  0.90176451194E-01  0.57232259006E-01 -0.82765234974E-02  0.88649637600E+00  0.88000000000E+00 0.  1.
        -11    1    4    4    0    0 -0.20478538038E-01 -0.22689114507E-01  0.47525736808E-02  0.30935651195E-01  0.51100000000E-03 0. -1.
         11    1    4    4    0    0 -0.89111717195E-01 -0.47086222913E-01  0.12789893469E-01  0.10159652074E+00  0.51100000000E-03 0.  1.
</event>
<event>
 7    1  0.1129676E+005  0.1043930E+01  0.7957747E-01            NaN
         13   -1    0    0    0    0  0.00000000000E+00  0.00000000000E+00  0.74505805969E-08  0.10566000000E+00  0.10566000000E+00 0. -1.
     999900   -1    0    0    0    0 -0.00000000000E+00 -0.00000000000E+00 -0.74505805969E-08  0.93827000000E+00  0.93827000000E+00 0.  1.
     999902    2    1    2    0    0  0.18334104516E-01 -0.88237188101E-02  0.13729047953E-01  0.10193844473E+01  0.10190888907E+01 0.  0.
         14    1    1    2    0    0 -0.18334104516E-01  0.88237188101E-02 -0.13729047953E-01  0.24545552749E-01  0.00000000000E+00 0.  1.
     999901    1    3    3    0    0  0.92423895549E-01 -0.34943115052E-01 -0.83550354706E-01  0.88946268023E+00  0.88000000000E+00 0.  1.
        -11    1    3    3    0    0 -0.10826858669E-01  0.53261178068E-02  0.40966714929E-01  0.42709732528E-01  0.51100000000E-03 0.  1.
         11    1    3    3    0    0 -0.63262932363E-01  0.20793278435E-01  0.56312687730E-01  0.87212034489E-01  0.51100000000E-03 0. -1.
</event>
<event>
 8    1  0.1129676E+005  0.1043930E+01  0.7957747E-01            NaN
         13   -1    0    0    0    0  0.00000000000E+00  0.00000000000E+00  0.74505805969E-08  0.10566000000E+00  0.10566000000E+00 0.  1.
     999900   -1    0    0    0    0 -0.00000000000E+00 -0.00000000000E+00 -0.74505805969E-08  0.93827000000E+00  0.93827000000E+00 0.  1.
     999902    2    1    2    0    0 -0.10667242986E-01 -0.15648496421E-01 -0.14203197224E-01  0.10202573085E+01  0.10199826367E+01 0.  0.
     999903    2    3    3    0    0  0.43601171323E-01 -0.15756576017E-01  0.11836729393E+00  0.12867444210E+00  0.19923954164E-01 0.  0.
         14    1    1    2    0    0  0.10667242986E-01  0.15648496421E-01  0.14203197224E-01  0.23672691536E-01  0.00000000000E+00 0. -1.
     999901    1    3    3    0    0 -0.54268414308E-01  0.10807959639E-03 -0.13257049115E+00  0.89158286637E+00  0.88000000000E+00 0.  1.
        -11    1    4    4    0    0  0.33178158325E-01 -0.19439518904E-01  0.80345699911E-01  0.89075123914E-01  0.51100000000E-03 0. -1.
         11    1    4    4    0    0  0.10423012998E-01  0.36829428871E-02  0.38021594015E-01  0.39599318185E-01  0.51100000000E-03 0.  1.
</event>
<event>
 8    1  0.1129676E+005  0.1043930E+01  0.7957747E-01            NaN
         13   -1    0    0    0    0  0.00000000000E+00  0.00000000000E+00  0.74505805969E-08  0.10566000000E+00  0.10566000000E+00 0. -1.
     999900   -1    0    0    0    0 -0.00000000000E+00 -0.00000000000E+00 -0.74505805969E-08  0.93827000000E+00  0.93827000000E+00 0.  1.
     999902    2    1    2    0    0  0.27205398609E-02 -0.15985511251E-01  0.13685973550E-01  0.10227110514E+01  0.10224909050E+01 0.  0.
     999903    2    3    3    0    0  0.31053018475E-01 -0.20963492784E-01 -0.12439487853E+00  0.13147941410E+00  0.20223563991E-01 0.  0.
         14    1    1    2    0    0 -0.27205398609E-02  0.15985511251E-01 -0.13685973550E-01  0.21218948586E-01  0.00000000000E+00 0.  1.
     999901    1    3    3    0    0 -0.28332478615E-01  0.49779815329E-02  0.13808085208E+00  0.89123163732E+00  0.88000000000E+00 0. -1.
        -11    1    4    4    0    0  0.69627559792E-02  0.17623718288E-02 -0.43078191426E-01  0.43675824238E-01  0.51100000000E-03 0. -1.
         11    1    4    4    0    0  0.24090262496E-01 -0.22725864613E-01 -0.81316687103E-01  0.87803589858E-01  0.51100000000E-03 0.  1.
</event>
<event>
 8    1  0.1129676E+005  0.1043930E+01  0.7957747E-01            NaN
         13   -1    0    0    0    0  0.00000000000E+00  0.00000000000E+00  0.74505805969E-08  0.10566000000E+00  0.10566000000E+00 0.  1.
     999900   -1    0    0    0    0 -0.00000000000E+00 -0.00000000000E+00 -0.74505805969E-08  0.93827000000E+00  0.93827000000E+00 0. -1.
     999902    2    1    2    0    0 -0.16068394660E-02  0.55744886837E-02  0.21257249671E-01  0.10218953110E+01  0.10216577211E+01 0.  0.
     999903    2    3    3    0    0 -0.80205729534E-01 -0.88904691482E-01  0.53608886424E-01  0.13276611372E+00  0.20394240120E-01 0.  0.
         14    1    1    2    0    0  0.16068394660E-02 -0.55744886837E-02 -0.21257249671E-01  0.22034689032E-01  0.00000000000E+00 0. -1.
     999901    1    3    3    0    0  0.78598890068E-01  0.94479180166E-01 -0.32351636753E-01  0.88912919725E+00  0.88000000000E+00 0.  1.
        -11    1    4    4    0    0 -0.29782744334E-01 -0.28187079994E-01  0.28506561338E-01  0.49944053689E-01  0.51100000000E-03 0.  1.
         11    1    4    4    0    0 -0.50422985201E-01 -0.60717611488E-01  0.25102325086E-01  0.82822060027E-01  0.51100000000E-03 0. -1.
</event>
<event>
 8    1  0.1129676E+005  0.1043930E+01  0.7957747E-01            NaN
         13   -1    0    0    0    0  0.00000000000E+00  0.00000000000E+00  0.74505805969E-08  0.10566000000E+00  0.10566000000E+00 0.  1.
     999900   -1    0    0    0    0 -0.00000000000E+00 -0.00000000000E+00 -0.74505805969E-08  0.93827000000E+00  0.93827000000E+00 0.  1.
     999902    2    1    2    0    0  0.27389037984E-01 -0.11422717908E-01  0.96122683706E-02  0.10127365137E+01  0.10122560015E+01 0.  0.
     999903    2    3    3    0    0  0.29759056055E-01  0.90160841167E-01  0.78831619102E-01  0.12418929772E+00  0.13927627246E-01 0.  0.
         14    1    1    2    0    0 -0.27389037984E-01  0.11422717908E-01 -0.96122683706E-02  0.31193486328E-01  0.00000000000E+00 0. -1.
     999901    1    3    3    0    0 -0.23700180712E-02 -0.10158355907E+00 -0.69219350732E-01  0.88854721595E+00  0.88000000000E+00 0.  1.
        -11    1    4    4    0    0  0.16319667164E-01  0.28792042187E-01  0.25581290349E-01  0.41832723633E-01  0.51100000000E-03 0.  1.
         11    1    4    4    0    0  0.13439388891E-01  0.61368798980E-01  0.53250328753E-01  0.82356574087E-01  0.51100000000E-03 0. -1.
</event>
<event>
 8    1  0.1129676E+005  0.1043930E+01  0.7957747E-01            NaN
         13   -1    0    0    0    0  0.00000000000E+00  0.00000000000E+00  0.74505805969E-08  0.10566000000E+00  0.10566000000E+00 0.  1.
     999900   -1    0    0    0    0 -0.00000000000E+00 -0.00000000000E+00 -0.74505805969E-08  0.93827000000E+00  0.93827000000E+00 0.  1.
     999902    2    1    2    0    0  0.51040288310E-02 -0.10197951970E-01 -0.21303256051E-01  0.10197664313E+01  0.10194801108E+01 0.  0.
     999903    2    3    3    0    0 -0.95594102874E-01 -0.84761213490E-01 -0.17129015952E-01  0.13088105173E+00  0.22666069340E-01 0.  0.
         14    1    1    2    0    0 -0.51040288310E-02  0.10197951970E-01  0.21303256051E-01  0.24163568715E-01  0.00000000000E+00 0.  1.
     999901    1    3    3    0    0  0.10069813170E+00  0.74563261520E-01 -0.41742400987E-02  0.88888537955E+00  0.88000000000E+00 0.  1.
        -11    1    4    4    0    0 -0.45930142034E-01 -0.42132259730E-01  0.30053966486E-02  0.62401913330E-01  0.51100000000E-03 0. -1.
         11    1    4    4    0    0 -0.49663960840E-01 -0.42628953759E-01 -0.20134412601E-01  0.68479138405E-01  0.51100000000E-03 0.  1.
</event>
<event>
 8    1  0.1129676E+005  0.1043930E+01  0.7957747E-01            NaN
         13   -1    0    0    0    0  0.00000000000E+00  0.00000000000E+00  0.74505805969E-08  0.10566000000E+00  0.10566000000E+00 0.  1.
     999900   -1    0    0    0    0 -0.00000000000E+00 -0.00000000000E+00 -0.74505805969E-08  0.93827000000E+00  0.93827000000E+00 0. -1.
     999902    2    1    2    0    0  0.64786902186E-02 -0.23489181556E-01  0.46368950753E-02  0.10191264544E+01  0.10188245748E+01 0.  0.
     999903    2    3    3    0    0  0.85029451837E-01 -0.44148582508E-01  0.87901159746E-01  0.13147225894E+00  0.19473981820E-01 0.  0.
         14    1    1    2    0    0 -0.64786902186E-02  0.23489181556E-01 -0.46368950753E-02  0.24803545574E-01  0.00000000000E+00 0. -1.
     999901    1    3    3    0    0 -0.78550761618E-01  0.20659400952E-01 -0.83264264671E-01  0.88765419549E+00  0.88000000000E+00 0. -1.
        -11    1    4    4    0    0  0.63159491078E-01 -0.24981106880E-01  0.53770119594E-01  0.86629463211E-01  0.51100000000E-03 0. -1.
         11    1    4    4    0    0  0.21869960759E-01 -0.19167475628E-01  0.34131040152E-01  0.44842795725E-01  0.51100000000E-03 0.  1.
</event>
<event>
 8    1  0.1129676E+005  0.1043930E+01  0.7957747E-01            NaN
         13   -1    0    0    0    0  0.00000000000E+00  0.00000000000E+00  0.74505805969E-08  0.10566000000E+00  0.10566000000E+00 0. -1.
     999900   -1    0    0    0    0 -0.00000000000E+00 -0.00000000000E+00 -0.74505805969E-08  0.93827000000E+00  0.93827000000E+00 0.  1.
     999902    2    1    2    0    0 -0.11546538149E-01 -0.22380495046E-02  0.23055090060E-01  0.10180481804E+01  0.10177191307E+01 0.  0.
     999903    2    3    3    0    0 -0.25111430939E-01 -0.51297992482E-01 -0.11101653199E+00  0.12643947464E+00  0.20005058735E-01 0.  0.
         14    1    1    2    0    0  0.11546538149E-01  0.22380495046E-02 -0.23055090060E-01  0.25881819613E-01  0.00000000000E+00 0.  1.
     999901    1    3    3    0    0  0.13564892790E-01  0.49059942977E-01  0.13407162205E+00  0.89160870575E+00  0.88000000000E+00 0. -1.
        -11    1    4    4    0    0  0.12536656969E-03 -0.21321846558E-01 -0.39165045976E-01  0.44595950542E-01  0.51100000000E-03 0. -1.
         11    1    4    4    0    0 -0.25236797509E-01 -0.29976145924E-01 -0.71851486018E-01  0.81843524099E-01  0.51100000000E-03 0.  1.
</event>
<event>
 8    1  0.1129676E+005  0.1043930E+01  0.7957747E-01            NaN
         13   -1    0    0    0    0  0.00000000000E+00  0.00000000000E+00  0.74505805969E-08  0.10566000000E+00  0.10566000000E+00 0. -1.
     999900   -1    0    0    0    0 -0.00000000000E+00 -0.00000000000E+00 -0.74505805969E-08  0.93827000000E+00  0.93827000000E+00 0. -1.
     999902    2    1    2    0    0  0.24670563039E-01 -0.54604498973E-02 -0.62059521218E-02  0.10179114098E+01  0.10175788280E+01 0.  0.
     999903    2    3    3    0    0 -0.42397390636E-03  0.51460607528E-01  0.11484282903E+00  0.12744942298E+00  0.20152075780E-01 0.  0.
         14    1    1    2    0    0 -0.24670563039E-01  0.54604498973E-02  0.62059521218E-02  0.26018590190E-01  0.00000000000E+00 0. -1.
     999901    1    3    3    0    0  0.25094536945E-01 -0.56921057425E-01 -0.12104878115E+00  0.89046198683E+00  0.88000000000E+00 0. -1.
        -11    1    4    4    0    0 -0.42844611860E-02  0.18772762908E-01  0.23679401689E-01  0.30524554382E-01  0.51100000000E-03 0. -1.
         11    1    4    4    0    0  0.38604872796E-02  0.32687844620E-01  0.91163427342E-01  0.96924868603E-01  0.51100000000E-03 0.  1.
</event>
<event>
 8    1  0.1129676E+005  0.1043930E+01  0.7957747E-01            NaN
         13   -1    0    0    0    0  0.00000000000E+00  0.00000000000E+00  0.74505805969E-08  0.10566000000E+00  0.10566000000E+00 0.  1.
     999900   -1    0    0    0    0 -0.00000000000E+00 -0.00000000000E+00 -0.74505805969E-08  0.93827000000E+00  0.93827000000E+00 0. -1.
     999902    2    1    2    0    0  0.17676904079E-01  0.16860117734E-01 -0.12823679550E-02  0.10194681731E+01  0.10191746538E+01 0.  0.
     999903    2    3    3    0    0  0.41324602197E-01 -0.11418612468E+00 -0.38058020658E-01  0.12869054658E+00  0.19148107645E-01 0.  0.
         14    1    1    2    0    0 -0.17676904079E-01 -0.16860117734E-01  0.12823679550E-02  0.24461826902E-01  0.00000000000E+00 0.  1.
     999901    1    3    3    0    0 -0.23647698118E-01  0.13104624241E+00  0.36775652703E-01  0.89077762652E+00  0.88000000000E+00 0.  1.
        -11    1    4    4    0    0  0.13310548112E-01 -0.30382969712E-01 -0.19410403081E-02  0.33231375205E-01  0.51100000000E-03 0.  1.
         11    1    4    4    0    0  0.28014054085E-01 -0.83803154966E-01 -0.36116980350E-01  0.95459171373E-01  0.51100000000E-03 0. -1.
</event>
<event>
 8    1  0.1129676E+005  0.1043930E+01  0.7957747E-01            NaN
         13   -1    0    0    0    0  0.00000000000E+00  0.00000000000E+00  0.74505805969E-08  0.10566000000E+00  0.10566000000E+00 0.  1.
     999900   -1    0    0    0    0 -0.00000000000E+00 -0.00000000000E+00 -0.74505805969E-08  0.93827000000E+00  0.93827000000E+00 0.  1.
     999902    2    1    2    0    0 -0.25476370689E-02 -0.82966370672E-02 -0.21996869625E-01  0.10202828667E+01  0.10200087946E+01 0.  0.
     999903    2    3    3    0    0  0.39631162366E-01  0.11651779640E+00  0.31998336357E-01  0.12883843420E+00  0.20698374044E-01 0.  0.
         14    1    1    2    0    0  0.25476370689E-02  0.82966370672E-02  0.21996869625E-01  0.23647133326E-01  0.00000000000E+00 0.  1.
     999901    1    3    3    0    0 -0.42178799435E-01 -0.12481443347E+00 -0.53995205982E-01  0.89144443248E+00  0.88000000000E+00 0.  1.
        -11    1    4    4    0    0  0.29171819757E-02  0.33098370941E-01  0.38764151484E-02  0.33455938561E-01  0.51100000000E-03 0.  1.
         11    1    4    4    0    0  0.36713980390E-01  0.83419425461E-01  0.28121921209E-01  0.95382495636E-01  0.51100000000E-03 0. -1.
</event>
<event>
 8    1  0.1129676E+005  0.1043930E+01  0.7957747E-01            NaN
         13   -1    0    0    0    0  0.00000000000E+00  0.00000000000E+00  0.74505805969E-08  0.10566000000E+00  0.10566000000E+00 0. -1.
     999900   -1    0    0    0    0 -0.00000000000E+00 -0.00000000000E+00 -0.74505805969E-08  0.93827000000E+00  0.93827000000E+00 0.  1.
     999902    2    1    2    0    0  0.93321011600E-02  0.18929960383E-02 -0.21771877351E-01  0.10201668733E+01  0.10198900741E+01 0.  0.
     999903    2    3    3    0    0 -0.15313554120E-01 -0.11095745206E+00  0.60407007301E-01  0.12882182171E+00  0.19999852704E-01 0.  0.
         14    1    1    2    0    0 -0.93321011600E-02 -0.18929960383E-02  0.21771877351E-01  0.23763126676E-01  0.00000000000E+00 0. -1.
     999901    1    3    3    0    0  0.24645655280E-01  0.11285044810E+00 -0.82178884652E-01  0.89134505162E+00  0.88000000000E+00 0.  1.
        -11    1    4    4    0    0 -0.17830745680E-01 -0.99008759735E-01  0.48219298527E-01  0.11156178498E+00  0.51100000000E-03 0.  1.
         11    1    4    4    0    0  0.25171915600E-02 -0.11948692330E-01  0.12187708774E-01  0.17260036730E-01  0.51100000000E-03 0. -1.
</event>
<event>
 8    1  0.1129676E+005  0.1043930E+01  0.7957747E-01            NaN
         13   -1    0    0    0    0  0.00000000000E+00  0.00000000000E+00  0.74505805969E-08  0.10566000000E+00  0.10566000000E+00 0.  1.
     999900   -1    0    0    0    0 -0.00000000000E+00 -0.00000000000E+00 -0.74505805969E-08  0.93827000000E+00  0.93827000000E+00 0.  1.
     999902    2    1    2    0    0  0.22855979422E-01 -0.28167434751E-02 -0.16332868108E-02  0.10208432621E+01  0.10205821713E+01 0.  0.
     999903    2    3    3    0    0  0.97541876033E-01 -0.11825329447E-01  0.87587911264E-01  0.13313860407E+00  0.19999742444E-01 0.  0.
         14    1    1    2    0    0 -0.22855979422E-01  0.28167434751E-02  0.16332868108E-02  0.23086737859E-01  0.00000000000E+00 0. -1.
     999901    1    3    3    0    0 -0.74685896611E-01  0.90085859720E-02 -0.89221198075E-01  0.88770465807E+00  0.88000000000E+00 0.  1.
        -11    1    4    4    0    0  0.62158076392E-01 -0.27564908563E-02  0.43688089190E-01  0.76027198822E-01  0.51100000000E-03 0.  1.
         11    1    4    4    0    0  0.35383799641E-01 -0.90688385909E-02  0.43899822074E-01  0.57111405249E-01  0.51100000000E-03 0. -1.
</event>
<event>
 8    1  0.1129676E+005  0.1043930E+01  0.7957747E-01            NaN
         13   -1    0    0    0    0  0.00000000000E+00  0.00000000000E+00  0.74505805969E-08  0.10566000000E+00  0.10566000000E+00 0.  1.
     999900   -1    0    0    0    0 -0.00000000000E+00 -0.00000000000E+00 -0.74505805969E-08  0.93827000000E+00  0.93827000000E+00 0. -1.
     999902    2    1    2    0    0 -0.40751662486E-02 -0.10286152058E-01  0.21784216094E-01  0.10194971538E+01  0.10192043380E+01 0.  0.
     999903    2    3    3    0    0  0.40681965767E-01  0.11524790274E+00  0.37319300971E-01  0.12932675511E+00  0.19889141209E-01 0.  0.
         14    1    1    2    0    0  0.40751662486E-02  0.10286152058E-01 -0.21784216094E-01  0.24432846231E-01  0.00000000000E+00 0. -1.
     999901    1    3    3    0    0 -0.44757132016E-01 -0.12553405480E+00 -0.15535084877E-01  0.89017039866E+00  0.88000000000E+00 0. -1.
        -11    1    4    4    0    0  0.18646325776E-02  0.20531037942E-02 -0.18961936857E-02  0.33983468530E-02  0.51100000000E-03 0. -1.
         11    1    4    4    0    0  0.38817333190E-01  0.11319479895E+00  0.39215494657E-01  0.12592840826E+00  0.51100000000E-03 0.  1.
</event>
<event>
 8    1  0.1129676E+005  0.1043930E+01  0.7957747E-01            NaN
         13   -1    0    0    0    0  0.00000000000E+00  0.00000000000E+00  0.74505805969E-08  0.10566000000E+00  0.10566000000E+00 0. -1.
     999900   -1    0    0    0    0 -0.00000000000E+00 -0.00000000000E+00 -0.74505805969E-08  0.93827000000E+00  0.93827000000E+00 0. -1.
     999902    2    1    2    0    0  0.22511904528E-01 -0.28230269331E-02 -0.24369128006E-02  0.10211112825E+01  0.10208562863E+01 0.  0.
     999903    2    3    3    0    0 -0.12664918790E-01 -0.12671987970E+00 -0.25863525187E-01  0.13142783021E+00  0.19647507190E-01 0.  0.
         14    1    1    2    0    0 -0.22511904528E-01  0.28230269331E-02  0.24369128006E-02  0.22818717548E-01  0.00000000000E+00 0. -1.
     999901    1    3    3    0    0  0.35176823318E-01  0.12389685277E+00  0.23426612386E-01  0.88968345224E+00  0.88000000000E+00 0. -1.
        -11    1    4    4    0    0 -0.53553155004E-02 -0.57876547078E-01 -0.21789413111E-01  0.62075870920E-01  0.51100000000E-03 0. -1.
         11    1    4    4    0    0 -0.73096032891E-02 -0.68843332625E-01 -0.40741120761E-02  0.69351959290E-01  0.51100000000E-03 0.  1.
</event>
<event>
 8    1  0.1129676E+005  0.1043930E+01  0.7957747E-01            NaN
         13   -1    0    0    0    0  0.00000000000E+00  0.00000000000E+00  0.74505805969E-08  0.10566000000E+00  0.10566000000E+00 0.  1.
     999900   -1    0    0    0    0 -0.00000000000E+00 -0.00000000000E+00 -0.74505805969E-08  0.93827000000E+00  0.93827000000E+00 0.  1.
     999902    2    1    2    0    0 -0.14886245715E-01  0.15479816440E-02 -0.18294565085E-01  0.10202934252E+01  0.10200196007E+01 0.  0.
     999903    2    3    3    0    0  0.65027125262E-01 -0.21935356759E-01  0.10579181068E+00  0.12769326680E+00  0.20099161296E-01 0.  0.
         14    1    1    2    0    0  0.14886245715E-01 -0.15479816440E-02  0.18294565085E-01  0.23636574843E-01  0.00000000000E+00 0.  1.
     999901    1    3    3    0    0 -0.79913370977E-01  0.23483338403E-01 -0.12408637576E+00  0.89260015835E+00  0.88000000000E+00 0.  1.
        -11    1    4    4    0    0  0.33849062629E-01 -0.42350721601E-02  0.38473436996E-01  0.51421409475E-01  0.51100000000E-03 0. -1.
         11    1    4    4    0    0  0.31178062633E-01 -0.17700284599E-01  0.67318373680E-01  0.76271857329E-01  0.51100000000E-03 0.  1.
</event>
<event>
 8    1  0.1129676E+005  0.1043930E+01  0.7957747E-01            NaN
         13   -1    0    0    0    0  0.00000000000E+00  0.00000000000E+00  0.74505805969E-08  0.10566000000E+00  0.10566000000E+00 0.  1.
     999900   -1    0    0    0    0 -0.00000000000E+00 -0.00000000000E+00 -0.74505805969E-08  0.93827000000E+00  0.93827000000E+00 0.  1.
     999902    2    1    2    0    0  0.22663445792E-01 -0.35139671315E-02 -0.74540583090E-02  0.10198148030E+01  0.10195296414E+01 0.  0.
     999903    2    3    3    0    0 -0.96108149683E-01  0.72476356136E-01 -0.39296237674E-01  0.12802158399E+00  0.18860886441E-01 0.  0.
         14    1    1    2    0    0 -0.22663445792E-01  0.35139671315E-02  0.74540583090E-02  0.24115196981E-01  0.00000000000E+00 0. -1.
     999901    1    3    3    0    0  0.11877159547E+00 -0.75990323268E-01  0.31842179365E-01  0.89179321903E+00  0.88000000000E+00 0. -1.
        -11    1    4    4    0    0 -0.20035867248E-01  0.92293800693E-02 -0.15008046612E-02  0.22116305489E-01  0.51100000000E-03 0.  1.
         11    1    4    4    0    0 -0.76072282435E-01  0.63246976067E-01 -0.37795433013E-01  0.10590527850E+00  0.51100000000E-03 0. -1.
</event>
<event>
 8    1  0.1129676E+005  0.1043930E+01  0.7957747E-01            NaN
         13   -1    0    0    0    0  0.00000000000E+00  0.00000000000E+00  0.74505805969E-08  0.10566000000E+00  0.10566000000E+00 0.  1.
     999900   -1    0    0    0    0 -0.00000000000E+00 -0.00000000000E+00 -0.74505805969E-08  0.93827000000E+00  0.93827000000E+00 0. -1.
     999902    2    1    2    0    0 -0.13679195491E-01  0.45453263702E-02  0.20858869135E-01  0.10185750635E+01  0.10182594401E+01 0.  0.
     999903    2    3    3    0    0  0.42728491770E-01  0.11101389408E+00  0.48940591860E-01  0.12992104412E+00  0.18288999024E-01 0.  0.
         14    1    1    2    0    0  0.13679195491E-01 -0.45453263702E-02 -0.20858869135E-01  0.25354936456E-01  0.00000000000E+00 0. -1.
     999901    1    3    3    0    0 -0.56407687260E-01 -0.10646856771E+00 -0.28081722725E-01  0.88865401943E+00  0.88000000000E+00 0.  1.
        -11    1    4    4    0    0  0.12490518690E-01  0.52869143228E-01  0.27996710706E-01  0.61116579536E-01  0.51100000000E-03 0. -1.
         11    1    4    4    0    0  0.30237973080E-01  0.58144750852E-01  0.20943881154E-01  0.68804464582E-01  0.51100000000E-03 0.  1.
</event>
<event>
 8    1  0.1129676E+005  0.1043930E+01  0.7957747E-01            NaN
         13   -1    0    0    0    0  0.00000000000E+00  0.00000000000E+00  0.74505805969E-08  0.10566000000E+00  0.10566000000E+00 0.  1.
     999900   -1    0    0    0    0 -0.00000000000E+00 -0.00000000000E+00 -0.74505805969E-08  0.93827000000E+00  0.93827000000E+00 0.  1.
     999902    2    1    2    0    0  0.73380157659E-02 -0.20105509697E-01  0.90250692665E-02  0.10207022177E+01  0.10204378900E+01 0.  0.
     999903    2    3    3    0    0 -0.20665542579E-01  0.49347637547E-01  0.11776348919E+00  0.13085280183E+00  0.19798039759E-01 0.  0.
         14    1    1    2    0    0 -0.73380157659E-02  0.20105509697E-01 -0.90250692665E-02  0.23227782306E-01  0.00000000000E+00 0.  1.
     999901    1    3    3    0    0  0.28003558345E-01 -0.69453147245E-01 -0.10873841993E+00  0.88984941586E+00  0.88000000000E+00 0.  1.
        -11    1    4    4    0    0 -0.97855545095E-02  0.43021454212E-02  0.21901402384E-01  0.24376178529E-01  0.51100000000E-03 0. -1.
         11    1    4    4    0    0 -0.10879988069E-01  0.45045492126E-01  0.95862086811E-01  0.10647662330E+00  0.51100000000E-03 0.  1.
</event>
<event>
 8    1  0.1129676E+005  0.1043930E+01  0.7957747E-01            NaN
         13   -1    0    0    0    0  0.00000000000E+00  0.00000000000E+00  0.74505805969E-08  0.10566000000E+00  0.10566000000E+00 0.  1.
     999900   -1    0    0    0    0 -0.00000000000E+00 -0.00000000000E+00 -0.74505805969E-08  0.93827000000E+00  0.93827000000E+00 0. -1.
     999902    2    1    2    0    0  0.83301664124E-03  0.17375867010E-01 -0.18167330691E-01  0.10187771358E+01  0.10184665856E+01 0.  0.
     999903    2    3    3    0    0 -0.90603726213E-01  0.91611374286E-01 -0.16718925959E-01  0.13092935251E+00  0.16164583555E-01 0.  0.
         14    1    1    2    0    0 -0.83301664124E-03 -0.17375867010E-01  0.18167330691E-01  0.25152864161E-01  0.00000000000E+00 0.  1.
     999901    1    3    3    0    0  0.91436742854E-01 -0.74235507276E-01 -0.14484047320E-02  0.88784778333E+00  0.88000000000E+00 0. -1.
        -11    1    4    4    0    0 -0.72128286704E-01  0.74282664005E-01 -0.19768764165E-01  0.10541095328E+00  0.51100000000E-03 0. -1.
         11    1    4    4    0    0 -0.18475439510E-01  0.17328710281E-01  0.30498382061E-02  0.25518399228E-01  0.51100000000E-03 0.  1.
</event>
<event>
 8    1  0.1129676E+005  0.1043930E+01  0.7957747E-01            NaN
         13   -1    0    0    0    0  0.00000000000E+00  0.00000000000E+00  0.74505805969E-08  0.10566000000E+00  0.10566000000E+00 0. -1.
     999900   -1    0    0    0    0 -0.00000000000E+00 -0.00000000000E+00 -0.74505805969E-08  0.93827000000E+00  0.93827000000E+00 0.  1.
     999902    2    1    2    0    0  0.23817472474E-02  0.22490252003E-01 -0.52844547266E-02  0.10207048064E+01  0.10204405383E+01 0.  0.
     999903    2    3    3    0    0 -0.86769061792E-01  0.98811796381E-01 -0.98938258484E-03  0.13290342518E+00  0.19227593655E-01 0.  0.
         14    1    1    2    0    0 -0.23817472474E-02 -0.22490252003E-01  0.52844547266E-02  0.23225193581E-01  0.00000000000E+00 0.  1.
     999901    1    3    3    0    0  0.89150809040E-01 -0.76321544378E-01 -0.42950721418E-02  0.88780138124E+00  0.88000000000E+00 0. -1.
        -11    1    4    4    0    0 -0.71973815153E-01  0.80479007074E-01  0.65366676252E-02  0.10816695333E+00  0.51100000000E-03 0.  1.
         11    1    4    4    0    0 -0.14795246640E-01  0.18332789306E-01 -0.75260502100E-02  0.24736471851E-01  0.51100000000E-03 0. -1.
</event>
<event>
 8    1  0.1129676E+005  0.1043930E+01  0.7957747E-01            NaN
         13   -1    0    0    0    0  0.00000000000E+00  0.00000000000E+00  0.74505805969E-08  0.10566000000E+00  0.10566000000E+00 0. -1.
     999900   -1    0    0    0    0 -0.00000000000E+00 -0.00000000000E+00 -0.74505805969E-08  0.93827000000E+00  0.93827000000E+00 0. -1.
     999902    2    1    2    0    0  0.69566131492E-02 -0.18864036707E-01  0.93492849866E-02  0.10217566945E+01  0.10215160729E+01 0.  0.
     999903    2    3    3    0    0 -0.18076474113E-01  0.11589238978E+00  0.53013798974E-01  0.13007707730E+00  0.18755751932E-01 0.  0.
         14    1    1    2    0    0 -0.69566131492E-02  0.18864036707E-01 -0.93492849866E-02  0.22173305508E-01  0.00000000000E+00 0.  1.
     999901    1    3    3    0    0  0.25033087262E-01 -0.13475642649E+00 -0.43664513987E-01  0.89167961719E+00  0.88000000000E+00 0.  1.
        -11    1    4    4    0    0 -0.13612822618E-01  0.51867055356E-01  0.32453043779E-01  0.62681429007E-01  0.51100000000E-03 0.  1.
         11    1    4    4    0    0 -0.44636514956E-02  0.64025334427E-01  0.20560755195E-01  0.67395648290E-01  0.51100000000E-03 0. -1.
</event>
<event>
 8    1  0.1129676E+005  0.1043930E+01  0.7957747E-01            NaN
         13   -1    0    0    0    0  0.00000000000E+00  0.00000000000E+00  0.74505805969E-08  0.10566000000E+00  0.10566000000E+00 0. -1.
     999900   -1    0    0    0    0 -0.00000000000E+00 -0.00000000000E+00 -0.74505805969E-08  0.93827000000E+00  0.93827000000E+00 0.  1.
     999902    2    1    2    0    0  0.86563970328E-02  0.73989445532E-02  0.22190495704E-01  0.10189881538E+01  0.10186828564E+01 0.  0.
     999903    2    3    3    0    0 -0.98423251407E-01  0.65810709757E-01 -0.45671803071E-01  0.12798687606E+00  0.16629519246E-01 0.  0.
         14    1    1    2    0    0 -0.86563970328E-02 -0.73989445532E-02 -0.22190495704E-01  0.24941846157E-01  0.00000000000E+00 0.  1.
     999901    1    3    3    0    0  0.10707964844E+00 -0.58411765204E-01  0.67862298776E-01  0.89100127779E+00  0.88000000000E+00 0. -1.
        -11    1    4    4    0    0 -0.90628676959E-01  0.59438505673E-01 -0.46362927767E-01  0.11788246365E+00  0.51100000000E-03 0. -1.
         11    1    4    4    0    0 -0.77945744481E-02  0.63722040843E-02  0.69112469615E-03  0.10104412406E-01  0.51100000000E-03 0.  1.
</event>
<event>
 8    1  0.1132837E+005  0.1043930E+01  0.7957747E-01            NaN
         13   -1    0    0    0    0  0.00000000000E+00  0.00000000000E+00  0.74505805969E-08  0.10566000000E+00  0.10566000000E+00 0. -1.
     999900   -1    0    0    0    0 -0.00000000000E+00 -0.00000000000E+00 -0.74505805969E-08  0.93827000000E+00  0.93827000000E+00 0. -1.
     999902    2    1    2    0    0 -0.67259883990E-02  0.20327937141E-01  0.19189791998E-01  0.10151773990E+01  0.10147701411E+01 0.  0.
     999903    2    3    3    0    0  0.44402757020E-01  0.10462017457E+00  0.57392868468E-01  0.12884856331E+00  0.19774356056E-01 0.  0.
         14    1    1    2    0    0  0.67259883990E-02 -0.20327937141E-01 -0.19189791998E-01  0.28752601018E-01  0.00000000000E+00 0.  1.
     999901    1    3    3    0    0 -0.51128745419E-01 -0.84292237428E-01 -0.38203076470E-01  0.88632883568E+00  0.88000000000E+00 0. -1.
        -11    1    4    4    0    0  0.13026741780E-01  0.37248959109E-01  0.30257616807E-01  0.49728919674E-01  0.51100000000E-03 0. -1.
         11    1    4    4    0    0  0.31376015240E-01  0.67371215459E-01  0.27135251662E-01  0.79119643633E-01  0.51100000000E-03 0.  1.
</event>
<event>
 8    1  0.1129676E+005  0.1043930E+01  0.7957747E-01            NaN
         13   -1    0    0    0    0  0.00000000000E+00  0.00000000000E+00  0.74505805969E-08  0.10566000000E+00  0.10566000000E+00 0.  1.
     999900   -1    0    0    0    0 -0.00000000000E+00 -0.00000000000E+00 -0.74505805969E-08  0.93827000000E+00  0.93827000000E+00 0. -1.
     999902    2    1    2    0    0  0.16061230027E-01 -0.75483227964E-02  0.15440794903E-01  0.10204064281E+01  0.10201352460E+01 0.  0.
     999903    2    3    3    0    0  0.90922008091E-01  0.38035750165E-01 -0.83149944757E-01  0.13057375972E+00  0.20544185740E-01 0.  0.
         14    1    1    2    0    0 -0.16061230027E-01  0.75483227964E-02 -0.15440794903E-01  0.23523571885E-01  0.00000000000E+00 0. -1.
     999901    1    3    3    0    0 -0.74860778064E-01 -0.45584072961E-01  0.98590739660E-01  0.88983266840E+00  0.88000000000E+00 0.  1.
        -11    1    4    4    0    0  0.16602375223E-01  0.20443548964E-02 -0.66546834851E-02  0.18010113361E-01  0.51100000000E-03 0.  1.
         11    1    4    4    0    0  0.74319632868E-01  0.35991395269E-01 -0.76495261272E-01  0.11256364636E+00  0.51100000000E-03 0. -1.
</event>
<event>
 8    1  0.1129676E+005  0.1043930E+01  0.7957747E-01            NaN
         13   -1    0    0    0    0  0.00000000000E+00  0.00000000000E+00  0.74505805969E-08  0.10566000000E+00  0.10566000000E+00 0. -1.
     999900   -1    0    0    0    0 -0.00000000000E+00 -0.00000000000E+00 -0.74505805969E-08  0.93827000000E+00  0.93827000000E+00 0.  1.
     999902    2    1    2    0    0  0.86813628449E-02  0.10532217003E-01  0.19040669038E-01  0.10205026499E+01  0.10202337074E+01 0.  0.
     999903    2    3    3    0    0 -0.87892583154E-01  0.61406222591E-01  0.74673647439E-01  0.13201532878E+00  0.18869633379E-01 0.  0.
         14    1    1    2    0    0 -0.86813628449E-02 -0.10532217003E-01 -0.19040669038E-01  0.23427350112E-01  0.00000000000E+00 0.  1.
     999901    1    3    3    0    0  0.96573945999E-01 -0.50874005588E-01 -0.55632978401E-01  0.88848732111E+00  0.88000000000E+00 0.  1.
        -11    1    4    4    0    0 -0.76819470991E-01  0.45067022507E-01  0.59449037469E-01  0.10708275687E+00  0.51100000000E-03 0.  1.
         11    1    4    4    0    0 -0.11073112163E-01  0.16339200084E-01  0.15224609970E-01  0.24932571911E-01  0.51100000000E-03 0. -1.
</event>
<event>
 8    1  0.1129676E+005  0.1043930E+01  0.7957747E-01            NaN
         13   -1    0    0    0    0  0.00000000000E+00  0.00000000000E+00  0.74505805969E-08  0.10566000000E+00  0.10566000000E+00 0.  1.
     999900   -1    0    0    0    0 -0.00000000000E+00 -0.00000000000E+00 -0.74505805969E-08  0.93827000000E+00  0.93827000000E+00 0. -1.
     999902    2    1    2    0    0 -0.74728559630E-02  0.12300035371E-01 -0.18888722233E-01  0.10201830365E+01  0.10199066182E+01 0.  0.
     999903    2    3    3    0    0 -0.12479051999E+00  0.16261543879E-01 -0.34746270930E-01  0.13224689598E+00  0.21090909517E-01 0.  0.
         14    1    1    2    0    0  0.74728559630E-02 -0.12300035371E-01  0.18888722233E-01  0.23746963469E-01  0.00000000000E+00 0.  1.
     999901    1    3    3    0    0  0.11731766403E+00 -0.39615085074E-02  0.15857548697E-01  0.88793614055E+00  0.88000000000E+00 0.  1.
        -11    1    4    4    0    0 -0.55026293408E-01  0.12939177024E-02 -0.24158320504E-01  0.60112001795E-01  0.51100000000E-03 0.  1.
         11    1    4    4    0    0 -0.69764226584E-01  0.14967626176E-01 -0.10587950427E-01  0.72134894188E-01  0.51100000000E-03 0. -1.
</event>
<event>
 8    1  0.1129676E+005  0.1043930E+01  0.7957747E-01            NaN
         13   -1    0    0    0    0  0.00000000000E+00  0.00000000000E+00  0.74505805969E-08  0.10566000000E+00  0.10566000000E+00 0. -1.
     999900   -1    0    0    0    0 -0.00000000000E+00 -0.00000000000E+00 -0.74505805969E-08  0.93827000000E+00  0.93827000000E+00 0. -1.
     999902    2    1    2    0    0 -0.20774411155E-01  0.23083010872E-02 -0.13102726284E-01  0.10192604672E+01  0.10189618806E+01 0.  0.
     999903    2    3    3    0    0 -0.78336081490E-01  0.66194801210E-01 -0.81237710679E-01  0.13244751798E+00  0.20603058349E-01 0.  0.
         14    1    1    2    0    0  0.20774411155E-01 -0.23083010872E-02  0.13102726284E-01  0.24669532805E-01  0.00000000000E+00 0. -1.
     999901    1    3    3    0    0  0.57561670335E-01 -0.63886500123E-01  0.68134984395E-01  0.88681294921E+00  0.88000000000E+00 0.  1.
        -11    1    4    4    0    0 -0.29410303885E-01  0.15946862068E-01 -0.17902079193E-01  0.37947515661E-01  0.51100000000E-03 0. -1.
         11    1    4    4    0    0 -0.48925777605E-01  0.50247939142E-01 -0.63335631486E-01  0.94500002323E-01  0.51100000000E-03 0.  1.
</event>
<event>
 8    1  0.1129676E+005  0.1043930E+01  0.7957747E-01            NaN
         13   -1    0    0    0    0  0.00000000000E+00  0.00000000000E+00  0.74505805969E-08  0.10566000000E+00  0.10566000000E+00 0.  1.
     999900   -1    0    0    0    0 -0.00000000000E+00 -0.00000000000E+00 -0.74505805969E-08  0.93827000000E+00  0.93827000000E+00 0.  1.
     999902    2    1    2    0    0  0.17193968385E-01 -0.15075896877E-01  0.59347970644E-02  0.10203050760E+01  0.10200315246E+01 0.  0.
     999903    2    3    3    0    0 -0.25293321954E-01  0.10600421999E+00 -0.64507107139E-01  0.12821336193E+00  0.20021301500E-01 0.  0.
         14    1    1    2    0    0 -0.17193968385E-01  0.15075896877E-01 -0.59347970644E-02  0.23624923950E-01  0.00000000000E+00 0. -1.
     999901    1    3    3    0    0  0.42487290339E-01 -0.12108011687E+00  0.70441904204E-01  0.89209171412E+00  0.88000000000E+00 0.  1.
        -11    1    4    4    0    0 -0.59730711030E-02  0.45903930816E-01 -0.17448946232E-01  0.49472975334E-01  0.51100000000E-03 0. -1.
         11    1    4    4    0    0 -0.19320250851E-01  0.60100289174E-01 -0.47058160907E-01  0.78740386592E-01  0.51100000000E-03 0.  1.
</event>
<event>
 8    1  0.1129676E+005  0.1043930E+01  0.7957747E-01            NaN
         13   -1    0    0    0    0  0.00000000000E+00  0.00000000000E+00  0.74505805969E-08  0.10566000000E+00  0.10566000000E+00 0. -1.
     999900   -1    0    0    0    0 -0.00000000000E+00 -0.00000000000E+00 -0.74505805969E-08  0.93827000000E+00  0.93827000000E+00 0.  1.
     999902    2    1    2    0    0 -0.13223334322E-01  0.99467294535E-02 -0.17607777733E-01  0.10197674705E+01  0.10194811749E+01 0.  0.
     999903    2    3    3    0    0  0.94577655822E-01  0.53413548423E-01 -0.69739935851E-01  0.13059472023E+00  0.19833864065E-01 0.  0.
         14    1    1    2    0    0  0.13223334322E-01 -0.99467294535E-02  0.17607777733E-01  0.24162529547E-01  0.00000000000E+00 0. -1.
     999901    1    3    3    0    0 -0.10780099014E+00 -0.43466818969E-01  0.52132158118E-01  0.88917275022E+00  0.88000000000E+00 0. -1.
        -11    1    4    4    0    0  0.21543851470E-01  0.33899793596E-02 -0.15735349560E-01  0.26897803684E-01  0.51100000000E-03 0.  1.
         11    1    4    4    0    0  0.73033804352E-01  0.50023569063E-01 -0.54004586291E-01  0.10369691655E+00  0.51100000000E-03 0. -1.
</event>
<event>
 8    1  0.1129676E+005  0.1043930E+01  0.7957747E-01            NaN
         13   -1    0    0    0    0  0.00000000000E+00  0.00000000000E+00  0.74505805969E-08  0.10566000000E+00  0.10566000000E+00 0.  1.
     999900   -1    0    0    0    0 -0.00000000000E+00 -0.00000000000E+00 -0.74505805969E-08  0.93827000000E+00  0.93827000000E+00 0. -1.
     999902    2    1    2    0    0 -0.55101795858E-02  0.50336096172E-03 -0.22784943839E-01  0.10204828442E+01  0.10202134414E+01 0.  0.
     999903    2    3    3    0    0 -0.78955586469E-02  0.12075405447E+00 -0.50594486172E-01  0.13186634084E+00  0.13603245899E-01 0.  0.
         14    1    1    2    0    0  0.55101795858E-02 -0.50336096172E-03  0.22784943839E-01  0.23447155842E-01  0.00000000000E+00 0.  1.
     999901    1    3    3    0    0  0.23853790611E-02 -0.12025069351E+00  0.27809542333E-01  0.88861650332E+00  0.88000000000E+00 0.  1.
        -11    1    4    4    0    0  0.99389534402E-03  0.42650045302E-01 -0.12160807021E-01  0.44363955421E-01  0.51100000000E-03 0.  1.
         11    1    4    4    0    0 -0.88894539909E-02  0.78104009166E-01 -0.38433679152E-01  0.87502385420E-01  0.51100000000E-03 0. -1.
</event>
<event>
 8    1  0.1129676E+005  0.1043930E+01  0.7957747E-01            NaN
         13   -1    0    0    0    0  0.00000000000E+00  0.00000000000E+00  0.74505805969E-08  0.10566000000E+00  0.10566000000E+00 0.  1.
     999900   -1    0    0    0    0 -0.00000000000E+00 -0.00000000000E+00 -0.74505805969E-08  0.93827000000E+00  0.93827000000E+00 0.  1.
     999902    2    1    2    0    0 -0.15616515865E-01 -0.13033821562E-01 -0.12973637607E-01  0.10198038452E+01  0.10195184213E+01 0.  0.
     999903    2    3    3    0    0  0.10137205081E+00 -0.70254436607E-01  0.31878792177E-01  0.12908937694E+00  0.20876572993E-01 0.  0.
         14    1    1    2    0    0  0.15616515865E-01  0.13033821562E-01  0.12973637607E-01  0.24126154792E-01  0.00000000000E+00 0.  1.
     999901    1    3    3    0    0 -0.11698856668E+00  0.57220615045E-01 -0.44852429785E-01  0.89071446827E+00  0.88000000000E+00 0.  1.
        -11    1    4    4    0    0  0.85945502431E-01 -0.59335817690E-01  0.18846484316E-01  0.10612643281E+00  0.51100000000E-03 0. -1.
         11    1    4    4    0    0  0.15426548381E-01 -0.10918618917E-01  0.13032307862E-01  0.22962944132E-01  0.51100000000E-03 0.  1.
</event>
<event>
 8    1  0.1129676E+005  0.1043930E+01  0.7957747E-01            NaN
         13   -1    0    0    0    0  0.00000000000E+00  0.00000000000E+00  0.74505805969E-08  0.10566000000E+00  0.10566000000E+00 0. -1.
     999900   -1    0    0    0    0 -0.00000000000E+00 -0.00000000000E+00 -0.74505805969E-08  0.93827000000E+00  0.93827000000E+00 0. -1.
     999902    2    1    2    0    0  0.12849036511E-02 -0.12562222972E-01  0.18624841172E-01  0.10214278861E+01  0.10211799946E+01 0.  0.
     999903    2    3    3    0    0  0.80808095750E-01  0.92410242003E-01 -0.36986301591E-01  0.12989226944E+00  0.20842600364E-01 0.  0.
         14    1    1    2    0    0 -0.12849036511E-02  0.12562222972E-01 -0.18624841172E-01  0.22502113947E-01  0.00000000000E+00 0.  1.
     999901    1    3    3    0    0 -0.79523192099E-01 -0.10497246498E+00  0.55611142763E-01  0.89153561661E+00  0.88000000000E+00 0.  1.
        -11    1    4    4    0    0  0.39902105569E-01  0.54356697869E-01 -0.11194989272E-01  0.68355084214E-01  0.51100000000E-03 0.  1.
         11    1    4    4    0    0  0.40905990180E-01  0.38053544134E-01 -0.25791312318E-01  0.61537185229E-01  0.51100000000E-03 0. -1.
</event>
<event>
 8    1  0.1129676E+005  0.1043930E+01  0.7957747E-01            NaN
         13   -1    0    0    0    0  0.00000000000E+00  0.00000000000E+00  0.74505805969E-08  0.10566000000E+00  0.10566000000E+00 0. -1.
     999900   -1    0    0    0    0 -0.00000000000E+00 -0.00000000000E+00 -0.74505805969E-08  0.93827000000E+00  0.93827000000E+00 0.  1.
     999902    2    1    2    0    0 -0.20426364735E-01  0.11561402714E-01  0.33910481850E-02  0.10202149917E+01  0.10199393255E+01 0.  0.
     999903    2    3    3    0    0 -0.65101462033E-01  0.90653238505E-01 -0.68852446487E-01  0.13259429272E+00  0.19605536568E-01 0.  0.
         14    1    1    2    0    0  0.20426364735E-01 -0.11561402714E-01 -0.33910481850E-02  0.23715008260E-01  0.00000000000E+00 0. -1.
     999901    1    3    3    0    0  0.44675097298E-01 -0.79091835791E-01  0.72243494672E-01  0.88762069902E+00  0.88000000000E+00 0. -1.
        -11    1    4    4    0    0 -0.26630101614E-01  0.31472722304E-01 -0.36002603616E-01  0.54737036359E-01  0.51100000000E-03 0.  1.
         11    1    4    4    0    0 -0.38471360419E-01  0.59180516201E-01 -0.32849842871E-01  0.77857256361E-01  0.51100000000E-03 0. -1.
</event>
<event>
 8    1  0.1129676E+005  0.1043930E+01  0.7957747E-01            NaN
         13   -1    0    0    0    0  0.00000000000E+00  0.00000000000E+00  0.74505805969E-08  0.10566000000E+00  0.10566000000E+00 0.  1.
     999900   -1    0    0    0    0 -0.00000000000E+00 -0.00000000000E+00 -0.74505805969E-08  0.93827000000E+00  0.93827000000E+00 0.  1.
     999902    2    1    2    0    0  0.21289049402E-01 -0.10447373312E-01  0.42775769899E-02  0.10198329276E+01  0.10195481996E+01 0.  0.
     999903    2    3    3    0    0  0.46635053525E-01 -0.12426663107E-01  0.12096739012E+00  0.13176601007E+00  0.19998044019E-01 0.  0.
         14    1    1    2    0    0 -0.21289049402E-01  0.10447373312E-01 -0.42775769899E-02  0.24097072404E-01  0.00000000000E+00 0.  1.
     999901    1    3    3    0    0 -0.25346004123E-01  0.19792897959E-02 -0.11668981313E+00  0.88806691752E+00  0.88000000000E+00 0.  1.
        -11    1    4    4    0    0  0.28020198973E-01 -0.11828309374E-01  0.95386134012E-01  0.10011900986E+00  0.51100000000E-03 0.  1.
         11    1    4    4    0    0  0.18614854552E-01 -0.59835373327E-03  0.25581256107E-01  0.31647000208E-01  0.51100000000E-03 0. -1.
</event>
<event>
 8    1  0.1129676E+005  0.1043930E+01  0.7957747E-01            NaN
         13   -1    0    0    0    0  0.00000000000E+00  0.00000000000E+00  0.74505805969E-08  0.10566000000E+00  0.10566000000E+00 0.  1.
     999900   -1    0    0    0    0 -0.00000000000E+00 -0.00000000000E+00 -0.74505805969E-08  0.93827000000E+00  0.93827000000E+00 0.  1.
     999902    2    1    2    0    0  0.18673801728E-01 -0.54566208859E-02  0.11171524735E-01  0.10214959066E+01  0.10212495281E+01 0.  0.
     999903    2    3    3    0    0 -0.94083019045E-01  0.54192659308E-01  0.69452181097E-01  0.13039054123E+00  0.19739021948E-01 0.  0.
         14    1    1    2    0    0 -0.18673801728E-01  0.54566208859E-02 -0.11171524735E-01  0.22434093416E-01  0.00000000000E+00 0. -1.
     999901    1    3    3    0    0  0.11275682077E+00 -0.59649280194E-01 -0.58280656362E-01  0.89110536536E+00  0.88000000000E+00 0. -1.
        -11    1    4    4    0    0 -0.57282920593E-01  0.26155022000E-01  0.49063664027E-01  0.79830585719E-01  0.51100000000E-03 0.  1.
         11    1    4    4    0    0 -0.36800098452E-01  0.28037637308E-01  0.20388517070E-01  0.50559955511E-01  0.51100000000E-03 0. -1.
</event>
<event>
 8    1  0.1159031E+005  0.1043930E+01  0.7957747E-01            NaN
         13   -1    0    0    0    0  0.00000000000E+00  0.00000000000E+00  0.74505805969E-08  0.10566000000E+00  0.10566000000E+00 0. -1.
     999900   -1    0    0    0    0 -0.00000000000E+00 -0.00000000000E+00 -0.74505805969E-08  0.93827000000E+00  0.93827000000E+00 0.  1.
     999902    2    1    2    0    0  0.97083230931E-02 -0.18383394754E-01 -0.20264110144E-01  0.10148983810E+01  0.10144830649E+01 0.  0.
     999903    2    3    3    0    0  0.94247727747E-01 -0.40690059559E-01 -0.75343133073E-01  0.12885199568E+00  0.19696039104E-01 0.  0.
         14    1    1    2    0    0 -0.97083230931E-02  0.18383394754E-01  0.20264110144E-01  0.29031618968E-01  0.00000000000E+00 0. -1.
     999901    1    3    3    0    0 -0.84539404654E-01  0.22306664805E-01  0.55079022929E-01  0.88604638536E+00  0.88000000000E+00 0. -1.
        -11    1    4    4    0    0  0.48006760751E-01 -0.11587800658E-01 -0.29492917283E-01  0.57524077505E-01  0.51100000000E-03 0.  1.
         11    1    4    4    0    0  0.46240966996E-01 -0.29102258901E-01 -0.45850215790E-01  0.71327918172E-01  0.51100000000E-03 0. -1.
</event>
<event>
 8    1  0.1129676E+005  0.1043930E+01  0.7957747E-01            NaN
         13   -1    0    0    0    0  0.00000000000E+00  0.00000000000E+00  0.74505805969E-08  0.10566000000E+00  0.10566000000E+00 0.  1.
     999900   -1    0    0    0    0 -0.00000000000E+00 -0.00000000000E+00 -0.74505805969E-08  0.93827000000E+00  0.93827000000E+00 0. -1.
     999902    2    1    2    0    0 -0.14175502270E-01  0.18049960260E-01 -0.59393534226E-02  0.10202230000E+01  0.10199475221E+01 0.  0.
     999903    2    3    3    0    0 -0.10889216346E+00 -0.17307000173E-01 -0.69991096837E-01  0.13212166209E+00  0.20008609143E-01 0.  0.
         14    1    1    2    0    0  0.14175502270E-01 -0.18049960260E-01  0.59393534226E-02  0.23707000002E-01  0.00000000000E+00 0.  1.
     999901    1    3    3    0    0  0.94716661188E-01  0.35356960433E-01  0.64051743414E-01  0.88810133791E+00  0.88000000000E+00 0.  1.
        -11    1    4    4    0    0 -0.67798576532E-01 -0.40970641561E-02 -0.51109757908E-01  0.85005302122E-01  0.51100000000E-03 0.  1.
         11    1    4    4    0    0 -0.41093586926E-01 -0.13209936017E-01 -0.18881338929E-01  0.47116359969E-01  0.51100000000E-03 0. -1.
</event>
<event>
 8    1  0.1129676E+005  0.1043930E+01  0.7957747E-01            NaN
         13   -1    0    0    0    0  0.00000000000E+00  0.00000000000E+00  0.74505805969E-08  0.10566000000E+00  0.10566000000E+00 0.  1.
     999900   -1    0    0    0    0 -0.00000000000E+00 -0.00000000000E+00 -0.74505805969E-08  0.93827000000E+00  0.93827000000E+00 0.  1.
     999902    2    1    2    0    0 -0.14640400572E-01 -0.32231245309E-02 -0.17725104973E-01  0.10207155819E+01  0.10204515618E+01 0.  0.
     999903    2    3    3    0    0 -0.47156738990E-01 -0.42930643659E-01 -0.11604243904E+00  0.13375431020E+00  0.18909511987E-01 0.  0.
         14    1    1    2    0    0  0.14640400572E-01  0.32231245309E-02  0.17725104973E-01  0.23214418083E-01  0.00000000000E+00 0.  1.
     999901    1    3    3    0    0  0.32516338418E-01  0.39707519128E-01  0.98317334064E-01  0.88696127171E+00  0.88000000000E+00 0. -1.
        -11    1    4    4    0    0 -0.25887808932E-01 -0.32102313486E-01 -0.86032593307E-01  0.95407575248E-01  0.51100000000E-03 0. -1.
         11    1    4    4    0    0 -0.21268930059E-01 -0.10828330173E-01 -0.30009845729E-01  0.38346734957E-01  0.51100000000E-03 0.  1.
</event>
<event>
 8    1  0.1129676E+005  0.1043930E+01  0.7957747E-01            NaN
         13   -1    0    0    0    0  0.00000000000E+00  0.00000000000E+00  0.74505805969E-08  0.10566000000E+00  0.10566000000E+00 0. -1.
     999900   -1    0    0    0    0 -0.00000000000E+00 -0.00000000000E+00 -0.74505805969E-08  0.93827000000E+00  0.93827000000E+00 0. -1.
     999902    2    1    2    0    0  0.22648323688E-01 -0.35925419416E-02 -0.64976939495E-02  0.10200957190E+01  0.10198172400E+01 0.  0.
     999903    2    3    3    0    0  0.35056716465E-01  0.64598167846E-01  0.10570174378E+00  0.13026840153E+00  0.19877151211E-01 0.  0.
         14    1    1    2    0    0 -0.22648323688E-01  0.35925419416E-02  0.64976939495E-02  0.23834280986E-01  0.00000000000E+00 0.  1.
     999901    1    3    3    0    0 -0.12408392777E-01 -0.68190709787E-01 -0.11219943773E+00  0.88982731748E+00  0.88000000000E+00 0.  1.
        -11    1    4    4    0    0  0.11530956522E-01  0.75376475408E-02  0.13353218845E-01  0.19192411606E-01  0.51100000000E-03 0. -1.
         11    1    4    4    0    0  0.23525759943E-01  0.57060520305E-01  0.92348524937E-01  0.11107598992E+00  0.51100000000E-03 0.  1.
</event>
<event>
 8    1  0.1129676E+005  0.1043930E+01  0.7957747E-01            NaN
         13   -1    0    0    0    0  0.00000000000E+00  0.00000000000E+00  0.74505805969E-08  0.10566000000E+00  0.10566000000E+00 0.  1.
     999900   -1    0    0    0    0 -0.00000000000E+00 -0.00000000000E+00 -0.74505805969E-08  0.93827000000E+00  0.93827000000E+00 0.  1.
     999902    2    1    2    0    0  0.95725226459E-03  0.43618748582E-02  0.16655147881E-01  0.10266865596E+01  0.10265417456E+01 0.  0.
     999903    2    3    3    0    0 -0.32437904601E-01  0.10822852572E+00 -0.72082468513E-01  0.13551997465E+00  0.20103477964E-01 0.  0.
         14    1    1    2    0    0 -0.95725226459E-03 -0.43618748582E-02 -0.16655147881E-01  0.17243440350E-01  0.00000000000E+00 0. -1.
     999901    1    3    3    0    0  0.33395156866E-01 -0.10386665086E+00  0.88737616394E-01  0.89116658500E+00  0.88000000000E+00 0. -1.
        -11    1    4    4    0    0 -0.19527126728E-01  0.59471614586E-01 -0.28172662589E-01  0.68645041031E-01  0.51100000000E-03 0.  1.
         11    1    4    4    0    0 -0.12910777873E-01  0.48756911136E-01 -0.43909805924E-01  0.66874933615E-01  0.51100000000E-03 0. -1.
</event>
<event>
 8    1  0.1307932E+005  0.1043930E+01  0.7957747E-01            NaN
         13   -1    0    0    0    0  0.00000000000E+00  0.00000000000E+00  0.74505805969E-08  0.10566000000E+00  0.10566000000E+00 0. -1.
     999900   -1    0    0    0    0 -0.00000000000E+00 -0.00000000000E+00 -0.74505805969E-08  0.93827000000E+00  0.93827000000E+00 0. -1.
     999902    2    1    2    0    0 -0.57093025453E-02  0.75739775628E-02 -0.21902914763E-01  0.10200616329E+01  0.10197823474E+01 0.  0.
     999903    2    3    3    0    0  0.90769946525E-02  0.10541431588E+00 -0.77666376691E-01  0.13276183575E+00  0.19976714932E-01 0.  0.
         14    1    1    2    0    0  0.57093025453E-02 -0.75739775628E-02  0.21902914763E-01  0.23868367074E-01  0.00000000000E+00 0. -1.
     999901    1    3    3    0    0 -0.14786297198E-01 -0.97840338312E-01  0.55763461928E-01  0.88729979718E+00  0.88000000000E+00 0.  1.
        -11    1    4    4    0    0  0.61009135434E-02  0.59982791257E-01 -0.31937424914E-01  0.68230613541E-01  0.51100000000E-03 0.  1.
         11    1    4    4    0    0  0.29760811091E-02  0.45431524618E-01 -0.45728951777E-01  0.64531222207E-01  0.51100000000E-03 0. -1.
</event>
<event>
 8    1  0.1129676E+005  0.1043930E+01  0.7957747E-01            NaN
         13   -1    0    0    0    0  0.00000000000E+00  0.00000000000E+00  0.74505805969E-08  0.10566000000E+00  0.10566000000E+00 0.  1.
     999900   -1    0    0    0    0 -0.00000000000E+00 -0.00000000000E+00 -0.74505805969E-08  0.93827000000E+00  0.93827000000E+00 0.  1.
     999902    2    1    2    0    0  0.11579616174E-01  0.16470047483E-01  0.13101712805E-01  0.10199090747E+01  0.10196261647E+01 0.  0.
     999903    2    3    3    0    0 -0.44087362381E-01 -0.11731244708E+00 -0.12034582315E-01  0.12770483703E+00  0.21395991846E-01 0.  0.
         14    1    1    2    0    0 -0.11579616174E-01 -0.16470047483E-01 -0.13101712805E-01  0.24020925321E-01  0.00000000000E+00 0.  1.
     999901    1    3    3    0    0  0.55666978555E-01  0.13378249456E+00  0.25136295120E-01  0.89220423765E+00  0.88000000000E+00 0. -1.
        -11    1    4    4    0    0 -0.16599739610E-01 -0.73960044336E-01 -0.71869296198E-02  0.76141661340E-01  0.51100000000E-03 0.  1.
         11    1    4    4    0    0 -0.27487622771E-01 -0.43352402743E-01 -0.48476526950E-02  0.51563175686E-01  0.51100000000E-03 0. -1.
</event>
<event>
 8    1  0.1129676E+005  0.1043930E+01  0.7957747E-01            NaN
         13   -1    0    0    0    0  0.00000000000E+00  0.00000000000E+00  0.74505805969E-08  0.10566000000E+00  0.10566000000E+00 0. -1.
     999900   -1    0    0    0    0 -0.00000000000E+00 -0.00000000000E+00 -0.74505805969E-08  0.93827000000E+00  0.93827000000E+00 0. -1.
     999902    2    1    2    0    0  0.17799494503E-01 -0.72586350888E-02  0.15042407180E-01  0.10195213171E+01  0.10192290872E+01 0.  0.
     999903    2    3    3    0    0 -0.10201183263E+00  0.50053837773E-01 -0.52920268346E-01  0.12696409263E+00  0.20187256982E-01 0.  0.
         14    1    1    2    0    0 -0.17799494503E-01  0.72586350888E-02 -0.15042407180E-01  0.24408682915E-01  0.00000000000E+00 0. -1.
     999901    1    3    3    0    0  0.11981132713E+00 -0.57312472861E-01  0.67962675526E-01  0.89255722445E+00  0.88000000000E+00 0.  1.
        -11    1    4    4    0    0 -0.76913321519E-01  0.43000343842E-01 -0.48280733542E-01  0.10047874875E+00  0.51100000000E-03 0. -1.
         11    1    4    4    0    0 -0.25098511110E-01  0.70534939307E-02 -0.46395348045E-02  0.26485343886E-01  0.51100000000E-03 0.  1.
</event>
<event>
 8    1  0.1129676E+005  0.1043930E+01  0.7957747E-01            NaN
         13   -1    0    0    0    0  0.00000000000E+00  0.00000000000E+00  0.74505805969E-08  0.10566000000E+00  0.10566000000E+00 0.  1.
     999900   -1    0    0    0    0 -0.00000000000E+00 -0.00000000000E+00 -0.74505805969E-08  0.93827000000E+00  0.93827000000E+00 0.  1.
     999902    2    1    2    0    0 -0.15453310160E-03 -0.16563587384E-01  0.16705440001E-01  0.10204045237E+01  0.10201332972E+01 0.  0.
     999903    2    3    3    0    0 -0.88859462591E-01 -0.48320385506E-01 -0.79256444967E-01  0.13018784107E+00  0.20890814874E-01 0.  0.
         14    1    1    2    0    0  0.15453310160E-03  0.16563587384E-01 -0.16705440001E-01  0.23525476258E-01  0.00000000000E+00 0. -1.
     999901    1    3    3    0    0  0.88704929489E-01  0.31756798121E-01  0.95961884968E-01  0.89021668267E+00  0.88000000000E+00 0. -1.
        -11    1    4    4    0    0 -0.48335576615E-01 -0.15670139960E-01 -0.33262349537E-01  0.60733238600E-01  0.51100000000E-03 0. -1.
         11    1    4    4    0    0 -0.40523885976E-01 -0.32650245545E-01 -0.45994095431E-01  0.69454602470E-01  0.51100000000E-03 0.  1.
</event>
<event>
 8    1  0.1129676E+005  0.1043930E+01  0.7957747E-01            NaN
         13   -1    0    0    0    0  0.00000000000E+00  0.00000000000E+00  0.74505805969E-08  0.10566000000E+00  0.10566000000E+00 0.  1.
     999900   -1    0    0    0    0 -0.00000000000E+00 -0.00000000000E+00 -0.74505805969E-08  0.93827000000E+00  0.93827000000E+00 0. -1.
     999902    2    1    2    0    0 -0.14828496470E-01 -0.42013180989E-02  0.17532473524E-01  0.10205864140E+01  0.10203194134E+01 0.  0.
     999903    2    3    3    0    0  0.84949908193E-01  0.95092452223E-01  0.66297568843E-02  0.12933232444E+00  0.20587255677E-01 0.  0.
         14    1    1    2    0    0  0.14828496470E-01  0.42013180989E-02 -0.17532473524E-01  0.23343586039E-01  0.00000000000E+00 0. -1.
     999901    1    3    3    0    0 -0.99778404663E-01 -0.99293770322E-01  0.10902716639E-01  0.89125408952E+00  0.88000000000E+00 0. -1.
        -11    1    4    4    0    0  0.35053515466E-01  0.54598743653E-01  0.23402444246E-02  0.64926956036E-01  0.51100000000E-03 0.  1.
         11    1    4    4    0    0  0.49896392727E-01  0.40493708569E-01  0.42895124597E-02  0.64405368402E-01  0.51100000000E-03 0. -1.
</event>
<event>
 8    1  0.1129676E+005  0.1043930E+01  0.7957747E-01            NaN
         13   -1    0    0    0    0  0.00000000000E+00  0.00000000000E+00  0.74505805969E-08  0.10566000000E+00  0.10566000000E+00 0.  1.
     999900   -1    0    0    0    0 -0.00000000000E+00 -0.00000000000E+00 -0.74505805969E-08  0.93827000000E+00  0.93827000000E+00 0.  1.
     999902    2    1    2    0    0  0.18532517271E-01  0.14663327696E-01  0.25732927450E-02  0.10201583949E+01  0.10198813957E+01 0.  0.
     999903    2    3    3    0    0  0.40395759106E-01 -0.39734145678E-01  0.11614289932E+00  0.13092549961E+00  0.21016510134E-01 0.  0.
         14    1    1    2    0    0 -0.18532517271E-01 -0.14663327696E-01 -0.25732927450E-02  0.23771605143E-01  0.00000000000E+00 0. -1.
     999901    1    3    3    0    0 -0.21863241835E-01  0.54397473375E-01 -0.11356960658E+00  0.88923289525E+00  0.88000000000E+00 0. -1.
        -11    1    4    4    0    0  0.12700081491E-01 -0.18333278959E-01  0.66805566656E-01  0.70431853905E-01  0.51100000000E-03 0. -1.
         11    1    4    4    0    0  0.27695677615E-01 -0.21400866720E-01  0.49337332667E-01  0.60493645704E-01  0.51100000000E-03 0.  1.
</event>
<event>
 8    1  0.1129676E+005  0.1043930E+01  0.7957747E-01            NaN
         13   -1    0    0    0    0  0.00000000000E+00  0.00000000000E+00  0.74505805969E-08  0.10566000000E+00  0.10566000000E+00 0. -1.
     999900   -1    0    0    0    0 -0.00000000000E+00 -0.00000000000E+00 -0.74505805969E-08  0.93827000000E+00  0.93827000000E+00 0.  1.
     999902    2    1    2    0    0  0.11550815084E-01 -0.14739882410E-01  0.16847639667E-01  0.10187401523E+01  0.10184286767E+01 0.  0.
     999903    2    3    3    0    0  0.19360180944E-01  0.55770750791E-01 -0.11051862769E+00  0.12674525233E+00  0.19099703449E-01 0.  0.
         14    1    1    2    0    0 -0.11550815084E-01  0.14739882410E-01 -0.16847639667E-01  0.25189847656E-01  0.00000000000E+00 0.  1.
     999901    1    3    3    0    0 -0.78093658600E-02 -0.70510633202E-01  0.12736626736E+00  0.89199490001E+00  0.88000000000E+00 0. -1.
        -11    1    4    4    0    0  0.31793961424E-02  0.17482948740E-01 -0.52075019977E-01  0.55025729283E-01  0.51100000000E-03 0.  1.
         11    1    4    4    0    0  0.16180784801E-01  0.38287802052E-01 -0.58443607713E-01  0.71719523048E-01  0.51100000000E-03 0. -1.
</event>
<event>
 8    1  0.1129676E+005  0.1043930E+01  0.7957747E-01            NaN
         13   -1    0    0    0    0  0.00000000000E+00  0.00000000000E+00  0.74505805969E-08  0.10566000000E+00  0.10566000000E+00 0. -1.
     999900   -1    0    0    0    0 -0.00000000000E+00 -0.00000000000E+00 -0.74505805969E-08  0.93827000000E+00  0.93827000000E+00 0.  1.
     999902    2    1    2    0    0  0.15045882257E-01  0.10049592945E-02  0.19765611327E-01  0.10190690284E+01  0.10187657321E+01 0.  0.
     999903    2    3    3    0    0  0.11956066754E+00 -0.48911304434E-01 -0.89321687225E-02  0.13101580013E+00  0.19957137118E-01 0.  0.
         14    1    1    2    0    0 -0.15045882257E-01 -0.10049592945E-02 -0.19765611327E-01  0.24860971566E-01  0.00000000000E+00 0.  1.
     999901    1    3    3    0    0 -0.10451478528E+00  0.49916263729E-01  0.28697780049E-01  0.88805322831E+00  0.88000000000E+00 0.  1.
        -11    1    4    4    0    0  0.22480282672E-01 -0.33659025253E-02 -0.69053903468E-02  0.23762111557E-01  0.51100000000E-03 0.  1.
         11    1    4    4    0    0  0.97080384863E-01 -0.45545401909E-01 -0.20267783757E-02  0.10725368857E+00  0.51100000000E-03 0. -1.
</event>
<event>
 8    1  0.1129676E+005  0.1043930E+01  0.7957747E-01            NaN
         13   -1    0    0    0    0  0.00000000000E+00  0.00000000000E+00  0.74505805969E-08  0.10566000000E+00  0.10566000000E+00 0.  1.
     999900   -1    0    0    0    0 -0.00000000000E+00 -0.00000000000E+00 -0.74505805969E-08  0.93827000000E+00  0.93827000000E+00 0.  1.
     999902    2    1    2    0    0  0.90244482232E-02 -0.20532611227E-01  0.73526488122E-02  0.10203272410E+01  0.10200542086E+01 0.  0.
     999903    2    3    3    0    0  0.18865144660E-01 -0.11751650368E+00  0.57086602737E-01  0.13354869991E+00  0.20257164516E-01 0.  0.
         14    1    1    2    0    0 -0.90244482232E-02  0.20532611227E-01 -0.73526488122E-02  0.23602759036E-01  0.00000000000E+00 0. -1.
     999901    1    3    3    0    0 -0.98406964365E-02  0.96983892457E-01 -0.49733953925E-01  0.88677854105E+00  0.88000000000E+00 0. -1.
        -11    1    4    4    0    0  0.86072705969E-02 -0.47433446141E-01  0.12333066578E-01  0.49763265288E-01  0.51100000000E-03 0.  1.
         11    1    4    4    0    0  0.10257874063E-01 -0.70083057543E-01  0.44753536159E-01  0.83785434621E-01  0.51100000000E-03 0. -1.
</event>
<event>
 8    1  0.1129676E+005  0.1043930E+01  0.7957747E-01            NaN
         13   -1    0    0    0    0  0.00000000000E+00  0.00000000000E+00  0.74505805969E-08  0.10566000000E+00  0.10566000000E+00 0. -1.
     999900   -1    0    0    0    0 -0.00000000000E+00 -0.00000000000E+00 -0.74505805969E-08  0.93827000000E+00  0.93827000000E+00 0.  1.
     999902    2    1    2    0    0 -0.24754558014E-01 -0.64061179296E-02 -0.67663228430E-02  0.10174798655E+01  0.10171360121E+01 0.  0.
     999903    2    3    3    0    0  0.41723717032E-02 -0.70919362578E-01  0.10406623511E+00  0.12771440097E+00  0.20838000167E-01 0.  0.
         14    1    1    2    0    0  0.24754558014E-01  0.64061179296E-02  0.67663228430E-02  0.26450134484E-01  0.00000000000E+00 0. -1.
     999901    1    3    3    0    0 -0.28926929718E-01  0.64513244649E-01 -0.11083255795E+00  0.88976546455E+00  0.88000000000E+00 0. -1.
        -11    1    4    4    0    0 -0.33640360034E-02 -0.62996489630E-01  0.88653251306E-01  0.10880962518E+00  0.51100000000E-03 0. -1.
         11    1    4    4    0    0  0.75364077067E-02 -0.79228729482E-02  0.15412983803E-01  0.18904775788E-01  0.51100000000E-03 0.  1.
</event>
<event>
 8    1  0.1129676E+005  0.1043930E+01  0.7957747E-01            NaN
         13   -1    0    0    0    0  0.00000000000E+00  0.00000000000E+00  0.74505805969E-08  0.10566000000E+00  0.10566000000E+00 0. -1.
     999900   -1    0    0    0    0 -0.00000000000E+00 -0.00000000000E+00 -0.74505805969E-08  0.93827000000E+00  0.93827000000E+00 0.  1.
     999902    2    1    2    0    0 -0.23074287562E-02  0.15713399483E-01  0.15153375798E-01  0.10219786914E+01  0.10217429157E+01 0.  0.
     999903    2    3    3    0    0 -0.23931282313E-01  0.12236669769E+00  0.47311605904E-01  0.13469256573E+00  0.18904608755E-01 0.  0.
         14    1    1    2    0    0  0.23074287562E-02 -0.15713399483E-01 -0.15153375798E-01  0.21951308591E-01  0.00000000000E+00 0. -1.
     999901    1    3    3    0    0  0.21623853557E-01 -0.10665329821E+00 -0.32158230106E-01  0.88728612568E+00  0.88000000000E+00 0. -1.
        -11    1    4    4    0    0 -0.19516875132E-01  0.90912728200E-01  0.43633334221E-01  0.10271397928E+00  0.51100000000E-03 0. -1.
         11    1    4    4    0    0 -0.44144071805E-02  0.31453969491E-01  0.36782716828E-02  0.31978586446E-01  0.51100000000E-03 0.  1.
</event>
<event>
 8    1  0.1129676E+005  0.1043930E+01  0.7957747E-01            NaN
         13   -1    0    0    0    0  0.00000000000E+00  0.00000000000E+00  0.74505805969E-08  0.10566000000E+00  0.10566000000E+00 0. -1.
     999900   -1    0    0    0    0 -0.00000000000E+00 -0.00000000000E+00 -0.74505805969E-08  0.93827000000E+00  0.93827000000E+00 0. -1.
     999902    2    1    2    0    0  0.26605461122E-01  0.18547963403E-03 -0.36153756885E-03  0.10173214361E+01  0.10169733962E+01 0.  0.
     999903    2    3    3    0    0  0.50925957232E-01  0.11697290986E+00 -0.80334448076E-03  0.12927245907E+00  0.20847267225E-01 0.  0.
         14    1    1    2    0    0 -0.26605461122E-01 -0.18547963403E-03  0.36153756885E-03  0.26608563915E-01  0.00000000000E+00 0. -1.
     999901    1    3    3    0    0 -0.24320496110E-01 -0.11678743022E+00  0.44180691190E-03  0.88804897702E+00  0.88000000000E+00 0.  1.
        -11    1    4    4    0    0  0.43480252275E-01  0.88869651183E-01  0.69437410950E-02  0.99180763763E-01  0.51100000000E-03 0. -1.
         11    1    4    4    0    0  0.74457049577E-02  0.28103258673E-01 -0.77470855758E-02  0.30091695304E-01  0.51100000000E-03 0.  1.
</event>
<event>
 8    1  0.1129676E+005  0.1043930E+01  0.7957747E-01            NaN
         13   -1    0    0    0    0  0.00000000000E+00  0.00000000000E+00  0.74505805969E-08  0.10566000000E+00  0.10566000000E+00 0.  1.
     999900   -1    0    0    0    0 -0.00000000000E+00 -0.00000000000E+00 -0.74505805969E-08  0.93827000000E+00  0.93827000000E+00 0.  1.
     999902    2    1    2    0    0  0.87875222413E-02 -0.62000765654E-02 -0.20949862598E-01  0.10203809397E+01  0.10201091628E+01 0.  0.
     999903    2    3    3    0    0 -0.83773634882E-01 -0.54042284101E-01 -0.83836872457E-01  0.13200533187E+00  0.21405515356E-01 0.  0.
         14    1    1    2    0    0 -0.87875222413E-02  0.62000765654E-02  0.20949862598E-01  0.23549060266E-01  0.00000000000E+00 0.  1.
     999901    1    3    3    0    0  0.92561157124E-01  0.47842207536E-01  0.62887009860E-01  0.88837560786E+00  0.88000000000E+00 0. -1.
        -11    1    4    4    0    0 -0.21302108988E-01 -0.21757321753E-01 -0.16471277071E-01  0.34622608026E-01  0.51100000000E-03 0.  1.
         11    1    4    4    0    0 -0.62471525894E-01 -0.32284962348E-01 -0.67365595386E-01  0.97382723849E-01  0.51100000000E-03 0. -1.
</event>
<event>
 8    1  0.1129676E+005  0.1043930E+01  0.7957747E-01            NaN
         13   -1    0    0    0    0  0.00000000000E+00  0.00000000000E+00  0.74505805969E-08  0.10566000000E+00  0.10566000000E+00 0.  1.
     999900   -1    0    0    0    0 -0.00000000000E+00 -0.00000000000E+00 -0.74505805969E-08  0.93827000000E+00  0.93827000000E+00 0.  1.
     999902    2    1    2    0    0 -0.12625682060E-01  0.22382133575E-01  0.11302740248E-01  0.10158565305E+01  0.10154685475E+01 0.  0.
     999903    2    3    3    0    0  0.91378714624E-01  0.78158956484E-01 -0.35107972060E-01  0.12676602742E+00  0.19446440323E-01 0.  0.
         14    1    1    2    0    0  0.12625682060E-01 -0.22382133575E-01 -0.11302740248E-01  0.28073469468E-01  0.00000000000E+00 0. -1.
     999901    1    3    3    0    0 -0.10400439668E+00 -0.55776822908E-01  0.46410712309E-01  0.88909050311E+00  0.88000000000E+00 0. -1.
        -11    1    4    4    0    0  0.17278332080E-01  0.21499976927E-01 -0.15443635852E-02  0.27630344681E-01  0.51100000000E-03 0. -1.
         11    1    4    4    0    0  0.74100382544E-01  0.56658979556E-01 -0.33563608475E-01  0.99135682740E-01  0.51100000000E-03 0.  1.
</event>
<event>
 8    1  0.1129676E+005  0.1043930E+01  0.7957747E-01            NaN
         13   -1    0    0    0    0  0.00000000000E+00  0.00000000000E+00  0.74505805969E-08  0.10566000000E+00  0.10566000000E+00 0.  1.
     999900   -1    0    0    0    0 -0.00000000000E+00 -0.00000000000E+00 -0.74505805969E-08  0.93827000000E+00  0.93827000000E+00 0. -1.
     999902    2    1    2    0    0  0.19184041026E-01 -0.30183642458E-02  0.17289401380E-01  0.10179288202E+01  0.10175966891E+01 0.  0.
     999903    2    3    3    0    0 -0.37234414703E-01  0.11643382636E+00  0.31714817427E-01  0.12795131448E+00  0.20554115788E-01 0.  0.
         14    1    1    2    0    0 -0.19184041026E-01  0.30183642458E-02 -0.17289401380E-01  0.26001179836E-01  0.00000000000E+00 0. -1.
     999901    1    3    3    0    0  0.56418455728E-01 -0.11945219060E+00 -0.14425416047E-01  0.88997750568E+00  0.88000000000E+00 0.  1.
        -11    1    4    4    0    0 -0.19810410242E-01  0.50893013695E-01  0.24133449473E-01  0.59709594718E-01  0.51100000000E-03 0.  1.
         11    1    4    4    0    0 -0.17424004460E-01  0.65540812661E-01  0.75813679544E-02  0.68241719767E-01  0.51100000000E-03 0. -1.
</event>
<event>
 8    1  0.1129676E+005  0.1043930E+01  0.7957747E-01            NaN
         13   -1    0    0    0    0  0.00000000000E+00  0.00000000000E+00  0.74505805969E-08  0.10566000000E+00  0.10566000000E+00 0. -1.
     999900   -1    0    0    0    0 -0.00000000000E+00 -0.00000000000E+00 -0.74505805969E-08  0.93827000000E+00  0.93827000000E+00 0. -1.
     999902    2    1    2    0    0 -0.81277167229E-02  0.12966367642E-01  0.16142449927E-01  0.10216866828E+01  0.10214445226E+01 0.  0.
     999903    2    3    3    0    0  0.12068853566E+00  0.47402061202E-01  0.85647633843E-02  0.13160979559E+00  0.20859172539E-01 0.  0.
         14    1    1    2    0    0  0.81277167229E-02 -0.12966367642E-01 -0.16142449927E-01  0.22243317167E-01  0.00000000000E+00 0.  1.
     999901    1    3    3    0    0 -0.12881625238E+00 -0.34435693561E-01  0.75776865431E-02  0.89007688724E+00  0.88000000000E+00 0.  1.
        -11    1    4    4    0    0  0.85445364841E-01  0.36507965047E-01  0.15115240312E-01  0.94140711148E-01  0.51100000000E-03 0. -1.
         11    1    4    4    0    0  0.35243170814E-01  0.10894096155E-01 -0.65504769280E-02  0.37469084443E-01  0.51100000000E-03 0.  1.
</event>
<event>
 8    1  0.1129676E+005  0.1043930E+01  0.7957747E-01            NaN
         13   -1    0    0    0    0  0.00000000000E+00  0.00000000000E+00  0.74505805969E-08  0.10566000000E+00  0.10566000000E+00 0. -1.
     999900   -1    0    0    0    0 -0.00000000000E+00 -0.00000000000E+00 -0.74505805969E-08  0.93827000000E+00  0.93827000000E+00 0.  1.
     999902    2    1    2    0    0  0.20519269681E-01  0.10315044152E-01  0.55853065063E-03  0.10209571351E+01  0.10206986427E+01 0.  0.
     999903    2    3    3    0    0  0.19772683220E-01 -0.52615759907E-01  0.11676191285E+00  0.13108969021E+00  0.19793569472E-01 0.  0.
         14    1    1    2    0    0 -0.20519269681E-01 -0.10315044152E-01 -0.55853065063E-03  0.22972864875E-01  0.00000000000E+00 0. -1.
     999901    1    3    3    0    0  0.74658646096E-03  0.62930804059E-01 -0.11620338220E+00  0.88986744492E+00  0.88000000000E+00 0.  1.
        -11    1    4    4    0    0  0.17745060611E-01 -0.27795883679E-01  0.81476879870E-01  0.87899040950E-01  0.51100000000E-03 0.  1.
         11    1    4    4    0    0  0.20276226096E-02 -0.24819876228E-01  0.35285032985E-01  0.43190649256E-01  0.51100000000E-03 0. -1.
</event>
<event>
 8    1  0.1129676E+005  0.1043930E+01  0.7957747E-01            NaN
         13   -1    0    0    0    0  0.00000000000E+00  0.00000000000E+00  0.74505805969E-08  0.10566000000E+00  0.10566000000E+00 0. -1.
     999900   -1    0    0    0    0 -0.00000000000E+00 -0.00000000000E+00 -0.74505805969E-08  0.93827000000E+00  0.93827000000E+00 0. -1.
     999902    2    1    2    0    0  0.16922729612E-01  0.65663638290E-02 -0.16975959715E-01  0.10190768489E+01  0.10187737457E+01 0.  0.
     999903    2    3    3    0    0 -0.11156648242E+00  0.18180579434E-01 -0.58231513803E-01  0.12871378343E+00  0.19967858554E-01 0.  0.
         14    1    1    2    0    0 -0.16922729612E-01 -0.65663638290E-02  0.16975959715E-01  0.24853151102E-01  0.00000000000E+00 0. -1.
     999901    1    3    3    0    0  0.12848921204E+00 -0.11614215605E-01  0.41255554087E-01  0.89036306547E+00  0.88000000000E+00 0.  1.
        -11    1    4    4    0    0 -0.62082339896E-01  0.23194801152E-02 -0.24639401859E-01  0.66835306239E-01  0.51100000000E-03 0.  1.
         11    1    4    4    0    0 -0.49484142527E-01  0.15861099319E-01 -0.33592111943E-01  0.61878477187E-01  0.51100000000E-03 0. -1.
</event>
<event>
 8    1  0.1129676E+005  0.1043930E+01  0.7957747E-01            NaN
         13   -1    0    0    0    0  0.00000000000E+00  0.00000000000E+00  0.74505805969E-08  0.10566000000E+00  0.10566000000E+00 0.  1.
     999900   -1    0    0    0    0 -0.00000000000E+00 -0.00000000000E+00 -0.74505805969E-08  0.93827000000E+00  0.93827000000E+00 0.  1.
     999902    2    1    2    0    0 -0.69374575955E-02  0.11512341759E-02  0.22413727163E-01  0.10204389629E+01  0.10201685391E+01 0.  0.
     999903    2    3    3    0    0  0.17345414365E-01 -0.18861889411E-01 -0.12369569454E+00  0.12783706616E+00  0.19622853088E-01 0.  0.
         14    1    1    2    0    0  0.69374575955E-02 -0.11512341759E-02 -0.22413727163E-01  0.23491037085E-01  0.00000000000E+00 0. -1.
     999901    1    3    3    0    0 -0.24282871960E-01  0.20013123587E-01  0.14610942171E+00  0.89260189676E+00  0.88000000000E+00 0. -1.
        -11    1    4    4    0    0  0.30511817397E-02 -0.14292754968E-01 -0.86457320264E-01  0.87685357402E-01  0.51100000000E-03 0. -1.
         11    1    4    4    0    0  0.14294232625E-01 -0.45691344431E-02 -0.37238374279E-01  0.40151708754E-01  0.51100000000E-03 0.  1.
</event>
<event>
 8    1  0.1129676E+005  0.1043930E+01  0.7957747E-01            NaN
         13   -1    0    0    0    0  0.00000000000E+00  0.00000000000E+00  0.74505805969E-08  0.10566000000E+00  0.10566000000E+00 0. -1.
     999900   -1    0    0    0    0 -0.00000000000E+00 -0.00000000000E+00 -0.74505805969E-08  0.93827000000E+00  0.93827000000E+00 0.  1.
     999902    2    1    2    0    0 -0.32226120844E-02 -0.76309334705E-02 -0.22068274373E-01  0.10203582986E+01  0.10200859926E+01 0.  0.
     999903    2    3    3    0    0 -0.24903653014E-01 -0.12718063759E+00 -0.15129624421E-01  0.13198318402E+00  0.19888409185E-01 0.  0.
         14    1    1    2    0    0  0.32226120844E-02  0.76309334705E-02  0.22068274373E-01  0.23571701425E-01  0.00000000000E+00 0. -1.
     999901    1    3    3    0    0  0.21681040930E-01  0.11954970411E+00 -0.69386499523E-02  0.88837511455E+00  0.88000000000E+00 0.  1.
        -11    1    4    4    0    0 -0.32929330780E-02 -0.66427190475E-01 -0.48851612245E-02  0.66689886519E-01  0.51100000000E-03 0. -1.
         11    1    4    4    0    0 -0.21610719936E-01 -0.60753447110E-01 -0.10244463196E-01  0.65293297505E-01  0.51100000000E-03 0.  1.
</event>
<event>
 8    1  0.1129676E+005  0.1043930E+01  0.7957747E-01            NaN
         13   -1    0    0    0    0  0.00000000000E+00  0.00000000000E+00  0.74505805969E-08  0.10566000000E+00  0.10566000000E+00 0.  1.
     999900   -1    0    0    0    0 -0.00000000000E+00 -0.00000000000E+00 -0.74505805969E-08  0.93827000000E+00  0.93827000000E+00 0.  1.
     999902    2    1    2    0    0 -0.21631433389E-01 -0.95607199265E-02 -0.24364552359E-02  0.10201547484E+01  0.10198776633E+01 0.  0.
     999903    2    3    3    0    0  0.17402969786E-01  0.49924588886E-01 -0.11694049997E+00  0.12988885390E+00  0.20017639728E-01 0.  0.
         14    1    1    2    0    0  0.21631433389E-01  0.95607199265E-02  0.24364552359E-02  0.23775251630E-01  0.00000000000E+00 0. -1.
     999901    1    3    3    0    0 -0.39034403175E-01 -0.59485308813E-01  0.11450404474E+00  0.89026589447E+00  0.88000000000E+00 0. -1.
        -11    1    4    4    0    0  0.99648944074E-02  0.18844589916E-01 -0.26789237647E-01  0.34239481076E-01  0.51100000000E-03 0.  1.
         11    1    4    4    0    0  0.74380753786E-02  0.31079998970E-01 -0.90151262327E-01  0.95649372823E-01  0.51100000000E-03 0. -1.
</event>
<event>
 8    1  0.1129676E+005  0.1043930E+01  0.7957747E-01            NaN
         13   -1    0    0    0    0  0.00000000000E+00  0.00000000000E+00  0.74505805969E-08  0.10566000000E+00  0.10566000000E+00 0. -1.
     999900   -1    0    0    0    0 -0.00000000000E+00 -0.00000000000E+00 -0.74505805969E-08  0.93827000000E+00  0.93827000000E+00 0.  1.
     999902    2    1    2    0    0 -0.53657924299E-02 -0.12234993189E-01  0.19785389964E-01  0.10200564070E+01  0.10197769977E+01 0.  0.
     999903    2    3    3    0    0 -0.56024416641E-01  0.11481364443E+00  0.36235862111E-03  0.12927870932E+00  0.19797605258E-01 0.  0.
         14    1    1    2    0    0  0.53657924299E-02  0.12234993189E-01 -0.19785389964E-01  0.23873593001E-01  0.00000000000E+00 0.  1.
     999901    1    3    3    0    0  0.50658624211E-01 -0.12704863762E+00  0.19423031343E-01  0.89077769767E+00  0.88000000000E+00 0. -1.
        -11    1    4    4    0    0 -0.33701615547E-01  0.46868456946E-01 -0.11877719301E-02  0.57741865835E-01  0.51100000000E-03 0.  1.
         11    1    4    4    0    0 -0.22322801094E-01  0.67945187483E-01  0.15501305512E-02  0.71536843490E-01  0.51100000000E-03 0. -1.
</event>
<event>
 8    1  0.1129676E+005  0.1043930E+01  0.7957747E-01            NaN
         13   -1    0    0    0    0  0.00000000000E+00  0.00000000000E+00  0.74505805969E-08  0.10566000000E+00  0.10566000000E+00 0.  1.
     999900   -1    0    0    0    0 -0.00000000000E+00 -0.00000000000E+00 -0.74505805969E-08  0.93827000000E+00  0.93827000000E+00 0. -1.
     999902    2    1    2    0    0 -0.16861938139E-01 -0.11952810494E-01 -0.94293477787E-02  0.10212120063E+01  0.10209592816E+01 0.  0.
     999903    2    3    3    0    0 -0.63888149260E-01 -0.91925441525E-01  0.68816017255E-01  0.13288243720E+00  0.19751340998E-01 0.  0.
         14    1    1    2    0    0  0.16861938139E-01  0.11952810494E-01  0.94293477787E-02  0.22717993663E-01  0.00000000000E+00 0.  1.
     999901    1    3    3    0    0  0.47026211120E-01  0.79972631031E-01 -0.78245365033E-01  0.88832956913E+00  0.88000000000E+00 0. -1.
        -11    1    4    4    0    0 -0.30082968986E-01 -0.52081479032E-01  0.26879442092E-01  0.65880429639E-01  0.51100000000E-03 0. -1.
         11    1    4    4    0    0 -0.33805180273E-01 -0.39843962493E-01  0.41936575163E-01  0.67002007566E-01  0.51100000000E-03 0.  1.
</event>
<event>
 8    1  0.1129676E+005  0.1043930E+01  0.7957747E-01            NaN
         13   -1    0    0    0    0  0.00000000000E+00  0.00000000000E+00  0.74505805969E-08  0.10566000000E+00  0.10566000000E+00 0.  1.
     999900   -1    0    0    0    0 -0.00000000000E+00 -0.00000000000E+00 -0.74505805969E-08  0.93827000000E+00  0.93827000000E+00 0.  1.
     999902    2    1    2    0    0  0.88420939561E-02 -0.10584503648E-01  0.19764886538E-01  0.10198288572E+01  0.10195440319E+01 0.  0.
     999903    2    3    3    0    0 -0.26175102389E-01 -0.12735985879E+00  0.32141330671E-02  0.13127012813E+00  0.17772064374E-01 0.  0.
         14    1    1    2    0    0 -0.88420939561E-02  0.10584503648E-01 -0.19764886538E-01  0.24101142771E-01  0.00000000000E+00 0. -1.
     999901    1    3    3    0    0  0.35017196345E-01  0.11677535515E+00  0.16550753471E-01  0.88855872909E+00  0.88000000000E+00 0.  1.
        -11    1    4    4    0    0 -0.12351860591E-01 -0.95642669343E-01 -0.75165649147E-03  0.96441250343E-01  0.51100000000E-03 0. -1.
         11    1    4    4    0    0 -0.13823241798E-01 -0.31717189450E-01  0.39657895585E-02  0.34828877792E-01  0.51100000000E-03 0.  1.
</event>
<event>
 8    1  0.1129676E+005  0.1043930E+01  0.7957747E-01            NaN
         13   -1    0    0    0    0  0.00000000000E+00  0.00000000000E+00  0.74505805969E-08  0.10566000000E+00  0.10566000000E+00 0. -1.
     999900   -1    0    0    0    0 -0.00000000000E+00 -0.00000000000E+00 -0.74505805969E-08  0.93827000000E+00  0.93827000000E+00 0. -1.
     999902    2    1    2    0    0 -0.47060141082E-02  0.31311435317E-02  0.25417415047E-01  0.10178916510E+01  0.10175585574E+01 0.  0.
     999903    2    3    3    0    0 -0.12660106648E-01 -0.10199108071E+00 -0.70808624565E-01  0.12639100589E+00  0.19959113507E-01 0.  0.
         14    1    1    2    0    0  0.47060141082E-02 -0.31311435317E-02 -0.25417415047E-01  0.26038348954E-01  0.00000000000E+00 0.  1.
     999901    1    3    3    0    0  0.79540925402E-02  0.10512222424E+00  0.96226039612E-01  0.89150064516E+00  0.88000000000E+00 0.  1.
        -11    1    4    4    0    0 -0.40863283636E-02 -0.74418502375E-01 -0.41780241653E-01  0.85443907266E-01  0.51100000000E-03 0. -1.
         11    1    4    4    0    0 -0.85737782848E-02 -0.27572578333E-01 -0.29028382913E-01  0.40947098622E-01  0.51100000000E-03 0.  1.
</event>
<event>
 8    1  0.1129676E+005  0.1043930E+01  0.7957747E-01            NaN
         13   -1    0    0    0    0  0.00000000000E+00  0.00000000000E+00  0.74505805969E-08  0.10566000000E+00  0.10566000000E+00 0.  1.
     999900   -1    0    0    0    0 -0.00000000000E+00 -0.00000000000E+00 -0.74505805969E-08  0.93827000000E+00  0.93827000000E+00 0.  1.
     999902    2    1    2    0    0 -0.15251691920E-01  0.15779016760E-01 -0.90767896535E-02  0.10201817456E+01  0.10199052968E+01 0.  0.
     999903    2    3    3    0    0 -0.12433837789E+00  0.12524161957E-01 -0.39337913408E-01  0.13292404080E+00  0.22459793880E-01 0.  0.
         14    1    1    2    0    0  0.15251691920E-01 -0.15779016760E-01  0.90767896535E-02  0.23748254394E-01  0.00000000000E+00 0.  1.
     999901    1    3    3    0    0  0.10908668597E+00  0.32548548037E-02  0.30261123755E-01  0.88725770481E+00  0.88000000000E+00 0. -1.
        -11    1    4    4    0    0 -0.25634259080E-01 -0.64301403704E-02 -0.70715153533E-02  0.27362920059E-01  0.51100000000E-03 0. -1.
         11    1    4    4    0    0 -0.98704118809E-01  0.18954302327E-01 -0.32266398055E-01  0.10556112074E+00  0.51100000000E-03 0.  1.
</event>
<event>
 8    1  0.1129676E+005  0.1043930E+01  0.7957747E-01            NaN
         13   -1    0    0    0    0  0.00000000000E+00  0.00000000000E+00  0.74505805969E-08  0.10566000000E+00  0.10566000000E+00 0. -1.
     999900   -1    0    0    0    0 -0.00000000000E+00 -0.00000000000E+00 -0.74505805969E-08  0.93827000000E+00  0.93827000000E+00 0. -1.
     999902    2    1    2    0    0  0.41486298454E-02 -0.37140202584E-02 -0.22736259344E-01  0.10205218270E+01  0.10202533297E+01 0.  0.
     999903    2    3    3    0    0 -0.11420793941E+00 -0.13407146643E-01 -0.61084224181E-01  0.13171768622E+00  0.19876151892E-01 0.  0.
         14    1    1    2    0    0 -0.41486298454E-02  0.37140202584E-02  0.22736259344E-01  0.23408173040E-01  0.00000000000E+00 0. -1.
     999901    1    3    3    0    0  0.11835656926E+00  0.96931263841E-02  0.38347964837E-01  0.88880414074E+00  0.88000000000E+00 0. -1.
        -11    1    4    4    0    0 -0.95811922770E-01 -0.17106725488E-01 -0.55919248026E-01  0.11224877738E+00  0.51100000000E-03 0.  1.
         11    1    4    4    0    0 -0.18396016643E-01  0.36995788459E-02 -0.51649761546E-02  0.19468908846E-01  0.51100000000E-03 0. -1.
</event>
<event>
 8    1  0.1129676E+005  0.1043930E+01  0.7957747E-01            NaN
         13   -1    0    0    0    0  0.00000000000E+00  0.00000000000E+00  0.74505805969E-08  0.10566000000E+00  0.10566000000E+00 0.  1.
     999900   -1    0    0    0    0 -0.00000000000E+00 -0.00000000000E+00 -0.74505805969E-08  0.93827000000E+00  0.93827000000E+00 0. -1.
     999902    2    1    2    0    0 -0.53692511103E-02 -0.16714664812E-01 -0.74094711942E-02  0.10248745771E+01  0.10246974137E+01 0.  0.
     999903    2    3    3    0    0  0.40630621650E-01  0.10697582121E+00  0.63532867956E-01  0.13221106824E+00  0.18672640791E-01 0.  0.
         14    1    1    2    0    0  0.53692511103E-02  0.16714664812E-01  0.74094711942E-02  0.19055422867E-01  0.00000000000E+00 0. -1.
     999901    1    3    3    0    0 -0.45999872760E-01 -0.12369048603E+00 -0.70942339150E-01  0.89266350889E+00  0.88000000000E+00 0. -1.
        -11    1    4    4    0    0  0.12176343159E-01  0.55685988323E-01  0.35948215300E-01  0.67392343278E-01  0.51100000000E-03 0.  1.
         11    1    4    4    0    0  0.28454278491E-01  0.51289832891E-01  0.27584652656E-01  0.64818724961E-01  0.51100000000E-03 0. -1.
</event>
<event>
 8    1  0.1129676E+005  0.1043930E+01  0.7957747E-01            NaN
         13   -1    0    0    0    0  0.00000000000E+00  0.00000000000E+00  0.74505805969E-08  0.10566000000E+00  0.10566000000E+00 0. -1.
     999900   -1    0    0    0    0 -0.00000000000E+00 -0.00000000000E+00 -0.74505805969E-08  0.93827000000E+00  0.93827000000E+00 0.  1.
     999902    2    1    2    0    0 -0.42202230922E-02 -0.21819469305E-01  0.84739002564E-02  0.10201454145E+01  0.10198681092E+01 0.  0.
     999903    2    3    3    0    0  0.32610587582E-01  0.11666948464E+00  0.36305209281E-01  0.12811947272E+00  0.20525886099E-01 0.  0.
         14    1    1    2    0    0  0.42202230922E-02  0.21819469305E-01 -0.84739002564E-02  0.23784585539E-01  0.00000000000E+00 0.  1.
     999901    1    3    3    0    0 -0.36830810674E-01 -0.13848895394E+00 -0.27831309025E-01  0.89202594174E+00  0.88000000000E+00 0.  1.
        -11    1    4    4    0    0  0.14082498634E-01  0.25266627420E-01  0.14409250065E-01  0.32320378051E-01  0.51100000000E-03 0. -1.
         11    1    4    4    0    0  0.18528088948E-01  0.91402857220E-01  0.21895959216E-01  0.95799094667E-01  0.51100000000E-03 0.  1.
</event>
<event>
 8    1  0.1129676E+005  0.1043930E+01  0.7957747E-01            NaN
         13   -1    0    0    0    0  0.00000000000E+00  0.00000000000E+00  0.74505805969E-08  0.10566000000E+00  0.10566000000E+00 0.  1.
     999900   -1    0    0    0    0 -0.00000000000E+00 -0.00000000000E+00 -0.74505805969E-08  0.93827000000E+00  0.93827000000E+00 0.  1.
     999902    2    1    2    0    0  0.58870835348E-02 -0.52617572238E-02  0.22652379196E-01  0.10199409582E+01  0.10196588077E+01 0.  0.
     999903    2    3    3    0    0  0.16986803746E-01 -0.74819918415E-01  0.10733786921E+00  0.13307390292E+00  0.17339947518E-01 0.  0.
         14    1    1    2    0    0 -0.58870835348E-02  0.52617572238E-02 -0.22652379196E-01  0.23989041767E-01  0.00000000000E+00 0. -1.
     999901    1    3    3    0    0 -0.11099720211E-01  0.69558161191E-01 -0.84685490011E-01  0.88686705531E+00  0.88000000000E+00 0.  1.
        -11    1    4    4    0    0  0.14736224008E-01 -0.35878032523E-01  0.63326641569E-01  0.74262468105E-01  0.51100000000E-03 0.  1.
         11    1    4    4    0    0  0.22505797379E-02 -0.38941885892E-01  0.44011227639E-01  0.58811434817E-01  0.51100000000E-03 0. -1.
</event>
<event>
 8    1  0.1129676E+005  0.1043930E+01  0.7957747E-01            NaN
         13   -1    0    0    0    0  0.00000000000E+00  0.00000000000E+00  0.74505805969E-08  0.10566000000E+00  0.10566000000E+00 0. -1.
     999900   -1    0    0    0    0 -0.00000000000E+00 -0.00000000000E+00 -0.74505805969E-08  0.93827000000E+00  0.93827000000E+00 0. -1.
     999902    2    1    2    0    0  0.19465909478E-01 -0.10266770007E-01  0.85845113440E-02  0.10203075100E+01  0.10200340156E+01 0.  0.
     999903    2    3    3    0    0  0.93991699645E-01  0.81719919977E-01 -0.36499505206E-01  0.13123596448E+00  0.19444268269E-01 0.  0.
         14    1    1    2    0    0 -0.19465909478E-01  0.10266770007E-01 -0.85845113440E-02  0.23622489987E-01  0.00000000000E+00 0.  1.
     999901    1    3    3    0    0 -0.74525790167E-01 -0.91986689984E-01  0.45084016550E-01  0.88907154554E+00  0.88000000000E+00 0.  1.
        -11    1    4    4    0    0  0.58197365521E-01  0.61998983141E-01 -0.27651457103E-01  0.89418518580E-01  0.51100000000E-03 0. -1.
         11    1    4    4    0    0  0.35794334124E-01  0.19720936836E-01 -0.88480481035E-02  0.41817445897E-01  0.51100000000E-03 0.  1.
</event>
<event>
 8    1  0.1129676E+005  0.1043930E+01  0.7957747E-01            NaN
         13   -1    0    0    0    0  0.00000000000E+00  0.00000000000E+00  0.74505805969E-08  0.10566000000E+00  0.10566000000E+00 0. -1.
     999900   -1    0    0    0    0 -0.00000000000E+00 -0.00000000000E+00 -0.74505805969E-08  0.93827000000E+00  0.93827000000E+00 0.  1.
     999902    2    1    2    0    0 -0.20053118520E-01  0.10715661510E-01 -0.61621511962E-02  0.10203731523E+01  0.10201011935E+01 0.  0.
     999903    2    3    3    0    0 -0.98322311417E-01 -0.85284275598E-01 -0.45080841910E-02  0.13169728882E+00  0.19574689584E-01 0.  0.
         14    1    1    2    0    0  0.20053118520E-01 -0.10715661510E-01  0.61621511962E-02  0.23556847653E-01  0.00000000000E+00 0.  1.
     999901    1    3    3    0    0  0.78269192896E-01  0.95999937108E-01 -0.16540670051E-02  0.88867586353E+00  0.88000000000E+00 0.  1.
        -11    1    4    4    0    0 -0.92356591702E-01 -0.81777311846E-01  0.11474635277E-03  0.12335940601E+00  0.51100000000E-03 0.  1.
         11    1    4    4    0    0 -0.59657197153E-02 -0.35069637522E-02 -0.46228305438E-02  0.83378828079E-02  0.51100000000E-03 0. -1.
</event>
<event>
 8    1  0.1129676E+005  0.1043930E+01  0.7957747E-01            NaN
         13   -1    0    0    0    0  0.00000000000E+00  0.00000000000E+00  0.74505805969E-08  0.10566000000E+00  0.10566000000E+00 0. -1.
     999900   -1    0    0    0    0 -0.00000000000E+00 -0.00000000000E+00 -0.74505805969E-08  0.93827000000E+00  0.93827000000E+00 0. -1.
     999902    2    1    2    0    0  0.63539833844E-02 -0.15051148258E-01 -0.14517573938E-01  0.10220743343E+01  0.10218406308E+01 0.  0.
     999903    2    3    3    0    0  0.11781842656E+00  0.56784663649E-01  0.56662059491E-02  0.13191025343E+00  0.16202759207E-01 0.  0.
         14    1    1    2    0    0 -0.63539833844E-02  0.15051148258E-01  0.14517573938E-01  0.21855665668E-01  0.00000000000E+00 0. -1.
     999901    1    3    3    0    0 -0.11146444318E+00 -0.71835811907E-01 -0.20183779887E-01  0.89016408091E+00  0.88000000000E+00 0.  1.
        -11    1    4    4    0    0  0.61849833495E-01  0.36813158742E-01  0.81034248484E-02  0.72432984027E-01  0.51100000000E-03 0.  1.
         11    1    4    4    0    0  0.55968593067E-01  0.19971504907E-01 -0.24372188993E-02  0.59477269399E-01  0.51100000000E-03 0. -1.
</event>
<event>
 8    1  0.1129676E+005  0.1043930E+01  0.7957747E-01            NaN
         13   -1    0    0    0    0  0.00000000000E+00  0.00000000000E+00  0.74505805969E-08  0.10566000000E+00  0.10566000000E+00 0.  1.
     999900   -1    0    0    0    0 -0.00000000000E+00 -0.00000000000E+00 -0.74505805969E-08  0.93827000000E+00  0.93827000000E+00 0.  1.
     999902    2    1    2    0    0  0.11470258779E-01 -0.10152182397E-01 -0.16557662211E-01  0.10213736301E+01  0.10211245284E+01 0.  0.
     999903    2    3    3    0    0 -0.70746334081E-01  0.10637597328E+00 -0.12340759654E-01  0.12988265346E+00  0.19907733266E-01 0.  0.
         14    1    1    2    0    0 -0.11470258779E-01  0.10152182397E-01  0.16557662211E-01  0.22556369872E-01  0.00000000000E+00 0.  1.
     999901    1    3    3    0    0  0.82216592860E-01 -0.11652815568E+00 -0.42169025566E-02  0.89149097667E+00  0.88000000000E+00 0.  1.
        -11    1    4    4    0    0 -0.15390770715E-01  0.39284779504E-01 -0.66448987054E-02  0.42715167373E-01  0.51100000000E-03 0.  1.
         11    1    4    4    0    0 -0.55355563366E-01  0.67091193781E-01 -0.56958609490E-02  0.87167486091E-01  0.51100000000E-03 0. -1.
</event>
<event>
 8    1  0.1129676E+005  0.1043930E+01  0.7957747E-01            NaN
         13   -1    0    0    0    0  0.00000000000E+00  0.00000000000E+00  0.74505805969E-08  0.10566000000E+00  0.10566000000E+00 0.  1.
     999900   -1    0    0    0    0 -0.00000000000E+00 -0.00000000000E+00 -0.74505805969E-08  0.93827000000E+00  0.93827000000E+00 0.  1.
     999902    2    1    2    0    0 -0.14271938362E-01 -0.15221601769E-01 -0.11167737943E-01  0.10202634887E+01  0.10199889620E+01 0.  0.
     999903    2    3    3    0    0 -0.49076779525E-01  0.20680523505E-01 -0.11861958015E+00  0.13231853663E+00  0.24522968835E-01 0.  0.
         14    1    1    2    0    0  0.14271938362E-01  0.15221601769E-01  0.11167737943E-01  0.23666511272E-01  0.00000000000E+00 0.  1.
     999901    1    3    3    0    0  0.34804841163E-01 -0.35902125274E-01  0.10745184220E+00  0.88794495210E+00  0.88000000000E+00 0. -1.
        -11    1    4    4    0    0 -0.30537676441E-02  0.83226883090E-02 -0.34633234603E-01  0.35753527065E-01  0.51100000000E-03 0. -1.
         11    1    4    4    0    0 -0.46023011881E-01  0.12357835196E-01 -0.83986345543E-01  0.96565009564E-01  0.51100000000E-03 0.  1.
</event>
<event>
 8    1  0.1129676E+005  0.1043930E+01  0.7957747E-01            NaN
         13   -1    0    0    0    0  0.00000000000E+00  0.00000000000E+00  0.74505805969E-08  0.10566000000E+00  0.10566000000E+00 0. -1.
     999900   -1    0    0    0    0 -0.00000000000E+00 -0.00000000000E+00 -0.74505805969E-08  0.93827000000E+00  0.93827000000E+00 0.  1.
     999902    2    1    2    0    0 -0.54905214193E-02  0.22354591299E-01  0.30306640555E-02  0.10207123666E+01  0.10204482725E+01 0.  0.
     999903    2    3    3    0    0 -0.51905143630E-01  0.82735171020E-01  0.88326195473E-01  0.13331422636E+00  0.20782533155E-01 0.  0.
         14    1    1    2    0    0  0.54905214193E-02 -0.22354591299E-01 -0.30306640555E-02  0.23217633433E-01  0.00000000000E+00 0.  1.
     999901    1    3    3    0    0  0.46414622211E-01 -0.60380579721E-01 -0.85295531418E-01  0.88739814021E+00  0.88000000000E+00 0.  1.
        -11    1    4    4    0    0 -0.29279418963E-01  0.39446033420E-01  0.31411197549E-01  0.58311220016E-01  0.51100000000E-03 0.  1.
         11    1    4    4    0    0 -0.22625724668E-01  0.43289137600E-01  0.56914997925E-01  0.75003006344E-01  0.51100000000E-03 0. -1.
</event>
<event>
 8    1  0.1129676E+005  0.1043930E+01  0.7957747E-01            NaN
         13   -1    0    0    0    0  0.00000000000E+00  0.00000000000E+00  0.74505805969E-08  0.10566000000E+00  0.10566000000E+00 0. -1.
     999900   -1    0    0    0    0 -0.00000000000E+00 -0.00000000000E+00 -0.74505805969E-08  0.93827000000E+00  0.93827000000E+00 0. -1.
     999902    2    1    2    0    0 -0.42303868729E-02 -0.14009123537E-01  0.23531693019E-01  0.10162191304E+01  0.10158412419E+01 0.  0.
     999903    2    3    3    0    0  0.36114336356E-01  0.92051717257E-01 -0.71771507038E-01  0.12382947419E+00  0.20120276229E-01 0.  0.
         14    1    1    2    0    0  0.42303868729E-02  0.14009123537E-01 -0.23531693019E-01  0.27710869558E-01  0.00000000000E+00 0.  1.
     999901    1    3    3    0    0 -0.40344723229E-01 -0.10606084079E+00  0.95303200057E-01  0.89238965625E+00  0.88000000000E+00 0.  1.
        -11    1    4    4    0    0  0.96629857109E-02  0.49893667456E-01 -0.31381091967E-01  0.59730941723E-01  0.51100000000E-03 0.  1.
         11    1    4    4    0    0  0.26451350645E-01  0.42158049801E-01 -0.40390415071E-01  0.64098532469E-01  0.51100000000E-03 0. -1.
</event>
<event>
 8    1  0.1129676E+005  0.1043930E+01  0.7957747E-01            NaN
         13   -1    0    0    0    0  0.00000000000E+00  0.00000000000E+00  0.74505805969E-08  0.10566000000E+00  0.10566000000E+00 0.  1.
     999900   -1    0    0    0    0 -0.00000000000E+00 -0.00000000000E+00 -0.74505805969E-08  0.93827000000E+00  0.93827000000E+00 0.  1.
     999902    2    1    2    0    0  0.17762821115E-02  0.24181750109E-01  0.13340193911E-02  0.10196464289E+01  0.10193572231E+01 0.  0.
     999903    2    3    3    0    0 -0.29792880678E-01 -0.37500261431E-02  0.12500734115E+00  0.12999937156E+00  0.19269738720E-01 0.  0.
         14    1    1    2    0    0 -0.17762821115E-02 -0.24181750109E-01 -0.13340193911E-02  0.24283571076E-01  0.00000000000E+00 0. -1.
     999901    1    3    3    0    0  0.31569162790E-01  0.27931776252E-01 -0.12367332175E+00  0.88964705736E+00  0.88000000000E+00 0.  1.
        -11    1    4    4    0    0  0.21177313861E-04 -0.31275595037E-02  0.35765450168E-01  0.35905579283E-01  0.51100000000E-03 0. -1.
         11    1    4    4    0    0 -0.29814057992E-01 -0.62246663933E-03  0.89241890978E-01  0.94093792277E-01  0.51100000000E-03 0.  1.
</event>
<event>
 8    1  0.1129676E+005  0.1043930E+01  0.7957747E-01            NaN
         13   -1    0    0    0    0  0.00000000000E+00  0.00000000000E+00  0.74505805969E-08  0.10566000000E+00  0.10566000000E+00 0. -1.
     999900   -1    0    0    0    0 -0.00000000000E+00 -0.00000000000E+00 -0.74505805969E-08  0.93827000000E+00  0.93827000000E+00 0. -1.
     999902    2    1    2    0    0 -0.24835211776E-01 -0.12538626524E-01  0.23417853937E-03  0.10161080709E+01  0.10157271051E+01 0.  0.
     999903    2    3    3    0    0  0.83264311984E-01  0.63237240430E-01 -0.63307330591E-01  0.12399540289E+00  0.20860191844E-01 0.  0.
         14    1    1    2    0    0  0.24835211776E-01  0.12538626524E-01 -0.23417853937E-03  0.27821929096E-01  0.00000000000E+00 0. -1.
     999901    1    3    3    0    0 -0.10809952376E+00 -0.75775866954E-01  0.63541509130E-01  0.89211266801E+00  0.88000000000E+00 0.  1.
        -11    1    4    4    0    0  0.75838636020E-01  0.54746770695E-01 -0.48464394834E-01  0.10534593634E+00  0.51100000000E-03 0.  1.
         11    1    4    4    0    0  0.74256759637E-02  0.84904697355E-02 -0.14842935756E-01  0.18649466553E-01  0.51100000000E-03 0. -1.
</event>
<event>
 8    1  0.1129676E+005  0.1043930E+01  0.7957747E-01            NaN
         13   -1    0    0    0    0  0.00000000000E+00  0.00000000000E+00  0.74505805969E-08  0.10566000000E+00  0.10566000000E+00 0. -1.
     999900   -1    0    0    0    0 -0.00000000000E+00 -0.00000000000E+00 -0.74505805969E-08  0.93827000000E+00  0.93827000000E+00 0. -1.
     999902    2    1    2    0    0  0.23494874306E-01  0.16356044647E-01 -0.11129478050E-01  0.10132152707E+01  0.10127496187E+01 0.  0.
     999903    2    3    3    0    0  0.43206353410E-02 -0.89365540686E-01 -0.82475899280E-01  0.12381377706E+00  0.22862844873E-01 0.  0.
         14    1    1    2    0    0 -0.23494874306E-01 -0.16356044647E-01  0.11129478050E-01  0.30714729313E-01  0.00000000000E+00 0. -1.
     999901    1    3    3    0    0  0.19174238965E-01  0.10572158533E+00  0.71346421230E-01  0.88940149363E+00  0.88000000000E+00 0.  1.
        -11    1    4    4    0    0  0.13494282309E-02 -0.80057504276E-01 -0.62517039641E-01  0.10158575842E+00  0.51100000000E-03 0.  1.
         11    1    4    4    0    0  0.29712071101E-02 -0.93080364107E-02 -0.19958859639E-01  0.22228018638E-01  0.51100000000E-03 0. -1.
</event>
<event>
 8    1  0.1129676E+005  0.1043930E+01  0.7957747E-01            NaN
         13   -1    0    0    0    0  0.00000000000E+00  0.00000000000E+00  0.74505805969E-08  0.10566000000E+00  0.10566000000E+00 0.  1.
     999900   -1    0    0    0    0 -0.00000000000E+00 -0.00000000000E+00 -0.74505805969E-08  0.93827000000E+00  0.93827000000E+00 0. -1.
     999902    2    1    2    0    0 -0.14729764090E-01 -0.15024744085E-01  0.10693974474E-01  0.10203276701E+01  0.10200546478E+01 0.  0.
     999903    2    3    3    0    0  0.76537009652E-01  0.93632541447E-01 -0.36827169795E-01  0.12769432500E+00  0.18017589707E-01 0.  0.
         14    1    1    2    0    0  0.14729764090E-01  0.15024744085E-01 -0.10693974474E-01  0.23602329864E-01  0.00000000000E+00 0. -1.
     999901    1    3    3    0    0 -0.91266773742E-01 -0.10865728553E+00  0.47521144269E-01  0.89263334513E+00  0.88000000000E+00 0.  1.
        -11    1    4    4    0    0  0.15177740450E-01  0.19801621484E-01 -0.15423087642E-01  0.29335997886E-01  0.51100000000E-03 0. -1.
         11    1    4    4    0    0  0.61359269202E-01  0.73830919963E-01 -0.21404082152E-01  0.98358327118E-01  0.51100000000E-03 0.  1.
</event>
<event>
 8    1  0.1129676E+005  0.1043930E+01  0.7957747E-01            NaN
         13   -1    0    0    0    0  0.00000000000E+00  0.00000000000E+00  0.74505805969E-08  0.10566000000E+00  0.10566000000E+00 0. -1.
     999900   -1    0    0    0    0 -0.00000000000E+00 -0.00000000000E+00 -0.74505805969E-08  0.93827000000E+00  0.93827000000E+00 0. -1.
     999902    2    1    2    0    0  0.56131791932E-02 -0.25662420700E-02  0.22235619430E-01  0.10208536885E+01  0.10205928362E+01 0.  0.
     999903    2    3    3    0    0 -0.10891522068E-01 -0.12596641769E+00 -0.29608122837E-01  0.13057969582E+00  0.13720509566E-01 0.  0.
         14    1    1    2    0    0 -0.56131791932E-02  0.25662420700E-02 -0.22235619430E-01  0.23076311457E-01  0.00000000000E+00 0.  1.
     999901    1    3    3    0    0  0.16504701261E-01  0.12340017562E+00  0.51843742268E-01  0.89027399272E+00  0.88000000000E+00 0. -1.
        -11    1    4    4    0    0 -0.77054232938E-02 -0.47769552674E-01 -0.55775447809E-02  0.48710099954E-01  0.51100000000E-03 0. -1.
         11    1    4    4    0    0 -0.31860987741E-02 -0.78196865020E-01 -0.24030578056E-01  0.81869595865E-01  0.51100000000E-03 0.  1.
</event>
<event>
 8    1  0.1129676E+005  0.1043930E+01  0.7957747E-01            NaN
         13   -1    0    0    0    0  0.00000000000E+00  0.00000000000E+00  0.74505805969E-08  0.10566000000E+00  0.10566000000E+00 0.  1.
     999900   -1    0    0    0    0 -0.00000000000E+00 -0.00000000000E+00 -0.74505805969E-08  0.93827000000E+00  0.93827000000E+00 0. -1.
     999902    2    1    2    0    0  0.22847251851E-01  0.81317832781E-02  0.14458354837E-02  0.10196356950E+01  0.10193462303E+01 0.  0.
     999903    2    3    3    0    0 -0.29166703482E-01 -0.12034211335E+00 -0.93976153624E-02  0.12872123551E+00  0.33880974852E-01 0.  0.
         14    1    1    2    0    0 -0.22847251851E-01 -0.81317832781E-02 -0.14458354837E-02  0.24294305026E-01  0.00000000000E+00 0. -1.
     999901    1    3    3    0    0  0.52013955333E-01  0.12847389663E+00  0.10843450846E-01  0.89091445947E+00  0.88000000000E+00 0. -1.
        -11    1    4    4    0    0  0.20298586577E-02 -0.55836362585E-01 -0.11449517523E-01  0.57036587252E-01  0.51100000000E-03 0.  1.
         11    1    4    4    0    0 -0.31196562140E-01 -0.64505750769E-01  0.20519021610E-02  0.71684648253E-01  0.51100000000E-03 0. -1.
</event>
<event>
 8    1  0.1129676E+005  0.1043930E+01  0.7957747E-01            NaN
         13   -1    0    0    0    0  0.00000000000E+00  0.00000000000E+00  0.74505805969E-08  0.10566000000E+00  0.10566000000E+00 0.  1.
     999900   -1    0    0    0    0 -0.00000000000E+00 -0.00000000000E+00 -0.74505805969E-08  0.93827000000E+00  0.93827000000E+00 0.  1.
     999902    2    1    2    0    0 -0.23298258065E-02 -0.17080358708E-01 -0.15992686446E-01  0.10204154776E+01  0.10201445066E+01 0.  0.
     999903    2    3    3    0    0  0.75418758068E-01 -0.10666659122E+00 -0.98169358027E-02  0.13243536793E+00  0.19416583103E-01 0.  0.
         14    1    1    2    0    0  0.23298258065E-02  0.17080358708E-01  0.15992686446E-01  0.23514522356E-01  0.00000000000E+00 0.  1.
     999901    1    3    3    0    0 -0.77748583874E-01  0.89586232512E-01 -0.61757506432E-02  0.88798010971E+00  0.88000000000E+00 0. -1.
        -11    1    4    4    0    0  0.26429147089E-01 -0.23247881934E-01 -0.51909521352E-02  0.35583295735E-01  0.51100000000E-03 0. -1.
         11    1    4    4    0    0  0.48989610979E-01 -0.83418709286E-01 -0.46259836675E-02  0.96852072196E-01  0.51100000000E-03 0.  1.
</event>
<event>
 8    1  0.1129676E+005  0.1043930E+01  0.7957747E-01            NaN
         13   -1    0    0    0    0  0.00000000000E+00  0.00000000000E+00  0.74505805969E-08  0.10566000000E+00  0.10566000000E+00 0.  1.
     999900   -1    0    0    0    0 -0.00000000000E+00 -0.00000000000E+00 -0.74505805969E-08  0.93827000000E+00  0.93827000000E+00 0. -1.
     999902    2    1    2    0    0  0.16514253579E-01 -0.19090104810E-01  0.30499522845E-02  0.10185045230E+01  0.10181871186E+01 0.  0.
     999903    2    3    3    0    0 -0.98774522230E-01 -0.59330476395E-01  0.53525409601E-01  0.12864017313E+00  0.20169605837E-01 0.  0.
         14    1    1    2    0    0 -0.16514253579E-01  0.19090104810E-01 -0.30499522845E-02  0.25425477023E-01  0.00000000000E+00 0.  1.
     999901    1    3    3    0    0  0.11528877581E+00  0.40240371585E-01 -0.50475457316E-01  0.88986434984E+00  0.88000000000E+00 0.  1.
        -11    1    4    4    0    0 -0.92342439761E-01 -0.50729136643E-01  0.43662468381E-01  0.11404930404E+00  0.51100000000E-03 0. -1.
         11    1    4    4    0    0 -0.64320824692E-02 -0.86013397519E-02  0.98629412198E-02  0.14590869094E-01  0.51100000000E-03 0.  1.
</event>
<event>
 8    1  0.1129676E+005  0.1043930E+01  0.7957747E-01            NaN
         13   -1    0    0    0    0  0.00000000000E+00  0.00000000000E+00  0.74505805969E-08  0.10566000000E+00  0.10566000000E+00 0.  1.
     999900   -1    0    0    0    0 -0.00000000000E+00 -0.00000000000E+00 -0.74505805969E-08  0.93827000000E+00  0.93827000000E+00 0. -1.
     999902    2    1    2    0    0  0.44617924282E-02  0.21636288864E-01  0.90154663027E-02  0.10200696727E+01  0.10197905775E+01 0.  0.
     999903    2    3    3    0    0 -0.10257831652E+00 -0.99021687045E-02  0.77516405934E-01  0.13038172853E+00  0.19241569064E-01 0.  0.
         14    1    1    2    0    0 -0.44617924282E-02 -0.21636288864E-01 -0.90154663027E-02  0.23860327327E-01  0.00000000000E+00 0. -1.
     999901    1    3    3    0    0  0.10704010895E+00  0.31538457569E-01 -0.68500939632E-01  0.88968794415E+00  0.88000000000E+00 0.  1.
        -11    1    4    4    0    0 -0.31018865977E-01 -0.55019643145E-02  0.13547365277E-01  0.34296266339E-01  0.51100000000E-03 0.  1.
         11    1    4    4    0    0 -0.71559450541E-01 -0.44002043900E-02  0.63969040657E-01  0.96085462188E-01  0.51100000000E-03 0. -1.
</event>
<event>
 8    1  0.1129676E+005  0.1043930E+01  0.7957747E-01            NaN
         13   -1    0    0    0    0  0.00000000000E+00  0.00000000000E+00  0.74505805969E-08  0.10566000000E+00  0.10566000000E+00 0. -1.
     999900   -1    0    0    0    0 -0.00000000000E+00 -0.00000000000E+00 -0.74505805969E-08  0.93827000000E+00  0.93827000000E+00 0.  1.
     999902    2    1    2    0    0 -0.68198017811E-02  0.29497624071E-02 -0.25081942747E-01  0.10177705916E+01  0.10174343529E+01 0.  0.
     999903    2    3    3    0    0 -0.21566732220E-01  0.12501354820E+00  0.51315153923E-03  0.12885431401E+00  0.22575644888E-01 0.  0.
         14    1    1    2    0    0  0.68198017811E-02 -0.29497624071E-02  0.25081942747E-01  0.26159408376E-01  0.00000000000E+00 0. -1.
     999901    1    3    3    0    0  0.14746930439E-01 -0.12206378579E+00 -0.25595094286E-01  0.88891627762E+00  0.88000000000E+00 0.  1.
        -11    1    4    4    0    0 -0.10014958278E-01  0.39028436689E-01  0.10169221637E-01  0.41559504923E-01  0.51100000000E-03 0.  1.
         11    1    4    4    0    0 -0.11551773942E-01  0.85985111510E-01 -0.96560700980E-02  0.87294809086E-01  0.51100000000E-03 0. -1.
</event>
<event>
 8    1  0.1129676E+005  0.1043930E+01  0.7957747E-01            NaN
         13   -1    0    0    0    0  0.00000000000E+00  0.00000000000E+00  0.74505805969E-08  0.10566000000E+00  0.10566000000E+00 0.  1.
     999900   -1    0    0    0    0 -0.00000000000E+00 -0.00000000000E+00 -0.74505805969E-08  0.93827000000E+00  0.93827000000E+00 0.  1.
     999902    2    1    2    0    0 -0.22309880930E-01  0.14236035794E-02  0.72833307936E-02  0.10204182085E+01  0.10201473010E+01 0.  0.
     999903    2    3    3    0    0  0.25080596635E-01  0.10437704563E+00 -0.69996065811E-01  0.12979069162E+00  0.20556517711E-01 0.  0.
         14    1    1    2    0    0  0.22309880930E-01 -0.14236035794E-02 -0.72833307936E-02  0.23511791546E-01  0.00000000000E+00 0.  1.
     999901    1    3    3    0    0 -0.47390477565E-01 -0.10295344205E+00  0.77279396604E-01  0.89062751683E+00  0.88000000000E+00 0. -1.
        -11    1    4    4    0    0  0.13974359688E-01  0.25319275792E-01 -0.13082119614E-01  0.31745100881E-01  0.51100000000E-03 0. -1.
         11    1    4    4    0    0  0.11106236947E-01  0.79057769842E-01 -0.56913946196E-01  0.98045590743E-01  0.51100000000E-03 0.  1.
</event>
<event>
 8    1  0.1129676E+005  0.1043930E+01  0.7957747E-01            NaN
         13   -1    0    0    0    0  0.00000000000E+00  0.00000000000E+00  0.74505805969E-08  0.10566000000E+00  0.10566000000E+00 0.  1.
     999900   -1    0    0    0    0 -0.00000000000E+00 -0.00000000000E+00 -0.74505805969E-08  0.93827000000E+00  0.93827000000E+00 0.  1.
     999902    2    1    2    0    0 -0.19161381010E-01 -0.58543461845E-02  0.89181952169E-02  0.10219990607E+01  0.10217637271E+01 0.  0.
     999903    2    3    3    0    0  0.98254699232E-01 -0.70211703588E-01 -0.44256993764E-01  0.13028385615E+00  0.20773358763E-01 0.  0.
         14    1    1    2    0    0  0.19161381010E-01  0.58543461845E-02 -0.89181952169E-02  0.21930939273E-01  0.00000000000E+00 0. -1.
     999901    1    3    3    0    0 -0.11741608024E+00  0.64357357404E-01  0.53175188981E-01  0.89171520458E+00  0.88000000000E+00 0. -1.
        -11    1    4    4    0    0  0.35310800260E-01 -0.14119880909E-01 -0.17159432506E-01  0.41724464008E-01  0.51100000000E-03 0. -1.
         11    1    4    4    0    0  0.62943898972E-01 -0.56091822679E-01 -0.27097561258E-01  0.88559392142E-01  0.51100000000E-03 0.  1.
</event>
<event>
 8    1  0.1129676E+005  0.1043930E+01  0.7957747E-01            NaN
         13   -1    0    0    0    0  0.00000000000E+00  0.00000000000E+00  0.74505805969E-08  0.10566000000E+00  0.10566000000E+00 0. -1.
     999900   -1    0    0    0    0 -0.00000000000E+00 -0.00000000000E+00 -0.74505805969E-08  0.93827000000E+00  0.93827000000E+00 0. -1.
     999902    2    1    2    0    0 -0.10398090840E-01  0.19817609971E-01  0.10643699535E-01  0.10191480247E+01  0.10188466764E+01 0.  0.
     999903    2    3    3    0    0  0.11659618167E+00 -0.46181448123E-01  0.10394541793E-01  0.12758564161E+00  0.21039337339E-01 0.  0.
         14    1    1    2    0    0  0.10398090840E-01 -0.19817609971E-01 -0.10643699535E-01  0.24781975262E-01  0.00000000000E+00 0.  1.
     999901    1    3    3    0    0 -0.12699427251E+00  0.65999058095E-01  0.24915774257E-03  0.89156238312E+00  0.88000000000E+00 0. -1.
        -11    1    4    4    0    0  0.52621285873E-01 -0.16966592048E-01 -0.52337419084E-02  0.55538438473E-01  0.51100000000E-03 0. -1.
         11    1    4    4    0    0  0.63974895800E-01 -0.29214856075E-01  0.15628283701E-01  0.72047203142E-01  0.51100000000E-03 0.  1.
</event>
<event>
 8    1  0.1129676E+005  0.1043930E+01  0.7957747E-01            NaN
         13   -1    0    0    0    0  0.00000000000E+00  0.00000000000E+00  0.74505805969E-08  0.10566000000E+00  0.10566000000E+00 0.  1.
     999900   -1    0    0    0    0 -0.00000000000E+00 -0.00000000000E+00 -0.74505805969E-08  0.93827000000E+00  0.93827000000E+00 0. -1.
     999902    2    1    2    0    0 -0.15248100741E-01  0.16823747700E-01 -0.15766940060E-02  0.10211697490E+01  0.10209160725E+01 0.  0.
     999903    2    3    3    0    0  0.30884994475E-01 -0.10432285317E+00 -0.66897662231E-01  0.12927760848E+00  0.20006555553E-01 0.  0.
         14    1    1    2    0    0  0.15248100741E-01 -0.16823747700E-01  0.15766940060E-02  0.22760251029E-01  0.00000000000E+00 0. -1.
     999901    1    3    3    0    0 -0.46133095216E-01  0.12114660087E+00  0.65320968225E-01  0.89189214049E+00  0.88000000000E+00 0.  1.
        -11    1    4    4    0    0  0.20915031172E-01 -0.87710715328E-01 -0.61539649879E-01  0.10916958249E+00  0.51100000000E-03 0.  1.
         11    1    4    4    0    0  0.99699633031E-02 -0.16612137845E-01 -0.53580123520E-02  0.20108025995E-01  0.51100000000E-03 0. -1.
</event>
<event>
 8    1  0.1129676E+005  0.1043930E+01  0.7957747E-01            NaN
         13   -1    0    0    0    0  0.00000000000E+00  0.00000000000E+00  0.74505805969E-08  0.10566000000E+00  0.10566000000E+00 0.  1.
     999900   -1    0    0    0    0 -0.00000000000E+00 -0.00000000000E+00 -0.74505805969E-08  0.93827000000E+00  0.93827000000E+00 0.  1.
     999902    2    1    2    0    0  0.12919392603E-01  0.18714480930E-01 -0.63134988994E-02  0.10203290939E+01  0.10200561048E+01 0.  0.
     999903    2    3    3    0    0  0.10189891797E+00  0.46805416896E-01 -0.68979765751E-01  0.13317999839E+00  0.20113859712E-01 0.  0.
         14    1    1    2    0    0 -0.12919392603E-01 -0.18714480930E-01  0.63134988994E-02  0.23600906128E-01  0.00000000000E+00 0.  1.
     999901    1    3    3    0    0 -0.88979525369E-01 -0.28090935965E-01  0.62666266852E-01  0.88714909548E+00  0.88000000000E+00 0.  1.
        -11    1    4    4    0    0  0.33647258773E-01  0.18450178520E-01 -0.13198124655E-01  0.40583232076E-01  0.51100000000E-03 0.  1.
         11    1    4    4    0    0  0.68251659200E-01  0.28355238375E-01 -0.55781641096E-01  0.92596766311E-01  0.51100000000E-03 0. -1.
</event>
<event>
 8    1  0.1129676E+005  0.1043930E+01  0.7957747E-01            NaN
         13   -1    0    0    0    0  0.00000000000E+00  0.00000000000E+00  0.74505805969E-08  0.10566000000E+00  0.10566000000E+00 0.  1.
     999900   -1    0    0    0    0 -0.00000000000E+00 -0.00000000000E+00 -0.74505805969E-08  0.93827000000E+00  0.93827000000E+00 0. -1.
     999902    2    1    2    0    0  0.46868754188E-02  0.23543280908E-01  0.85945055099E-03  0.10199093520E+01  0.10196264486E+01 0.  0.
     999903    2    3    3    0    0 -0.35907436679E-01  0.10481007793E+00  0.69950429353E-01  0.13253921846E+00  0.19977122406E-01 0.  0.
         14    1    1    2    0    0 -0.46868754188E-02 -0.23543280908E-01 -0.85945055099E-03  0.24020648041E-01  0.00000000000E+00 0. -1.
     999901    1    3    3    0    0  0.40594312098E-01 -0.81266797019E-01 -0.69090978802E-01  0.88737013350E+00  0.88000000000E+00 0. -1.
        -11    1    4    4    0    0 -0.23693235298E-01  0.77635770632E-01  0.40780055019E-01  0.90840279000E-01  0.51100000000E-03 0. -1.
         11    1    4    4    0    0 -0.12214201382E-01  0.27174307295E-01  0.29170374334E-01  0.41698939460E-01  0.51100000000E-03 0.  1.
</event>
<event>
 8    1  0.1129676E+005  0.1043930E+01  0.7957747E-01            NaN
         13   -1    0    0    0    0  0.00000000000E+00  0.00000000000E+00  0.74505805969E-08  0.10566000000E+00  0.10566000000E+00 0.  1.
     999900   -1    0    0    0    0 -0.00000000000E+00 -0.00000000000E+00 -0.74505805969E-08  0.93827000000E+00  0.93827000000E+00 0.  1.
     999902    2    1    2    0    0  0.68659948716E-02 -0.22361024887E-01  0.33321839763E-02  0.10203024574E+01  0.10200288446E+01 0.  0.
     999903    2    3    3    0    0  0.98077038849E-01  0.64371653552E-01  0.52324992722E-01  0.12999784247E+00  0.19967945614E-01 0.  0.
         14    1    1    2    0    0 -0.68659948716E-02  0.22361024887E-01 -0.33321839763E-02  0.23627542606E-01  0.00000000000E+00 0. -1.
     999901    1    3    3    0    0 -0.91211043978E-01 -0.86732678438E-01 -0.48992808746E-01  0.89030461493E+00  0.88000000000E+00 0.  1.
        -11    1    4    4    0    0  0.16495818944E-01  0.20664571785E-01  0.12017851971E-01  0.29048691136E-01  0.51100000000E-03 0. -1.
         11    1    4    4    0    0  0.81581219906E-01  0.43707081767E-01  0.40307140751E-01  0.10094915133E+00  0.51100000000E-03 0.  1.
</event>
<event>
 8    1  0.1129676E+005  0.1043930E+01  0.7957747E-01            NaN
         13   -1    0    0    0    0  0.00000000000E+00  0.00000000000E+00  0.74505805969E-08  0.10566000000E+00  0.10566000000E+00 0.  1.
     999900   -1    0    0    0    0 -0.00000000000E+00 -0.00000000000E+00 -0.74505805969E-08  0.93827000000E+00  0.93827000000E+00 0. -1.
     999902    2    1    2    0    0  0.40739530507E-02  0.10835566998E-02 -0.21058517218E-01  0.10224536796E+01  0.10222281031E+01 0.  0.
     999903    2    3    3    0    0  0.92501150893E-02  0.59856624812E-01 -0.11899526005E+00  0.13505711002E+00  0.20301992252E-01 0.  0.
         14    1    1    2    0    0 -0.40739530507E-02 -0.10835566998E-02  0.21058517218E-01  0.21476320355E-01  0.00000000000E+00 0.  1.
     999901    1    3    3    0    0 -0.51761620386E-02 -0.58773068112E-01  0.97936742830E-01  0.88739656963E+00  0.88000000000E+00 0.  1.
        -11    1    4    4    0    0  0.15014841953E-01  0.43274598775E-01 -0.93219657632E-01  0.10386675150E+00  0.51100000000E-03 0.  1.
         11    1    4    4    0    0 -0.57647268634E-02  0.16582026037E-01 -0.25775602416E-01  0.31190358514E-01  0.51100000000E-03 0. -1.
</event>
<event>
 8    1  0.1129676E+005  0.1043930E+01  0.7957747E-01            NaN
         13   -1    0    0    0    0  0.00000000000E+00  0.00000000000E+00  0.74505805969E-08  0.10566000000E+00  0.10566000000E+00 0. -1.
     999900   -1    0    0    0    0 -0.00000000000E+00 -0.00000000000E+00 -0.74505805969E-08  0.93827000000E+00  0.93827000000E+00 0. -1.
     999902    2    1    2    0    0  0.28649704226E-02  0.23591861436E-01 -0.38405226539E-02  0.10198564960E+01  0.10195723313E+01 0.  0.
     999903    2    3    3    0    0  0.31686921949E-01 -0.10587511400E+00 -0.61771261148E-01  0.12803343445E+00  0.19059665423E-01 0.  0.
         14    1    1    2    0    0 -0.28649704226E-02 -0.23591861436E-01  0.38405226539E-02  0.24073504019E-01  0.00000000000E+00 0. -1.
     999901    1    3    3    0    0 -0.28821951527E-01  0.12946697543E+00  0.57930738494E-01  0.89182306153E+00  0.88000000000E+00 0.  1.
        -11    1    4    4    0    0  0.26836440586E-01 -0.58201256226E-01 -0.32266725797E-01  0.71756417722E-01  0.51100000000E-03 0.  1.
         11    1    4    4    0    0  0.48504813633E-02 -0.47673857773E-01 -0.29504535351E-01  0.56277016727E-01  0.51100000000E-03 0. -1.
</event>
<event>
 8    1  0.1129676E+005  0.1043930E+01  0.7957747E-01            NaN
         13   -1    0    0    0    0  0.00000000000E+00  0.00000000000E+00  0.74505805969E-08  0.10566000000E+00  0.10566000000E+00 0. -1.
     999900   -1    0    0    0    0 -0.00000000000E+00 -0.00000000000E+00 -0.74505805969E-08  0.93827000000E+00  0.93827000000E+00 0. -1.
     999902    2    1    2    0    0  0.19705260188E-01 -0.12486427650E-01  0.56042889537E-02  0.10199379970E+01  0.10196557760E+01 0.  0.
     999903    2    3    3    0    0  0.91855710007E-01 -0.83180016023E-01 -0.43787430374E-01  0.13278366272E+00  0.18914954407E-01 0.  0.
         14    1    1    2    0    0 -0.19705260188E-01  0.12486427650E-01 -0.56042889537E-02  0.23992003027E-01  0.00000000000E+00 0.  1.
     999901    1    3    3    0    0 -0.72150449818E-01  0.70693588373E-01  0.49391719327E-01  0.88715433425E+00  0.88000000000E+00 0.  1.
        -11    1    4    4    0    0  0.55811170023E-01 -0.52331681030E-01 -0.36540532490E-01  0.84787753682E-01  0.51100000000E-03 0.  1.
         11    1    4    4    0    0  0.36044539983E-01 -0.30848334993E-01 -0.72468978839E-02  0.47995909038E-01  0.51100000000E-03 0. -1.
</event>
<event>
 8    1  0.1129676E+005  0.1043930E+01  0.7957747E-01            NaN
         13   -1    0    0    0    0  0.00000000000E+00  0.00000000000E+00  0.74505805969E-08  0.10566000000E+00  0.10566000000E+00 0.  1.
     999900   -1    0    0    0    0 -0.00000000000E+00 -0.00000000000E+00 -0.74505805969E-08  0.93827000000E+00  0.93827000000E+00 0.  1.
     999902    2    1    2    0    0 -0.14524953644E-01 -0.18083644476E-01 -0.98707857091E-02  0.10187223645E+01  0.10184104433E+01 0.  0.
     999903    2    3    3    0    0 -0.39123768438E-01  0.10847241862E-01  0.12004282000E+00  0.12837431863E+00  0.20526936858E-01 0.  0.
         14    1    1    2    0    0  0.14524953644E-01  0.18083644476E-01  0.98707857091E-02  0.25207635478E-01  0.00000000000E+00 0.  1.
     999901    1    3    3    0    0  0.24598814794E-01 -0.28930886338E-01 -0.12991360571E+00  0.89034804589E+00  0.88000000000E+00 0.  1.
        -11    1    4    4    0    0 -0.10856254733E-01  0.12772442806E-01  0.52954989866E-01  0.55547147854E-01  0.51100000000E-03 0.  1.
         11    1    4    4    0    0 -0.28267513705E-01 -0.19252009440E-02  0.67087830137E-01  0.72827170776E-01  0.51100000000E-03 0. -1.
</event>
<event>
 8    1  0.1129676E+005  0.1043930E+01  0.7957747E-01            NaN
         13   -1    0    0    0    0  0.00000000000E+00  0.00000000000E+00  0.74505805969E-08  0.10566000000E+00  0.10566000000E+00 0. -1.
     999900   -1    0    0    0    0 -0.00000000000E+00 -0.00000000000E+00 -0.74505805969E-08  0.93827000000E+00  0.93827000000E+00 0.  1.
     999902    2    1    2    0    0  0.23236272930E-01 -0.64278038565E-02 -0.85889484127E-03  0.10198057644E+01  0.10195203865E+01 0.  0.
     999903    2    3    3    0    0  0.87477090344E-01 -0.53949735467E-01 -0.81295301850E-01  0.13253171871E+00  0.19822085427E-01 0.  0.
         14    1    1    2    0    0 -0.23236272930E-01  0.64278038565E-02  0.85889484127E-03  0.24124235582E-01  0.00000000000E+00 0.  1.
     999901    1    3    3    0    0 -0.64240817414E-01  0.47521931610E-01  0.80436407008E-01  0.88727404570E+00  0.88000000000E+00 0. -1.
        -11    1    4    4    0    0  0.78506126361E-01 -0.40573001691E-01 -0.71492855097E-01  0.11367000393E+00  0.51100000000E-03 0. -1.
         11    1    4    4    0    0  0.89709639824E-02 -0.13376733776E-01 -0.98024467527E-02  0.18861714785E-01  0.51100000000E-03 0.  1.
</event>
<event>
 8    1  0.1129676E+005  0.1043930E+01  0.7957747E-01            NaN
         13   -1    0    0    0    0  0.00000000000E+00  0.00000000000E+00  0.74505805969E-08  0.10566000000E+00  0.10566000000E+00 0.  1.
     999900   -1    0    0    0    0 -0.00000000000E+00 -0.00000000000E+00 -0.74505805969E-08  0.93827000000E+00  0.93827000000E+00 0.  1.
     999902    2    1    2    0    0  0.19147295217E-01 -0.12292428684E-01  0.57201583552E-02  0.10204684798E+01  0.10201987431E+01 0.  0.
     999903    2    3    3    0    0  0.70293300044E-01  0.85342626955E-01 -0.66710045678E-01  0.13064003999E+00  0.19800955691E-01 0.  0.
         14    1    1    2    0    0 -0.19147295217E-01  0.12292428684E-01 -0.57201583552E-02  0.23461520170E-01  0.00000000000E+00 0. -1.
     999901    1    3    3    0    0 -0.51146004827E-01 -0.97635055639E-01  0.72430204034E-01  0.88982843984E+00  0.88000000000E+00 0.  1.
        -11    1    4    4    0    0  0.27112197001E-01  0.32827114373E-01 -0.37127035124E-01  0.56492198774E-01  0.51100000000E-03 0.  1.
         11    1    4    4    0    0  0.43181103044E-01  0.52515512583E-01 -0.29583010555E-01  0.74147841212E-01  0.51100000000E-03 0. -1.
</event>
<event>
 8    1  0.1129676E+005  0.1043930E+01  0.7957747E-01            NaN
         13   -1    0    0    0    0  0.00000000000E+00  0.00000000000E+00  0.74505805969E-08  0.10566000000E+00  0.10566000000E+00 0. -1.
     999900   -1    0    0    0    0 -0.00000000000E+00 -0.00000000000E+00 -0.74505805969E-08  0.93827000000E+00  0.93827000000E+00 0.  1.
     999902    2    1    2    0    0  0.30466408348E-02  0.22175142394E-01 -0.86413382298E-02  0.10199364240E+01  0.10196541656E+01 0.  0.
     999903    2    3    3    0    0  0.11578092688E+00  0.31984085469E-01 -0.50180415522E-01  0.13171869761E+00  0.20088216618E-01 0.  0.
         14    1    1    2    0    0 -0.30466408348E-02 -0.22175142394E-01  0.86413382298E-02  0.23993575952E-01  0.00000000000E+00 0. -1.
     999901    1    3    3    0    0 -0.11273428604E+00 -0.98089430755E-02  0.41539077292E-01  0.88821772644E+00  0.88000000000E+00 0. -1.
        -11    1    4    4    0    0  0.33225442294E-01  0.18594412773E-02 -0.79532515096E-02  0.34218458002E-01  0.51100000000E-03 0. -1.
         11    1    4    4    0    0  0.82555484582E-01  0.30124644192E-01 -0.42227164012E-01  0.97500239609E-01  0.51100000000E-03 0.  1.
</event>
<event>
 8    1  0.1129676E+005  0.1043930E+01  0.7957747E-01            NaN
         13   -1    0    0    0    0  0.00000000000E+00  0.00000000000E+00  0.74505805969E-08  0.10566000000E+00  0.10566000000E+00 0.  1.
     999900   -1    0    0    0    0 -0.00000000000E+00 -0.00000000000E+00 -0.74505805969E-08  0.93827000000E+00  0.93827000000E+00 0.  1.
     999902    2    1    2    0    0  0.16775441357E-01 -0.12800209827E-01  0.10641773818E-01  0.10202972229E+01  0.10200234874E+01 0.  0.
     999903    2    3    3    0    0 -0.68045819837E-01 -0.10211940375E+00  0.41911365063E-01  0.13116823781E+00  0.19746844552E-01 0.  0.
         14    1    1    2    0    0 -0.16775441357E-01  0.12800209827E-01 -0.10641773818E-01  0.23632777119E-01  0.00000000000E+00 0. -1.
     999901    1    3    3    0    0  0.84821261195E-01  0.89319193923E-01 -0.31269591245E-01  0.88912898507E+00  0.88000000000E+00 0. -1.
        -11    1    4    4    0    0 -0.32645662206E-01 -0.32066444623E-01  0.13874231287E-01  0.47819991076E-01  0.51100000000E-03 0. -1.
         11    1    4    4    0    0 -0.35400157631E-01 -0.70052959126E-01  0.28037133776E-01  0.83348246736E-01  0.51100000000E-03 0.  1.
</event>
<event>
 8    1  0.1129676E+005  0.1043930E+01  0.7957747E-01            NaN
         13   -1    0    0    0    0  0.00000000000E+00  0.00000000000E+00  0.74505805969E-08  0.10566000000E+00  0.10566000000E+00 0. -1.
     999900   -1    0    0    0    0 -0.00000000000E+00 -0.00000000000E+00 -0.74505805969E-08  0.93827000000E+00  0.93827000000E+00 0. -1.
     999902    2    1    2    0    0 -0.18905833126E-01  0.40591451961E-02 -0.16509982304E-01  0.10185038972E+01  0.10181864770E+01 0.  0.
     999903    2    3    3    0    0  0.87477851743E-02  0.20598518452E-01  0.12336007394E+00  0.12687510334E+00  0.19461790730E-01 0.  0.
         14    1    1    2    0    0  0.18905833126E-01 -0.40591451961E-02  0.16509982304E-01  0.25426102760E-01  0.00000000000E+00 0.  1.
     999901    1    3    3    0    0 -0.27653618300E-01 -0.16539373256E-01 -0.13987005624E+00  0.89162879390E+00  0.88000000000E+00 0. -1.
        -11    1    4    4    0    0  0.18345208612E-03  0.19797692947E-01  0.10076150069E+00  0.10268945147E+00  0.51100000000E-03 0. -1.
         11    1    4    4    0    0  0.85643330882E-02  0.80082550527E-03  0.22598573251E-01  0.24185651877E-01  0.51100000000E-03 0.  1.
</event>
<event>
 8    1  0.1129676E+005  0.1043930E+01  0.7957747E-01            NaN
         13   -1    0    0    0    0  0.00000000000E+00  0.00000000000E+00  0.74505805969E-08  0.10566000000E+00  0.10566000000E+00 0. -1.
     999900   -1    0    0    0    0 -0.00000000000E+00 -0.00000000000E+00 -0.74505805969E-08  0.93827000000E+00  0.93827000000E+00 0.  1.
     999902    2    1    2    0    0 -0.34753962116E-02  0.19151768692E-01  0.13030978040E-01  0.10205061871E+01  0.10202373267E+01 0.  0.
     999903    2    3    3    0    0 -0.32621500227E-01  0.30885256870E-01 -0.12026052255E+00  0.12991436461E+00  0.19927053980E-01 0.  0.
         14    1    1    2    0    0  0.34753962116E-02 -0.19151768692E-01 -0.13030978040E-01  0.23423812916E-01  0.00000000000E+00 0.  1.
     999901    1    3    3    0    0  0.29146104016E-01 -0.11733488178E-01  0.13329150059E+00  0.89059182247E+00  0.88000000000E+00 0. -1.
        -11    1    4    4    0    0 -0.19862947157E-01  0.29483393651E-01 -0.77501666722E-01  0.85267676388E-01  0.51100000000E-03 0. -1.
         11    1    4    4    0    0 -0.12758553070E-01  0.14018632196E-02 -0.42758855825E-01  0.44646688224E-01  0.51100000000E-03 0.  1.
</event>
<event>
 8    1  0.1129676E+005  0.1043930E+01  0.7957747E-01            NaN
         13   -1    0    0    0    0  0.00000000000E+00  0.00000000000E+00  0.74505805969E-08  0.10566000000E+00  0.10566000000E+00 0.  1.
     999900   -1    0    0    0    0 -0.00000000000E+00 -0.00000000000E+00 -0.74505805969E-08  0.93827000000E+00  0.93827000000E+00 0. -1.
     999902    2    1    2    0    0 -0.75313613305E-03 -0.17628678825E-01 -0.14738263273E-01  0.10209396991E+01  0.10206808097E+01 0.  0.
     999903    2    3    3    0    0  0.12382785943E+00  0.35560862866E-01 -0.80971714569E-03  0.13046591723E+00  0.20561764978E-01 0.  0.
         14    1    1    2    0    0  0.75313613305E-03  0.17628678825E-01  0.14738263273E-01  0.22990300900E-01  0.00000000000E+00 0.  1.
     999901    1    3    3    0    0 -0.12458099556E+00 -0.53189541690E-01 -0.13928546128E-01  0.89047378187E+00  0.88000000000E+00 0.  1.
        -11    1    4    4    0    0  0.48293545873E-01  0.21655878601E-01 -0.71010199609E-02  0.53403457346E-01  0.51100000000E-03 0. -1.
         11    1    4    4    0    0  0.75534313554E-01  0.13904984264E-01  0.62913028152E-02  0.77062459885E-01  0.51100000000E-03 0.  1.
</event>
<event>
 8    1  0.1129676E+005  0.1043930E+01  0.7957747E-01            NaN
         13   -1    0    0    0    0  0.00000000000E+00  0.00000000000E+00  0.74505805969E-08  0.10566000000E+00  0.10566000000E+00 0. -1.
     999900   -1    0    0    0    0 -0.00000000000E+00 -0.00000000000E+00 -0.74505805969E-08  0.93827000000E+00  0.93827000000E+00 0.  1.
     999902    2    1    2    0    0  0.21952185211E-01 -0.70302057806E-02 -0.59621160543E-02  0.10201209879E+01  0.10198431060E+01 0.  0.
     999903    2    3    3    0    0  0.96815992883E-01 -0.75752327097E-01 -0.47605140240E-01  0.13329436386E+00  0.19732879200E-01 0.  0.
         14    1    1    2    0    0 -0.21952185211E-01  0.70302057806E-02  0.59621160543E-02  0.23809012090E-01  0.00000000000E+00 0.  1.
     999901    1    3    3    0    0 -0.74863807672E-01  0.68722121317E-01  0.41643024185E-01  0.88682662405E+00  0.88000000000E+00 0. -1.
        -11    1    4    4    0    0  0.66225424771E-01 -0.60330522174E-01 -0.40438619277E-01  0.98291005905E-01  0.51100000000E-03 0.  1.
         11    1    4    4    0    0  0.30590568112E-01 -0.15421804923E-01 -0.71665209631E-02  0.35003357956E-01  0.51100000000E-03 0. -1.
</event>
<event>
 8    1  0.1129676E+005  0.1043930E+01  0.7957747E-01            NaN
         13   -1    0    0    0    0  0.00000000000E+00  0.00000000000E+00  0.74505805969E-08  0.10566000000E+00  0.10566000000E+00 0.  1.
     999900   -1    0    0    0    0 -0.00000000000E+00 -0.00000000000E+00 -0.74505805969E-08  0.93827000000E+00  0.93827000000E+00 0.  1.
     999902    2    1    2    0    0 -0.12196615490E-01  0.59106555316E-02 -0.21495676789E-01  0.10185182429E+01  0.10182011853E+01 0.  0.
     999903    2    3    3    0    0  0.40229186945E-01  0.10025286689E+00 -0.70760096477E-01  0.13055658796E+00  0.19209544597E-01 0.  0.
         14    1    1    2    0    0  0.12196615490E-01 -0.59106555316E-02  0.21495676789E-01  0.25411757099E-01  0.00000000000E+00 0.  1.
     999901    1    3    3    0    0 -0.52425802435E-01 -0.94342211358E-01  0.49264419688E-01  0.88796165494E+00  0.88000000000E+00 0. -1.
        -11    1    4    4    0    0  0.30154666980E-01  0.63556949718E-01 -0.55285282557E-01  0.89473534559E-01  0.51100000000E-03 0. -1.
         11    1    4    4    0    0  0.10074519965E-01  0.36695917172E-01 -0.15474813920E-01  0.41083053397E-01  0.51100000000E-03 0.  1.
</event>
<event>
 8    1  0.1129676E+005  0.1043930E+01  0.7957747E-01            NaN
         13   -1    0    0    0    0  0.00000000000E+00  0.00000000000E+00  0.74505805969E-08  0.10566000000E+00  0.10566000000E+00 0. -1.
     999900   -1    0    0    0    0 -0.00000000000E+00 -0.00000000000E+00 -0.74505805969E-08  0.93827000000E+00  0.93827000000E+00 0. -1.
     999902    2    1    2    0    0 -0.29014292862E-02  0.25019967520E-01  0.11750286567E-01  0.10161363622E+01  0.10157561815E+01 0.  0.
     999903    2    3    3    0    0 -0.54313858483E-01  0.11229005178E+00  0.31176592381E-01  0.13011340155E+00  0.19961623116E-01 0.  0.
         14    1    1    2    0    0  0.29014292862E-02 -0.25019967520E-01 -0.11750286567E-01  0.27793637779E-01  0.00000000000E+00 0. -1.
     999901    1    3    3    0    0  0.51412429197E-01 -0.87270084261E-01 -0.19426305814E-01  0.88602296067E+00  0.88000000000E+00 0. -1.
        -11    1    4    4    0    0  0.31733078909E-03  0.12698401568E-01  0.37954605127E-02  0.13267130162E-01  0.51100000000E-03 0. -1.
         11    1    4    4    0    0 -0.54631189272E-01  0.99591650213E-01  0.27381131868E-01  0.11684627139E+00  0.51100000000E-03 0.  1.
</event>
<event>
 8    1  0.1129676E+005  0.1043930E+01  0.7957747E-01            NaN
         13   -1    0    0    0    0  0.00000000000E+00  0.00000000000E+00  0.74505805969E-08  0.10566000000E+00  0.10566000000E+00 0.  1.
     999900   -1    0    0    0    0 -0.00000000000E+00 -0.00000000000E+00 -0.74505805969E-08  0.93827000000E+00  0.93827000000E+00 0.  1.
     999902    2    1    2    0    0 -0.23115139732E-01 -0.56801055909E-02  0.26139522222E-02  0.10199841020E+01  0.10197029775E+01 0.  0.
     999903    2    3    3    0    0  0.54843496572E-01  0.11194699534E+00  0.23628306082E-01  0.12849361585E+00  0.20306983645E-01 0.  0.
         14    1    1    2    0    0  0.23115139732E-01  0.56801055909E-02 -0.26139522222E-02  0.23945897990E-01  0.00000000000E+00 0.  1.
     999901    1    3    3    0    0 -0.77958636303E-01 -0.11762710093E+00 -0.21014353859E-01  0.89149048616E+00  0.88000000000E+00 0. -1.
        -11    1    4    4    0    0  0.52557483712E-01  0.10125867732E+00  0.26616790783E-01  0.11715085787E+00  0.51100000000E-03 0. -1.
         11    1    4    4    0    0  0.22860128597E-02  0.10688318013E-01 -0.29884847014E-02  0.11342757979E-01  0.51100000000E-03 0.  1.
</event>
<event>
 8    1  0.1129676E+005  0.1043930E+01  0.7957747E-01            NaN
         13   -1    0    0    0    0  0.00000000000E+00  0.00000000000E+00  0.74505805969E-08  0.10566000000E+00  0.10566000000E+00 0.  1.
     999900   -1    0    0    0    0 -0.00000000000E+00 -0.00000000000E+00 -0.74505805969E-08  0.93827000000E+00  0.93827000000E+00 0. -1.
     999902    2    1    2    0    0 -0.71443069518E-02 -0.90048370746E-02 -0.21071429047E-01  0.10199272224E+01  0.10196447448E+01 0.  0.
     999903    2    3    3    0    0  0.10013099314E-01 -0.72944640339E-01 -0.10898791663E+00  0.13307211366E+00  0.20214815095E-01 0.  0.
         14    1    1    2    0    0  0.71443069518E-02  0.90048370746E-02  0.21071429047E-01  0.24002777645E-01  0.00000000000E+00 0.  1.
     999901    1    3    3    0    0 -0.17157406265E-01  0.63939803264E-01  0.87916487587E-01  0.88685510870E+00  0.88000000000E+00 0. -1.
        -11    1    4    4    0    0  0.15511112721E-01 -0.40018431621E-01 -0.63559677495E-01  0.76695261989E-01  0.51100000000E-03 0.  1.
         11    1    4    4    0    0 -0.54980134071E-02 -0.32926208718E-01 -0.45428239139E-01  0.56376851670E-01  0.51100000000E-03 0. -1.
</event>
<event>
 8    1  0.1129676E+005  0.1043930E+01  0.7957747E-01            NaN
         13   -1    0    0    0    0  0.00000000000E+00  0.00000000000E+00  0.74505805969E-08  0.10566000000E+00  0.10566000000E+00 0.  1.
     999900   -1    0    0    0    0 -0.00000000000E+00 -0.00000000000E+00 -0.74505805969E-08  0.93827000000E+00  0.93827000000E+00 0. -1.
     999902    2    1    2    0    0 -0.95061412849E-02 -0.11099851222E-01 -0.19091543896E-01  0.10198871119E+01  0.10196036782E+01 0.  0.
     999903    2    3    3    0    0 -0.12489795589E+00  0.46108462946E-02 -0.37720259340E-01  0.13201937067E+00  0.19635095593E-01 0.  0.
         14    1    1    2    0    0  0.95061412849E-02  0.11099851222E-01  0.19091543896E-01  0.24042888088E-01  0.00000000000E+00 0.  1.
     999901    1    3    3    0    0  0.11539181461E+00 -0.15710697517E-01  0.18628715445E-01  0.88786774124E+00  0.88000000000E+00 0.  1.
        -11    1    4    4    0    0 -0.65168234201E-01 -0.73791869769E-02 -0.20192661798E-01  0.68624746708E-01  0.51100000000E-03 0. -1.
         11    1    4    4    0    0 -0.59729721690E-01  0.11990033271E-01 -0.17527597543E-01  0.63394623965E-01  0.51100000000E-03 0.  1.
</event>
<event>
 8    1  0.1129676E+005  0.1043930E+01  0.7957747E-01            NaN
         13   -1    0    0    0    0  0.00000000000E+00  0.00000000000E+00  0.74505805969E-08  0.10566000000E+00  0.10566000000E+00 0.  1.
     999900   -1    0    0    0    0 -0.00000000000E+00 -0.00000000000E+00 -0.74505805969E-08  0.93827000000E+00  0.93827000000E+00 0. -1.
     999902    2    1    2    0    0  0.22311566240E-01  0.69172190915E-02  0.32310989215E-02  0.10203483565E+01  0.10200758182E+01 0.  0.
     999903    2    3    3    0    0  0.64731941003E-01  0.11409359231E+00 -0.36799770037E-02  0.13280454008E+00  0.20394402211E-01 0.  0.
         14    1    1    2    0    0 -0.22311566240E-01 -0.69172190915E-02 -0.32310989215E-02  0.23581643461E-01  0.00000000000E+00 0.  1.
     999901    1    3    3    0    0 -0.42420374762E-01 -0.10717637322E+00  0.69110759253E-02  0.88754381646E+00  0.88000000000E+00 0.  1.
        -11    1    4    4    0    0  0.25817403641E-01  0.32060472102E-01 -0.78670444222E-02  0.41911379255E-01  0.51100000000E-03 0.  1.
         11    1    4    4    0    0  0.38914537362E-01  0.82033120210E-01  0.41870674184E-02  0.90893160821E-01  0.51100000000E-03 0. -1.
</event>
<event>
 8    1  0.1129676E+005  0.1043930E+01  0.7957747E-01            NaN
         13   -1    0    0    0    0  0.00000000000E+00  0.00000000000E+00  0.74505805969E-08  0.10566000000E+00  0.10566000000E+00 0.  1.
     999900   -1    0    0    0    0 -0.00000000000E+00 -0.00000000000E+00 -0.74505805969E-08  0.93827000000E+00  0.93827000000E+00 0. -1.
     999902    2    1    2    0    0  0.44301570268E-03 -0.29950930337E-02 -0.22194143519E-01  0.10215302935E+01  0.10212846781E+01 0.  0.
     999903    2    3    3    0    0 -0.46931487835E-01  0.38076480556E-01  0.11246555081E+00  0.12908172297E+00  0.19005477202E-01 0.  0.
         14    1    1    2    0    0 -0.44301570268E-03  0.29950930337E-02  0.22194143519E-01  0.22399706510E-01  0.00000000000E+00 0.  1.
     999901    1    3    3    0    0  0.47374503537E-01 -0.41071573590E-01 -0.13465969433E+00  0.89244857052E+00  0.88000000000E+00 0. -1.
        -11    1    4    4    0    0 -0.12501829307E-01  0.52340373855E-02  0.12845500758E-01  0.18680441485E-01  0.51100000000E-03 0.  1.
         11    1    4    4    0    0 -0.34429658528E-01  0.32842443171E-01  0.99620050055E-01  0.11040128149E+00  0.51100000000E-03 0. -1.
</event>
<event>
 8    1  0.1129676E+005  0.1043930E+01  0.7957747E-01            NaN
         13   -1    0    0    0    0  0.00000000000E+00  0.00000000000E+00  0.74505805969E-08  0.10566000000E+00  0.10566000000E+00 0.  1.
     999900   -1    0    0    0    0 -0.00000000000E+00 -0.00000000000E+00 -0.74505805969E-08  0.93827000000E+00  0.93827000000E+00 0.  1.
     999902    2    1    2    0    0 -0.18500798250E-01  0.13452472102E-01  0.82523431396E-02  0.10196123170E+01  0.10193222882E+01 0.  0.
     999903    2    3    3    0    0  0.12556315986E+00  0.13153790140E-01 -0.60126403719E-02  0.12778385643E+00  0.18799808817E-01 0.  0.
         14    1    1    2    0    0  0.18500798250E-01 -0.13452472102E-01 -0.82523431396E-02  0.24317683048E-01  0.00000000000E+00 0. -1.
     999901    1    3    3    0    0 -0.14406395811E+00  0.29868196138E-03  0.14264983512E-01  0.89182846052E+00  0.88000000000E+00 0. -1.
        -11    1    4    4    0    0  0.31212028311E-01 -0.42111743024E-02  0.16424113284E-02  0.31541771292E-01  0.51100000000E-03 0. -1.
         11    1    4    4    0    0  0.94351131549E-01  0.17364964443E-01 -0.76550517003E-02  0.96242085140E-01  0.51100000000E-03 0.  1.
</event>
<event>
 8    1  0.1129676E+005  0.1043930E+01  0.7957747E-01            NaN
         13   -1    0    0    0    0  0.00000000000E+00  0.00000000000E+00  0.74505805969E-08  0.10566000000E+00  0.10566000000E+00 0. -1.
     999900   -1    0    0    0    0 -0.00000000000E+00 -0.00000000000E+00 -0.74505805969E-08  0.93827000000E+00  0.93827000000E+00 0. -1.
     999902    2    1    2    0    0  0.16903710290E-01  0.92350637664E-02 -0.12211042505E-01  0.10211236109E+01  0.10208688933E+01 0.  0.
     999903    2    3    3    0    0  0.97982586455E-01  0.83785341539E-01  0.27412677322E-01  0.13337276340E+00  0.20402657531E-01 0.  0.
         14    1    1    2    0    0 -0.16903710290E-01 -0.92350637664E-02  0.12211042505E-01  0.22806389091E-01  0.00000000000E+00 0. -1.
     999901    1    3    3    0    0 -0.81078876165E-01 -0.74550277772E-01 -0.39623719828E-01  0.88775084751E+00  0.88000000000E+00 0. -1.
        -11    1    4    4    0    0  0.45635990389E-01  0.52078704598E-01  0.12276921999E-01  0.70326517233E-01  0.51100000000E-03 0.  1.
         11    1    4    4    0    0  0.52346596065E-01  0.31706636941E-01  0.15135755323E-01  0.63046246168E-01  0.51100000000E-03 0. -1.
</event>
<event>
 8    1  0.1129676E+005  0.1043930E+01  0.7957747E-01            NaN
         13   -1    0    0    0    0  0.00000000000E+00  0.00000000000E+00  0.74505805969E-08  0.10566000000E+00  0.10566000000E+00 0.  1.
     999900   -1    0    0    0    0 -0.00000000000E+00 -0.00000000000E+00 -0.74505805969E-08  0.93827000000E+00  0.93827000000E+00 0. -1.
     999902    2    1    2    0    0  0.64945457438E-02  0.14218969100E-01  0.18017769261E-01  0.10200763165E+01  0.10197973785E+01 0.  0.
     999903    2    3    3    0    0  0.35808891283E-01  0.12015455162E+00 -0.34703023309E-01  0.13167260172E+00  0.20346529092E-01 0.  0.
         14    1    1    2    0    0 -0.64945457438E-02 -0.14218969100E-01 -0.18017769261E-01  0.23853683486E-01  0.00000000000E+00 0. -1.
     999901    1    3    3    0    0 -0.29314345539E-01 -0.10593558252E+00  0.52720792571E-01  0.88840371480E+00  0.88000000000E+00 0.  1.
        -11    1    4    4    0    0  0.27243057445E-01  0.59334923882E-01 -0.22421373628E-01  0.69034748405E-01  0.51100000000E-03 0. -1.
         11    1    4    4    0    0  0.85658338379E-02  0.60819627738E-01 -0.12281649681E-01  0.62637853311E-01  0.51100000000E-03 0.  1.
</event>
<event>
 8    1  0.1129676E+005  0.1043930E+01  0.7957747E-01            NaN
         13   -1    0    0    0    0  0.00000000000E+00  0.00000000000E+00  0.74505805969E-08  0.10566000000E+00  0.10566000000E+00 0.  1.
     999900   -1    0    0    0    0 -0.00000000000E+00 -0.00000000000E+00 -0.74505805969E-08  0.93827000000E+00  0.93827000000E+00 0. -1.
     999902    2    1    2    0    0 -0.18655874482E-01 -0.29444550559E-02 -0.13798004772E-01  0.10205399080E+01  0.10202718302E+01 0.  0.
     999903    2    3    3    0    0  0.11427499396E+00  0.32790578675E-01 -0.46544744564E-01  0.12923751409E+00  0.20048079875E-01 0.  0.
         14    1    1    2    0    0  0.18655874482E-01  0.29444550559E-02  0.13798004772E-01  0.23390092004E-01  0.00000000000E+00 0.  1.
     999901    1    3    3    0    0 -0.13293086844E+00 -0.35735033731E-01  0.32746739792E-01  0.89130239391E+00  0.88000000000E+00 0. -1.
        -11    1    4    4    0    0  0.97548562773E-01  0.33603423612E-01 -0.44486612134E-01  0.11235760748E+00  0.51100000000E-03 0. -1.
         11    1    4    4    0    0  0.16726431186E-01 -0.81284493671E-03 -0.20581324305E-02  0.16879906611E-01  0.51100000000E-03 0.  1.
</event>
<event>
 8    1  0.1129676E+005  0.1043930E+01  0.7957747E-01            NaN
         13   -1    0    0    0    0  0.00000000000E+00  0.00000000000E+00  0.74505805969E-08  0.10566000000E+00  0.10566000000E+00 0. -1.
     999900   -1    0    0    0    0 -0.00000000000E+00 -0.00000000000E+00 -0.74505805969E-08  0.93827000000E+00  0.93827000000E+00 0. -1.
     999902    2    1    2    0    0 -0.85528648370E-02 -0.16988652373E-01 -0.97308520898E-02  0.10225651857E+01  0.10223419701E+01 0.  0.
     999903    2    3    3    0    0  0.69816117492E-01  0.10378307649E+00  0.29230364891E-01  0.13001519592E+00  0.20107702764E-01 0.  0.
         14    1    1    2    0    0  0.85528648370E-02  0.16988652373E-01  0.97308520898E-02  0.21364814269E-01  0.00000000000E+00 0. -1.
     999901    1    3    3    0    0 -0.78368982329E-01 -0.12077172886E+00 -0.38961216981E-01  0.89254998981E+00  0.88000000000E+00 0. -1.
        -11    1    4    4    0    0  0.10168090200E-01  0.51989405113E-02  0.34473581713E-02  0.11940035181E-01  0.51100000000E-03 0. -1.
         11    1    4    4    0    0  0.59648027291E-01  0.98584135981E-01  0.25783006719E-01  0.11807516074E+00  0.51100000000E-03 0.  1.
</event>
<event>
 8    1  0.1129676E+005  0.1043930E+01  0.7957747E-01            NaN
         13   -1    0    0    0    0  0.00000000000E+00  0.00000000000E+00  0.74505805969E-08  0.10566000000E+00  0.10566000000E+00 0. -1.
     999900   -1    0    0    0    0 -0.00000000000E+00 -0.00000000000E+00 -0.74505805969E-08  0.93827000000E+00  0.93827000000E+00 0.  1.
     999902    2    1    2    0    0 -0.87877521670E-03  0.11617935363E-01  0.20456817786E-01  0.10203879087E+01  0.10201162944E+01 0.  0.
     999903    2    3    3    0    0  0.66152952965E-01  0.40941801516E-01 -0.10108573950E+00  0.12902617803E+00  0.19416065245E-01 0.  0.
         14    1    1    2    0    0  0.87877521670E-03 -0.11617935363E-01 -0.20456817786E-01  0.23542091282E-01  0.00000000000E+00 0.  1.
     999901    1    3    3    0    0 -0.67031728181E-01 -0.29323866153E-01  0.12154255728E+00  0.89136173069E+00  0.88000000000E+00 0.  1.
        -11    1    4    4    0    0  0.15341429514E-01  0.18808481043E-01 -0.24522987662E-01  0.34507339271E-01  0.51100000000E-03 0.  1.
         11    1    4    4    0    0  0.50811523450E-01  0.22133320474E-01 -0.76562751834E-01  0.94518838756E-01  0.51100000000E-03 0. -1.
</event>
<event>
 8    1  0.1129676E+005  0.1043930E+01  0.7957747E-01            NaN
         13   -1    0    0    0    0  0.00000000000E+00  0.00000000000E+00  0.74505805969E-08  0.10566000000E+00  0.10566000000E+00 0. -1.
     999900   -1    0    0    0    0 -0.00000000000E+00 -0.00000000000E+00 -0.74505805969E-08  0.93827000000E+00  0.93827000000E+00 0.  1.
     999902    2    1    2    0    0 -0.54536958283E-02 -0.11332988710E-01  0.19918277883E-01  0.10203733189E+01  0.10201013639E+01 0.  0.
     999903    2    3    3    0    0 -0.40226511040E-01 -0.37909775963E-01 -0.11468201518E+00  0.12906376929E+00  0.21217177817E-01 0.  0.
         14    1    1    2    0    0  0.54536958283E-02  0.11332988710E-01 -0.19918277883E-01  0.23556681115E-01  0.00000000000E+00 0.  1.
     999901    1    3    3    0    0  0.34772815211E-01  0.26576787253E-01  0.13460029306E+00  0.89130954959E+00  0.88000000000E+00 0. -1.
        -11    1    4    4    0    0 -0.21546733754E-01 -0.22849935786E-01 -0.41500928256E-01  0.52047761412E-01  0.51100000000E-03 0. -1.
         11    1    4    4    0    0 -0.18679777286E-01 -0.15059840177E-01 -0.73181086925E-01  0.77016007883E-01  0.51100000000E-03 0.  1.
</event>
<event>
 8    1  0.1129676E+005  0.1043930E+01  0.7957747E-01            NaN
         13   -1    0    0    0    0  0.00000000000E+00  0.00000000000E+00  0.74505805969E-08  0.10566000000E+00  0.10566000000E+00 0.  1.
     999900   -1    0    0    0    0 -0.00000000000E+00 -0.00000000000E+00 -0.74505805969E-08  0.93827000000E+00  0.93827000000E+00 0.  1.
     999902    2    1    2    0    0  0.92353329199E-02  0.14826612534E-01  0.16451882611E-01  0.10199344951E+01  0.10196521907E+01 0.  0.
     999903    2    3    3    0    0 -0.12704171064E+00  0.96915186636E-02  0.10739777682E-01  0.12941193508E+00  0.19964577120E-01 0.  0.
         14    1    1    2    0    0 -0.92353329199E-02 -0.14826612534E-01 -0.16451882611E-01  0.23995504888E-01  0.00000000000E+00 0.  1.
     999901    1    3    3    0    0  0.13627704356E+00  0.51350938708E-02  0.57121049287E-02  0.89052256004E+00  0.88000000000E+00 0.  1.
        -11    1    4    4    0    0 -0.14749117318E-01  0.42755320186E-02 -0.43764626030E-02  0.15975956360E-01  0.51100000000E-03 0.  1.
         11    1    4    4    0    0 -0.11229259332E+00  0.54159866449E-02  0.15116240285E-01  0.11343597872E+00  0.51100000000E-03 0. -1.
</event>
<event>
 8    1  0.1445051E+005  0.1043930E+01  0.7957747E-01            NaN
         13   -1    0    0    0    0  0.00000000000E+00  0.00000000000E+00  0.74505805969E-08  0.10566000000E+00  0.10566000000E+00 0. -1.
     999900   -1    0    0    0    0 -0.00000000000E+00 -0.00000000000E+00 -0.74505805969E-08  0.93827000000E+00  0.93827000000E+00 0. -1.
     999902    2    1    2    0    0  0.21449423870E-01 -0.70663216100E-02  0.74771559738E-02  0.10201409574E+01  0.10198635470E+01 0.  0.
     999903    2    3    3    0    0 -0.26000894637E-01  0.37133149033E-03  0.12679342771E+00  0.13079106896E+00  0.18802818922E-01 0.  0.
         14    1    1    2    0    0 -0.21449423870E-01  0.70663216100E-02 -0.74771559738E-02  0.23789042581E-01  0.00000000000E+00 0.  1.
     999901    1    3    3    0    0  0.47450318507E-01 -0.74376531004E-02 -0.11931627173E+00  0.88934988846E+00  0.88000000000E+00 0. -1.
        -11    1    4    4    0    0 -0.73359708186E-02 -0.85376933999E-02  0.50546165956E-01  0.51786916207E-01  0.51100000000E-03 0. -1.
         11    1    4    4    0    0 -0.18664923818E-01  0.89090248902E-02  0.76247261753E-01  0.79004152748E-01  0.51100000000E-03 0.  1.
</event>
<event>
 8    1  0.1129676E+005  0.1043930E+01  0.7957747E-01            NaN
         13   -1    0    0    0    0  0.00000000000E+00  0.00000000000E+00  0.74505805969E-08  0.10566000000E+00  0.10566000000E+00 0.  1.
     999900   -1    0    0    0    0 -0.00000000000E+00 -0.00000000000E+00 -0.74505805969E-08  0.93827000000E+00  0.93827000000E+00 0. -1.
     999902    2    1    2    0    0  0.16688183356E-01  0.68842911662E-02 -0.15797186170E-01  0.10199416691E+01  0.10196595355E+01 0.  0.
     999903    2    3    3    0    0 -0.47365805109E-01 -0.24858976103E-01 -0.11793063547E+00  0.13115497370E+00  0.20796734300E-01 0.  0.
         14    1    1    2    0    0 -0.16688183356E-01 -0.68842911662E-02  0.15797186170E-01  0.23988330903E-01  0.00000000000E+00 0.  1.
     999901    1    3    3    0    0  0.64053988465E-01  0.31743267269E-01  0.10213344930E+00  0.88878669540E+00  0.88000000000E+00 0.  1.
        -11    1    4    4    0    0 -0.44351783167E-01 -0.16584053462E-01 -0.10767241411E+00  0.11762534327E+00  0.51100000000E-03 0. -1.
         11    1    4    4    0    0 -0.30140219418E-02 -0.82749226410E-02 -0.10258221360E-01  0.13529630425E-01  0.51100000000E-03 0.  1.
</event>
<event>
 8    1  0.1129676E+005  0.1043930E+01  0.7957747E-01            NaN
         13   -1    0    0    0    0  0.00000000000E+00  0.00000000000E+00  0.74505805969E-08  0.10566000000E+00  0.10566000000E+00 0.  1.
     999900   -1    0    0    0    0 -0.00000000000E+00 -0.00000000000E+00 -0.74505805969E-08  0.93827000000E+00  0.93827000000E+00 0. -1.
     999902    2    1    2    0    0 -0.12685991569E-01  0.61573444527E-02 -0.17545326551E-01  0.10214203186E+01  0.10211722585E+01 0.  0.
     999903    2    3    3    0    0 -0.12120193179E+00 -0.46677808822E-01  0.17103335588E-01  0.13250649123E+00  0.19917831801E-01 0.  0.
         14    1    1    2    0    0  0.12685991569E-01 -0.61573444527E-02  0.17545326551E-01  0.22509681397E-01  0.00000000000E+00 0.  1.
     999901    1    3    3    0    0  0.10851594022E+00  0.52835153275E-01 -0.34648662139E-01  0.88891382737E+00  0.88000000000E+00 0. -1.
        -11    1    4    4    0    0 -0.39693294618E-01 -0.56126934996E-02  0.37862794910E-02  0.40269802574E-01  0.51100000000E-03 0. -1.
         11    1    4    4    0    0 -0.81508637174E-01 -0.41065115323E-01  0.13317056097E-01  0.92236688658E-01  0.51100000000E-03 0.  1.
</event>
<event>
 8    1  0.1129676E+005  0.1043930E+01  0.7957747E-01            NaN
         13   -1    0    0    0    0  0.00000000000E+00  0.00000000000E+00  0.74505805969E-08  0.10566000000E+00  0.10566000000E+00 0. -1.
     999900   -1    0    0    0    0 -0.00000000000E+00 -0.00000000000E+00 -0.74505805969E-08  0.93827000000E+00  0.93827000000E+00 0.  1.
     999902    2    1    2    0    0 -0.16002370535E-01 -0.13223854136E-02 -0.17525696170E-01  0.10201608058E+01  0.10198838636E+01 0.  0.
     999903    2    3    3    0    0 -0.51216009029E-01 -0.27561381259E-01  0.11359472841E+00  0.12936282031E+00  0.21172331901E-01 0.  0.
         14    1    1    2    0    0  0.16002370535E-01  0.13223854136E-02  0.17525696170E-01  0.23769194184E-01  0.00000000000E+00 0. -1.
     999901    1    3    3    0    0  0.35213638495E-01  0.26238995845E-01 -0.13112042458E+00  0.89079798551E+00  0.88000000000E+00 0.  1.
        -11    1    4    4    0    0 -0.67903107733E-02 -0.11080333076E-01  0.14234996527E-01  0.19281554621E-01  0.51100000000E-03 0. -1.
         11    1    4    4    0    0 -0.44425698256E-01 -0.16481048182E-01  0.99359731884E-01  0.11008126569E+00  0.51100000000E-03 0.  1.
</event>
<event>
 8    1  0.1129676E+005  0.1043930E+01  0.7957747E-01            NaN
         13   -1    0    0    0    0  0.00000000000E+00  0.00000000000E+00  0.74505805969E-08  0.10566000000E+00  0.10566000000E+00 0. -1.
     999900   -1    0    0    0    0 -0.00000000000E+00 -0.00000000000E+00 -0.74505805969E-08  0.93827000000E+00  0.93827000000E+00 0. -1.
     999902    2    1    2    0    0 -0.49619065892E-02  0.18691805116E-01  0.13182662238E-01  0.10205251569E+01  0.10202567369E+01 0.  0.
     999903    2    3    3    0    0  0.30358369769E-01  0.51915935472E-01  0.11686005791E+00  0.13311298261E+00  0.21116297834E-01 0.  0.
         14    1    1    2    0    0  0.49619065892E-02 -0.18691805116E-01 -0.13182662238E-01  0.23404843071E-01  0.00000000000E+00 0. -1.
     999901    1    3    3    0    0 -0.35320276358E-01 -0.33224130356E-01 -0.10367739567E+00  0.88741217432E+00  0.88000000000E+00 0. -1.
        -11    1    4    4    0    0  0.49954832058E-02  0.31157552116E-02  0.29173464446E-02  0.65905094095E-02  0.51100000000E-03 0.  1.
         11    1    4    4    0    0  0.25362886563E-01  0.48800180260E-01  0.11394271146E+00  0.12652247320E+00  0.51100000000E-03 0. -1.
</event>
<event>
 8    1  0.1129676E+005  0.1043930E+01  0.7957747E-01            NaN
         13   -1    0    0    0    0  0.00000000000E+00  0.00000000000E+00  0.74505805969E-08  0.10566000000E+00  0.10566000000E+00 0.  1.
     999900   -1    0    0    0    0 -0.00000000000E+00 -0.00000000000E+00 -0.74505805969E-08  0.93827000000E+00  0.93827000000E+00 0.  1.
     999902    2    1    2    0    0  0.90153630272E-02  0.10012454957E-02  0.22705603835E-01  0.10194795663E+01  0.10191863237E+01 0.  0.
     999903    2    3    3    0    0 -0.12079021442E+00 -0.30251208817E-01 -0.22792874841E-01  0.12824653537E+00  0.20548653440E-01 0.  0.
         14    1    1    2    0    0 -0.90153630272E-02 -0.10012454957E-02 -0.22705603835E-01  0.24450433709E-01  0.00000000000E+00 0. -1.
     999901    1    3    3    0    0  0.12980557744E+00  0.31252454313E-01  0.45498478676E-01  0.89123303092E+00  0.88000000000E+00 0. -1.
        -11    1    4    4    0    0 -0.59256410010E-01 -0.12069875759E-01 -0.21126322250E-01  0.64059243212E-01  0.51100000000E-03 0.  1.
         11    1    4    4    0    0 -0.61533804406E-01 -0.18181333058E-01 -0.16665525913E-02  0.64187292162E-01  0.51100000000E-03 0. -1.
</event>
<event>
 8    1  0.1129676E+005  0.1043930E+01  0.7957747E-01            NaN
         13   -1    0    0    0    0  0.00000000000E+00  0.00000000000E+00  0.74505805969E-08  0.10566000000E+00  0.10566000000E+00 0.  1.
     999900   -1    0    0    0    0 -0.00000000000E+00 -0.00000000000E+00 -0.74505805969E-08  0.93827000000E+00  0.93827000000E+00 0. -1.
     999902    2    1    2    0    0 -0.17315744108E-02  0.28453472861E-01  0.55757356085E-02  0.10148837043E+01  0.10144679620E+01 0.  0.
     999903    2    3    3    0    0 -0.11493943988E+00  0.43957803671E-02 -0.46817293922E-01  0.12576064029E+00  0.19836378445E-01 0.  0.
         14    1    1    2    0    0  0.17315744108E-02 -0.28453472861E-01 -0.55757356085E-02  0.29046295726E-01  0.00000000000E+00 0. -1.
     999901    1    3    3    0    0  0.11320786547E+00  0.24057692494E-01  0.52393029530E-01  0.88912306399E+00  0.88000000000E+00 0. -1.
        -11    1    4    4    0    0 -0.18567585796E-01 -0.18235918026E-02 -0.15424371300E-01  0.24212663636E-01  0.51100000000E-03 0. -1.
         11    1    4    4    0    0 -0.96371854085E-01  0.62193721697E-02 -0.31392922622E-01  0.10154797665E+00  0.51100000000E-03 0.  1.
</event>
<event>
 8    1  0.1129676E+005  0.1043930E+01  0.7957747E-01            NaN
         13   -1    0    0    0    0  0.00000000000E+00  0.00000000000E+00  0.74505805969E-08  0.10566000000E+00  0.10566000000E+00 0. -1.
     999900   -1    0    0    0    0 -0.00000000000E+00 -0.00000000000E+00 -0.74505805969E-08  0.93827000000E+00  0.93827000000E+00 0.  1.
     999902    2    1    2    0    0 -0.20224036026E-01  0.95120802580E-02 -0.34689727385E-02  0.10213130799E+01  0.10210626240E+01 0.  0.
     999903    2    3    3    0    0 -0.39606556334E-01  0.12242551208E+00  0.28444262175E-01  0.13331331651E+00  0.20166283611E-01 0.  0.
         14    1    1    2    0    0  0.20224036026E-01 -0.95120802580E-02  0.34689727385E-02  0.22616920123E-01  0.00000000000E+00 0.  1.
     999901    1    3    3    0    0  0.19382520309E-01 -0.11291343182E+00 -0.31913234914E-01  0.88799976337E+00  0.88000000000E+00 0.  1.
        -11    1    4    4    0    0 -0.23066364535E-01  0.86223992389E-01  0.11285660757E-01  0.89968112662E-01  0.51100000000E-03 0.  1.
         11    1    4    4    0    0 -0.16540191800E-01  0.36201519693E-01  0.17158601418E-01  0.43345203846E-01  0.51100000000E-03 0. -1.
</event>
<event>
 8    1  0.1129676E+005  0.1043930E+01  0.7957747E-01            NaN
         13   -1    0    0    0    0  0.00000000000E+00  0.00000000000E+00  0.74505805969E-08  0.10566000000E+00  0.10566000000E+00 0. -1.
     999900   -1    0    0    0    0 -0.00000000000E+00 -0.00000000000E+00 -0.74505805969E-08  0.93827000000E+00  0.93827000000E+00 0.  1.
     999902    2    1    2    0    0  0.32751360490E-03 -0.14577529798E-01 -0.18751223330E-01  0.10201766841E+01  0.10199001161E+01 0.  0.
     999903    2    3    3    0    0 -0.85935498109E-01  0.85745679654E-01 -0.42177433968E-01  0.12997735760E+00  0.19440836868E-01 0.  0.
         14    1    1    2    0    0 -0.32751360490E-03  0.14577529798E-01  0.18751223330E-01  0.23753315906E-01  0.00000000000E+00 0. -1.
     999901    1    3    3    0    0  0.86263011714E-01 -0.10032320945E+00  0.23426210638E-01  0.89019932649E+00  0.88000000000E+00 0.  1.
        -11    1    4    4    0    0 -0.16211870931E-01  0.19047049618E-01 -0.17030806102E-01  0.30264241866E-01  0.51100000000E-03 0. -1.
         11    1    4    4    0    0 -0.69723627177E-01  0.66698630036E-01 -0.25146627866E-01  0.99713115734E-01  0.51100000000E-03 0.  1.
</event>
<event>
 8    1  0.1129676E+005  0.1043930E+01  0.7957747E-01            NaN
         13   -1    0    0    0    0  0.00000000000E+00  0.00000000000E+00  0.74505805969E-08  0.10566000000E+00  0.10566000000E+00 0. -1.
     999900   -1    0    0    0    0 -0.00000000000E+00 -0.00000000000E+00 -0.74505805969E-08  0.93827000000E+00  0.93827000000E+00 0.  1.
     999902    2    1    2    0    0 -0.12455898720E-01 -0.48390860192E-02  0.19471742005E-01  0.10203140117E+01  0.10200406696E+01 0.  0.
     999903    2    3    3    0    0  0.80450634646E-01 -0.31146153900E-01  0.97580380494E-01  0.13159322025E+00  0.18773849905E-01 0.  0.
         14    1    1    2    0    0  0.12455898720E-01  0.48390860192E-02 -0.19471742005E-01  0.23615988294E-01  0.00000000000E+00 0.  1.
     999901    1    3    3    0    0 -0.92906533365E-01  0.26307067881E-01 -0.78108638489E-01  0.88872079146E+00  0.88000000000E+00 0.  1.
        -11    1    4    4    0    0  0.18800933832E-01 -0.82189971480E-02  0.36262097178E-01  0.41668067387E-01  0.51100000000E-03 0. -1.
         11    1    4    4    0    0  0.61649700814E-01 -0.22927156752E-01  0.61318283316E-01  0.89925152861E-01  0.51100000000E-03 0.  1.
</event>
<event>
 8    1  0.1129676E+005  0.1043930E+01  0.7957747E-01            NaN
         13   -1    0    0    0    0  0.00000000000E+00  0.00000000000E+00  0.74505805969E-08  0.10566000000E+00  0.10566000000E+00 0.  1.
     999900   -1    0    0    0    0 -0.00000000000E+00 -0.00000000000E+00 -0.74505805969E-08  0.93827000000E+00  0.93827000000E+00 0.  1.
     999902    2    1    2    0    0  0.12094775923E-01  0.20421696462E-01  0.20834355942E-02  0.10201041738E+01  0.10198258946E+01 0.  0.
     999903    2    3    3    0    0  0.50932359998E-03  0.12441675768E+00 -0.41869218093E-01  0.13281558982E+00  0.20178217813E-01 0.  0.
         14    1    1    2    0    0 -0.12094775923E-01 -0.20421696462E-01 -0.20834355942E-02  0.23825826216E-01  0.00000000000E+00 0.  1.
     999901    1    3    3    0    0  0.11585452323E-01 -0.10399506122E+00  0.43952653688E-01  0.88728858396E+00  0.88000000000E+00 0. -1.
        -11    1    4    4    0    0 -0.33362097600E-02  0.39593293924E-01 -0.22710710032E-01  0.45768948978E-01  0.51100000000E-03 0.  1.
         11    1    4    4    0    0  0.38455333600E-02  0.84823463754E-01 -0.19158508061E-01  0.87046640844E-01  0.51100000000E-03 0. -1.
</event>
<event>
 8    1  0.1129676E+005  0.1043930E+01  0.7957747E-01            NaN
         13   -1    0    0    0    0  0.00000000000E+00  0.00000000000E+00  0.74505805969E-08  0.10566000000E+00  0.10566000000E+00 0. -1.
     999900   -1    0    0    0    0 -0.00000000000E+00 -0.00000000000E+00 -0.74505805969E-08  0.93827000000E+00  0.93827000000E+00 0.  1.
     999902    2    1    2    0    0  0.21141465384E-01 -0.82564546357E-02  0.61965491625E-02  0.10204028280E+01  0.10201315619E+01 0.  0.
     999903    2    3    3    0    0  0.12166484118E-01 -0.59579788902E-01  0.11559144921E+00  0.13210001976E+00  0.19780230275E-01 0.  0.
         14    1    1    2    0    0 -0.21141465384E-01  0.82564546357E-02 -0.61965491625E-02  0.23527172020E-01  0.00000000000E+00 0. -1.
     999901    1    3    3    0    0  0.89749812664E-02  0.51323334267E-01 -0.10939490005E+00  0.88830280822E+00  0.88000000000E+00 0. -1.
        -11    1    4    4    0    0 -0.45117727023E-03 -0.38397633499E-01  0.80717666541E-01  0.89387832685E-01  0.51100000000E-03 0. -1.
         11    1    4    4    0    0  0.12617661388E-01 -0.21182155403E-01  0.34873782668E-01  0.42712187078E-01  0.51100000000E-03 0.  1.
</event>
<event>
 8    1  0.1129676E+005  0.1043930E+01  0.7957747E-01            NaN
         13   -1    0    0    0    0  0.00000000000E+00  0.00000000000E+00  0.74505805969E-08  0.10566000000E+00  0.10566000000E+00 0. -1.
     999900   -1    0    0    0    0 -0.00000000000E+00 -0.00000000000E+00 -0.74505805969E-08  0.93827000000E+00  0.93827000000E+00 0. -1.
     999902    2    1    2    0    0  0.22831865744E-01 -0.14810030264E-03 -0.61659529408E-02  0.10202797357E+01  0.10200055902E+01 0.  0.
     999903    2    3    3    0    0 -0.11333939752E+00  0.31542373839E-01  0.45919554662E-01  0.12772172681E+00  0.19065508656E-01 0.  0.
         14    1    1    2    0    0 -0.22831865744E-01  0.14810030264E-03  0.61659529408E-02  0.23650264326E-01  0.00000000000E+00 0. -1.
     999901    1    3    3    0    0  0.13617126326E+00 -0.31690474142E-01 -0.52085507603E-01  0.89255800887E+00  0.88000000000E+00 0.  1.
        -11    1    4    4    0    0 -0.36545755489E-01  0.13556796083E-01  0.64101052459E-02  0.39506069592E-01  0.51100000000E-03 0. -1.
         11    1    4    4    0    0 -0.76793642031E-01  0.17985577756E-01  0.39509449416E-01  0.88215657215E-01  0.51100000000E-03 0.  1.
</event>
<event>
 8    1  0.1129676E+005  0.1043930E+01  0.7957747E-01            NaN
         13   -1    0    0    0    0  0.00000000000E+00  0.00000000000E+00  0.74505805969E-08  0.10566000000E+00  0.10566000000E+00 0. -1.
     999900   -1    0    0    0    0 -0.00000000000E+00 -0.00000000000E+00 -0.74505805969E-08  0.93827000000E+00  0.93827000000E+00 0.  1.
     999902    2    1    2    0    0 -0.17494549818E-01  0.13351675617E-01 -0.91812815485E-02  0.10200841944E+01  0.10198054428E+01 0.  0.
     999903    2    3    3    0    0 -0.17906707009E-02 -0.11865131036E+00 -0.47605955061E-01  0.12927116368E+00  0.19062183727E-01 0.  0.
         14    1    1    2    0    0  0.17494549818E-01 -0.13351675617E-01  0.91812815485E-02  0.23845805626E-01  0.00000000000E+00 0.  1.
     999901    1    3    3    0    0 -0.15703879117E-01  0.13200298598E+00  0.38424673513E-01  0.89081303070E+00  0.88000000000E+00 0. -1.
        -11    1    4    4    0    0  0.34631280949E-02 -0.97089336129E-01 -0.32598932361E-01  0.10247577254E+00  0.51100000000E-03 0.  1.
         11    1    4    4    0    0 -0.52537987958E-02 -0.21561974234E-01 -0.15007022700E-01  0.26795391133E-01  0.51100000000E-03 0. -1.
</event>
<event>
 8    1  0.1129676E+005  0.1043930E+01  0.7957747E-01            NaN
         13   -1    0    0    0    0  0.00000000000E+00  0.00000000000E+00  0.74505805969E-08  0.10566000000E+00  0.10566000000E+00 0. -1.
     999900   -1    0    0    0    0 -0.00000000000E+00 -0.00000000000E+00 -0.74505805969E-08  0.93827000000E+00  0.93827000000E+00 0.  1.
     999902    2    1    2    0    0 -0.16700530834E-01  0.19576290405E-02 -0.14568084148E-01  0.10216820986E+01  0.10214398374E+01 0.  0.
     999903    2    3    3    0    0 -0.12912417932E+00 -0.35972806232E-02  0.27182370081E-01  0.13353062829E+00  0.20138354867E-01 0.  0.
         14    1    1    2    0    0  0.16700530834E-01 -0.19576290405E-02  0.14568084148E-01  0.22247901414E-01  0.00000000000E+00 0. -1.
     999901    1    3    3    0    0  0.11242364848E+00  0.55549096636E-02 -0.41750454228E-01  0.88815147030E+00  0.88000000000E+00 0.  1.
        -11    1    4    4    0    0 -0.59875639817E-01  0.70041147504E-02  0.17726240074E-01  0.62838129946E-01  0.51100000000E-03 0.  1.
         11    1    4    4    0    0 -0.69248539498E-01 -0.10601395374E-01  0.94561300068E-02  0.70692498344E-01  0.51100000000E-03 0. -1.
</event>
<event>
 8    1  0.1129676E+005  0.1043930E+01  0.7957747E-01            NaN
         13   -1    0    0    0    0  0.00000000000E+00  0.00000000000E+00  0.74505805969E-08  0.10566000000E+00  0.10566000000E+00 0.  1.
     999900   -1    0    0    0    0 -0.00000000000E+00 -0.00000000000E+00 -0.74505805969E-08  0.93827000000E+00  0.93827000000E+00 0.  1.
     999902    2    1    2    0    0 -0.94632652326E-02 -0.13396123330E-01  0.56793840137E-02  0.10265730155E+01  0.10264262717E+01 0.  0.
     999903    2    3    3    0    0 -0.26758579950E-01 -0.16919450970E-01 -0.13071508753E+00  0.13589069634E+00  0.19430847187E-01 0.  0.
         14    1    1    2    0    0  0.94632652326E-02  0.13396123330E-01 -0.56793840137E-02  0.17356984528E-01  0.00000000000E+00 0. -1.
     999901    1    3    3    0    0  0.17295314718E-01  0.35233276399E-02  0.13639447154E+00  0.89068231913E+00  0.88000000000E+00 0. -1.
        -11    1    4    4    0    0 -0.15808582271E-01 -0.19975305809E-01 -0.97775723286E-01  0.10104096843E+00  0.51100000000E-03 0.  1.
         11    1    4    4    0    0 -0.10949997679E-01  0.30558548392E-02 -0.32939364240E-01  0.34849727912E-01  0.51100000000E-03 0. -1.
</event>
<event>
 8    1  0.1129676E+005  0.1043930E+01  0.7957747E-01            NaN
         13   -1    0    0    0    0  0.00000000000E+00  0.00000000000E+00  0.74505805969E-08  0.10566000000E+00  0.10566000000E+00 0. -1.
     999900   -1    0    0    0    0 -0.00000000000E+00 -0.00000000000E+00 -0.74505805969E-08  0.93827000000E+00  0.93827000000E+00 0.  1.
     999902    2    1    2    0    0 -0.22611734440E-01  0.30154643537E-02  0.55904090576E-02  0.10204430625E+01  0.10201727342E+01 0.  0.
     999903    2    3    3    0    0 -0.81712803746E-02  0.74096281545E-01  0.10675086050E+00  0.13168300139E+00  0.19688521422E-01 0.  0.
         14    1    1    2    0    0  0.22611734440E-01 -0.30154643537E-02 -0.55904090576E-02  0.23486937499E-01  0.00000000000E+00 0. -1.
     999901    1    3    3    0    0 -0.14440454065E-01 -0.71080817191E-01 -0.10116045145E+00  0.88876006111E+00  0.88000000000E+00 0.  1.
        -11    1    4    4    0    0 -0.53820221308E-02  0.51764768594E-01  0.57651529615E-01  0.77669282330E-01  0.51100000000E-03 0.  1.
         11    1    4    4    0    0 -0.27892582438E-02  0.22331512951E-01  0.49099330888E-01  0.54013719062E-01  0.51100000000E-03 0. -1.
</event>
<event>
 8    1  0.1129676E+005  0.1043930E+01  0.7957747E-01            NaN
         13   -1    0    0    0    0  0.00000000000E+00  0.00000000000E+00  0.74505805969E-08  0.10566000000E+00  0.10566000000E+00 0.  1.
     999900   -1    0    0    0    0 -0.00000000000E+00 -0.00000000000E+00 -0.74505805969E-08  0.93827000000E+00  0.93827000000E+00 0. -1.
     999902    2    1    2    0    0 -0.17976833630E-02  0.12577130138E-01  0.19825576519E-01  0.10203828271E+01  0.10201110942E+01 0.  0.
     999903    2    3    3    0    0 -0.11894048135E+00 -0.38255314279E-01 -0.28956965057E-01  0.12982900564E+00  0.20168235074E-01 0.  0.
         14    1    1    2    0    0  0.17976833630E-02 -0.12577130138E-01 -0.19825576519E-01  0.23547172915E-01  0.00000000000E+00 0. -1.
     999901    1    3    3    0    0  0.11714279799E+00  0.50832444417E-01  0.48782541575E-01  0.89055382144E+00  0.88000000000E+00 0.  1.
        -11    1    4    4    0    0 -0.57833335870E-01 -0.11737336207E-01 -0.21452297284E-01  0.62792690489E-01  0.51100000000E-03 0. -1.
         11    1    4    4    0    0 -0.61107145481E-01 -0.26517978072E-01 -0.75046677727E-02  0.67036315152E-01  0.51100000000E-03 0.  1.
</event>
<event>
 8    1  0.1129676E+005  0.1043930E+01  0.7957747E-01            NaN
         13   -1    0    0    0    0  0.00000000000E+00  0.00000000000E+00  0.74505805969E-08  0.10566000000E+00  0.10566000000E+00 0.  1.
     999900   -1    0    0    0    0 -0.00000000000E+00 -0.00000000000E+00 -0.74505805969E-08  0.93827000000E+00  0.93827000000E+00 0. -1.
     999902    2    1    2    0    0 -0.33271736236E-02 -0.15657849755E-01 -0.16707549918E-01  0.10207917078E+01  0.10205294362E+01 0.  0.
     999903    2    3    3    0    0 -0.10398877987E+00  0.53020676060E-01  0.52805805403E-01  0.12967914167E+00  0.20084030248E-01 0.  0.
         14    1    1    2    0    0  0.33271736236E-02  0.15657849755E-01  0.16707549918E-01  0.23138292235E-01  0.00000000000E+00 0.  1.
     999901    1    3    3    0    0  0.10066160625E+00 -0.68678525815E-01 -0.69513355321E-01  0.89111256609E+00  0.88000000000E+00 0. -1.
        -11    1    4    4    0    0 -0.83515454514E-01  0.34257696510E-01  0.35790600110E-01  0.97106380274E-01  0.51100000000E-03 0.  1.
         11    1    4    4    0    0 -0.20473325361E-01  0.18762979550E-01  0.17015205292E-01  0.32572761398E-01  0.51100000000E-03 0. -1.
</event>
<event>
 8    1  0.1129676E+005  0.1043930E+01  0.7957747E-01            NaN
         13   -1    0    0    0    0  0.00000000000E+00  0.00000000000E+00  0.74505805969E-08  0.10566000000E+00  0.10566000000E+00 0. -1.
     999900   -1    0    0    0    0 -0.00000000000E+00 -0.00000000000E+00 -0.74505805969E-08  0.93827000000E+00  0.93827000000E+00 0. -1.
     999902    2    1    2    0    0 -0.26623184432E-03 -0.23400151980E-01  0.18549608320E-01  0.10140682191E+01  0.10136284462E+01 0.  0.
     999903    2    3    3    0    0  0.25284292398E-01 -0.75275933122E-01  0.99076493481E-01  0.12850144846E+00  0.19766364009E-01 0.  0.
         14    1    1    2    0    0  0.26623184432E-03  0.23400151980E-01 -0.18549608320E-01  0.29861780940E-01  0.00000000000E+00 0. -1.
     999901    1    3    3    0    0 -0.25550524242E-01  0.51875781142E-01 -0.80526885161E-01  0.88556677060E+00  0.88000000000E+00 0. -1.
        -11    1    4    4    0    0  0.12986089673E-01 -0.60884632842E-01  0.68761014805E-01  0.92757292540E-01  0.51100000000E-03 0.  1.
         11    1    4    4    0    0  0.12298202725E-01 -0.14391300280E-01  0.30315478677E-01  0.35744155920E-01  0.51100000000E-03 0. -1.
</event>
<event>
 8    1  0.1129676E+005  0.1043930E+01  0.7957747E-01            NaN
         13   -1    0    0    0    0  0.00000000000E+00  0.00000000000E+00  0.74505805969E-08  0.10566000000E+00  0.10566000000E+00 0. -1.
     999900   -1    0    0    0    0 -0.00000000000E+00 -0.00000000000E+00 -0.74505805969E-08  0.93827000000E+00  0.93827000000E+00 0. -1.
     999902    2    1    2    0    0  0.64899343123E-02  0.21359468762E-01  0.60069630632E-02  0.10208122631E+01  0.10205504626E+01 0.  0.
     999903    2    3    3    0    0  0.41904265056E-01  0.85105070055E-01  0.91942205717E-01  0.13362426589E+00  0.20080708721E-01 0.  0.
         14    1    1    2    0    0 -0.64899343123E-02 -0.21359468762E-01 -0.60069630632E-02  0.23117736879E-01  0.00000000000E+00 0. -1.
     999901    1    3    3    0    0 -0.35414330743E-01 -0.63745601292E-01 -0.85935242654E-01  0.88718799723E+00  0.88000000000E+00 0. -1.
        -11    1    4    4    0    0  0.37191819845E-01  0.70084680678E-01  0.85397854695E-01  0.11656821452E+00  0.51100000000E-03 0.  1.
         11    1    4    4    0    0  0.47124452107E-02  0.15020389376E-01  0.65443510222E-02  0.17056051365E-01  0.51100000000E-03 0. -1.
</event>
<event>
 8    1  0.1129676E+005  0.1043930E+01  0.7957747E-01            NaN
         13   -1    0    0    0    0  0.00000000000E+00  0.00000000000E+00  0.74505805969E-08  0.10566000000E+00  0.10566000000E+00 0. -1.
     999900   -1    0    0    0    0 -0.00000000000E+00 -0.00000000000E+00 -0.74505805969E-08  0.93827000000E+00  0.93827000000E+00 0. -1.
     999902    2    1    2    0    0  0.37496474167E-03  0.15589100998E-01 -0.17373890085E-01  0.10205844924E+01  0.10203174474E+01 0.  0.
     999903    2    3    3    0    0 -0.66485187181E-01  0.66646250483E-01  0.87666818641E-01  0.13035381279E+00  0.21086550216E-01 0.  0.
         14    1    1    2    0    0 -0.37496474167E-03 -0.15589100998E-01  0.17373890085E-01  0.23345507601E-01  0.00000000000E+00 0. -1.
     999901    1    3    3    0    0  0.66860151923E-01 -0.51057149485E-01 -0.10504070873E+00  0.89023067961E+00  0.88000000000E+00 0. -1.
        -11    1    4    4    0    0 -0.52459280005E-01  0.38890278117E-01  0.57150784091E-01  0.86780775716E-01  0.51100000000E-03 0.  1.
         11    1    4    4    0    0 -0.14025907176E-01  0.27755972366E-01  0.30516034550E-01  0.43573037073E-01  0.51100000000E-03 0. -1.
</event>
<event>
 8    1  0.1129676E+005  0.1043930E+01  0.7957747E-01            NaN
         13   -1    0    0    0    0  0.00000000000E+00  0.00000000000E+00  0.74505805969E-08  0.10566000000E+00  0.10566000000E+00 0. -1.
     999900   -1    0    0    0    0 -0.00000000000E+00 -0.00000000000E+00 -0.74505805969E-08  0.93827000000E+00  0.93827000000E+00 0.  1.
     999902    2    1    2    0    0 -0.59131521895E-02 -0.21572648888E-02 -0.20874058526E-01  0.10221275809E+01  0.10218950269E+01 0.  0.
     999903    2    3    3    0    0  0.70713792369E-01 -0.56025755277E-01  0.91830747329E-01  0.13000882412E+00  0.18168172925E-01 0.  0.
         14    1    1    2    0    0  0.59131521895E-02  0.21572648888E-02  0.20874058526E-01  0.21802419131E-01  0.00000000000E+00 0. -1.
     999901    1    3    3    0    0 -0.76626944558E-01  0.53868490388E-01 -0.11270480585E+00  0.89211875675E+00  0.88000000000E+00 0.  1.
        -11    1    4    4    0    0  0.47649714556E-01 -0.26467281911E-01  0.55874193359E-01  0.78058945122E-01  0.51100000000E-03 0. -1.
         11    1    4    4    0    0  0.23064077813E-01 -0.29558473366E-01  0.35956553969E-01  0.51949878993E-01  0.51100000000E-03 0.  1.
</event>
<event>
 8    1  0.1129676E+005  0.1043930E+01  0.7957747E-01            NaN
         13   -1    0    0    0    0  0.00000000000E+00  0.00000000000E+00  0.74505805969E-08  0.10566000000E+00  0.10566000000E+00 0. -1.
     999900   -1    0    0    0    0 -0.00000000000E+00 -0.00000000000E+00 -0.74505805969E-08  0.93827000000E+00  0.93827000000E+00 0. -1.
     999902    2    1    2    0    0 -0.21373202504E-01  0.91015418319E-02  0.71938173461E-02  0.10196112242E+01  0.10193211690E+01 0.  0.
     999903    2    3    3    0    0  0.99717864869E-01 -0.59975427414E-01  0.48851140175E-01  0.12766391250E+00  0.19259703825E-01 0.  0.
         14    1    1    2    0    0  0.21373202504E-01 -0.91015418319E-02 -0.71938173461E-02  0.24318775812E-01  0.00000000000E+00 0.  1.
     999901    1    3    3    0    0 -0.12109106737E+00  0.69076969246E-01 -0.41657322829E-01  0.89194731169E+00  0.88000000000E+00 0.  1.
        -11    1    4    4    0    0  0.19934788644E-01 -0.20312019878E-01  0.75001085658E-02  0.29436146135E-01  0.51100000000E-03 0. -1.
         11    1    4    4    0    0  0.79783076225E-01 -0.39663407537E-01  0.41351031609E-01  0.98227766367E-01  0.51100000000E-03 0.  1.
</event>
<event>
 8    1  0.1129676E+005  0.1043930E+01  0.7957747E-01            NaN
         13   -1    0    0    0    0  0.00000000000E+00  0.00000000000E+00  0.74505805969E-08  0.10566000000E+00  0.10566000000E+00 0.  1.
     999900   -1    0    0    0    0 -0.00000000000E+00 -0.00000000000E+00 -0.74505805969E-08  0.93827000000E+00  0.93827000000E+00 0.  1.
     999902    2    1    2    0    0 -0.11455991030E-01  0.14183795955E-01 -0.15277424090E-01  0.10201430396E+01  0.10198656783E+01 0.  0.
     999903    2    3    3    0    0 -0.12794048809E+00  0.12563379891E-01 -0.23724134745E-01  0.13242539827E+00  0.21143427604E-01 0.  0.
         14    1    1    2    0    0  0.11455991030E-01 -0.14183795955E-01  0.15277424090E-01  0.23786960399E-01  0.00000000000E+00 0.  1.
     999901    1    3    3    0    0  0.11648449706E+00  0.16204160641E-02  0.84467106547E-02  0.88771764133E+00  0.88000000000E+00 0.  1.
        -11    1    4    4    0    0 -0.10187154216E+00  0.75516659711E-02 -0.27033085811E-01  0.10566876365E+00  0.51100000000E-03 0.  1.
         11    1    4    4    0    0 -0.26068945928E-01  0.50117139201E-02  0.33089510654E-02  0.26756634623E-01  0.51100000000E-03 0. -1.
</event>
<event>
 8    1  0.1129676E+005  0.1043930E+01  0.7957747E-01            NaN
         13   -1    0    0    0    0  0.00000000000E+00  0.00000000000E+00  0.74505805969E-08  0.10566000000E+00  0.10566000000E+00 0.  1.
     999900   -1    0    0    0    0 -0.00000000000E+00 -0.00000000000E+00 -0.74505805969E-08  0.93827000000E+00  0.93827000000E+00 0. -1.
     999902    2    1    2    0    0 -0.18938373860E-01  0.11502495721E-01 -0.10203450249E-01  0.10195357423E+01  0.10192438619E+01 0.  0.
     999903    2    3    3    0    0  0.26329929706E-01  0.92434854913E-01  0.84780684757E-01  0.12957998385E+00  0.19124332823E-01 0.  0.
         14    1    1    2    0    0  0.18938373860E-01 -0.11502495721E-01  0.10203450249E-01  0.24394257711E-01  0.00000000000E+00 0.  1.
     999901    1    3    3    0    0 -0.45268303567E-01 -0.80932359192E-01 -0.94984135007E-01  0.88995575844E+00  0.88000000000E+00 0. -1.
        -11    1    4    4    0    0 -0.18539910262E-02  0.22455034442E-01  0.20458994560E-01  0.30438420358E-01  0.51100000000E-03 0.  1.
         11    1    4    4    0    0  0.28183920732E-01  0.69979820472E-01  0.64321690197E-01  0.99141563494E-01  0.51100000000E-03 0. -1.
</event>
<event>
 8    1  0.1129676E+005  0.1043930E+01  0.7957747E-01            NaN
         13   -1    0    0    0    0  0.00000000000E+00  0.00000000000E+00  0.74505805969E-08  0.10566000000E+00  0.10566000000E+00 0.  1.
     999900   -1    0    0    0    0 -0.00000000000E+00 -0.00000000000E+00 -0.74505805969E-08  0.93827000000E+00  0.93827000000E+00 0. -1.
     999902    2    1    2    0    0 -0.15822832142E-01  0.18675175125E-01  0.43222063808E-03  0.10194491708E+01  0.10191551898E+01 0.  0.
     999903    2    3    3    0    0  0.90223108019E-01  0.85136503619E-01  0.33568699564E-01  0.12997692513E+00  0.19460472923E-01 0.  0.
         14    1    1    2    0    0  0.15822832142E-01 -0.18675175125E-01 -0.43222063808E-03  0.24480829186E-01  0.00000000000E+00 0. -1.
     999901    1    3    3    0    0 -0.10604594016E+00 -0.66461328493E-01 -0.33136478926E-01  0.88947224569E+00  0.88000000000E+00 0. -1.
        -11    1    4    4    0    0  0.58525104218E-01  0.60737034476E-01  0.31094247732E-01  0.89895987361E-01  0.51100000000E-03 0. -1.
         11    1    4    4    0    0  0.31698003801E-01  0.24399469143E-01  0.24744518324E-02  0.40080937767E-01  0.51100000000E-03 0.  1.
</event>
<event>
 8    1  0.1129676E+005  0.1043930E+01  0.7957747E-01            NaN
         13   -1    0    0    0    0  0.00000000000E+00  0.00000000000E+00  0.74505805969E-08  0.10566000000E+00  0.10566000000E+00 0. -1.
     999900   -1    0    0    0    0 -0.00000000000E+00 -0.00000000000E+00 -0.74505805969E-08  0.93827000000E+00  0.93827000000E+00 0.  1.
     999902    2    1    2    0    0  0.11088876599E-01 -0.15196899913E-01  0.15779915202E-01  0.10193756791E+01  0.10190799088E+01 0.  0.
     999903    2    3    3    0    0  0.28098816394E-01 -0.50842392899E-01 -0.11353988087E+00  0.12904790301E+00  0.19686653459E-01 0.  0.
         14    1    1    2    0    0 -0.11088876599E-01  0.15196899913E-01 -0.15779915202E-01  0.24554320903E-01  0.00000000000E+00 0.  1.
     999901    1    3    3    0    0 -0.17009939795E-01  0.35645492986E-01  0.12931979607E+00  0.89032777609E+00  0.88000000000E+00 0. -1.
        -11    1    4    4    0    0 -0.59470922705E-03 -0.12998419831E-01 -0.16597763624E-01  0.21096432767E-01  0.51100000000E-03 0. -1.
         11    1    4    4    0    0  0.28693525621E-01 -0.37843973068E-01 -0.96942117244E-01  0.10795147024E+00  0.51100000000E-03 0.  1.
</event>
<event>
 8    1  0.1129676E+005  0.1043930E+01  0.7957747E-01            NaN
         13   -1    0    0    0    0  0.00000000000E+00  0.00000000000E+00  0.74505805969E-08  0.10566000000E+00  0.10566000000E+00 0. -1.
     999900   -1    0    0    0    0 -0.00000000000E+00 -0.00000000000E+00 -0.74505805969E-08  0.93827000000E+00  0.93827000000E+00 0. -1.
     999902    2    1    2    0    0  0.15418576767E-01 -0.16079754439E-01  0.90881817434E-02  0.10198699489E+01  0.10195861055E+01 0.  0.
     999903    2    3    3    0    0  0.10564463856E+00  0.19775538203E-01  0.73779032676E-01  0.13216997117E+00  0.21764513539E-01 0.  0.
         14    1    1    2    0    0 -0.15418576767E-01  0.16079754439E-01 -0.90881817434E-02  0.24060051117E-01  0.00000000000E+00 0.  1.
     999901    1    3    3    0    0 -0.90226061789E-01 -0.35855292642E-01 -0.64690850933E-01  0.88769997771E+00  0.88000000000E+00 0. -1.
        -11    1    4    4    0    0  0.43554346394E-01  0.18332765587E-01  0.27117466454E-01  0.54485681530E-01  0.51100000000E-03 0.  1.
         11    1    4    4    0    0  0.62090292162E-01  0.14427726155E-02  0.46661566223E-01  0.77684289640E-01  0.51100000000E-03 0. -1.
</event>
<event>
 8    1  0.1129676E+005  0.1043930E+01  0.7957747E-01            NaN
         13   -1    0    0    0    0  0.00000000000E+00  0.00000000000E+00  0.74505805969E-08  0.10566000000E+00  0.10566000000E+00 0.  1.
     999900   -1    0    0    0    0 -0.00000000000E+00 -0.00000000000E+00 -0.74505805969E-08  0.93827000000E+00  0.93827000000E+00 0. -1.
     999902    2    1    2    0    0  0.10370224140E-01 -0.20598497859E-01 -0.90707412525E-02  0.10191485955E+01  0.10188472612E+01 0.  0.
     999903    2    3    3    0    0  0.56779019769E-01  0.10814024019E+00 -0.33402825846E-01  0.12823923459E+00  0.20282600407E-01 0.  0.
         14    1    1    2    0    0 -0.10370224140E-01  0.20598497859E-01  0.90707412525E-02  0.24781404513E-01  0.00000000000E+00 0.  1.
     999901    1    3    3    0    0 -0.46408795629E-01 -0.12873873805E+00  0.24332084594E-01  0.89090936089E+00  0.88000000000E+00 0.  1.
        -11    1    4    4    0    0  0.25498211119E-02  0.93581464014E-02  0.23886986502E-02  0.10002174464E-01  0.51100000000E-03 0.  1.
         11    1    4    4    0    0  0.54229198657E-01  0.98782093793E-01 -0.35791524496E-01  0.11823706013E+00  0.51100000000E-03 0. -1.
</event>
<event>
 8    1  0.1129676E+005  0.1043930E+01  0.7957747E-01            NaN
         13   -1    0    0    0    0  0.00000000000E+00  0.00000000000E+00  0.74505805969E-08  0.10566000000E+00  0.10566000000E+00 0.  1.
     999900   -1    0    0    0    0 -0.00000000000E+00 -0.00000000000E+00 -0.74505805969E-08  0.93827000000E+00  0.93827000000E+00 0. -1.
     999902    2    1    2    0    0 -0.20796407509E-01  0.81770634109E-02  0.22847020955E-02  0.10214672576E+01  0.10212202425E+01 0.  0.
     999903    2    3    3    0    0 -0.48878002662E-01  0.11414747975E-02  0.12175572337E+00  0.13292271714E+00  0.21298602093E-01 0.  0.
         14    1    1    2    0    0  0.20796407509E-01 -0.81770634109E-02 -0.22847020955E-02  0.22462742375E-01  0.00000000000E+00 0.  1.
     999901    1    3    3    0    0  0.28081595153E-01  0.70355886134E-02 -0.11947102127E+00  0.88854454048E+00  0.88000000000E+00 0. -1.
        -11    1    4    4    0    0 -0.36284776376E-01  0.95104056858E-02  0.95747560925E-01  0.10283428104E+00  0.51100000000E-03 0.  1.
         11    1    4    4    0    0 -0.12593226286E-01 -0.83689308883E-02  0.26008162444E-01  0.30088436105E-01  0.51100000000E-03 0. -1.
</event>
<event>
 8    1  0.1129676E+005  0.1043930E+01  0.7957747E-01            NaN
         13   -1    0    0    0    0  0.00000000000E+00  0.00000000000E+00  0.74505805969E-08  0.10566000000E+00  0.10566000000E+00 0.  1.
     999900   -1    0    0    0    0 -0.00000000000E+00 -0.00000000000E+00 -0.74505805969E-08  0.93827000000E+00  0.93827000000E+00 0. -1.
     999902    2    1    2    0    0 -0.20349501378E-01  0.94008539641E-02  0.10274751166E-01  0.10192713550E+01  0.10189730351E+01 0.  0.
     999903    2    3    3    0    0 -0.12617501816E+00 -0.21691887362E-01 -0.24567468738E-01  0.13170176401E+00  0.18738221322E-01 0.  0.
         14    1    1    2    0    0  0.20349501378E-01 -0.94008539641E-02 -0.10274751166E-01  0.24658644997E-01  0.00000000000E+00 0.  1.
     999901    1    3    3    0    0  0.10582551678E+00  0.31092741326E-01  0.34842219904E-01  0.88756959099E+00  0.88000000000E+00 0.  1.
        -11    1    4    4    0    0 -0.48298118397E-01  0.10504551906E-04 -0.13106628911E-01  0.50047509364E-01  0.51100000000E-03 0.  1.
         11    1    4    4    0    0 -0.77876899763E-01 -0.21702391914E-01 -0.11460839826E-01  0.81654254647E-01  0.51100000000E-03 0. -1.
</event>
<event>
 8    1  0.1129676E+005  0.1043930E+01  0.7957747E-01            NaN
         13   -1    0    0    0    0  0.00000000000E+00  0.00000000000E+00  0.74505805969E-08  0.10566000000E+00  0.10566000000E+00 0.  1.
     999900   -1    0    0    0    0 -0.00000000000E+00 -0.00000000000E+00 -0.74505805969E-08  0.93827000000E+00  0.93827000000E+00 0.  1.
     999902    2    1    2    0    0  0.31657359183E-02 -0.22092885985E-01  0.81128718975E-02  0.10201826594E+01  0.10199062321E+01 0.  0.
     999903    2    3    3    0    0 -0.10848350564E+00  0.53546944893E-01  0.40958288786E-01  0.12930345403E+00  0.20145855653E-01 0.  0.
         14    1    1    2    0    0 -0.31657359183E-02  0.22092885985E-01 -0.81128718975E-02  0.23747340598E-01  0.00000000000E+00 0. -1.
     999901    1    3    3    0    0  0.11164924156E+00 -0.75639830878E-01 -0.32845416888E-01  0.89087920537E+00  0.88000000000E+00 0.  1.
        -11    1    4    4    0    0 -0.53102602815E-01  0.25662880153E-01  0.30570911014E-01  0.66432759725E-01  0.51100000000E-03 0. -1.
         11    1    4    4    0    0 -0.55380902826E-01  0.27884064740E-01  0.10387377772E-01  0.62870694303E-01  0.51100000000E-03 0.  1.
</event>
<event>
 8    1  0.1129676E+005  0.1043930E+01  0.7957747E-01            NaN
         13   -1    0    0    0    0  0.00000000000E+00  0.00000000000E+00  0.74505805969E-08  0.10566000000E+00  0.10566000000E+00 0.  1.
     999900   -1    0    0    0    0 -0.00000000000E+00 -0.00000000000E+00 -0.74505805969E-08  0.93827000000E+00  0.93827000000E+00 0. -1.
     999902    2    1    2    0    0  0.43301215339E-02 -0.21141371317E-01  0.77767218638E-02  0.10209912787E+01  0.10207335628E+01 0.  0.
     999903    2    3    3    0    0 -0.62777238857E-01  0.51788688464E-01  0.10022357405E+00  0.13061573322E+00  0.19815524157E-01 0.  0.
         14    1    1    2    0    0 -0.43301215339E-02  0.21141371317E-01 -0.77767218638E-02  0.22938721338E-01  0.00000000000E+00 0. -1.
     999901    1    3    3    0    0  0.67107360391E-01 -0.72930059781E-01 -0.92446852190E-01  0.89037554544E+00  0.88000000000E+00 0. -1.
        -11    1    4    4    0    0 -0.32284687168E-01  0.26433638971E-01  0.35891289418E-01  0.55040749195E-01  0.51100000000E-03 0.  1.
         11    1    4    4    0    0 -0.30492551689E-01  0.25355049493E-01  0.64332284636E-01  0.75574984027E-01  0.51100000000E-03 0. -1.
</event>
<event>
 8    1  0.1129676E+005  0.1043930E+01  0.7957747E-01            NaN
         13   -1    0    0    0    0  0.00000000000E+00  0.00000000000E+00  0.74505805969E-08  0.10566000000E+00  0.10566000000E+00 0. -1.
     999900   -1    0    0    0    0 -0.00000000000E+00 -0.00000000000E+00 -0.74505805969E-08  0.93827000000E+00  0.93827000000E+00 0. -1.
     999902    2    1    2    0    0 -0.27708600934E-01  0.10461244073E-01  0.18951402580E-03  0.10143117605E+01  0.10138792371E+01 0.  0.
     999903    2    3    3    0    0  0.47085225357E-01 -0.15784721020E-01 -0.11154846544E+00  0.12371176998E+00  0.19883813128E-01 0.  0.
         14    1    1    2    0    0  0.27708600934E-01 -0.10461244073E-01 -0.18951402580E-03  0.29618239462E-01  0.00000000000E+00 0.  1.
     999901    1    3    3    0    0 -0.74793826291E-01  0.26245965093E-01  0.11173797946E+00  0.89059999056E+00  0.88000000000E+00 0.  1.
        -11    1    4    4    0    0  0.18986883008E-02 -0.40263625220E-02 -0.24732534003E-01  0.25135154100E-01  0.51100000000E-03 0.  1.
         11    1    4    4    0    0  0.45186537056E-01 -0.11758358498E-01 -0.86815931434E-01  0.98576615876E-01  0.51100000000E-03 0. -1.
</event>
<event>
 8    1  0.1129676E+005  0.1043930E+01  0.7957747E-01            NaN
         13   -1    0    0    0    0  0.00000000000E+00  0.00000000000E+00  0.74505805969E-08  0.10566000000E+00  0.10566000000E+00 0. -1.
     999900   -1    0    0    0    0 -0.00000000000E+00 -0.00000000000E+00 -0.74505805969E-08  0.93827000000E+00  0.93827000000E+00 0.  1.
     999902    2    1    2    0    0  0.83417515864E-02  0.17735013500E-01  0.11399402094E-01  0.10212570670E+01  0.10210053550E+01 0.  0.
     999903    2    3    3    0    0  0.31635999550E-01 -0.10492572238E+00 -0.65444288696E-01  0.12912858357E+00  0.19519028846E-01 0.  0.
         14    1    1    2    0    0 -0.83417515864E-02 -0.17735013500E-01 -0.11399402094E-01  0.22672933014E-01  0.00000000000E+00 0.  1.
     999901    1    3    3    0    0 -0.23294247963E-01  0.12266073588E+00  0.76843690790E-01  0.89212848342E+00  0.88000000000E+00 0. -1.
        -11    1    4    4    0    0  0.48520956159E-02 -0.48122387770E-01 -0.31734445723E-01  0.57850178936E-01  0.51100000000E-03 0.  1.
         11    1    4    4    0    0  0.26783903934E-01 -0.56803334608E-01 -0.33709842973E-01  0.71278404631E-01  0.51100000000E-03 0. -1.
</event>
<event>
 8    1  0.1129676E+005  0.1043930E+01  0.7957747E-01            NaN
         13   -1    0    0    0    0  0.00000000000E+00  0.00000000000E+00  0.74505805969E-08  0.10566000000E+00  0.10566000000E+00 0. -1.
     999900   -1    0    0    0    0 -0.00000000000E+00 -0.00000000000E+00 -0.74505805969E-08  0.93827000000E+00  0.93827000000E+00 0.  1.
     999902    2    1    2    0    0  0.22792641889E-01 -0.50633992539E-02  0.29776360782E-02  0.10203926073E+01  0.10201211027E+01 0.  0.
     999903    2    3    3    0    0  0.83298556321E-01  0.82606770621E-01  0.54567143299E-01  0.13246890476E+00  0.28423749962E-01 0.  0.
         14    1    1    2    0    0 -0.22792641889E-01  0.50633992539E-02 -0.29776360782E-02  0.23537392653E-01  0.00000000000E+00 0.  1.
     999901    1    3    3    0    0 -0.60505914432E-01 -0.87670169875E-01 -0.51589507221E-01  0.88792370259E+00  0.88000000000E+00 0.  1.
        -11    1    4    4    0    0  0.98267257775E-02  0.15853765611E-01 -0.10364290373E-02  0.18688010319E-01  0.51100000000E-03 0.  1.
         11    1    4    4    0    0  0.73471830544E-01  0.66753005010E-01  0.55603572336E-01  0.11378089444E+00  0.51100000000E-03 0. -1.
</event>
<event>
 7    1  0.1129676E+005  0.1043930E+01  0.7957747E-01            NaN
         13   -1    0    0    0    0  0.00000000000E+00  0.00000000000E+00  0.74505805969E-08  0.10566000000E+00  0.10566000000E+00 0.  1.
     999900   -1    0    0    0    0 -0.00000000000E+00 -0.00000000000E+00 -0.74505805969E-08  0.93827000000E+00  0.93827000000E+00 0. -1.
     999902    2    1    2    0    0  0.23867380152E-02  0.16532523205E-01 -0.15623319214E-01  0.10210584250E+01  0.10208022327E+01 0.  0.
         14    1    1    2    0    0 -0.23867380152E-02 -0.16532523205E-01  0.15623319214E-01  0.22871575047E-01  0.00000000000E+00 0.  1.
     999901    1    3    3    0    0  0.65911853630E-01 -0.76696992902E-01  0.46186113123E-01  0.88699490315E+00  0.88000000000E+00 0.  1.
        -11    1    3    3    0    0 -0.45914533205E-01  0.50027308909E-01 -0.18443258602E-01  0.70365409861E-01  0.51100000000E-03 0. -1.
         11    1    3    3    0    0 -0.17610582410E-01  0.43202207198E-01 -0.43366173734E-01  0.63698111942E-01  0.51100000000E-03 0.  1.
</event>
<event>
 8    1  0.1129676E+005  0.1043930E+01  0.7957747E-01            NaN
         13   -1    0    0    0    0  0.00000000000E+00  0.00000000000E+00  0.74505805969E-08  0.10566000000E+00  0.10566000000E+00 0. -1.
     999900   -1    0    0    0    0 -0.00000000000E+00 -0.00000000000E+00 -0.74505805969E-08  0.93827000000E+00  0.93827000000E+00 0.  1.
     999902    2    1    2    0    0 -0.16123874580E-01 -0.13018581177E-01  0.17715145574E-01  0.10166666699E+01  0.10163010521E+01 0.  0.
     999903    2    3    3    0    0 -0.60563319768E-01 -0.86397691612E-01 -0.70929439847E-01  0.12806258442E+00  0.15380613623E-01 0.  0.
         14    1    1    2    0    0  0.16123874580E-01  0.13018581177E-01 -0.17715145574E-01  0.27263330135E-01  0.00000000000E+00 0.  1.
     999901    1    3    3    0    0  0.44439445188E-01  0.73379110435E-01  0.88644585421E-01  0.88860408544E+00  0.88000000000E+00 0. -1.
        -11    1    4    4    0    0 -0.33390964646E-01 -0.56898460789E-01 -0.50274609739E-01  0.82946903894E-01  0.51100000000E-03 0. -1.
         11    1    4    4    0    0 -0.27172355121E-01 -0.29499230823E-01 -0.20654830108E-01  0.45115680531E-01  0.51100000000E-03 0.  1.
</event>
<event>
 8    1  0.1129676E+005  0.1043930E+01  0.7957747E-01            NaN
         13   -1    0    0    0    0  0.00000000000E+00  0.00000000000E+00  0.74505805969E-08  0.10566000000E+00  0.10566000000E+00 0. -1.
     999900   -1    0    0    0    0 -0.00000000000E+00 -0.00000000000E+00 -0.74505805969E-08  0.93827000000E+00  0.93827000000E+00 0.  1.
     999902    2    1    2    0    0 -0.16448290495E-01 -0.12863084678E-01 -0.10641878612E-01  0.10204938146E+01  0.10202246668E+01 0.  0.
     999903    2    3    3    0    0  0.55461631030E-01  0.71095829441E-01  0.88623310876E-01  0.12804005446E+00  0.20237461167E-01 0.  0.
         14    1    1    2    0    0  0.16448290495E-01  0.12863084678E-01  0.10641878612E-01  0.23436185442E-01  0.00000000000E+00 0. -1.
     999901    1    3    3    0    0 -0.71909921525E-01 -0.83958914119E-01 -0.99265189488E-01  0.89245376010E+00  0.88000000000E+00 0.  1.
        -11    1    4    4    0    0  0.14813456440E-01  0.33913999561E-01  0.40812825944E-01  0.55095786958E-01  0.51100000000E-03 0.  1.
         11    1    4    4    0    0  0.40648174590E-01  0.37181829880E-01  0.47810484932E-01  0.72944267500E-01  0.51100000000E-03 0. -1.
</event>
<event>
 8    1  0.1129676E+005  0.1043930E+01  0.7957747E-01            NaN
         13   -1    0    0    0    0  0.00000000000E+00  0.00000000000E+00  0.74505805969E-08  0.10566000000E+00  0.10566000000E+00 0. -1.
     999900   -1    0    0    0    0 -0.00000000000E+00 -0.00000000000E+00 -0.74505805969E-08  0.93827000000E+00  0.93827000000E+00 0.  1.
     999902    2    1    2    0    0  0.15451242047E-01  0.14460487821E-01  0.12153618506E-01  0.10195259628E+01  0.10192338455E+01 0.  0.
     999903    2    3    3    0    0 -0.84289504226E-01  0.95965180676E-01 -0.12184440890E-01  0.12981613788E+00  0.19741647084E-01 0.  0.
         14    1    1    2    0    0 -0.15451242047E-01 -0.14460487821E-01 -0.12153618506E-01  0.24404037199E-01  0.00000000000E+00 0.  1.
     999901    1    3    3    0    0  0.99740746273E-01 -0.81504692856E-01  0.24338059395E-01  0.88970982492E+00  0.88000000000E+00 0.  1.
        -11    1    4    4    0    0 -0.58818248785E-01  0.77330694408E-01 -0.41602583470E-02  0.97248092826E-01  0.51100000000E-03 0.  1.
         11    1    4    4    0    0 -0.25471255441E-01  0.18634486269E-01 -0.80241825428E-02  0.32568045055E-01  0.51100000000E-03 0. -1.
</event>
<event>
 8    1  0.1129676E+005  0.1043930E+01  0.7957747E-01            NaN
         13   -1    0    0    0    0  0.00000000000E+00  0.00000000000E+00  0.74505805969E-08  0.10566000000E+00  0.10566000000E+00 0. -1.
     999900   -1    0    0    0    0 -0.00000000000E+00 -0.00000000000E+00 -0.74505805969E-08  0.93827000000E+00  0.93827000000E+00 0.  1.
     999902    2    1    2    0    0  0.12928771715E-01 -0.19124349493E-01 -0.53069001949E-02  0.10202433567E+01  0.10199683573E+01 0.  0.
     999903    2    3    3    0    0  0.12561059150E+00 -0.94641540926E-02 -0.34569218262E-01  0.13252335852E+00  0.22356627494E-01 0.  0.
         14    1    1    2    0    0 -0.12928771715E-01  0.19124349493E-01  0.53069001949E-02  0.23686643310E-01  0.00000000000E+00 0.  1.
     999901    1    3    3    0    0 -0.11268181979E+00 -0.96601954006E-02  0.29262318067E-01  0.88771999817E+00  0.88000000000E+00 0. -1.
        -11    1    4    4    0    0  0.19735648389E-01  0.17959426524E-02 -0.13504065361E-01  0.23986290452E-01  0.51100000000E-03 0.  1.
         11    1    4    4    0    0  0.10587494311E+00 -0.11260096745E-01 -0.21065152900E-01  0.10853706807E+00  0.51100000000E-03 0. -1.
</event>
<event>
 8    1  0.1129676E+005  0.1043930E+01  0.7957747E-01            NaN
         13   -1    0    0    0    0  0.00000000000E+00  0.00000000000E+00  0.74505805969E-08  0.10566000000E+00  0.10566000000E+00 0.  1.
     999900   -1    0    0    0    0 -0.00000000000E+00 -0.00000000000E+00 -0.74505805969E-08  0.93827000000E+00  0.93827000000E+00 0.  1.
     999902    2    1    2    0    0 -0.11458325073E-01 -0.21016986391E-01  0.14039078445E-02  0.10199513035E+01  0.10196693991E+01 0.  0.
     999903    2    3    3    0    0 -0.41178015657E-01 -0.11097375584E+00 -0.57304129499E-01  0.13292136370E+00  0.19326722748E-01 0.  0.
         14    1    1    2    0    0  0.11458325073E-01  0.21016986391E-01 -0.14039078445E-02  0.23978696538E-01  0.00000000000E+00 0. -1.
     999901    1    3    3    0    0  0.29719690584E-01  0.89956769451E-01  0.58708037343E-01  0.88702993976E+00  0.88000000000E+00 0. -1.
        -11    1    4    4    0    0 -0.36248464114E-01 -0.76441607647E-01 -0.45698974393E-01  0.96155748200E-01  0.51100000000E-03 0.  1.
         11    1    4    4    0    0 -0.49295515430E-02 -0.34532148195E-01 -0.11605155105E-01  0.36765615504E-01  0.51100000000E-03 0. -1.
</event>
<event>
 8    1  0.1129676E+005  0.1043930E+01  0.7957747E-01            NaN
         13   -1    0    0    0    0  0.00000000000E+00  0.00000000000E+00  0.74505805969E-08  0.10566000000E+00  0.10566000000E+00 0.  1.
     999900   -1    0    0    0    0 -0.00000000000E+00 -0.00000000000E+00 -0.74505805969E-08  0.93827000000E+00  0.93827000000E+00 0. -1.
     999902    2    1    2    0    0 -0.70136022892E-02  0.20663289516E-01  0.50750621150E-02  0.10215264644E+01  0.10212807641E+01 0.  0.
     999903    2    3    3    0    0 -0.60154804663E-01  0.11008993652E+00  0.44316505127E-01  0.13453097209E+00  0.19905656922E-01 0.  0.
         14    1    1    2    0    0  0.70136022892E-02 -0.20663289516E-01 -0.50750621150E-02  0.22403535573E-01  0.00000000000E+00 0. -1.
     999901    1    3    3    0    0  0.53141202374E-01 -0.89426647001E-01 -0.39241443012E-01  0.88699549234E+00  0.88000000000E+00 0.  1.
        -11    1    4    4    0    0 -0.17788709174E-01  0.25132908702E-01  0.19338707986E-01  0.36364103474E-01  0.51100000000E-03 0. -1.
         11    1    4    4    0    0 -0.42366095489E-01  0.84957027815E-01  0.24977797141E-01  0.98166868612E-01  0.51100000000E-03 0.  1.
</event>
<event>
 8    1  0.1129676E+005  0.1043930E+01  0.7957747E-01            NaN
         13   -1    0    0    0    0  0.00000000000E+00  0.00000000000E+00  0.74505805969E-08  0.10566000000E+00  0.10566000000E+00 0.  1.
     999900   -1    0    0    0    0 -0.00000000000E+00 -0.00000000000E+00 -0.74505805969E-08  0.93827000000E+00  0.93827000000E+00 0. -1.
     999902    2    1    2    0    0  0.91857261907E-02 -0.86994640237E-02  0.20589118690E-01  0.10197645278E+01  0.10194781616E+01 0.  0.
     999903    2    3    3    0    0  0.52807809899E-01  0.75665215194E-01  0.91971443670E-01  0.13178045043E+00  0.19835601504E-01 0.  0.
         14    1    1    2    0    0 -0.91857261907E-02  0.86994640237E-02 -0.20589118690E-01  0.24165472236E-01  0.00000000000E+00 0. -1.
     999901    1    3    3    0    0 -0.43622083709E-01 -0.84364679217E-01 -0.71382324980E-01  0.88798407734E+00  0.88000000000E+00 0. -1.
        -11    1    4    4    0    0  0.56932827174E-02  0.85005250126E-02  0.28236721258E-02  0.10625753567E-01  0.51100000000E-03 0.  1.
         11    1    4    4    0    0  0.47114527182E-01  0.67164690181E-01  0.89147771544E-01  0.12115469686E+00  0.51100000000E-03 0. -1.
</event>
<event>
 8    1  0.1129676E+005  0.1043930E+01  0.7957747E-01            NaN
         13   -1    0    0    0    0  0.00000000000E+00  0.00000000000E+00  0.74505805969E-08  0.10566000000E+00  0.10566000000E+00 0. -1.
     999900   -1    0    0    0    0 -0.00000000000E+00 -0.00000000000E+00 -0.74505805969E-08  0.93827000000E+00  0.93827000000E+00 0.  1.
     999902    2    1    2    0    0 -0.14859511500E-02  0.15487315752E-01  0.18431096970E-01  0.10198100843E+01  0.10195248097E+01 0.  0.
     999903    2    3    3    0    0  0.10103781162E+00 -0.38874357430E-01  0.70090810121E-01  0.13068971029E+00  0.21147663443E-01 0.  0.
         14    1    1    2    0    0  0.14859511500E-02 -0.15487315752E-01 -0.18431096970E-01  0.24119915744E-01  0.00000000000E+00 0.  1.
     999901    1    3    3    0    0 -0.10252376277E+00  0.54361673181E-01 -0.51659713151E-01  0.88912037397E+00  0.88000000000E+00 0. -1.
        -11    1    4    4    0    0  0.18493986254E-01 -0.16409202600E-01  0.14518364269E-01  0.28676357502E-01  0.51100000000E-03 0. -1.
         11    1    4    4    0    0  0.82543825365E-01 -0.22465154829E-01  0.55572445852E-01  0.10201335278E+00  0.51100000000E-03 0.  1.
</event>
<event>
 8    1  0.1129676E+005  0.1043930E+01  0.7957747E-01            NaN
         13   -1    0    0    0    0  0.00000000000E+00  0.00000000000E+00  0.74505805969E-08  0.10566000000E+00  0.10566000000E+00 0. -1.
     999900   -1    0    0    0    0 -0.00000000000E+00 -0.00000000000E+00 -0.74505805969E-08  0.93827000000E+00  0.93827000000E+00 0.  1.
     999902    2    1    2    0    0  0.13217234690E-01 -0.10437496340E-01 -0.16027633617E-01  0.10206808783E+01  0.10204160590E+01 0.  0.
     999903    2    3    3    0    0  0.62522750324E-01  0.11277768024E+00  0.27640932808E-02  0.13053137249E+00  0.20072357213E-01 0.  0.
         14    1    1    2    0    0 -0.13217234690E-01  0.10437496340E-01  0.16027633617E-01  0.23249121748E-01  0.00000000000E+00 0. -1.
     999901    1    3    3    0    0 -0.49305515634E-01 -0.12321517658E+00 -0.18791726898E-01  0.89014950576E+00  0.88000000000E+00 0.  1.
        -11    1    4    4    0    0  0.41172960372E-01  0.82663845368E-01  0.10066280763E-01  0.92898412937E-01  0.51100000000E-03 0. -1.
         11    1    4    4    0    0  0.21349789951E-01  0.30113834870E-01 -0.73021874823E-02  0.37632959551E-01  0.51100000000E-03 0.  1.
</event>
<event>
 8    1  0.1129676E+005  0.1043930E+01  0.7957747E-01            NaN
         13   -1    0    0    0    0  0.00000000000E+00  0.00000000000E+00  0.74505805969E-08  0.10566000000E+00  0.10566000000E+00 0. -1.
     999900   -1    0    0    0    0 -0.00000000000E+00 -0.00000000000E+00 -0.74505805969E-08  0.93827000000E+00  0.93827000000E+00 0.  1.
     999902    2    1    2    0    0  0.19605694686E-01  0.81602659902E-02  0.11050951617E-01  0.10199905611E+01  0.10197095900E+01 0.  0.
     999903    2    3    3    0    0 -0.83818125768E-01  0.93780284098E-01  0.25016362747E-01  0.12969717860E+00  0.19373173199E-01 0.  0.
         14    1    1    2    0    0 -0.19605694686E-01 -0.81602659902E-02 -0.11050951617E-01  0.23939438940E-01  0.00000000000E+00 0.  1.
     999901    1    3    3    0    0  0.10342382045E+00 -0.85620018108E-01 -0.13965411130E-01  0.89029338246E+00  0.88000000000E+00 0. -1.
        -11    1    4    4    0    0 -0.65564952274E-01  0.71639052274E-01  0.10931515545E-01  0.97727559728E-01  0.51100000000E-03 0.  1.
         11    1    4    4    0    0 -0.18253173494E-01  0.22141231824E-01  0.14084847202E-01  0.31969618875E-01  0.51100000000E-03 0. -1.
</event>
<event>
 8    1  0.1129676E+005  0.1043930E+01  0.7957747E-01            NaN
         13   -1    0    0    0    0  0.00000000000E+00  0.00000000000E+00  0.74505805969E-08  0.10566000000E+00  0.10566000000E+00 0.  1.
     999900   -1    0    0    0    0 -0.00000000000E+00 -0.00000000000E+00 -0.74505805969E-08  0.93827000000E+00  0.93827000000E+00 0.  1.
     999902    2    1    2    0    0  0.11710446761E-01 -0.18976007837E-01 -0.30842215539E-03  0.10216293596E+01  0.10213859358E+01 0.  0.
     999903    2    3    3    0    0  0.88490208215E-01 -0.36078407154E-01  0.90938455029E-01  0.13342126665E+00  0.19981575994E-01 0.  0.
         14    1    1    2    0    0 -0.11710446761E-01  0.18976007837E-01  0.30842215539E-03  0.22300640372E-01  0.00000000000E+00 0. -1.
     999901    1    3    3    0    0 -0.76779761454E-01  0.17102399317E-01 -0.91246877185E-01  0.88820809298E+00  0.88000000000E+00 0.  1.
        -11    1    4    4    0    0  0.11392684157E-01  0.17874996672E-02  0.13601837426E-01  0.17839829308E-01  0.51100000000E-03 0.  1.
         11    1    4    4    0    0  0.77097524058E-01 -0.37865906821E-01  0.77336617603E-01  0.11558143734E+00  0.51100000000E-03 0. -1.
</event>
<event>
 8    1  0.1129676E+005  0.1043930E+01  0.7957747E-01            NaN
         13   -1    0    0    0    0  0.00000000000E+00  0.00000000000E+00  0.74505805969E-08  0.10566000000E+00  0.10566000000E+00 0.  1.
     999900   -1    0    0    0    0 -0.00000000000E+00 -0.00000000000E+00 -0.74505805969E-08  0.93827000000E+00  0.93827000000E+00 0.  1.
     999902    2    1    2    0    0 -0.10634035334E-01  0.12025841163E-01 -0.41479262641E-02  0.10273496244E+01  0.10272158205E+01 0.  0.
     999903    2    3    3    0    0 -0.75814885617E-01  0.10689589766E+00 -0.43538513900E-01  0.13898005644E+00  0.15659632070E-01 0.  0.
         14    1    1    2    0    0  0.10634035334E-01 -0.12025841163E-01  0.41479262641E-02  0.16580375612E-01  0.00000000000E+00 0.  1.
     999901    1    3    3    0    0  0.65180850283E-01 -0.94870056501E-01  0.39390587636E-01  0.88836956795E+00  0.88000000000E+00 0. -1.
        -11    1    4    4    0    0 -0.54195602666E-01  0.77116203454E-01 -0.23788501345E-01  0.97212273405E-01  0.51100000000E-03 0. -1.
         11    1    4    4    0    0 -0.21619282951E-01  0.29779694210E-01 -0.19750012555E-01  0.41767783033E-01  0.51100000000E-03 0.  1.
</event>
<event>
 8    1  0.1129676E+005  0.1043930E+01  0.7957747E-01            NaN
         13   -1    0    0    0    0  0.00000000000E+00  0.00000000000E+00  0.74505805969E-08  0.10566000000E+00  0.10566000000E+00 0.  1.
     999900   -1    0    0    0    0 -0.00000000000E+00 -0.00000000000E+00 -0.74505805969E-08  0.93827000000E+00  0.93827000000E+00 0.  1.
     999902    2    1    2    0    0 -0.15984920051E-01  0.58369982573E-02  0.15729081869E-01  0.10207569071E+01  0.10204938369E+01 0.  0.
     999903    2    3    3    0    0  0.58352133012E-02  0.72562068362E-01 -0.10512907378E+00  0.12972657823E+00  0.21853134025E-01 0.  0.
         14    1    1    2    0    0  0.15984920051E-01 -0.58369982573E-02 -0.15729081869E-01  0.23173092891E-01  0.00000000000E+00 0. -1.
     999901    1    3    3    0    0 -0.21820133352E-01 -0.66725070104E-01  0.12085815564E+00  0.89103032888E+00  0.88000000000E+00 0. -1.
        -11    1    4    4    0    0 -0.17694690988E-02  0.28755305177E-01 -0.25280528232E-01  0.38332294810E-01  0.51100000000E-03 0.  1.
         11    1    4    4    0    0  0.76046824001E-02  0.43806763185E-01 -0.79848545543E-01  0.91394283418E-01  0.51100000000E-03 0. -1.
</event>
<event>
 8    1  0.1129676E+005  0.1043930E+01  0.7957747E-01            NaN
         13   -1    0    0    0    0  0.00000000000E+00  0.00000000000E+00  0.74505805969E-08  0.10566000000E+00  0.10566000000E+00 0. -1.
     999900   -1    0    0    0    0 -0.00000000000E+00 -0.00000000000E+00 -0.74505805969E-08  0.93827000000E+00  0.93827000000E+00 0.  1.
     999902    2    1    2    0    0 -0.12981065458E-01 -0.10919048081E-01 -0.14600936984E-01  0.10215487348E+01  0.10213035281E+01 0.  0.
     999903    2    3    3    0    0  0.12504551283E+00  0.27390190392E-01 -0.69493622873E-02  0.12993363809E+00  0.21162558046E-01 0.  0.
         14    1    1    2    0    0  0.12981065458E-01  0.10919048081E-01  0.14600936984E-01  0.22381265206E-01  0.00000000000E+00 0. -1.
     999901    1    3    3    0    0 -0.13802657829E+00 -0.38309238473E-01 -0.76515746971E-02  0.89161509670E+00  0.88000000000E+00 0. -1.
        -11    1    4    4    0    0  0.10093663673E+00  0.13298805582E-01 -0.60374135116E-02  0.10198908935E+00  0.51100000000E-03 0.  1.
         11    1    4    4    0    0  0.24108876105E-01  0.14091384810E-01 -0.91194877571E-03  0.27944548743E-01  0.51100000000E-03 0. -1.
</event>
<event>
 7    1  0.1361542E+005  0.1043930E+01  0.7957747E-01            NaN
         13   -1    0    0    0    0  0.00000000000E+00  0.00000000000E+00  0.74505805969E-08  0.10566000000E+00  0.10566000000E+00 0.  1.
     999900   -1    0    0    0    0 -0.00000000000E+00 -0.00000000000E+00 -0.74505805969E-08  0.93827000000E+00  0.93827000000E+00 0. -1.
     999903    2    1    2    0    0  0.35065145634E-01  0.78211728138E-01  0.17114426184E-01  0.89921941282E-01  0.21128489854E-01 0.  0.
         14    1    1    2    0    0  0.40679787508E-01  0.28318255542E-01  0.38284928344E-01  0.62629900582E-01  0.00000000000E+00 0.  1.
     999901    1    1    2    0    0 -0.75744933143E-01 -0.10652998368E+00 -0.55399354527E-01  0.89137815814E+00  0.88000000000E+00 0. -1.
        -11    1    3    3    0    0  0.23209426503E-01  0.26688445796E-01  0.56456130760E-02  0.35820171490E-01  0.51100000000E-03 0. -1.
         11    1    3    3    0    0  0.11855719132E-01  0.51523282342E-01  0.11468813107E-01  0.54101769791E-01  0.51100000000E-03 0.  1.
</event>
<event>
 8    1  0.1129676E+005  0.1043930E+01  0.7957747E-01            NaN
         13   -1    0    0    0    0  0.00000000000E+00  0.00000000000E+00  0.74505805969E-08  0.10566000000E+00  0.10566000000E+00 0. -1.
     999900   -1    0    0    0    0 -0.00000000000E+00 -0.00000000000E+00 -0.74505805969E-08  0.93827000000E+00  0.93827000000E+00 0.  1.
     999902    2    1    2    0    0 -0.16998906534E-01  0.13932664486E-01  0.14782148445E-01  0.10174423826E+01  0.10170975411E+01 0.  0.
     999903    2    3    3    0    0  0.97286060508E-01 -0.10028536602E-01 -0.76033409464E-01  0.12509566836E+00  0.17398211758E-01 0.  0.
         14    1    1    2    0    0  0.16998906534E-01 -0.13932664486E-01 -0.14782148445E-01  0.26487617404E-01  0.00000000000E+00 0.  1.
     999901    1    3    3    0    0 -0.11428496704E+00  0.23961201088E-01  0.90815557909E-01  0.89234671424E+00  0.88000000000E+00 0. -1.
        -11    1    4    4    0    0  0.53447511492E-01 -0.13071430237E-01 -0.47563971909E-01  0.72733013948E-01  0.51100000000E-03 0. -1.
         11    1    4    4    0    0  0.43838549016E-01  0.30428936352E-02 -0.28469437555E-01  0.52362654413E-01  0.51100000000E-03 0.  1.
</event>
<event>
 8    1  0.1129676E+005  0.1043930E+01  0.7957747E-01            NaN
         13   -1    0    0    0    0  0.00000000000E+00  0.00000000000E+00  0.74505805969E-08  0.10566000000E+00  0.10566000000E+00 0.  1.
     999900   -1    0    0    0    0 -0.00000000000E+00 -0.00000000000E+00 -0.74505805969E-08  0.93827000000E+00  0.93827000000E+00 0.  1.
     999902    2    1    2    0    0  0.74001731174E-02  0.17420177824E-01 -0.13921405530E-01  0.10204346666E+01  0.10201641428E+01 0.  0.
     999903    2    3    3    0    0  0.27525898108E-01  0.96110023042E-01 -0.86707974543E-01  0.13370188774E+00  0.19055454367E-01 0.  0.
         14    1    1    2    0    0 -0.74001731174E-02 -0.17420177824E-01  0.13921405530E-01  0.23495333357E-01  0.00000000000E+00 0.  1.
     999901    1    3    3    0    0 -0.20125724991E-01 -0.78689845217E-01  0.72786569013E-01  0.88673277890E+00  0.88000000000E+00 0. -1.
        -11    1    4    4    0    0  0.81816986837E-02  0.25960382113E-01 -0.13158797741E-01  0.30237339695E-01  0.51100000000E-03 0. -1.
         11    1    4    4    0    0  0.19344199425E-01  0.70149640928E-01 -0.73549176802E-01  0.10346454805E+00  0.51100000000E-03 0.  1.
</event>
<event>
 8    1  0.1129676E+005  0.1043930E+01  0.7957747E-01            NaN
         13   -1    0    0    0    0  0.00000000000E+00  0.00000000000E+00  0.74505805969E-08  0.10566000000E+00  0.10566000000E+00 0. -1.
     999900   -1    0    0    0    0 -0.00000000000E+00 -0.00000000000E+00 -0.74505805969E-08  0.93827000000E+00  0.93827000000E+00 0. -1.
     999902    2    1    2    0    0  0.23163348581E-01  0.19364191852E-02  0.66495937052E-02  0.10197534094E+01  0.10194667765E+01 0.  0.
     999903    2    3    3    0    0 -0.34303262070E-01 -0.53992703364E-01 -0.10939899984E+00  0.12851957131E+00  0.21382545167E-01 0.  0.
         14    1    1    2    0    0 -0.23163348581E-01 -0.19364191852E-02 -0.66495937052E-02  0.24176590603E-01  0.00000000000E+00 0.  1.
     999901    1    3    3    0    0  0.57466610651E-01  0.55929122549E-01  0.11604859355E+00  0.89123383809E+00  0.88000000000E+00 0.  1.
        -11    1    4    4    0    0 -0.20641090112E-01 -0.26362832109E-01 -0.76100703796E-01  0.83142238105E-01  0.51100000000E-03 0. -1.
         11    1    4    4    0    0 -0.13662171958E-01 -0.27629871254E-01 -0.33298296046E-01  0.45377333204E-01  0.51100000000E-03 0.  1.
</event>
<event>
 8    1  0.1129676E+005  0.1043930E+01  0.7957747E-01            NaN
         13   -1    0    0    0    0  0.00000000000E+00  0.00000000000E+00  0.74505805969E-08  0.10566000000E+00  0.10566000000E+00 0. -1.
     999900   -1    0    0    0    0 -0.00000000000E+00 -0.00000000000E+00 -0.74505805969E-08  0.93827000000E+00  0.93827000000E+00 0. -1.
     999902    2    1    2    0    0  0.15404123263E-01  0.87879585059E-02  0.15750739013E-01  0.10202107882E+01  0.10199350231E+01 0.  0.
     999903    2    3    3    0    0  0.49429342639E-01 -0.10445422694E+00  0.59172959306E-01  0.13124116144E+00  0.19205673737E-01 0.  0.
         14    1    1    2    0    0 -0.15404123263E-01 -0.87879585059E-02 -0.15750739013E-01  0.23719211784E-01  0.00000000000E+00 0. -1.
     999901    1    3    3    0    0 -0.34025219377E-01  0.11324218544E+00 -0.43422220293E-01  0.88896962678E+00  0.88000000000E+00 0. -1.
        -11    1    4    4    0    0  0.32126874150E-01 -0.46432967674E-01  0.31644631378E-01  0.64728667109E-01  0.51100000000E-03 0.  1.
         11    1    4    4    0    0  0.17302468489E-01 -0.58021259264E-01  0.27528327928E-01  0.66512494329E-01  0.51100000000E-03 0. -1.
</event>
<event>
 8    1  0.1129676E+005  0.1043930E+01  0.7957747E-01            NaN
         13   -1    0    0    0    0  0.00000000000E+00  0.00000000000E+00  0.74505805969E-08  0.10566000000E+00  0.10566000000E+00 0.  1.
     999900   -1    0    0    0    0 -0.00000000000E+00 -0.00000000000E+00 -0.74505805969E-08  0.93827000000E+00  0.93827000000E+00 0. -1.
     999902    2    1    2    0    0  0.16377029859E-02  0.21004041366E-01  0.11198973612E-01  0.10200706447E+01  0.10197915725E+01 0.  0.
     999903    2    3    3    0    0 -0.28852311928E-01 -0.89263861505E-01 -0.83229548520E-01  0.12765516008E+00  0.23836721145E-01 0.  0.
         14    1    1    2    0    0 -0.16377029859E-02 -0.21004041366E-01 -0.11198973612E-01  0.23859355287E-01  0.00000000000E+00 0.  1.
     999901    1    3    3    0    0  0.30490014914E-01  0.11026790287E+00  0.94428522132E-01  0.89241548463E+00  0.88000000000E+00 0.  1.
        -11    1    4    4    0    0  0.22878702148E-02 -0.22366812918E-01 -0.14119471108E-01  0.26554270007E-01  0.51100000000E-03 0. -1.
         11    1    4    4    0    0 -0.31140182143E-01 -0.66897048586E-01 -0.69110077412E-01  0.10110089008E+00  0.51100000000E-03 0.  1.
</event>
<event>
 8    1  0.1129676E+005  0.1043930E+01  0.7957747E-01            NaN
         13   -1    0    0    0    0  0.00000000000E+00  0.00000000000E+00  0.74505805969E-08  0.10566000000E+00  0.10566000000E+00 0.  1.
     999900   -1    0    0    0    0 -0.00000000000E+00 -0.00000000000E+00 -0.74505805969E-08  0.93827000000E+00  0.93827000000E+00 0.  1.
     999902    2    1    2    0    0 -0.18014621631E-01 -0.61336708275E-02  0.16383812404E-01  0.10188186914E+01  0.10185091792E+01 0.  0.
     999903    2    3    3    0    0  0.10543426628E-01 -0.12246735144E+00  0.38316770549E-01  0.13043243419E+00  0.20857348056E-01 0.  0.
         14    1    1    2    0    0  0.18014621631E-01  0.61336708275E-02 -0.16383812404E-01  0.25111308592E-01  0.00000000000E+00 0. -1.
     999901    1    3    3    0    0 -0.28558048259E-01  0.11633368062E+00 -0.21932958145E-01  0.88838625722E+00  0.88000000000E+00 0. -1.
        -11    1    4    4    0    0 -0.57395677439E-02 -0.40635652362E-01  0.92021315074E-02  0.42061136766E-01  0.51100000000E-03 0. -1.
         11    1    4    4    0    0  0.16282994372E-01 -0.81831699082E-01  0.29114639042E-01  0.88371297421E-01  0.51100000000E-03 0.  1.
</event>
<event>
 8    1  0.1129676E+005  0.1043930E+01  0.7957747E-01            NaN
         13   -1    0    0    0    0  0.00000000000E+00  0.00000000000E+00  0.74505805969E-08  0.10566000000E+00  0.10566000000E+00 0.  1.
     999900   -1    0    0    0    0 -0.00000000000E+00 -0.00000000000E+00 -0.74505805969E-08  0.93827000000E+00  0.93827000000E+00 0.  1.
     999902    2    1    2    0    0 -0.38643224834E-02 -0.23113526428E-01  0.54044313770E-02  0.10198805516E+01  0.10195969613E+01 0.  0.
     999903    2    3    3    0    0 -0.58211270001E-01  0.70087463282E-01 -0.87941423607E-01  0.12839108788E+00  0.21207852264E-01 0.  0.
         14    1    1    2    0    0  0.38643224834E-02  0.23113526428E-01 -0.54044313770E-02  0.24049448449E-01  0.00000000000E+00 0. -1.
     999901    1    3    3    0    0  0.54346947518E-01 -0.93200989709E-01  0.93345854984E-01  0.89148946367E+00  0.88000000000E+00 0.  1.
        -11    1    4    4    0    0 -0.31828508034E-01  0.52984104897E-01 -0.53443282383E-01  0.81711779128E-01  0.51100000000E-03 0. -1.
         11    1    4    4    0    0 -0.26382761967E-01  0.17103358385E-01 -0.34498141224E-01  0.46679308756E-01  0.51100000000E-03 0.  1.
</event>
<event>
 8    1  0.1129676E+005  0.1043930E+01  0.7957747E-01            NaN
         13   -1    0    0    0    0  0.00000000000E+00  0.00000000000E+00  0.74505805969E-08  0.10566000000E+00  0.10566000000E+00 0. -1.
     999900   -1    0    0    0    0 -0.00000000000E+00 -0.00000000000E+00 -0.74505805969E-08  0.93827000000E+00  0.93827000000E+00 0.  1.
     999902    2    1    2    0    0  0.12557006915E-01  0.10310338568E-01  0.16909461257E-01  0.10204798106E+01  0.10202103373E+01 0.  0.
     999903    2    3    3    0    0  0.61219076073E-01  0.18825927300E-01  0.11536904386E+00  0.13361183752E+00  0.20974175323E-01 0.  0.
         14    1    1    2    0    0 -0.12557006915E-01 -0.10310338568E-01 -0.16909461257E-01  0.23450189425E-01  0.00000000000E+00 0.  1.
     999901    1    3    3    0    0 -0.48662069158E-01 -0.85155887319E-02 -0.98459582602E-01  0.88686797306E+00  0.88000000000E+00 0.  1.
        -11    1    4    4    0    0  0.23334112431E-01  0.17847189875E-01  0.54236292587E-01  0.61683381425E-01  0.51100000000E-03 0.  1.
         11    1    4    4    0    0  0.37884963643E-01  0.97873742431E-03  0.61132751272E-01  0.71928456095E-01  0.51100000000E-03 0. -1.
</event>
<event>
 8    1  0.1129676E+005  0.1043930E+01  0.7957747E-01            NaN
         13   -1    0    0    0    0  0.00000000000E+00  0.00000000000E+00  0.74505805969E-08  0.10566000000E+00  0.10566000000E+00 0. -1.
     999900   -1    0    0    0    0 -0.00000000000E+00 -0.00000000000E+00 -0.74505805969E-08  0.93827000000E+00  0.93827000000E+00 0. -1.
     999902    2    1    2    0    0 -0.11961609814E-01  0.14655146852E-01 -0.15863140740E-01  0.10192420946E+01  0.10189430577E+01 0.  0.
     999903    2    3    3    0    0  0.78310618425E-01  0.78979786786E-02  0.97877691440E-01  0.12731625048E+00  0.20843563271E-01 0.  0.
         14    1    1    2    0    0  0.11961609814E-01 -0.14655146852E-01  0.15863140740E-01  0.24687905393E-01  0.00000000000E+00 0.  1.
     999901    1    3    3    0    0 -0.90272228238E-01  0.67571681729E-02 -0.11374083218E+00  0.89192584412E+00  0.88000000000E+00 0. -1.
        -11    1    4    4    0    0  0.32199632042E-01  0.62302079602E-02  0.25793223021E-01  0.41727488178E-01  0.51100000000E-03 0. -1.
         11    1    4    4    0    0  0.46110986383E-01  0.16677707183E-02  0.72084468420E-01  0.85588762304E-01  0.51100000000E-03 0.  1.
</event>
<event>
 8    1  0.1129676E+005  0.1043930E+01  0.7957747E-01            NaN
         13   -1    0    0    0    0  0.00000000000E+00  0.00000000000E+00  0.74505805969E-08  0.10566000000E+00  0.10566000000E+00 0. -1.
     999900   -1    0    0    0    0 -0.00000000000E+00 -0.00000000000E+00 -0.74505805969E-08  0.93827000000E+00  0.93827000000E+00 0. -1.
     999902    2    1    2    0    0 -0.78438828587E-02  0.19203344909E-01  0.97526676086E-02  0.10210081877E+01  0.10207508559E+01 0.  0.
     999903    2    3    3    0    0  0.29436766576E-01 -0.11863787775E+00 -0.33920028192E-01  0.12842914142E+00  0.20050106997E-01 0.  0.
         14    1    1    2    0    0  0.78438828587E-02 -0.19203344909E-01 -0.97526676086E-02  0.22921812308E-01  0.00000000000E+00 0.  1.
     999901    1    3    3    0    0 -0.37280649434E-01  0.13784122266E+00  0.43672695800E-01  0.89257904627E+00  0.88000000000E+00 0. -1.
        -11    1    4    4    0    0  0.22920580240E-01 -0.56914074262E-01 -0.22281000037E-01  0.65278395593E-01  0.51100000000E-03 0.  1.
         11    1    4    4    0    0  0.65161863354E-02 -0.61723803485E-01 -0.11639028155E-01  0.63150745827E-01  0.51100000000E-03 0. -1.
</event>
<event>
 8    1  0.1129676E+005  0.1043930E+01  0.7957747E-01            NaN
         13   -1    0    0    0    0  0.00000000000E+00  0.00000000000E+00  0.74505805969E-08  0.10566000000E+00  0.10566000000E+00 0.  1.
     999900   -1    0    0    0    0 -0.00000000000E+00 -0.00000000000E+00 -0.74505805969E-08  0.93827000000E+00  0.93827000000E+00 0. -1.
     999902    2    1    2    0    0 -0.23462510636E-01 -0.47953925635E-02 -0.49334769547E-02  0.10194795524E+01  0.10191863094E+01 0.  0.
     999903    2    3    3    0    0 -0.11541980912E+00  0.29144640161E-01  0.53808812392E-01  0.13209083983E+00  0.19530982787E-01 0.  0.
         14    1    1    2    0    0  0.23462510636E-01  0.47953925635E-02  0.49334769547E-02  0.24450447645E-01  0.00000000000E+00 0.  1.
     999901    1    3    3    0    0  0.91957298480E-01 -0.33940032724E-01 -0.58742289346E-01  0.88738871253E+00  0.88000000000E+00 0. -1.
        -11    1    4    4    0    0 -0.91142995760E-01  0.22041216620E-01  0.33253751389E-01  0.99493386758E-01  0.51100000000E-03 0.  1.
         11    1    4    4    0    0 -0.24276813356E-01  0.71034235409E-02  0.20555061002E-01  0.32597453069E-01  0.51100000000E-03 0. -1.
</event>
<event>
 8    1  0.1129676E+005  0.1043930E+01  0.7957747E-01            NaN
         13   -1    0    0    0    0  0.00000000000E+00  0.00000000000E+00  0.74505805969E-08  0.10566000000E+00  0.10566000000E+00 0. -1.
     999900   -1    0    0    0    0 -0.00000000000E+00 -0.00000000000E+00 -0.74505805969E-08  0.93827000000E+00  0.93827000000E+00 0. -1.
     999902    2    1    2    0    0 -0.20169592898E-01 -0.16618018630E-01  0.52255748104E-02  0.10172789653E+01  0.10169297987E+01 0.  0.
     999903    2    3    3    0    0 -0.82200359458E-01  0.69084140689E-01  0.67985808002E-01  0.12872310152E+00  0.20446251122E-01 0.  0.
         14    1    1    2    0    0  0.20169592898E-01  0.16618018630E-01 -0.52255748104E-02  0.26651034745E-01  0.00000000000E+00 0.  1.
     999901    1    3    3    0    0  0.62030766561E-01 -0.85702159319E-01 -0.62760233192E-01  0.88855586374E+00  0.88000000000E+00 0. -1.
        -11    1    4    4    0    0 -0.46683199647E-01  0.51869824864E-01  0.41606702194E-01  0.81247637807E-01  0.51100000000E-03 0.  1.
         11    1    4    4    0    0 -0.35517159811E-01  0.17214315825E-01  0.26379105808E-01  0.47475463711E-01  0.51100000000E-03 0. -1.
</event>
<event>
 8    1  0.1129676E+005  0.1043930E+01  0.7957747E-01            NaN
         13   -1    0    0    0    0  0.00000000000E+00  0.00000000000E+00  0.74505805969E-08  0.10566000000E+00  0.10566000000E+00 0. -1.
     999900   -1    0    0    0    0 -0.00000000000E+00 -0.00000000000E+00 -0.74505805969E-08  0.93827000000E+00  0.93827000000E+00 0. -1.
     999902    2    1    2    0    0  0.12993465838E-01  0.89878383903E-02  0.16944705547E-01  0.10207624701E+01  0.10204995277E+01 0.  0.
     999903    2    3    3    0    0  0.19761741201E-02 -0.12375726638E+00 -0.31946354451E-01  0.12939667581E+00  0.20078941790E-01 0.  0.
         14    1    1    2    0    0 -0.12993465838E-01 -0.89878383903E-02 -0.16944705547E-01  0.23167529853E-01  0.00000000000E+00 0.  1.
     999901    1    3    3    0    0  0.11017291718E-01  0.13274510477E+00  0.48891059998E-01  0.89136579433E+00  0.88000000000E+00 0.  1.
        -11    1    4    4    0    0  0.67628170396E-03 -0.42155052795E-01 -0.20832225327E-01  0.47029230976E-01  0.51100000000E-03 0. -1.
         11    1    4    4    0    0  0.12998924161E-02 -0.81602213585E-01 -0.11114129124E-01  0.82367444839E-01  0.51100000000E-03 0.  1.
</event>
<event>
 8    1  0.1129676E+005  0.1043930E+01  0.7957747E-01            NaN
         13   -1    0    0    0    0  0.00000000000E+00  0.00000000000E+00  0.74505805969E-08  0.10566000000E+00  0.10566000000E+00 0.  1.
     999900   -1    0    0    0    0 -0.00000000000E+00 -0.00000000000E+00 -0.74505805969E-08  0.93827000000E+00  0.93827000000E+00 0. -1.
     999902    2    1    2    0    0 -0.14858960024E-01 -0.38444053884E-02 -0.15203294479E-01  0.10223265672E+01  0.10220982838E+01 0.  0.
     999903    2    3    3    0    0 -0.12522415540E+00  0.25109096230E-01 -0.37275183158E-01  0.13468590236E+00  0.20959418048E-01 0.  0.
         14    1    1    2    0    0  0.14858960024E-01  0.38444053884E-02  0.15203294479E-01  0.21603432801E-01  0.00000000000E+00 0.  1.
     999901    1    3    3    0    0  0.11036519538E+00 -0.28953501618E-01  0.22071888680E-01  0.88764066484E+00  0.88000000000E+00 0.  1.
        -11    1    4    4    0    0 -0.67627614190E-01  0.64853487026E-02 -0.11563042227E-01  0.68916754243E-01  0.51100000000E-03 0. -1.
         11    1    4    4    0    0 -0.57596541213E-01  0.18623747527E-01 -0.25712140932E-01  0.65769148117E-01  0.51100000000E-03 0.  1.
</event>
<event>
 8    1  0.1129676E+005  0.1043930E+01  0.7957747E-01            NaN
         13   -1    0    0    0    0  0.00000000000E+00  0.00000000000E+00  0.74505805969E-08  0.10566000000E+00  0.10566000000E+00 0.  1.
     999900   -1    0    0    0    0 -0.00000000000E+00 -0.00000000000E+00 -0.74505805969E-08  0.93827000000E+00  0.93827000000E+00 0. -1.
     999902    2    1    2    0    0  0.14923296214E-01 -0.17579867295E-01  0.69593708088E-03  0.10208596547E+01  0.10205989387E+01 0.  0.
     999903    2    3    3    0    0 -0.10980083220E-01 -0.12985302534E+00 -0.22640163684E-02  0.13334345292E+00  0.28159905023E-01 0.  0.
         14    1    1    2    0    0 -0.14923296214E-01  0.17579867295E-01 -0.69593708088E-03  0.23070345303E-01  0.00000000000E+00 0.  1.
     999901    1    3    3    0    0  0.25903379434E-01  0.11227315804E+00  0.29599534492E-02  0.88751620177E+00  0.88000000000E+00 0.  1.
        -11    1    4    4    0    0  0.39704591321E-02 -0.89561445488E-01 -0.78920258295E-02  0.89997568057E-01  0.51100000000E-03 0.  1.
         11    1    4    4    0    0 -0.14950542352E-01 -0.40291579850E-01  0.56280094611E-02  0.43345884867E-01  0.51100000000E-03 0. -1.
</event>
<event>
 8    1  0.1129676E+005  0.1043930E+01  0.7957747E-01            NaN
         13   -1    0    0    0    0  0.00000000000E+00  0.00000000000E+00  0.74505805969E-08  0.10566000000E+00  0.10566000000E+00 0.  1.
     999900   -1    0    0    0    0 -0.00000000000E+00 -0.00000000000E+00 -0.74505805969E-08  0.93827000000E+00  0.93827000000E+00 0. -1.
     999902    2    1    2    0    0 -0.10927856975E-01  0.19909633485E-01 -0.77089441897E-02  0.10199458514E+01  0.10196638173E+01 0.  0.
     999903    2    3    3    0    0 -0.35645432915E-01  0.12108531435E+00  0.35656317854E-01  0.13274349404E+00  0.20425767242E-01 0.  0.
         14    1    1    2    0    0  0.10927856975E-01 -0.19909633485E-01  0.77089441897E-02  0.23984148601E-01  0.00000000000E+00 0.  1.
     999901    1    3    3    0    0  0.24717575940E-01 -0.10117568086E+00 -0.43365262043E-01  0.88720235736E+00  0.88000000000E+00 0. -1.
        -11    1    4    4    0    0 -0.32975270420E-01  0.85183544630E-01  0.30881461678E-01  0.96423703162E-01  0.51100000000E-03 0. -1.
         11    1    4    4    0    0 -0.26701624951E-02  0.35901769718E-01  0.47748561754E-02  0.36319790874E-01  0.51100000000E-03 0.  1.
</event>
<event>
 8    1  0.1129676E+005  0.1043930E+01  0.7957747E-01            NaN
         13   -1    0    0    0    0  0.00000000000E+00  0.00000000000E+00  0.74505805969E-08  0.10566000000E+00  0.10566000000E+00 0.  1.
     999900   -1    0    0    0    0 -0.00000000000E+00 -0.00000000000E+00 -0.74505805969E-08  0.93827000000E+00  0.93827000000E+00 0.  1.
     999902    2    1    2    0    0 -0.11960744540E-01 -0.13196119824E-02  0.20865143163E-01  0.10198435934E+01  0.10195591204E+01 0.  0.
     999903    2    3    3    0    0  0.10388538285E+00  0.18968701498E-01  0.73971401144E-01  0.13043243111E+00  0.19719698064E-01 0.  0.
         14    1    1    2    0    0  0.11960744540E-01  0.13196119824E-02 -0.20865143163E-01  0.24086406643E-01  0.00000000000E+00 0. -1.
     999901    1    3    3    0    0 -0.11584612739E+00 -0.20288313480E-01 -0.53106257981E-01  0.88941116225E+00  0.88000000000E+00 0.  1.
        -11    1    4    4    0    0  0.36656518766E-01  0.33308213538E-02  0.15388996835E-01  0.39898334345E-01  0.51100000000E-03 0. -1.
         11    1    4    4    0    0  0.67228864083E-01  0.15637880144E-01  0.58582404309E-01  0.90534096764E-01  0.51100000000E-03 0.  1.
</event>
<event>
 8    1  0.1129676E+005  0.1043930E+01  0.7957747E-01            NaN
         13   -1    0    0    0    0  0.00000000000E+00  0.00000000000E+00  0.74505805969E-08  0.10566000000E+00  0.10566000000E+00 0.  1.
     999900   -1    0    0    0    0 -0.00000000000E+00 -0.00000000000E+00 -0.74505805969E-08  0.93827000000E+00  0.93827000000E+00 0.  1.
     999902    2    1    2    0    0  0.53501281671E-02 -0.11170389335E-03 -0.22890437824E-01  0.10204223737E+01  0.10201515634E+01 0.  0.
     999903    2    3    3    0    0 -0.72376632637E-01  0.24400040224E-01  0.10085656998E+00  0.12803479152E+00  0.19675396236E-01 0.  0.
         14    1    1    2    0    0 -0.53501281671E-02  0.11170389335E-03  0.22890437824E-01  0.23507626272E-01  0.00000000000E+00 0.  1.
     999901    1    3    3    0    0  0.77726760804E-01 -0.24511744117E-01 -0.12374700780E+00  0.89238758221E+00  0.88000000000E+00 0.  1.
        -11    1    4    4    0    0 -0.46709821154E-01  0.25379976294E-01  0.69329682651E-01  0.87365992276E-01  0.51100000000E-03 0. -1.
         11    1    4    4    0    0 -0.25666811483E-01 -0.97993606964E-03  0.31526887324E-01  0.40668799241E-01  0.51100000000E-03 0.  1.
</event>
<event>
 8    1  0.1129676E+005  0.1043930E+01  0.7957747E-01            NaN
         13   -1    0    0    0    0  0.00000000000E+00  0.00000000000E+00  0.74505805969E-08  0.10566000000E+00  0.10566000000E+00 0. -1.
     999900   -1    0    0    0    0 -0.00000000000E+00 -0.00000000000E+00 -0.74505805969E-08  0.93827000000E+00  0.93827000000E+00 0.  1.
     999902    2    1    2    0    0 -0.19000067919E-01 -0.32380177491E-02  0.14173895986E-01  0.10200053962E+01  0.10197247774E+01 0.  0.
     999903    2    3    3    0    0  0.11406324060E+00  0.43897418673E-01 -0.31155551895E-01  0.12760282320E+00  0.19349569799E-01 0.  0.
         14    1    1    2    0    0  0.19000067919E-01  0.32380177491E-02 -0.14173895986E-01  0.23924603806E-01  0.00000000000E+00 0. -1.
     999901    1    3    3    0    0 -0.13306330852E+00 -0.47135436422E-01  0.45329447880E-01  0.89240257299E+00  0.88000000000E+00 0.  1.
        -11    1    4    4    0    0  0.18827612628E-01  0.15331170995E-01 -0.50715998945E-02  0.24809394347E-01  0.51100000000E-03 0. -1.
         11    1    4    4    0    0  0.95235627977E-01  0.28566247677E-01 -0.26083952000E-01  0.10279342885E+00  0.51100000000E-03 0.  1.
</event>
<event>
 8    1  0.1129676E+005  0.1043930E+01  0.7957747E-01            NaN
         13   -1    0    0    0    0  0.00000000000E+00  0.00000000000E+00  0.74505805969E-08  0.10566000000E+00  0.10566000000E+00 0. -1.
     999900   -1    0    0    0    0 -0.00000000000E+00 -0.00000000000E+00 -0.74505805969E-08  0.93827000000E+00  0.93827000000E+00 0. -1.
     999902    2    1    2    0    0  0.19045632993E-01 -0.18340420590E-01  0.29676661102E-02  0.10173233428E+01  0.10169753535E+01 0.  0.
     999903    2    3    3    0    0 -0.58293916014E-01  0.10862950635E+00  0.35043095571E-02  0.12485314379E+00  0.19428768216E-01 0.  0.
         14    1    1    2    0    0 -0.19045632993E-01  0.18340420590E-01 -0.29676661102E-02  0.26606657169E-01  0.00000000000E+00 0. -1.
     999901    1    3    3    0    0  0.77339549007E-01 -0.12696992694E+00 -0.53664344692E-03  0.89247019904E+00  0.88000000000E+00 0. -1.
        -11    1    4    4    0    0 -0.56779148795E-01  0.10072131481E+00 -0.96855986422E-03  0.11562808579E+00  0.51100000000E-03 0. -1.
         11    1    4    4    0    0 -0.15147672180E-02  0.79081915462E-02  0.44728694214E-02  0.92250580007E-02  0.51100000000E-03 0.  1.
</event>
<event>
 8    1  0.1129676E+005  0.1043930E+01  0.7957747E-01            NaN
         13   -1    0    0    0    0  0.00000000000E+00  0.00000000000E+00  0.74505805969E-08  0.10566000000E+00  0.10566000000E+00 0. -1.
     999900   -1    0    0    0    0 -0.00000000000E+00 -0.00000000000E+00 -0.74505805969E-08  0.93827000000E+00  0.93827000000E+00 0. -1.
     999902    2    1    2    0    0  0.20953917594E-01 -0.88791704090E-02 -0.32547697426E-03  0.10211701172E+01  0.10209164491E+01 0.  0.
     999903    2    3    3    0    0  0.29375692978E-01 -0.12728233741E+00 -0.10099269704E-01  0.13314660215E+00  0.23712816417E-01 0.  0.
         14    1    1    2    0    0 -0.20953917594E-01  0.88791704090E-02  0.32547697426E-03  0.22759882798E-01  0.00000000000E+00 0.  1.
     999901    1    3    3    0    0 -0.84217753838E-02  0.11840316700E+00  0.97737927293E-02  0.88802351505E+00  0.88000000000E+00 0. -1.
        -11    1    4    4    0    0  0.25696110879E-01 -0.10937326238E+00 -0.16933211836E-01  0.11362128068E+00  0.51100000000E-03 0.  1.
         11    1    4    4    0    0  0.36795820996E-02 -0.17909075024E-01  0.68339421325E-02  0.19525321475E-01  0.51100000000E-03 0. -1.
</event>
<event>
 8    1  0.1129676E+005  0.1043930E+01  0.7957747E-01            NaN
         13   -1    0    0    0    0  0.00000000000E+00  0.00000000000E+00  0.74505805969E-08  0.10566000000E+00  0.10566000000E+00 0. -1.
     999900   -1    0    0    0    0 -0.00000000000E+00 -0.00000000000E+00 -0.74505805969E-08  0.93827000000E+00  0.93827000000E+00 0.  1.
     999902    2    1    2    0    0 -0.14925534484E-01 -0.18932496583E-01 -0.12975162356E-02  0.10197867907E+01  0.10195009583E+01 0.  0.
     999903    2    3    3    0    0  0.10424794853E+00  0.36253107284E-01 -0.61536251225E-01  0.12800403963E+00  0.20405915464E-01 0.  0.
         14    1    1    2    0    0  0.14925534484E-01  0.18932496583E-01  0.12975162356E-02  0.24143209291E-01  0.00000000000E+00 0. -1.
     999901    1    3    3    0    0 -0.11917348302E+00 -0.55185603867E-01  0.60238734989E-01  0.89178275108E+00  0.88000000000E+00 0. -1.
        -11    1    4    4    0    0  0.48728302844E-01  0.27713610925E-01 -0.31458213143E-01  0.64283528401E-01  0.51100000000E-03 0.  1.
         11    1    4    4    0    0  0.55519645688E-01  0.85394963583E-02 -0.30078038082E-01  0.63720511229E-01  0.51100000000E-03 0. -1.
</event>
<event>
 8    1  0.1129676E+005  0.1043930E+01  0.7957747E-01            NaN
         13   -1    0    0    0    0  0.00000000000E+00  0.00000000000E+00  0.74505805969E-08  0.10566000000E+00  0.10566000000E+00 0.  1.
     999900   -1    0    0    0    0 -0.00000000000E+00 -0.00000000000E+00 -0.74505805969E-08  0.93827000000E+00  0.93827000000E+00 0.  1.
     999902    2    1    2    0    0  0.19014559342E-01 -0.44460730945E-02 -0.13014149135E-01  0.10204632339E+01  0.10201933751E+01 0.  0.
     999903    2    3    3    0    0 -0.22199618877E-01 -0.98685519632E-01 -0.82176986142E-01  0.13177702394E+00  0.19505694654E-01 0.  0.
         14    1    1    2    0    0 -0.19014559342E-01  0.44460730945E-02  0.13014149135E-01  0.23466766088E-01  0.00000000000E+00 0. -1.
     999901    1    3    3    0    0  0.41214178219E-01  0.94239446538E-01  0.69162837007E-01  0.88868620997E+00  0.88000000000E+00 0. -1.
        -11    1    4    4    0    0 -0.49926511828E-02 -0.15549478835E-01 -0.51213731427E-02  0.17123155134E-01  0.51100000000E-03 0. -1.
         11    1    4    4    0    0 -0.17206967694E-01 -0.83136040797E-01 -0.77055612999E-01  0.11465386881E+00  0.51100000000E-03 0.  1.
</event>
<event>
 8    1  0.1129676E+005  0.1043930E+01  0.7957747E-01            NaN
         13   -1    0    0    0    0  0.00000000000E+00  0.00000000000E+00  0.74505805969E-08  0.10566000000E+00  0.10566000000E+00 0.  1.
     999900   -1    0    0    0    0 -0.00000000000E+00 -0.00000000000E+00 -0.74505805969E-08  0.93827000000E+00  0.93827000000E+00 0. -1.
     999902    2    1    2    0    0 -0.16568362220E-01  0.16004650799E-01  0.29314658884E-02  0.10207081791E+01  0.10204439886E+01 0.  0.
     999903    2    3    3    0    0  0.30318042603E-01  0.12373107842E+00  0.30356861673E-01  0.13247652547E+00  0.19998181857E-01 0.  0.
         14    1    1    2    0    0  0.16568362220E-01 -0.16004650799E-01 -0.29314658884E-02  0.23221820904E-01  0.00000000000E+00 0.  1.
     999901    1    3    3    0    0 -0.46886404823E-01 -0.10772642762E+00 -0.27425395785E-01  0.88823165362E+00  0.88000000000E+00 0.  1.
        -11    1    4    4    0    0  0.10900312390E-01  0.68219745074E-01  0.79579883836E-02  0.69543807260E-01  0.51100000000E-03 0.  1.
         11    1    4    4    0    0  0.19417730213E-01  0.55511333341E-01  0.22398873290E-01  0.62932718212E-01  0.51100000000E-03 0. -1.
</event>
<event>
 8    1  0.1129676E+005  0.1043930E+01  0.7957747E-01            NaN
         13   -1    0    0    0    0  0.00000000000E+00  0.00000000000E+00  0.74505805969E-08  0.10566000000E+00  0.10566000000E+00 0. -1.
     999900   -1    0    0    0    0 -0.00000000000E+00 -0.00000000000E+00 -0.74505805969E-08  0.93827000000E+00  0.93827000000E+00 0.  1.
     999902    2    1    2    0    0 -0.26307021341E-01 -0.13692491711E-01  0.65474644419E-02  0.10135587473E+01  0.10131036083E+01 0.  0.
     999903    2    3    3    0    0  0.10921176976E+00 -0.44330164769E-01 -0.21009701361E-01  0.12223197940E+00  0.24634834565E-01 0.  0.
         14    1    1    2    0    0  0.26307021341E-01  0.13692491711E-01 -0.65474644419E-02  0.30371252719E-01  0.00000000000E+00 0.  1.
     999901    1    3    3    0    0 -0.13551879110E+00  0.30637673058E-01  0.27557165803E-01  0.89132676788E+00  0.88000000000E+00 0. -1.
        -11    1    4    4    0    0  0.89377998506E-01 -0.39862005150E-01 -0.82261586660E-02  0.98210675992E-01  0.51100000000E-03 0. -1.
         11    1    4    4    0    0  0.19833771255E-01 -0.44681596194E-02 -0.12783542695E-01  0.24021303408E-01  0.51100000000E-03 0.  1.
</event>
<event>
 8    1  0.1129676E+005  0.1043930E+01  0.7957747E-01            NaN
         13   -1    0    0    0    0  0.00000000000E+00  0.00000000000E+00  0.74505805969E-08  0.10566000000E+00  0.10566000000E+00 0. -1.
     999900   -1    0    0    0    0 -0.00000000000E+00 -0.00000000000E+00 -0.74505805969E-08  0.93827000000E+00  0.93827000000E+00 0.  1.
     999902    2    1    2    0    0 -0.19262424157E-01  0.91227507250E-02  0.62385314120E-02  0.10217222347E+01  0.10214808564E+01 0.  0.
     999903    2    3    3    0    0  0.38305079501E-01 -0.72216063552E-01 -0.99087576704E-01  0.12985699307E+00  0.19027659916E-01 0.  0.
         14    1    1    2    0    0  0.19262424157E-01 -0.91227507250E-02 -0.62385314120E-02  0.22207765295E-01  0.00000000000E+00 0. -1.
     999901    1    3    3    0    0 -0.57567503658E-01  0.81338814277E-01  0.10532610812E+00  0.89186524163E+00  0.88000000000E+00 0. -1.
        -11    1    4    4    0    0  0.12414875993E-01 -0.43323086260E-01 -0.55744129609E-01  0.71684643097E-01  0.51100000000E-03 0. -1.
         11    1    4    4    0    0  0.25890203508E-01 -0.28892977292E-01 -0.43343447094E-01  0.58172349974E-01  0.51100000000E-03 0.  1.
</event>
<event>
 8    1  0.1129676E+005  0.1043930E+01  0.7957747E-01            NaN
         13   -1    0    0    0    0  0.00000000000E+00  0.00000000000E+00  0.74505805969E-08  0.10566000000E+00  0.10566000000E+00 0.  1.
     999900   -1    0    0    0    0 -0.00000000000E+00 -0.00000000000E+00 -0.74505805969E-08  0.93827000000E+00  0.93827000000E+00 0. -1.
     999902    2    1    2    0    0 -0.22572869269E-01 -0.40135105353E-02  0.90750421796E-02  0.10192723626E+01  0.10189740674E+01 0.  0.
     999903    2    3    3    0    0  0.57001092937E-01  0.10077709913E+00 -0.49325775982E-01  0.12757524868E+00  0.20910848687E-01 0.  0.
         14    1    1    2    0    0  0.22572869269E-01  0.40135105353E-02 -0.90750421796E-02  0.24657637446E-01  0.00000000000E+00 0. -1.
     999901    1    3    3    0    0 -0.79573962206E-01 -0.10479060967E+00  0.58400818162E-01  0.89169711388E+00  0.88000000000E+00 0.  1.
        -11    1    4    4    0    0  0.23844075654E-01  0.58116815591E-01 -0.33901419992E-01  0.71383972968E-01  0.51100000000E-03 0.  1.
         11    1    4    4    0    0  0.33157017283E-01  0.42660283543E-01 -0.15424355991E-01  0.56191275709E-01  0.51100000000E-03 0. -1.
</event>
<event>
 8    1  0.1129676E+005  0.1043930E+01  0.7957747E-01            NaN
         13   -1    0    0    0    0  0.00000000000E+00  0.00000000000E+00  0.74505805969E-08  0.10566000000E+00  0.10566000000E+00 0.  1.
     999900   -1    0    0    0    0 -0.00000000000E+00 -0.00000000000E+00 -0.74505805969E-08  0.93827000000E+00  0.93827000000E+00 0. -1.
     999902    2    1    2    0    0 -0.21109170285E-01  0.73340523300E-02 -0.84031563943E-02  0.10200553601E+01  0.10197759260E+01 0.  0.
     999903    2    3    3    0    0 -0.23245720173E-01 -0.42663545642E-01 -0.11963873385E+00  0.13164234896E+00  0.25607416306E-01 0.  0.
         14    1    1    2    0    0  0.21109170285E-01 -0.73340523300E-02  0.84031563943E-02  0.23874639915E-01  0.00000000000E+00 0.  1.
     999901    1    3    3    0    0  0.21365498883E-02  0.49997597972E-01  0.11123557745E+00  0.88841301113E+00  0.88000000000E+00 0.  1.
        -11    1    4    4    0    0 -0.40613053418E-03  0.33866796739E-02 -0.60745768615E-02  0.69854238433E-02  0.51100000000E-03 0. -1.
         11    1    4    4    0    0 -0.22839589639E-01 -0.46050225316E-01 -0.11356415698E+00  0.12465692511E+00  0.51100000000E-03 0.  1.
</event>
<event>
 8    1  0.1129676E+005  0.1043930E+01  0.7957747E-01            NaN
         13   -1    0    0    0    0  0.00000000000E+00  0.00000000000E+00  0.74505805969E-08  0.10566000000E+00  0.10566000000E+00 0. -1.
     999900   -1    0    0    0    0 -0.00000000000E+00 -0.00000000000E+00 -0.74505805969E-08  0.93827000000E+00  0.93827000000E+00 0. -1.
     999902    2    1    2    0    0 -0.14809189992E-01 -0.16925200089E-01 -0.78138216642E-02  0.10201218015E+01  0.10198439388E+01 0.  0.
     999903    2    3    3    0    0 -0.10123528169E+00  0.76650217397E-01 -0.24657771430E-01  0.13079084696E+00  0.19349466897E-01 0.  0.
         14    1    1    2    0    0  0.14809189992E-01  0.16925200089E-01  0.78138216642E-02  0.23808198488E-01  0.00000000000E+00 0. -1.
     999901    1    3    3    0    0  0.86426091703E-01 -0.93575417485E-01  0.16843949766E-01  0.88933095455E+00  0.88000000000E+00 0. -1.
        -11    1    4    4    0    0 -0.30662743456E-01  0.16035779498E-01 -0.13276249495E-01  0.37065752144E-01  0.51100000000E-03 0. -1.
         11    1    4    4    0    0 -0.70572538238E-01  0.60614437899E-01 -0.11381521936E-01  0.93725094813E-01  0.51100000000E-03 0.  1.
</event>
<event>
 8    1  0.1129676E+005  0.1043930E+01  0.7957747E-01            NaN
         13   -1    0    0    0    0  0.00000000000E+00  0.00000000000E+00  0.74505805969E-08  0.10566000000E+00  0.10566000000E+00 0.  1.
     999900   -1    0    0    0    0 -0.00000000000E+00 -0.00000000000E+00 -0.74505805969E-08  0.93827000000E+00  0.93827000000E+00 0.  1.
     999902    2    1    2    0    0 -0.24369731733E-01  0.95561218030E-02 -0.10561631492E-01  0.10157032158E+01  0.10153109234E+01 0.  0.
     999903    2    3    3    0    0  0.10209820572E+00  0.29349681101E-01  0.60050033152E-01  0.12364271816E+00  0.19901454226E-01 0.  0.
         14    1    1    2    0    0  0.24369731733E-01 -0.95561218030E-02  0.10561631492E-01  0.28226784239E-01  0.00000000000E+00 0.  1.
     999901    1    3    3    0    0 -0.12646793746E+00 -0.19793559298E-01 -0.70611664645E-01  0.89206049760E+00  0.88000000000E+00 0.  1.
        -11    1    4    4    0    0  0.51314534525E-01  0.46207729774E-02  0.30862400216E-01  0.60060651549E-01  0.51100000000E-03 0.  1.
         11    1    4    4    0    0  0.50783671197E-01  0.24728908123E-01  0.29187632936E-01  0.63582066612E-01  0.51100000000E-03 0. -1.
</event>
<event>
 8    1  0.1129676E+005  0.1043930E+01  0.7957747E-01            NaN
         13   -1    0    0    0    0  0.00000000000E+00  0.00000000000E+00  0.74505805969E-08  0.10566000000E+00  0.10566000000E+00 0.  1.
     999900   -1    0    0    0    0 -0.00000000000E+00 -0.00000000000E+00 -0.74505805969E-08  0.93827000000E+00  0.93827000000E+00 0. -1.
     999902    2    1    2    0    0 -0.62231101297E-02 -0.79462779316E-03  0.23389961085E-01  0.10197132948E+01  0.10194256985E+01 0.  0.
     999903    2    3    3    0    0 -0.31088921419E-01 -0.10081522873E+00  0.76817481259E-01  0.13208897722E+00  0.20404438173E-01 0.  0.
         14    1    1    2    0    0  0.62231101297E-02  0.79462779316E-03 -0.23389961085E-01  0.24216705238E-01  0.00000000000E+00 0. -1.
     999901    1    3    3    0    0  0.24865811289E-01  0.10002060094E+00 -0.53427520174E-01  0.88762431754E+00  0.88000000000E+00 0. -1.
        -11    1    4    4    0    0 -0.12408609895E-01 -0.22327415866E-01  0.10393739264E-01  0.27582205054E-01  0.51100000000E-03 0. -1.
         11    1    4    4    0    0 -0.18680311524E-01 -0.78487812862E-01  0.66423741996E-01  0.10450677216E+00  0.51100000000E-03 0.  1.
</event>
<event>
 8    1  0.1129676E+005  0.1043930E+01  0.7957747E-01            NaN
         13   -1    0    0    0    0  0.00000000000E+00  0.00000000000E+00  0.74505805969E-08  0.10566000000E+00  0.10566000000E+00 0.  1.
     999900   -1    0    0    0    0 -0.00000000000E+00 -0.00000000000E+00 -0.74505805969E-08  0.93827000000E+00  0.93827000000E+00 0.  1.
     999902    2    1    2    0    0 -0.15760349375E-02 -0.22030019037E-01 -0.91582311597E-02  0.10200201940E+01  0.10197399263E+01 0.  0.
     999903    2    3    3    0    0  0.63967136403E-01 -0.11256313409E+00 -0.22654846033E-01  0.13284810763E+00  0.19316416734E-01 0.  0.
         14    1    1    2    0    0  0.15760349375E-02  0.22030019037E-01  0.91582311597E-02  0.23909805999E-01  0.00000000000E+00 0. -1.
     999901    1    3    3    0    0 -0.65543171340E-01  0.90533115052E-01  0.13496614873E-01  0.88717208638E+00  0.88000000000E+00 0. -1.
        -11    1    4    4    0    0  0.47930611211E-01 -0.66319098989E-01 -0.11352136206E-01  0.82611733423E-01  0.51100000000E-03 0.  1.
         11    1    4    4    0    0  0.16036525191E-01 -0.46244035101E-01 -0.11302709826E-01  0.50236374203E-01  0.51100000000E-03 0. -1.
</event>
<event>
 8    1  0.1129676E+005  0.1043930E+01  0.7957747E-01            NaN
         13   -1    0    0    0    0  0.00000000000E+00  0.00000000000E+00  0.74505805969E-08  0.10566000000E+00  0.10566000000E+00 0.  1.
     999900   -1    0    0    0    0 -0.00000000000E+00 -0.00000000000E+00 -0.74505805969E-08  0.93827000000E+00  0.93827000000E+00 0.  1.
     999902    2    1    2    0    0  0.50108753879E-02  0.19459168021E-01 -0.11018700459E-01  0.10210131972E+01  0.10207559791E+01 0.  0.
     999903    2    3    3    0    0  0.98405238253E-01  0.79173107846E-01  0.36446770081E-01  0.13278955837E+00  0.18781050065E-01 0.  0.
         14    1    1    2    0    0 -0.50108753879E-02 -0.19459168021E-01  0.11018700459E-01  0.22916802832E-01  0.00000000000E+00 0.  1.
     999901    1    3    3    0    0 -0.93394362865E-01 -0.59713939825E-01 -0.47465470540E-01  0.88822363880E+00  0.88000000000E+00 0.  1.
        -11    1    4    4    0    0  0.56023397900E-01  0.54061605866E-01  0.16185261007E-01  0.79520451054E-01  0.51100000000E-03 0. -1.
         11    1    4    4    0    0  0.42381840353E-01  0.25111501980E-01  0.20261509074E-01  0.53269107317E-01  0.51100000000E-03 0.  1.
</event>
<event>
 8    1  0.1129676E+005  0.1043930E+01  0.7957747E-01            NaN
         13   -1    0    0    0    0  0.00000000000E+00  0.00000000000E+00  0.74505805969E-08  0.10566000000E+00  0.10566000000E+00 0.  1.
     999900   -1    0    0    0    0 -0.00000000000E+00 -0.00000000000E+00 -0.74505805969E-08  0.93827000000E+00  0.93827000000E+00 0. -1.
     999902    2    1    2    0    0 -0.12635799992E-01 -0.19644956311E-01 -0.43096299585E-02  0.10201779336E+01  0.10199013950E+01 0.  0.
     999903    2    3    3    0    0  0.14221394603E-02 -0.11539776298E+00 -0.61379878996E-01  0.13303463117E+00  0.24739793107E-01 0.  0.
         14    1    1    2    0    0  0.12635799992E-01  0.19644956311E-01  0.43096299585E-02  0.23752066442E-01  0.00000000000E+00 0.  1.
     999901    1    3    3    0    0 -0.14057939452E-01  0.95752806671E-01  0.57070249037E-01  0.88714330239E+00  0.88000000000E+00 0.  1.
        -11    1    4    4    0    0 -0.10668766603E-01 -0.77644603522E-01 -0.41460940536E-01  0.88666666499E-01  0.51100000000E-03 0.  1.
         11    1    4    4    0    0  0.12090906063E-01 -0.37753159460E-01 -0.19918938460E-01  0.44367964671E-01  0.51100000000E-03 0. -1.
</event>
<event>
 8    1  0.1129676E+005  0.1043930E+01  0.7957747E-01            NaN
         13   -1    0    0    0    0  0.00000000000E+00  0.00000000000E+00  0.74505805969E-08  0.10566000000E+00  0.10566000000E+00 0.  1.
     999900   -1    0    0    0    0 -0.00000000000E+00 -0.00000000000E+00 -0.74505805969E-08  0.93827000000E+00  0.93827000000E+00 0. -1.
     999902    2    1    2    0    0  0.39690529315E-02 -0.13489067967E-01  0.21512702283E-01  0.10182297141E+01  0.10179053227E+01 0.  0.
     999903    2    3    3    0    0 -0.98686624074E-01  0.71198778950E-01  0.33631786050E-01  0.12814146475E+00  0.21927655163E-01 0.  0.
         14    1    1    2    0    0 -0.39690529315E-02  0.13489067967E-01 -0.21512702283E-01  0.25700285900E-01  0.00000000000E+00 0. -1.
     999901    1    3    3    0    0  0.10265567701E+00 -0.84687846916E-01 -0.12119083766E-01  0.89008824935E+00  0.88000000000E+00 0.  1.
        -11    1    4    4    0    0 -0.41919682649E-01  0.29074342409E-01  0.30207237469E-02  0.51107368088E-01  0.51100000000E-03 0.  1.
         11    1    4    4    0    0 -0.56766941425E-01  0.42124436540E-01  0.30611062303E-01  0.77034096664E-01  0.51100000000E-03 0. -1.
</event>
<event>
 8    1  0.1129676E+005  0.1043930E+01  0.7957747E-01            NaN
         13   -1    0    0    0    0  0.00000000000E+00  0.00000000000E+00  0.74505805969E-08  0.10566000000E+00  0.10566000000E+00 0. -1.
     999900   -1    0    0    0    0 -0.00000000000E+00 -0.00000000000E+00 -0.74505805969E-08  0.93827000000E+00  0.93827000000E+00 0.  1.
     999902    2    1    2    0    0  0.45126468673E-02  0.17421606985E-01 -0.81478658277E-02  0.10241748971E+01  0.10239843533E+01 0.  0.
     999903    2    3    3    0    0  0.11157060035E+00  0.70658225074E-01 -0.26205595535E-01  0.13590600513E+00  0.18523643245E-01 0.  0.
         14    1    1    2    0    0 -0.45126468673E-02 -0.17421606985E-01  0.81478658277E-02  0.19755102865E-01  0.00000000000E+00 0. -1.
     999901    1    3    3    0    0 -0.10705795348E+00 -0.53236618089E-01  0.18057729707E-01  0.88826889201E+00  0.88000000000E+00 0.  1.
        -11    1    4    4    0    0  0.93596931253E-01  0.66299934198E-01 -0.24797296536E-01  0.11735090051E+00  0.51100000000E-03 0.  1.
         11    1    4    4    0    0  0.17973669095E-01  0.43582908756E-02 -0.14082989990E-02  0.18555104612E-01  0.51100000000E-03 0. -1.
</event>
<event>
 8    1  0.1129676E+005  0.1043930E+01  0.7957747E-01            NaN
         13   -1    0    0    0    0  0.00000000000E+00  0.00000000000E+00  0.74505805969E-08  0.10566000000E+00  0.10566000000E+00 0. -1.
     999900   -1    0    0    0    0 -0.00000000000E+00 -0.00000000000E+00 -0.74505805969E-08  0.93827000000E+00  0.93827000000E+00 0. -1.
     999902    2    1    2    0    0  0.63627917177E-02  0.18970773593E-01 -0.67260367744E-02  0.10228204064E+01  0.10226025469E+01 0.  0.
     999903    2    3    3    0    0  0.70819496691E-01  0.73801850284E-01  0.84443382739E-01  0.13407242370E+00  0.19560564702E-01 0.  0.
         14    1    1    2    0    0 -0.63627917177E-02 -0.18970773593E-01  0.67260367744E-02  0.21109593550E-01  0.00000000000E+00 0. -1.
     999901    1    3    3    0    0 -0.64456704973E-01 -0.54831076691E-01 -0.91169419514E-01  0.88874798275E+00  0.88000000000E+00 0. -1.
        -11    1    4    4    0    0  0.27263795605E-01  0.30090857208E-01  0.21594770992E-01  0.45993146158E-01  0.51100000000E-03 0. -1.
         11    1    4    4    0    0  0.43555701086E-01  0.43710993076E-01  0.62848611748E-01  0.88079277542E-01  0.51100000000E-03 0.  1.
</event>
<event>
 8    1  0.1129676E+005  0.1043930E+01  0.7957747E-01            NaN
         13   -1    0    0    0    0  0.00000000000E+00  0.00000000000E+00  0.74505805969E-08  0.10566000000E+00  0.10566000000E+00 0. -1.
     999900   -1    0    0    0    0 -0.00000000000E+00 -0.00000000000E+00 -0.74505805969E-08  0.93827000000E+00  0.93827000000E+00 0.  1.
     999902    2    1    2    0    0  0.27545834120E-02  0.13817016786E-01 -0.19359787480E-01  0.10199863358E+01  0.10197052644E+01 0.  0.
     999903    2    3    3    0    0  0.38399127954E-01  0.11793537620E+00  0.37910462158E-01  0.13128444666E+00  0.20375397066E-01 0.  0.
         14    1    1    2    0    0 -0.27545834120E-02 -0.13817016786E-01  0.19359787480E-01  0.23943664171E-01  0.00000000000E+00 0. -1.
     999901    1    3    3    0    0 -0.35644544542E-01 -0.10411835942E+00 -0.57270249638E-01  0.88870188917E+00  0.88000000000E+00 0.  1.
        -11    1    4    4    0    0  0.21522928442E-01  0.36338355686E-01  0.99544912333E-02  0.43394303306E-01  0.51100000000E-03 0.  1.
         11    1    4    4    0    0  0.16876199512E-01  0.81597020516E-01  0.27955970924E-01  0.87890143352E-01  0.51100000000E-03 0. -1.
</event>
<event>
 7    1  0.1129676E+005  0.1043930E+01  0.7957747E-01            NaN
         13   -1    0    0    0    0  0.00000000000E+00  0.00000000000E+00  0.74505805969E-08  0.10566000000E+00  0.10566000000E+00 0.  1.
     999900   -1    0    0    0    0 -0.00000000000E+00 -0.00000000000E+00 -0.74505805969E-08  0.93827000000E+00  0.93827000000E+00 0.  1.
     999902    2    1    2    0    0  0.18037179756E-01 -0.11647115760E-01 -0.64413353600E-02  0.10215138014E+01  0.10212678201E+01 0.  0.
         14    1    1    2    0    0 -0.18037179756E-01  0.11647115760E-01  0.64413353600E-02  0.22416198614E-01  0.00000000000E+00 0.  1.
     999901    1    3    3    0    0  0.98004241433E-01  0.79785019868E-01 -0.16226495740E-01  0.88917589930E+00  0.88000000000E+00 0.  1.
        -11    1    3    3    0    0 -0.70566809811E-01 -0.46048572828E-01  0.15365809957E-01  0.85653458442E-01  0.51100000000E-03 0.  1.
         11    1    3    3    0    0 -0.94002518662E-02 -0.45383562800E-01 -0.55806495771E-02  0.46684443643E-01  0.51100000000E-03 0. -1.
</event>
<event>
 8    1  0.1129676E+005  0.1043930E+01  0.7957747E-01            NaN
         13   -1    0    0    0    0  0.00000000000E+00  0.00000000000E+00  0.74505805969E-08  0.10566000000E+00  0.10566000000E+00 0. -1.
     999900   -1    0    0    0    0 -0.00000000000E+00 -0.00000000000E+00 -0.74505805969E-08  0.93827000000E+00  0.93827000000E+00 0.  1.
     999902    2    1    2    0    0 -0.15811465984E-01 -0.37555964412E-02  0.17570332891E-01  0.10199962673E+01  0.10197154318E+01 0.  0.
     999903    2    3    3    0    0  0.67539509776E-01 -0.52879023237E-01  0.97188429250E-01  0.13112083316E+00  0.19730829406E-01 0.  0.
         14    1    1    2    0    0  0.15811465984E-01  0.37555964412E-02 -0.17570332891E-01  0.23933732661E-01  0.00000000000E+00 0.  1.
     999901    1    3    3    0    0 -0.83350975760E-01  0.49123426795E-01 -0.79618096359E-01  0.88887543418E+00  0.88000000000E+00 0.  1.
        -11    1    4    4    0    0  0.36775182593E-01 -0.16329961788E-01  0.44660519291E-01  0.60115761752E-01  0.51100000000E-03 0. -1.
         11    1    4    4    0    0  0.30764327183E-01 -0.36549061449E-01  0.52527909959E-01  0.71005071407E-01  0.51100000000E-03 0.  1.
</event>
<event>
 8    1  0.1129676E+005  0.1043930E+01  0.7957747E-01            NaN
         13   -1    0    0    0    0  0.00000000000E+00  0.00000000000E+00  0.74505805969E-08  0.10566000000E+00  0.10566000000E+00 0. -1.
     999900   -1    0    0    0    0 -0.00000000000E+00 -0.00000000000E+00 -0.74505805969E-08  0.93827000000E+00  0.93827000000E+00 0. -1.
     999902    2    1    2    0    0 -0.16981649334E-01 -0.73414204290E-02  0.14914616608E-01  0.10201661902E+01  0.10198893749E+01 0.  0.
     999903    2    3    3    0    0  0.62790354132E-01  0.93638978228E-01 -0.57076141121E-01  0.12789757444E+00  0.19728579469E-01 0.  0.
         14    1    1    2    0    0  0.16981649334E-01  0.73414204290E-02 -0.14914616608E-01  0.23763809808E-01  0.00000000000E+00 0.  1.
     999901    1    3    3    0    0 -0.79772003466E-01 -0.10098039866E+00  0.71990757730E-01  0.89226861575E+00  0.88000000000E+00 0.  1.
        -11    1    4    4    0    0  0.38114641318E-01  0.56650390900E-01 -0.23621377711E-01  0.72251112641E-01  0.51100000000E-03 0. -1.
         11    1    4    4    0    0  0.24675712814E-01  0.36988587328E-01 -0.33454763410E-01  0.55646461803E-01  0.51100000000E-03 0.  1.
</event>
<event>
 8    1  0.1129676E+005  0.1043930E+01  0.7957747E-01            NaN
         13   -1    0    0    0    0  0.00000000000E+00  0.00000000000E+00  0.74505805969E-08  0.10566000000E+00  0.10566000000E+00 0. -1.
     999900   -1    0    0    0    0 -0.00000000000E+00 -0.00000000000E+00 -0.74505805969E-08  0.93827000000E+00  0.93827000000E+00 0. -1.
     999902    2    1    2    0    0  0.62077227616E-02  0.17553917240E-01 -0.10268109102E-02  0.10252824754E+01  0.10251128837E+01 0.  0.
     999903    2    3    3    0    0  0.13132497555E-01 -0.16409508693E-01  0.13160056401E+00  0.13466949135E+00  0.19375989969E-01 0.  0.
         14    1    1    2    0    0 -0.62077227616E-02 -0.17553917240E-01  0.10268109102E-02  0.18647524581E-01  0.00000000000E+00 0. -1.
     999901    1    3    3    0    0 -0.69247747934E-02  0.33963425933E-01 -0.13262737492E+00  0.89061298406E+00  0.88000000000E+00 0. -1.
        -11    1    4    4    0    0  0.94387814595E-02 -0.11233757272E-01  0.36313136271E-01  0.39168774358E-01  0.51100000000E-03 0.  1.
         11    1    4    4    0    0  0.36937160955E-02 -0.51757514208E-02  0.95287427736E-01  0.95500716996E-01  0.51100000000E-03 0. -1.
</event>
<event>
 8    1  0.1607273E+005  0.1043930E+01  0.7957747E-01            NaN
         13   -1    0    0    0    0  0.00000000000E+00  0.00000000000E+00  0.74505805969E-08  0.10566000000E+00  0.10566000000E+00 0.  1.
     999900   -1    0    0    0    0 -0.00000000000E+00 -0.00000000000E+00 -0.74505805969E-08  0.93827000000E+00  0.93827000000E+00 0.  1.
     999902    2    1    2    0    0 -0.53303141842E-02  0.18280199062E-01  0.15167589189E-01  0.10195859311E+01  0.10192952650E+01 0.  0.
     999903    2    3    3    0    0  0.24642178520E-02 -0.67337039234E-01  0.11003934700E+00  0.13032122552E+00  0.18292476911E-01 0.  0.
         14    1    1    2    0    0  0.53303141842E-02 -0.18280199062E-01 -0.15167589189E-01  0.24344068864E-01  0.00000000000E+00 0. -1.
     999901    1    3    3    0    0 -0.77945320362E-02  0.85617238296E-01 -0.94871757806E-01  0.88926470561E+00  0.88000000000E+00 0.  1.
        -11    1    4    4    0    0  0.15052553393E-02 -0.19964910869E-01  0.49815575837E-01  0.53690931977E-01  0.51100000000E-03 0.  1.
         11    1    4    4    0    0  0.95896251278E-03 -0.47372128365E-01  0.60223771159E-01  0.76630293543E-01  0.51100000000E-03 0. -1.
</event>
<event>
 8    1  0.1129676E+005  0.1043930E+01  0.7957747E-01            NaN
         13   -1    0    0    0    0  0.00000000000E+00  0.00000000000E+00  0.74505805969E-08  0.10566000000E+00  0.10566000000E+00 0. -1.
     999900   -1    0    0    0    0 -0.00000000000E+00 -0.00000000000E+00 -0.74505805969E-08  0.93827000000E+00  0.93827000000E+00 0.  1.
     999902    2    1    2    0    0  0.10664365610E-01 -0.69946685824E-02  0.19502062525E-01  0.10206279717E+01  0.10203619319E+01 0.  0.
     999903    2    3    3    0    0  0.16034540428E-01  0.29348042531E-03 -0.12611059488E+00  0.12861619937E+00  0.19520552781E-01 0.  0.
         14    1    1    2    0    0 -0.10664365610E-01  0.69946685824E-02 -0.19502062525E-01  0.23302028349E-01  0.00000000000E+00 0.  1.
     999901    1    3    3    0    0 -0.53701748179E-02 -0.72881490077E-02  0.14561265741E+00  0.89201177228E+00  0.88000000000E+00 0. -1.
        -11    1    4    4    0    0 -0.32066555186E-02 -0.30183982105E-02 -0.43634435944E-01  0.43859075327E-01  0.51100000000E-03 0. -1.
         11    1    4    4    0    0  0.19241195947E-01  0.33118786358E-02 -0.82476158939E-01  0.84757124042E-01  0.51100000000E-03 0.  1.
</event>
<event>
 8    1  0.1129676E+005  0.1043930E+01  0.7957747E-01            NaN
         13   -1    0    0    0    0  0.00000000000E+00  0.00000000000E+00  0.74505805969E-08  0.10566000000E+00  0.10566000000E+00 0.  1.
     999900   -1    0    0    0    0 -0.00000000000E+00 -0.00000000000E+00 -0.74505805969E-08  0.93827000000E+00  0.93827000000E+00 0. -1.
     999902    2    1    2    0    0 -0.15719775769E-01  0.11509033006E-01  0.12883803893E-01  0.10205727400E+01  0.10203054229E+01 0.  0.
     999903    2    3    3    0    0 -0.63254040623E-01 -0.10375356790E+00  0.45270057015E-01  0.13119439371E+00  0.19917689914E-01 0.  0.
         14    1    1    2    0    0  0.15719775769E-01 -0.11509033006E-01 -0.12883803893E-01  0.23357259979E-01  0.00000000000E+00 0.  1.
     999901    1    3    3    0    0  0.47534264854E-01  0.11526260090E+00 -0.32386253122E-01  0.88937834631E+00  0.88000000000E+00 0. -1.
        -11    1    4    4    0    0 -0.17746862815E-02 -0.11957641972E-01  0.83698668163E-02  0.14712256946E-01  0.51100000000E-03 0.  1.
         11    1    4    4    0    0 -0.61479354341E-01 -0.91795925925E-01  0.36900190199E-01  0.11648213676E+00  0.51100000000E-03 0. -1.
</event>
<event>
 8    1  0.1129676E+005  0.1043930E+01  0.7957747E-01            NaN
         13   -1    0    0    0    0  0.00000000000E+00  0.00000000000E+00  0.74505805969E-08  0.10566000000E+00  0.10566000000E+00 0.  1.
     999900   -1    0    0    0    0 -0.00000000000E+00 -0.00000000000E+00 -0.74505805969E-08  0.93827000000E+00  0.93827000000E+00 0.  1.
     999902    2    1    2    0    0  0.18672574952E-01 -0.56924594503E-02  0.13908764002E-01  0.10199607934E+01  0.10196791148E+01 0.  0.
     999903    2    3    3    0    0 -0.61602870595E-01  0.79693992934E-01  0.79347039181E-01  0.12978263073E+00  0.20038274279E-01 0.  0.
         14    1    1    2    0    0 -0.18672574952E-01  0.56924594503E-02 -0.13908764002E-01  0.23969206620E-01  0.00000000000E+00 0. -1.
     999901    1    3    3    0    0  0.80275445547E-01 -0.85386452384E-01 -0.65438275178E-01  0.89017816265E+00  0.88000000000E+00 0.  1.
        -11    1    4    4    0    0 -0.30010170665E-01  0.52440446812E-01  0.40248525309E-01  0.72600383717E-01  0.51100000000E-03 0.  1.
         11    1    4    4    0    0 -0.31592699930E-01  0.27253546121E-01  0.39098513871E-01  0.57182247009E-01  0.51100000000E-03 0. -1.
</event>
<event>
 8    1  0.1129676E+005  0.1043930E+01  0.7957747E-01            NaN
         13   -1    0    0    0    0  0.00000000000E+00  0.00000000000E+00  0.74505805969E-08  0.10566000000E+00  0.10566000000E+00 0.  1.
     999900   -1    0    0    0    0 -0.00000000000E+00 -0.00000000000E+00 -0.74505805969E-08  0.93827000000E+00  0.93827000000E+00 0. -1.
     999902    2    1    2    0    0  0.21685048010E-01 -0.47958136598E-02 -0.71546916204E-02  0.10205969602E+01  0.10203302036E+01 0.  0.
     999903    2    3    3    0    0 -0.10124790717E+00 -0.67090599646E-03 -0.78272289777E-01  0.12920073003E+00  0.17739460872E-01 0.  0.
         14    1    1    2    0    0 -0.21685048010E-01  0.47958136598E-02  0.71546916204E-02  0.23333039837E-01  0.00000000000E+00 0. -1.
     999901    1    3    3    0    0  0.12293295518E+00 -0.41249076634E-02  0.71117598157E-01  0.89139623014E+00  0.88000000000E+00 0.  1.
        -11    1    4    4    0    0 -0.63992652315E-01  0.12271160659E-02 -0.38611300268E-01  0.74750645439E-01  0.51100000000E-03 0.  1.
         11    1    4    4    0    0 -0.37255254852E-01 -0.18980220623E-02 -0.39660989509E-01  0.54450084588E-01  0.51100000000E-03 0. -1.
</event>
<event>
 8    1  0.1129676E+005  0.1043930E+01  0.7957747E-01            NaN
         13   -1    0    0    0    0  0.00000000000E+00  0.00000000000E+00  0.74505805969E-08  0.10566000000E+00  0.10566000000E+00 0. -1.
     999900   -1    0    0    0    0 -0.00000000000E+00 -0.00000000000E+00 -0.74505805969E-08  0.93827000000E+00  0.93827000000E+00 0. -1.
     999902    2    1    2    0    0  0.30691106325E-02  0.19793102490E-01  0.11449304469E-01  0.10208589593E+01  0.10205982274E+01 0.  0.
     999903    2    3    3    0    0  0.51475641518E-01  0.27467396261E-01 -0.11511834459E+00  0.13045373874E+00  0.19019599437E-01 0.  0.
         14    1    1    2    0    0 -0.30691106325E-02 -0.19793102490E-01 -0.11449304469E-01  0.23071040703E-01  0.00000000000E+00 0.  1.
     999901    1    3    3    0    0 -0.48406530885E-01 -0.76742937702E-02  0.12656764906E+00  0.89040522056E+00  0.88000000000E+00 0.  1.
        -11    1    4    4    0    0  0.24195122416E-01  0.22122062090E-01 -0.72476612182E-01  0.79548161602E-01  0.51100000000E-03 0. -1.
         11    1    4    4    0    0  0.27280519102E-01  0.53453341707E-02 -0.42641732404E-01  0.50905577133E-01  0.51100000000E-03 0.  1.
</event>
<event>
 8    1  0.1129676E+005  0.1043930E+01  0.7957747E-01            NaN
         13   -1    0    0    0    0  0.00000000000E+00  0.00000000000E+00  0.74505805969E-08  0.10566000000E+00  0.10566000000E+00 0. -1.
     999900   -1    0    0    0    0 -0.00000000000E+00 -0.00000000000E+00 -0.74505805969E-08  0.93827000000E+00  0.93827000000E+00 0. -1.
     999902    2    1    2    0    0 -0.11381560897E-02  0.12568622128E-01  0.19193091422E-01  0.10209595751E+01  0.10207011382E+01 0.  0.
     999903    2    3    3    0    0 -0.16792969691E-01 -0.11092370229E+00 -0.60210102302E-01  0.12865901221E+00  0.18488197373E-01 0.  0.
         14    1    1    2    0    0  0.11381560897E-02 -0.12568622128E-01 -0.19193091422E-01  0.22970424894E-01  0.00000000000E+00 0.  1.
     999901    1    3    3    0    0  0.15654813602E-01  0.12349232442E+00  0.79403193724E-01  0.89230056290E+00  0.88000000000E+00 0.  1.
        -11    1    4    4    0    0 -0.13009095299E-02 -0.60893306274E-01 -0.37831417250E-01  0.71701913271E-01  0.51100000000E-03 0. -1.
         11    1    4    4    0    0 -0.15492060162E-01 -0.50030396014E-01 -0.22378685052E-01  0.56957098935E-01  0.51100000000E-03 0.  1.
</event>
<event>
 8    1  0.1129676E+005  0.1043930E+01  0.7957747E-01            NaN
         13   -1    0    0    0    0  0.00000000000E+00  0.00000000000E+00  0.74505805969E-08  0.10566000000E+00  0.10566000000E+00 0.  1.
     999900   -1    0    0    0    0 -0.00000000000E+00 -0.00000000000E+00 -0.74505805969E-08  0.93827000000E+00  0.93827000000E+00 0. -1.
     999902    2    1    2    0    0 -0.12516436497E-01 -0.21414510095E-01 -0.39973242101E-03  0.10191226984E+01  0.10188207263E+01 0.  0.
     999903    2    3    3    0    0  0.67699178988E-02 -0.12186062816E+00 -0.46086280497E-01  0.13202143771E+00  0.20245253297E-01 0.  0.
         14    1    1    2    0    0  0.12516436497E-01  0.21414510095E-01  0.39973242101E-03  0.24807301571E-01  0.00000000000E+00 0.  1.
     999901    1    3    3    0    0 -0.19286354396E-01  0.10044611806E+00  0.45686548076E-01  0.88710126072E+00  0.88000000000E+00 0.  1.
        -11    1    4    4    0    0 -0.32308105987E-02 -0.22885842352E-01 -0.19829582543E-02  0.23203300664E-01  0.51100000000E-03 0. -1.
         11    1    4    4    0    0  0.10000728497E-01 -0.98974785805E-01 -0.44103322243E-01  0.10881813704E+00  0.51100000000E-03 0.  1.
</event>
<event>
 8    1  0.1129676E+005  0.1043930E+01  0.7957747E-01            NaN
         13   -1    0    0    0    0  0.00000000000E+00  0.00000000000E+00  0.74505805969E-08  0.10566000000E+00  0.10566000000E+00 0.  1.
     999900   -1    0    0    0    0 -0.00000000000E+00 -0.00000000000E+00 -0.74505805969E-08  0.93827000000E+00  0.93827000000E+00 0.  1.
     999902    2    1    2    0    0  0.71900005974E-02  0.21059230164E-01  0.10468959920E-01  0.10193375946E+01  0.10190408948E+01 0.  0.
     999903    2    3    3    0    0 -0.11071316917E+00  0.46440361736E-02  0.64484248112E-01  0.12968133094E+00  0.19495036264E-01 0.  0.
         14    1    1    2    0    0 -0.71900005974E-02 -0.21059230164E-01 -0.10468959920E-01  0.24592405444E-01  0.00000000000E+00 0. -1.
     999901    1    3    3    0    0  0.11790316977E+00  0.16415193991E-01 -0.54015288191E-01  0.88965626362E+00  0.88000000000E+00 0.  1.
        -11    1    4    4    0    0 -0.82510904288E-01  0.86526511685E-02  0.55464831732E-01  0.99797426714E-01  0.51100000000E-03 0.  1.
         11    1    4    4    0    0 -0.28202264886E-01 -0.40086149949E-02  0.90194163797E-02  0.29883904224E-01  0.51100000000E-03 0. -1.
</event>
<event>
 8    1  0.1129676E+005  0.1043930E+01  0.7957747E-01            NaN
         13   -1    0    0    0    0  0.00000000000E+00  0.00000000000E+00  0.74505805969E-08  0.10566000000E+00  0.10566000000E+00 0.  1.
     999900   -1    0    0    0    0 -0.00000000000E+00 -0.00000000000E+00 -0.74505805969E-08  0.93827000000E+00  0.93827000000E+00 0.  1.
     999902    2    1    2    0    0  0.11847346077E-01 -0.21048336792E-01  0.27516806433E-02  0.10196202522E+01  0.10193304150E+01 0.  0.
     999903    2    3    3    0    0  0.47710682321E-01  0.61924575792E-01  0.10135031748E+00  0.12951218333E+00  0.19762501999E-01 0.  0.
         14    1    1    2    0    0 -0.11847346077E-01  0.21048336792E-01 -0.27516806433E-02  0.24309747780E-01  0.00000000000E+00 0.  1.
     999901    1    3    3    0    0 -0.35863336245E-01 -0.82972912584E-01 -0.98598636832E-01  0.89010806889E+00  0.88000000000E+00 0.  1.
        -11    1    4    4    0    0  0.20526143862E-01  0.24232190304E-01  0.26299494607E-01  0.41236466463E-01  0.51100000000E-03 0. -1.
         11    1    4    4    0    0  0.27184538459E-01  0.37692385487E-01  0.75050822868E-01  0.88275716871E-01  0.51100000000E-03 0.  1.
</event>
<event>
 8    1  0.1129676E+005  0.1043930E+01  0.7957747E-01            NaN
         13   -1    0    0    0    0  0.00000000000E+00  0.00000000000E+00  0.74505805969E-08  0.10566000000E+00  0.10566000000E+00 0.  1.
     999900   -1    0    0    0    0 -0.00000000000E+00 -0.00000000000E+00 -0.74505805969E-08  0.93827000000E+00  0.93827000000E+00 0.  1.
     999902    2    1    2    0    0  0.96305156527E-02 -0.10372157101E-02  0.21178375264E-01  0.10206416719E+01  0.10203759484E+01 0.  0.
     999903    2    3    3    0    0 -0.52793729036E-01 -0.11703381762E+00 -0.43899387594E-02  0.13046992627E+00  0.22782401240E-01 0.  0.
         14    1    1    2    0    0 -0.96305156527E-02  0.10372157101E-02 -0.21178375264E-01  0.23288328128E-01  0.00000000000E+00 0. -1.
     999901    1    3    3    0    0  0.62424244689E-01  0.11599660191E+00  0.25568314023E-01  0.89017174560E+00  0.88000000000E+00 0.  1.
        -11    1    4    4    0    0 -0.81614531209E-02 -0.43670428847E-01 -0.38177185449E-02  0.44593180741E-01  0.51100000000E-03 0.  1.
         11    1    4    4    0    0 -0.44632275915E-01 -0.73363388777E-01 -0.57222021448E-03  0.85876745532E-01  0.51100000000E-03 0. -1.
</event>
<event>
 8    1  0.1129676E+005  0.1043930E+01  0.7957747E-01            NaN
         13   -1    0    0    0    0  0.00000000000E+00  0.00000000000E+00  0.74505805969E-08  0.10566000000E+00  0.10566000000E+00 0. -1.
     999900   -1    0    0    0    0 -0.00000000000E+00 -0.00000000000E+00 -0.74505805969E-08  0.93827000000E+00  0.93827000000E+00 0. -1.
     999902    2    1    2    0    0 -0.22142760623E-01  0.76616901232E-02 -0.24729290766E-02  0.10203690424E+01  0.10200969876E+01 0.  0.
     999903    2    3    3    0    0  0.12160018967E+00 -0.28202529676E-01  0.17997469345E-01  0.12775080643E+00  0.20356100636E-01 0.  0.
         14    1    1    2    0    0  0.22142760623E-01 -0.76616901232E-02  0.24729290766E-02  0.23560957573E-01  0.00000000000E+00 0.  1.
     999901    1    3    3    0    0 -0.14374295029E+00  0.35864219799E-01 -0.20470398421E-01  0.89261823600E+00  0.88000000000E+00 0. -1.
        -11    1    4    4    0    0  0.78420541395E-02 -0.42187916724E-02 -0.33861363492E-02  0.95406004359E-02  0.51100000000E-03 0.  1.
         11    1    4    4    0    0  0.11375813553E+00 -0.23983738004E-01  0.21383605694E-01  0.11821020600E+00  0.51100000000E-03 0. -1.
</event>
<event>
 8    1  0.1129676E+005  0.1043930E+01  0.7957747E-01            NaN
         13   -1    0    0    0    0  0.00000000000E+00  0.00000000000E+00  0.74505805969E-08  0.10566000000E+00  0.10566000000E+00 0.  1.
     999900   -1    0    0    0    0 -0.00000000000E+00 -0.00000000000E+00 -0.74505805969E-08  0.93827000000E+00  0.93827000000E+00 0. -1.
     999902    2    1    2    0    0 -0.18069308623E-01 -0.12326809569E-01 -0.34077261898E-03  0.10220538423E+01  0.10218196956E+01 0.  0.
     999903    2    3    3    0    0 -0.47765366313E-01  0.11888685921E+00 -0.22214368294E-01  0.13156109284E+00  0.19980677590E-01 0.  0.
         14    1    1    2    0    0  0.18069308623E-01  0.12326809569E-01  0.34077261898E-03  0.21876157666E-01  0.00000000000E+00 0.  1.
     999901    1    3    3    0    0  0.29696057690E-01 -0.13121366878E+00  0.21873595675E-01  0.89049274950E+00  0.88000000000E+00 0. -1.
        -11    1    4    4    0    0 -0.34606576757E-01  0.88973468016E-01 -0.25209457761E-01  0.98740422559E-01  0.51100000000E-03 0.  1.
         11    1    4    4    0    0 -0.13158789556E-01  0.29913391199E-01  0.29950894668E-02  0.32820670278E-01  0.51100000000E-03 0. -1.
</event>
<event>
 8    1  0.1129676E+005  0.1043930E+01  0.7957747E-01            NaN
         13   -1    0    0    0    0  0.00000000000E+00  0.00000000000E+00  0.74505805969E-08  0.10566000000E+00  0.10566000000E+00 0.  1.
     999900   -1    0    0    0    0 -0.00000000000E+00 -0.00000000000E+00 -0.74505805969E-08  0.93827000000E+00  0.93827000000E+00 0. -1.
     999902    2    1    2    0    0  0.19245635229E-02  0.14238996187E-01  0.17094177147E-01  0.10215992174E+01  0.10213551279E+01 0.  0.
     999903    2    3    3    0    0  0.25090649627E-01 -0.11221463523E+00 -0.55482467896E-01  0.12930186911E+00  0.20469588466E-01 0.  0.
         14    1    1    2    0    0 -0.19245635229E-02 -0.14238996187E-01 -0.17094177147E-01  0.22330782554E-01  0.00000000000E+00 0. -1.
     999901    1    3    3    0    0 -0.23166086104E-01  0.12645363142E+00  0.72576645043E-01  0.89229734834E+00  0.88000000000E+00 0. -1.
        -11    1    4    4    0    0  0.13236774055E-01 -0.89891089290E-01 -0.37592607634E-01  0.98331507620E-01  0.51100000000E-03 0. -1.
         11    1    4    4    0    0  0.11853875571E-01 -0.22323545943E-01 -0.17889860261E-01  0.30970361488E-01  0.51100000000E-03 0.  1.
</event>
<event>
 8    1  0.1129676E+005  0.1043930E+01  0.7957747E-01            NaN
         13   -1    0    0    0    0  0.00000000000E+00  0.00000000000E+00  0.74505805969E-08  0.10566000000E+00  0.10566000000E+00 0.  1.
     999900   -1    0    0    0    0 -0.00000000000E+00 -0.00000000000E+00 -0.74505805969E-08  0.93827000000E+00  0.93827000000E+00 0. -1.
     999902    2    1    2    0    0  0.51463761131E-02  0.10356107264E-01  0.21176407162E-01  0.10198017103E+01  0.10195162352E+01 0.  0.
     999903    2    3    3    0    0  0.79320321317E-01  0.50520367204E-01  0.91869908912E-01  0.13294630317E+00  0.19764070592E-01 0.  0.
         14    1    1    2    0    0 -0.51463761131E-02 -0.10356107264E-01 -0.21176407162E-01  0.24128289725E-01  0.00000000000E+00 0.  1.
     999901    1    3    3    0    0 -0.74173945204E-01 -0.40164259941E-01 -0.70693501750E-01  0.88685540711E+00  0.88000000000E+00 0. -1.
        -11    1    4    4    0    0  0.50277748342E-01  0.24412356313E-01  0.63971803013E-01  0.84949795885E-01  0.51100000000E-03 0. -1.
         11    1    4    4    0    0  0.29042572976E-01  0.26108010891E-01  0.27898105899E-01  0.47996507284E-01  0.51100000000E-03 0.  1.
</event>
<event>
 8    1  0.1129676E+005  0.1043930E+01  0.7957747E-01            NaN
         13   -1    0    0    0    0  0.00000000000E+00  0.00000000000E+00  0.74505805969E-08  0.10566000000E+00  0.10566000000E+00 0.  1.
     999900   -1    0    0    0    0 -0.00000000000E+00 -0.00000000000E+00 -0.74505805969E-08  0.93827000000E+00  0.93827000000E+00 0. -1.
     999902    2    1    2    0    0  0.12207210864E-01 -0.13305605898E-02  0.19558020232E-01  0.10208366559E+01  0.10205754139E+01 0.  0.
     999903    2    3    3    0    0  0.90828721396E-01 -0.38986415304E-01 -0.82874444869E-01  0.13061661832E+00  0.20560402741E-01 0.  0.
         14    1    1    2    0    0 -0.12207210864E-01  0.13305605898E-02 -0.19558020232E-01  0.23093344148E-01  0.00000000000E+00 0. -1.
     999901    1    3    3    0    0 -0.78621510533E-01  0.37655854714E-01  0.10243246510E+00  0.89022003753E+00  0.88000000000E+00 0.  1.
        -11    1    4    4    0    0  0.86391841712E-01 -0.36183688207E-01 -0.83272147265E-01  0.12532885238E+00  0.51100000000E-03 0. -1.
         11    1    4    4    0    0  0.44368796842E-02 -0.28027270969E-02  0.39770239589E-03  0.52877659468E-02  0.51100000000E-03 0.  1.
</event>
<event>
 8    1  0.1129676E+005  0.1043930E+01  0.7957747E-01            NaN
         13   -1    0    0    0    0  0.00000000000E+00  0.00000000000E+00  0.74505805969E-08  0.10566000000E+00  0.10566000000E+00 0. -1.
     999900   -1    0    0    0    0 -0.00000000000E+00 -0.00000000000E+00 -0.74505805969E-08  0.93827000000E+00  0.93827000000E+00 0.  1.
     999902    2    1    2    0    0 -0.44090610175E-02  0.20573909455E-01  0.95210970363E-02  0.10208350469E+01  0.10205737681E+01 0.  0.
     999903    2    3    3    0    0  0.11960591480E+00 -0.45723658141E-01  0.83577660076E-04  0.12962006248E+00  0.20127738183E-01 0.  0.
         14    1    1    2    0    0  0.44090610175E-02 -0.20573909455E-01 -0.95210970363E-02  0.23094953087E-01  0.00000000000E+00 0. -1.
     999901    1    3    3    0    0 -0.12401497582E+00  0.66297567597E-01  0.94375193762E-02  0.89121498443E+00  0.88000000000E+00 0. -1.
        -11    1    4    4    0    0  0.86527719702E-01 -0.41269925757E-01 -0.42385325583E-02  0.95960821839E-01  0.51100000000E-03 0.  1.
         11    1    4    4    0    0  0.33078195099E-01 -0.44537323846E-02  0.43221102184E-02  0.33659240646E-01  0.51100000000E-03 0. -1.
</event>
<event>
 8    1  0.1129676E+005  0.1043930E+01  0.7957747E-01            NaN
         13   -1    0    0    0    0  0.00000000000E+00  0.00000000000E+00  0.74505805969E-08  0.10566000000E+00  0.10566000000E+00 0.  1.
     999900   -1    0    0    0    0 -0.00000000000E+00 -0.00000000000E+00 -0.74505805969E-08  0.93827000000E+00  0.93827000000E+00 0. -1.
     999902    2    1    2    0    0 -0.40614540866E-02 -0.83309349829E-02  0.22331280177E-01  0.10197517875E+01  0.10194651157E+01 0.  0.
     999903    2    3    3    0    0  0.45041616554E-03  0.89898846515E-01 -0.88106898752E-01  0.12741438586E+00  0.19738151791E-01 0.  0.
         14    1    1    2    0    0  0.40614540866E-02  0.83309349829E-02 -0.22331280177E-01  0.24178212534E-01  0.00000000000E+00 0. -1.
     999901    1    3    3    0    0 -0.45118702521E-02 -0.98229781498E-01  0.11043817893E+00  0.89233740161E+00  0.88000000000E+00 0.  1.
        -11    1    4    4    0    0 -0.95287030341E-02  0.49940652861E-01 -0.49538222194E-01  0.70987052121E-01  0.51100000000E-03 0. -1.
         11    1    4    4    0    0  0.99791191996E-02  0.39958193653E-01 -0.38568676558E-01  0.56427333735E-01  0.51100000000E-03 0.  1.
</event>
<event>
 8    1  0.1129676E+005  0.1043930E+01  0.7957747E-01            NaN
         13   -1    0    0    0    0  0.00000000000E+00  0.00000000000E+00  0.74505805969E-08  0.10566000000E+00  0.10566000000E+00 0. -1.
     999900   -1    0    0    0    0 -0.00000000000E+00 -0.00000000000E+00 -0.74505805969E-08  0.93827000000E+00  0.93827000000E+00 0.  1.
     999902    2    1    2    0    0 -0.19641956993E-01  0.86900880641E-02 -0.99858115196E-02  0.10202437057E+01  0.10199687145E+01 0.  0.
     999903    2    3    3    0    0 -0.12498970884E+00 -0.23184480264E-01  0.31161956435E-01  0.13243332296E+00  0.20188364512E-01 0.  0.
         14    1    1    2    0    0  0.19641956993E-01 -0.86900880641E-02  0.99858115196E-02  0.23686294281E-01  0.00000000000E+00 0.  1.
     999901    1    3    3    0    0  0.10534775184E+00  0.31874568328E-01 -0.41147767955E-01  0.88781038276E+00  0.88000000000E+00 0.  1.
        -11    1    4    4    0    0 -0.52489299959E-01 -0.10308093969E-02  0.76276174003E-02  0.53053094597E-01  0.51100000000E-03 0.  1.
         11    1    4    4    0    0 -0.72500408877E-01 -0.22153670867E-01  0.23534339035E-01  0.79380228364E-01  0.51100000000E-03 0. -1.
</event>
<event>
 8    1  0.1129676E+005  0.1043930E+01  0.7957747E-01            NaN
         13   -1    0    0    0    0  0.00000000000E+00  0.00000000000E+00  0.74505805969E-08  0.10566000000E+00  0.10566000000E+00 0.  1.
     999900   -1    0    0    0    0 -0.00000000000E+00 -0.00000000000E+00 -0.74505805969E-08  0.93827000000E+00  0.93827000000E+00 0.  1.
     999902    2    1    2    0    0 -0.14785869873E-01  0.46808440726E-02  0.17934254547E-01  0.10202198812E+01  0.10199443299E+01 0.  0.
     999903    2    3    3    0    0  0.18815057808E-01  0.10282757368E+00  0.78187717569E-01  0.13208009336E+00  0.20107599907E-01 0.  0.
         14    1    1    2    0    0  0.14785869873E-01 -0.46808440726E-02 -0.17934254547E-01  0.23710118837E-01  0.00000000000E+00 0. -1.
     999901    1    3    3    0    0 -0.33600927681E-01 -0.98146729607E-01 -0.60253463022E-01  0.88813978780E+00  0.88000000000E+00 0. -1.
        -11    1    4    4    0    0  0.18269200379E-01  0.62334482096E-01  0.56748916080E-01  0.86255735681E-01  0.51100000000E-03 0.  1.
         11    1    4    4    0    0  0.54585742882E-03  0.40493091583E-01  0.21438801489E-01  0.45824357678E-01  0.51100000000E-03 0. -1.
</event>
<event>
 8    1  0.1129676E+005  0.1043930E+01  0.7957747E-01            NaN
         13   -1    0    0    0    0  0.00000000000E+00  0.00000000000E+00  0.74505805969E-08  0.10566000000E+00  0.10566000000E+00 0. -1.
     999900   -1    0    0    0    0 -0.00000000000E+00 -0.00000000000E+00 -0.74505805969E-08  0.93827000000E+00  0.93827000000E+00 0. -1.
     999902    2    1    2    0    0 -0.14501754184E-01 -0.15804455471E-01  0.28167425673E-02  0.10222963289E+01  0.10220673991E+01 0.  0.
     999903    2    3    3    0    0  0.93170240490E-01  0.74868599947E-01  0.48619669299E-01  0.12993274295E+00  0.15252687491E-01 0.  0.
         14    1    1    2    0    0  0.14501754184E-01  0.15804455471E-01 -0.28167425673E-02  0.21633671113E-01  0.00000000000E+00 0. -1.
     999901    1    3    3    0    0 -0.10767199467E+00 -0.90673055419E-01 -0.45802926732E-01  0.89236358594E+00  0.88000000000E+00 0. -1.
        -11    1    4    4    0    0  0.44163904722E-01  0.28838363028E-01  0.15475355724E-01  0.54971350886E-01  0.51100000000E-03 0.  1.
         11    1    4    4    0    0  0.49006335768E-01  0.46030236919E-01  0.33144313575E-01  0.74961392060E-01  0.51100000000E-03 0. -1.
</event>
<event>
 8    1  0.1129676E+005  0.1043930E+01  0.7957747E-01            NaN
         13   -1    0    0    0    0  0.00000000000E+00  0.00000000000E+00  0.74505805969E-08  0.10566000000E+00  0.10566000000E+00 0. -1.
     999900   -1    0    0    0    0 -0.00000000000E+00 -0.00000000000E+00 -0.74505805969E-08  0.93827000000E+00  0.93827000000E+00 0.  1.
     999902    2    1    2    0    0 -0.12027637970E-01  0.13953062146E-01  0.15434199630E-01  0.10198973860E+01  0.10196141973E+01 0.  0.
     999903    2    3    3    0    0  0.49606830111E-02 -0.10304932633E+00 -0.72563398797E-01  0.12764084255E+00  0.19569512234E-01 0.  0.
         14    1    1    2    0    0  0.12027637970E-01 -0.13953062146E-01 -0.15434199630E-01  0.24032614020E-01  0.00000000000E+00 0.  1.
     999901    1    3    3    0    0 -0.16988320981E-01  0.11700238848E+00  0.87997598428E-01  0.89225654343E+00  0.88000000000E+00 0. -1.
        -11    1    4    4    0    0 -0.31728913213E-02 -0.26579452443E-01 -0.28085712106E-01  0.38802098874E-01  0.51100000000E-03 0.  1.
         11    1    4    4    0    0  0.81335743324E-02 -0.76469873889E-01 -0.44477686691E-01  0.88838743679E-01  0.51100000000E-03 0. -1.
</event>
<event>
 8    1  0.1129676E+005  0.1043930E+01  0.7957747E-01            NaN
         13   -1    0    0    0    0  0.00000000000E+00  0.00000000000E+00  0.74505805969E-08  0.10566000000E+00  0.10566000000E+00 0.  1.
     999900   -1    0    0    0    0 -0.00000000000E+00 -0.00000000000E+00 -0.74505805969E-08  0.93827000000E+00  0.93827000000E+00 0.  1.
     999902    2    1    2    0    0 -0.12773782404E-01  0.18298294553E-01  0.18651430440E-02  0.10215363433E+01  0.10212908620E+01 0.  0.
     999903    2    3    3    0    0  0.18467083992E-01  0.11228410318E+00  0.66720946237E-01  0.13360864404E+00  0.21232806626E-01 0.  0.
         14    1    1    2    0    0  0.12773782404E-01 -0.18298294553E-01 -0.18651430440E-02  0.22393656670E-01  0.00000000000E+00 0. -1.
     999901    1    3    3    0    0 -0.31240866397E-01 -0.93985808629E-01 -0.64855803193E-01  0.88792769929E+00  0.88000000000E+00 0.  1.
        -11    1    4    4    0    0  0.15988478192E-01  0.39744019848E-01  0.29683989091E-01  0.52121194133E-01  0.51100000000E-03 0. -1.
         11    1    4    4    0    0  0.24786058007E-02  0.72540083334E-01  0.37036957147E-01  0.81487449908E-01  0.51100000000E-03 0.  1.
</event>
<event>
 8    1  0.1129676E+005  0.1043930E+01  0.7957747E-01            NaN
         13   -1    0    0    0    0  0.00000000000E+00  0.00000000000E+00  0.74505805969E-08  0.10566000000E+00  0.10566000000E+00 0.  1.
     999900   -1    0    0    0    0 -0.00000000000E+00 -0.00000000000E+00 -0.74505805969E-08  0.93827000000E+00  0.93827000000E+00 0.  1.
     999902    2    1    2    0    0 -0.47845941586E-02  0.15942015487E-01 -0.13980632194E-01  0.10221929745E+01  0.10219618285E+01 0.  0.
     999903    2    3    3    0    0  0.47042806618E-01 -0.36946227654E-01 -0.11726318681E+00  0.13306388840E+00  0.19424057860E-01 0.  0.
         14    1    1    2    0    0  0.47845941586E-02 -0.15942015487E-01  0.13980632194E-01  0.21737025454E-01  0.00000000000E+00 0.  1.
     999901    1    3    3    0    0 -0.51827400777E-01  0.52888243141E-01  0.10328255462E+00  0.88912908614E+00  0.88000000000E+00 0. -1.
        -11    1    4    4    0    0 -0.12027999857E-03  0.12497404638E-02 -0.76560645469E-02  0.77751375455E-02  0.51100000000E-03 0. -1.
         11    1    4    4    0    0  0.47163086617E-01 -0.38195968118E-01 -0.10960712227E+00  0.12528875086E+00  0.51100000000E-03 0.  1.
</event>
<event>
 8    1  0.1129676E+005  0.1043930E+01  0.7957747E-01            NaN
         13   -1    0    0    0    0  0.00000000000E+00  0.00000000000E+00  0.74505805969E-08  0.10566000000E+00  0.10566000000E+00 0. -1.
     999900   -1    0    0    0    0 -0.00000000000E+00 -0.00000000000E+00 -0.74505805969E-08  0.93827000000E+00  0.93827000000E+00 0.  1.
     999902    2    1    2    0    0  0.15371341590E-01  0.11651103763E-01 -0.14280159383E-01  0.10199310560E+01  0.10196486697E+01 0.  0.
     999903    2    3    3    0    0 -0.53374554281E-01  0.13527332982E-01 -0.11749386565E+00  0.13123392671E+00  0.19639329727E-01 0.  0.
         14    1    1    2    0    0 -0.15371341590E-01 -0.11651103763E-01  0.14280159383E-01  0.23998944001E-01  0.00000000000E+00 0.  1.
     999901    1    3    3    0    0  0.68745895871E-01 -0.18762292189E-02  0.10321370627E+00  0.88869712928E+00  0.88000000000E+00 0. -1.
        -11    1    4    4    0    0 -0.38829787287E-01  0.32707673216E-02 -0.93980441737E-01  0.10174003563E+00  0.51100000000E-03 0. -1.
         11    1    4    4    0    0 -0.14544766994E-01  0.10256565660E-01 -0.23513423918E-01  0.29493891086E-01  0.51100000000E-03 0.  1.
</event>
<event>
 8    1  0.1129676E+005  0.1043930E+01  0.7957747E-01            NaN
         13   -1    0    0    0    0  0.00000000000E+00  0.00000000000E+00  0.74505805969E-08  0.10566000000E+00  0.10566000000E+00 0.  1.
     999900   -1    0    0    0    0 -0.00000000000E+00 -0.00000000000E+00 -0.74505805969E-08  0.93827000000E+00  0.93827000000E+00 0.  1.
     999902    2    1    2    0    0  0.14866496521E-01 -0.14937694410E-01  0.21368071829E-02  0.10227471442E+01  0.10225277540E+01 0.  0.
     999903    2    3    3    0    0 -0.32014346225E-01 -0.12848709426E+00 -0.83915122974E-02  0.13415155280E+00  0.19808328661E-01 0.  0.
         14    1    1    2    0    0 -0.14866496521E-01  0.14937694410E-01 -0.21368071829E-02  0.21182855757E-01  0.00000000000E+00 0.  1.
     999901    1    3    3    0    0  0.46880842746E-01  0.11354939985E+00  0.10528319480E-01  0.88859559144E+00  0.88000000000E+00 0.  1.
        -11    1    4    4    0    0 -0.95061370574E-02 -0.67573860996E-01  0.25829802260E-02  0.68290015665E-01  0.51100000000E-03 0. -1.
         11    1    4    4    0    0 -0.22508209168E-01 -0.60913233264E-01 -0.10974492523E-01  0.65861537135E-01  0.51100000000E-03 0.  1.
</event>
<event>
 8    1  0.1129676E+005  0.1043930E+01  0.7957747E-01            NaN
         13   -1    0    0    0    0  0.00000000000E+00  0.00000000000E+00  0.74505805969E-08  0.10566000000E+00  0.10566000000E+00 0. -1.
     999900   -1    0    0    0    0 -0.00000000000E+00 -0.00000000000E+00 -0.74505805969E-08  0.93827000000E+00  0.93827000000E+00 0. -1.
     999902    2    1    2    0    0  0.15006012470E-01 -0.18707396826E-01  0.76319508362E-02  0.10187626843E+01  0.10184517726E+01 0.  0.
     999903    2    3    3    0    0  0.12094336552E+00 -0.47903340692E-01  0.94471543748E-02  0.13192649825E+00  0.19832410428E-01 0.  0.
         14    1    1    2    0    0 -0.15006012470E-01  0.18707396826E-01 -0.76319508362E-02  0.25167315706E-01  0.00000000000E+00 0.  1.
     999901    1    3    3    0    0 -0.10593735305E+00  0.29195943866E-01 -0.18152035386E-02  0.88683618604E+00  0.88000000000E+00 0.  1.
        -11    1    4    4    0    0  0.52097801994E-01 -0.30427350832E-01  0.52000862583E-03  0.60336855911E-01  0.51100000000E-03 0.  1.
         11    1    4    4    0    0  0.68845563523E-01 -0.17475989860E-01  0.89271457490E-02  0.71589642341E-01  0.51100000000E-03 0. -1.
</event>
<event>
 8    1  0.1269242E+005  0.1043930E+01  0.7957747E-01            NaN
         13   -1    0    0    0    0  0.00000000000E+00  0.00000000000E+00  0.74505805969E-08  0.10566000000E+00  0.10566000000E+00 0.  1.
     999900   -1    0    0    0    0 -0.00000000000E+00 -0.00000000000E+00 -0.74505805969E-08  0.93827000000E+00  0.93827000000E+00 0.  1.
     999902    2    1    2    0    0 -0.15588773851E-01  0.26609611185E-02  0.18302770736E-01  0.10197415317E+01  0.10194546137E+01 0.  0.
     999903    2    3    3    0    0 -0.71632735895E-01 -0.11678014004E-01  0.11001288661E+00  0.13308642552E+00  0.18480708134E-01 0.  0.
         14    1    1    2    0    0  0.15588773851E-01 -0.26609611185E-02 -0.18302770736E-01  0.24188468344E-01  0.00000000000E+00 0. -1.
     999901    1    3    3    0    0  0.56043962045E-01  0.14338975123E-01 -0.91710115876E-01  0.88665510614E+00  0.88000000000E+00 0.  1.
        -11    1    4    4    0    0 -0.39215655781E-01 -0.15190444258E-01  0.67042577866E-01  0.79142817887E-01  0.51100000000E-03 0. -1.
         11    1    4    4    0    0 -0.32417080115E-01  0.35124302534E-02  0.42970308745E-01  0.53943607629E-01  0.51100000000E-03 0.  1.
</event>
<event>
 8    1  0.1129676E+005  0.1043930E+01  0.7957747E-01            NaN
         13   -1    0    0    0    0  0.00000000000E+00  0.00000000000E+00  0.74505805969E-08  0.10566000000E+00  0.10566000000E+00 0. -1.
     999900   -1    0    0    0    0 -0.00000000000E+00 -0.00000000000E+00 -0.74505805969E-08  0.93827000000E+00  0.93827000000E+00 0. -1.
     999902    2    1    2    0    0 -0.45237645152E-02  0.22790640927E-01 -0.37720966488E-02  0.10203905337E+01  0.10201189807E+01 0.  0.
     999903    2    3    3    0    0  0.22082676679E-01  0.10164199353E+00  0.79644904365E-01  0.13253703535E+00  0.20100136600E-01 0.  0.
         14    1    1    2    0    0  0.45237645152E-02 -0.22790640927E-01  0.37720966488E-02  0.23539466273E-01  0.00000000000E+00 0.  1.
     999901    1    3    3    0    0 -0.26606441194E-01 -0.78851352598E-01 -0.83417001014E-01  0.88785349838E+00  0.88000000000E+00 0. -1.
        -11    1    4    4    0    0  0.37057527342E-02  0.20315778076E-01  0.26743113730E-01  0.33792287510E-01  0.51100000000E-03 0. -1.
         11    1    4    4    0    0  0.18376923944E-01  0.81326215449E-01  0.52901790635E-01  0.98744747842E-01  0.51100000000E-03 0.  1.
</event>
<event>
 8    1  0.1129676E+005  0.1043930E+01  0.7957747E-01            NaN
         13   -1    0    0    0    0  0.00000000000E+00  0.00000000000E+00  0.74505805969E-08  0.10566000000E+00  0.10566000000E+00 0. -1.
     999900   -1    0    0    0    0 -0.00000000000E+00 -0.00000000000E+00 -0.74505805969E-08  0.93827000000E+00  0.93827000000E+00 0. -1.
     999902    2    1    2    0    0  0.14951350355E-01 -0.16444544130E-01 -0.92635825910E-02  0.10198513814E+01  0.10195670946E+01 0.  0.
     999903    2    3    3    0    0 -0.11009943595E+00  0.38026135899E-01 -0.50906370436E-01  0.12837009958E+00  0.17875992503E-01 0.  0.
         14    1    1    2    0    0 -0.14951350355E-01  0.16444544130E-01  0.92635825910E-02  0.24078618555E-01  0.00000000000E+00 0. -1.
     999901    1    3    3    0    0  0.12505078630E+00 -0.54470680029E-01  0.41642787845E-01  0.89148128187E+00  0.88000000000E+00 0. -1.
        -11    1    4    4    0    0 -0.32797065302E-01  0.19135366849E-01 -0.12267820158E-01  0.39907020552E-01  0.51100000000E-03 0.  1.
         11    1    4    4    0    0 -0.77302370644E-01  0.18890769050E-01 -0.38638550277E-01  0.88463079028E-01  0.51100000000E-03 0. -1.
</event>
<event>
 8    1  0.1129676E+005  0.1043930E+01  0.7957747E-01            NaN
         13   -1    0    0    0    0  0.00000000000E+00  0.00000000000E+00  0.74505805969E-08  0.10566000000E+00  0.10566000000E+00 0.  1.
     999900   -1    0    0    0    0 -0.00000000000E+00 -0.00000000000E+00 -0.74505805969E-08  0.93827000000E+00  0.93827000000E+00 0. -1.
     999902    2    1    2    0    0  0.12426602871E-01  0.14734410105E-01  0.82534198889E-02  0.10229623525E+01  0.10227474432E+01 0.  0.
     999903    2    3    3    0    0 -0.30415142664E-01  0.25431825438E-01 -0.12428572816E+00  0.13194244501E+00  0.19748618225E-01 0.  0.
         14    1    1    2    0    0 -0.12426602871E-01 -0.14734410105E-01 -0.82534198889E-02  0.20967647458E-01  0.00000000000E+00 0.  1.
     999901    1    3    3    0    0  0.42841745535E-01 -0.10697415333E-01  0.13253914805E+00  0.89101990753E+00  0.88000000000E+00 0.  1.
        -11    1    4    4    0    0 -0.13666489675E-01  0.12072755129E-01 -0.87398397769E-01  0.89281943359E-01  0.51100000000E-03 0.  1.
         11    1    4    4    0    0 -0.16748652989E-01  0.13359070309E-01 -0.36887330393E-01  0.42660501649E-01  0.51100000000E-03 0. -1.
</event>
<event>
 8    1  0.1129676E+005  0.1043930E+01  0.7957747E-01            NaN
         13   -1    0    0    0    0  0.00000000000E+00  0.00000000000E+00  0.74505805969E-08  0.10566000000E+00  0.10566000000E+00 0.  1.
     999900   -1    0    0    0    0 -0.00000000000E+00 -0.00000000000E+00 -0.74505805969E-08  0.93827000000E+00  0.93827000000E+00 0. -1.
     999902    2    1    2    0    0 -0.14674176459E-01  0.43693492786E-02 -0.17448246608E-01  0.10207165561E+01  0.10204525584E+01 0.  0.
     999903    2    3    3    0    0  0.28639288905E-01  0.12526401220E+00  0.13255290368E-01  0.13086584784E+00  0.20949601157E-01 0.  0.
         14    1    1    2    0    0  0.14674176459E-01 -0.43693492786E-02  0.17448246608E-01  0.23213443897E-01  0.00000000000E+00 0.  1.
     999901    1    3    3    0    0 -0.43313465364E-01 -0.12089466292E+00 -0.30703536976E-01  0.88985070826E+00  0.88000000000E+00 0. -1.
        -11    1    4    4    0    0  0.87589639977E-02  0.83198024136E-01  0.89765246546E-02  0.84139585132E-01  0.51100000000E-03 0.  1.
         11    1    4    4    0    0  0.19880324908E-01  0.42065988062E-01  0.42787657132E-02  0.46726262712E-01  0.51100000000E-03 0. -1.
</event>
<event>
 8    1  0.1129676E+005  0.1043930E+01  0.7957747E-01            NaN
         13   -1    0    0    0    0  0.00000000000E+00  0.00000000000E+00  0.74505805969E-08  0.10566000000E+00  0.10566000000E+00 0. -1.
     999900   -1    0    0    0    0 -0.00000000000E+00 -0.00000000000E+00 -0.74505805969E-08  0.93827000000E+00  0.93827000000E+00 0. -1.
     999902    2    1    2    0    0  0.82559805294E-02 -0.11682665057E-01  0.18500007275E-01  0.10205441892E+01  0.10202762106E+01 0.  0.
     999903    2    3    3    0    0 -0.64775741511E-01  0.10407499945E+00 -0.33704588901E-01  0.12843500913E+00  0.18222240773E-01 0.  0.
         14    1    1    2    0    0 -0.82559805294E-02  0.11682665057E-01 -0.18500007275E-01  0.23385810794E-01  0.00000000000E+00 0. -1.
     999901    1    3    3    0    0  0.73031722040E-01 -0.11575766450E+00  0.52204596175E-01  0.89210918008E+00  0.88000000000E+00 0.  1.
        -11    1    4    4    0    0 -0.23089664787E-02  0.14205888089E-01 -0.54584630837E-02  0.15401120830E-01  0.51100000000E-03 0.  1.
         11    1    4    4    0    0 -0.62466775032E-01  0.89869111359E-01 -0.28246125817E-01  0.11303388830E+00  0.51100000000E-03 0. -1.
</event>
<event>
 8    1  0.1412748E+005  0.1043930E+01  0.7957747E-01            NaN
         13   -1    0    0    0    0  0.00000000000E+00  0.00000000000E+00  0.74505805969E-08  0.10566000000E+00  0.10566000000E+00 0.  1.
     999900   -1    0    0    0    0 -0.00000000000E+00 -0.00000000000E+00 -0.74505805969E-08  0.93827000000E+00  0.93827000000E+00 0.  1.
     999902    2    1    2    0    0  0.11425330076E-01 -0.17577778960E-01  0.10947568983E-01  0.10202790857E+01  0.10200049250E+01 0.  0.
     999903    2    3    3    0    0  0.10502258950E+00 -0.54705879835E-01  0.57806104368E-01  0.13329844037E+00  0.20110964903E-01 0.  0.
         14    1    1    2    0    0 -0.11425330076E-01  0.17577778960E-01 -0.10947568983E-01  0.23650914299E-01  0.00000000000E+00 0. -1.
     999901    1    3    3    0    0 -0.93597259427E-01  0.37128100874E-01 -0.46858535385E-01  0.88698064533E+00  0.88000000000E+00 0.  1.
        -11    1    4    4    0    0  0.42926909784E-01 -0.12962391329E-01  0.27258325813E-01  0.52478763511E-01  0.51100000000E-03 0. -1.
         11    1    4    4    0    0  0.62095679720E-01 -0.41743488506E-01  0.30547778556E-01  0.80819676863E-01  0.51100000000E-03 0.  1.
</event>
<event>
 8    1  0.1349051E+005  0.1043930E+01  0.7957747E-01            NaN
         13   -1    0    0    0    0  0.00000000000E+00  0.00000000000E+00  0.74505805969E-08  0.10566000000E+00  0.10566000000E+00 0. -1.
     999900   -1    0    0    0    0 -0.00000000000E+00 -0.00000000000E+00 -0.74505805969E-08  0.93827000000E+00  0.93827000000E+00 0. -1.
     999902    2    1    2    0    0 -0.10944187533E-01  0.17244750759E-01  0.62902030106E-02  0.10225589138E+01  0.10223355657E+01 0.  0.
     999903    2    3    3    0    0  0.76040985806E-01 -0.49958302720E-01  0.92822409327E-01  0.13150869444E+00  0.20011834159E-01 0.  0.
         14    1    1    2    0    0  0.10944187533E-01 -0.17244750759E-01 -0.62902030106E-02  0.21371086154E-01  0.00000000000E+00 0.  1.
     999901    1    3    3    0    0 -0.86985173339E-01  0.67203053479E-01 -0.86532206316E-01  0.89105021941E+00  0.88000000000E+00 0.  1.
        -11    1    4    4    0    0  0.36813663944E-01 -0.28792353039E-01  0.60480848280E-01  0.76435852688E-01  0.51100000000E-03 0. -1.
         11    1    4    4    0    0  0.39227321863E-01 -0.21165949680E-01  0.32341561046E-01  0.55072841749E-01  0.51100000000E-03 0.  1.
</event>
<event>
 8    1  0.1129676E+005  0.1043930E+01  0.7957747E-01            NaN
         13   -1    0    0    0    0  0.00000000000E+00  0.00000000000E+00  0.74505805969E-08  0.10566000000E+00  0.10566000000E+00 0.  1.
     999900   -1    0    0    0    0 -0.00000000000E+00 -0.00000000000E+00 -0.74505805969E-08  0.93827000000E+00  0.93827000000E+00 0. -1.
     999902    2    1    2    0    0  0.16031660894E-02  0.18156587862E-02 -0.21924754926E-01  0.10218718578E+01  0.10216337564E+01 0.  0.
     999903    2    3    3    0    0  0.71766552678E-01 -0.10869436931E+00 -0.10785710353E-01  0.13211939479E+00  0.19346806711E-01 0.  0.
         14    1    1    2    0    0 -0.16031660894E-02 -0.18156587862E-02  0.21924754926E-01  0.22058142191E-01  0.00000000000E+00 0.  1.
     999901    1    3    3    0    0 -0.70163386589E-01  0.11051002810E+00 -0.11139044573E-01  0.88975246302E+00  0.88000000000E+00 0.  1.
        -11    1    4    4    0    0  0.20742637432E-01 -0.48289429827E-01 -0.25693950087E-02  0.52621183495E-01  0.51100000000E-03 0. -1.
         11    1    4    4    0    0  0.51023915246E-01 -0.60404939483E-01 -0.82163153439E-02  0.79498211300E-01  0.51100000000E-03 0.  1.
</event>
<event>
 8    1  0.1129676E+005  0.1043930E+01  0.7957747E-01            NaN
         13   -1    0    0    0    0  0.00000000000E+00  0.00000000000E+00  0.74505805969E-08  0.10566000000E+00  0.10566000000E+00 0.  1.
     999900   -1    0    0    0    0 -0.00000000000E+00 -0.00000000000E+00 -0.74505805969E-08  0.93827000000E+00  0.93827000000E+00 0. -1.
     999902    2    1    2    0    0  0.12755800640E-03  0.17700612256E-01 -0.14626058421E-01  0.10209680852E+01  0.10207098420E+01 0.  0.
     999903    2    3    3    0    0  0.62333994932E-01 -0.90387570951E-01  0.64093237528E-01  0.12869602823E+00  0.19982108940E-01 0.  0.
         14    1    1    2    0    0 -0.12755800640E-03 -0.17700612256E-01  0.14626058421E-01  0.22961914777E-01  0.00000000000E+00 0.  1.
     999901    1    3    3    0    0 -0.62206436925E-01  0.10808818321E+00 -0.78719295949E-01  0.89227205700E+00  0.88000000000E+00 0. -1.
        -11    1    4    4    0    0  0.25782498869E-01 -0.39772388320E-01  0.39091304510E-01  0.61440795323E-01  0.51100000000E-03 0. -1.
         11    1    4    4    0    0  0.36551496063E-01 -0.50615182632E-01  0.25001933018E-01  0.67255232903E-01  0.51100000000E-03 0.  1.
</event>
<event>
 8    1  0.1129676E+005  0.1043930E+01  0.7957747E-01            NaN
         13   -1    0    0    0    0  0.00000000000E+00  0.00000000000E+00  0.74505805969E-08  0.10566000000E+00  0.10566000000E+00 0.  1.
     999900   -1    0    0    0    0 -0.00000000000E+00 -0.00000000000E+00 -0.74505805969E-08  0.93827000000E+00  0.93827000000E+00 0. -1.
     999902    2    1    2    0    0 -0.12658844607E-01 -0.15013904912E-01 -0.13697788843E-01  0.10199864600E+01  0.10197053915E+01 0.  0.
     999903    2    3    3    0    0 -0.80895194581E-01  0.34901420159E-01 -0.95825577738E-01  0.13212796181E+00  0.22652048657E-01 0.  0.
         14    1    1    2    0    0  0.12658844607E-01  0.15013904912E-01  0.13697788843E-01  0.23943539978E-01  0.00000000000E+00 0.  1.
     999901    1    3    3    0    0  0.68236349974E-01 -0.49915325072E-01  0.82127788896E-01  0.88785849821E+00  0.88000000000E+00 0.  1.
        -11    1    4    4    0    0 -0.54714758391E-01  0.32782098583E-01 -0.58974890287E-01  0.86871569449E-01  0.51100000000E-03 0.  1.
         11    1    4    4    0    0 -0.26180436190E-01  0.21193215766E-02 -0.36850687451E-01  0.45256392363E-01  0.51100000000E-03 0. -1.
</event>
<event>
 8    1  0.1129676E+005  0.1043930E+01  0.7957747E-01            NaN
         13   -1    0    0    0    0  0.00000000000E+00  0.00000000000E+00  0.74505805969E-08  0.10566000000E+00  0.10566000000E+00 0.  1.
     999900   -1    0    0    0    0 -0.00000000000E+00 -0.00000000000E+00 -0.74505805969E-08  0.93827000000E+00  0.93827000000E+00 0.  1.
     999902    2    1    2    0    0  0.54603256781E-02 -0.13227134199E-01  0.19096809368E-01  0.10200666313E+01  0.10197874641E+01 0.  0.
     999903    2    3    3    0    0  0.10930142862E+00  0.60125746458E-01  0.33353298366E-01  0.13081589773E+00  0.20939171442E-01 0.  0.
         14    1    1    2    0    0 -0.54603256781E-02  0.13227134199E-01 -0.19096809368E-01  0.23863368657E-01  0.00000000000E+00 0. -1.
     999901    1    3    3    0    0 -0.10384110294E+00 -0.73352880657E-01 -0.14256488997E-01  0.88925073362E+00  0.88000000000E+00 0.  1.
        -11    1    4    4    0    0  0.59886956068E-01  0.37205227737E-01  0.87573800571E-02  0.71046669904E-01  0.51100000000E-03 0.  1.
         11    1    4    4    0    0  0.49414472551E-01  0.22920518721E-01  0.24595918308E-01  0.59769227821E-01  0.51100000000E-03 0. -1.
</event>
<event>
 8    1  0.1129676E+005  0.1043930E+01  0.7957747E-01            NaN
         13   -1    0    0    0    0  0.00000000000E+00  0.00000000000E+00  0.74505805969E-08  0.10566000000E+00  0.10566000000E+00 0. -1.
     999900   -1    0    0    0    0 -0.00000000000E+00 -0.00000000000E+00 -0.74505805969E-08  0.93827000000E+00  0.93827000000E+00 0. -1.
     999902    2    1    2    0    0 -0.22664025694E-01  0.38223479984E-02 -0.58075985259E-02  0.10202235324E+01  0.10199480671E+01 0.  0.
     999903    2    3    3    0    0 -0.52094621390E-01  0.56364159169E-01  0.10468056649E+00  0.13127221963E+00  0.19585878306E-01 0.  0.
         14    1    1    2    0    0  0.22664025694E-01 -0.38223479984E-02  0.58075985259E-02  0.23706467589E-01  0.00000000000E+00 0. -1.
     999901    1    3    3    0    0  0.29430595695E-01 -0.52541811170E-01 -0.11048816502E+00  0.88895131278E+00  0.88000000000E+00 0. -1.
        -11    1    4    4    0    0 -0.11545760598E-01  0.95443650025E-02  0.34808228823E-01  0.37898197924E-01  0.51100000000E-03 0. -1.
         11    1    4    4    0    0 -0.40548860792E-01  0.46819794166E-01  0.69872337670E-01  0.93374021707E-01  0.51100000000E-03 0.  1.
</event>
<event>
 8    1  0.1129676E+005  0.1043930E+01  0.7957747E-01            NaN
         13   -1    0    0    0    0  0.00000000000E+00  0.00000000000E+00  0.74505805969E-08  0.10566000000E+00  0.10566000000E+00 0. -1.
     999900   -1    0    0    0    0 -0.00000000000E+00 -0.00000000000E+00 -0.74505805969E-08  0.93827000000E+00  0.93827000000E+00 0.  1.
     999902    2    1    2    0    0 -0.81618156055E-02 -0.15481265354E-01 -0.16140866714E-01  0.10201221780E+01  0.10198443242E+01 0.  0.
     999903    2    3    3    0    0  0.12381840786E+00 -0.12234109341E-01  0.28028106385E-01  0.12917873332E+00  0.20515819172E-01 0.  0.
         14    1    1    2    0    0  0.81618156055E-02  0.15481265354E-01  0.16140866714E-01  0.23807822018E-01  0.00000000000E+00 0. -1.
     999901    1    3    3    0    0 -0.13198022347E+00 -0.32471560134E-02 -0.44168973099E-01  0.89094344467E+00  0.88000000000E+00 0.  1.
        -11    1    4    4    0    0  0.10779454425E+00 -0.71912417459E-02  0.17764463661E-01  0.10948614076E+00  0.51100000000E-03 0.  1.
         11    1    4    4    0    0  0.16023863613E-01 -0.50428675948E-02  0.10263642723E-01  0.19692592557E-01  0.51100000000E-03 0. -1.
</event>
<event>
 8    1  0.1129676E+005  0.1043930E+01  0.7957747E-01            NaN
         13   -1    0    0    0    0  0.00000000000E+00  0.00000000000E+00  0.74505805969E-08  0.10566000000E+00  0.10566000000E+00 0. -1.
     999900   -1    0    0    0    0 -0.00000000000E+00 -0.00000000000E+00 -0.74505805969E-08  0.93827000000E+00  0.93827000000E+00 0. -1.
     999902    2    1    2    0    0  0.14872306300E-01  0.16621945451E-01 -0.63531323030E-02  0.10207386901E+01  0.10204752014E+01 0.  0.
     999903    2    3    3    0    0 -0.11167744801E+00  0.44583220108E-01 -0.46237493633E-01  0.13035257414E+00  0.19858798012E-01 0.  0.
         14    1    1    2    0    0 -0.14872306300E-01 -0.16621945451E-01  0.63531323030E-02  0.23191309910E-01  0.00000000000E+00 0.  1.
     999901    1    3    3    0    0  0.12654975431E+00 -0.27961274657E-01  0.39884361330E-01  0.89038611595E+00  0.88000000000E+00 0.  1.
        -11    1    4    4    0    0 -0.32233555150E-01  0.16453422864E-01 -0.23167921333E-01  0.42973607033E-01  0.51100000000E-03 0.  1.
         11    1    4    4    0    0 -0.79443892860E-01  0.28129797244E-01 -0.23069572300E-01  0.87378967108E-01  0.51100000000E-03 0. -1.
</event>
<event>
 8    1  0.1129676E+005  0.1043930E+01  0.7957747E-01            NaN
         13   -1    0    0    0    0  0.00000000000E+00  0.00000000000E+00  0.74505805969E-08  0.10566000000E+00  0.10566000000E+00 0. -1.
     999900   -1    0    0    0    0 -0.00000000000E+00 -0.00000000000E+00 -0.74505805969E-08  0.93827000000E+00  0.93827000000E+00 0.  1.
     999902    2    1    2    0    0 -0.12599917875E-01 -0.97656898732E-02 -0.17456062766E-01  0.10202901870E+01  0.10200162866E+01 0.  0.
     999903    2    3    3    0    0 -0.28617211677E-01 -0.12647679725E+00 -0.17714407622E-01  0.13243991643E+00  0.20278219391E-01 0.  0.
         14    1    1    2    0    0  0.12599917875E-01  0.97656898732E-02  0.17456062766E-01  0.23639812953E-01  0.00000000000E+00 0. -1.
     999901    1    3    3    0    0  0.16017293802E-01  0.11671110737E+00  0.25834485590E-03  0.88785027061E+00  0.88000000000E+00 0. -1.
        -11    1    4    4    0    0 -0.14785321055E-01 -0.27529024361E-01 -0.62728905759E-02  0.31875745924E-01  0.51100000000E-03 0.  1.
         11    1    4    4    0    0 -0.13831890621E-01 -0.98947772886E-01 -0.11441517046E-01  0.10056417051E+00  0.51100000000E-03 0. -1.
</event>
<event>
 8    1  0.1129676E+005  0.1043930E+01  0.7957747E-01            NaN
         13   -1    0    0    0    0  0.00000000000E+00  0.00000000000E+00  0.74505805969E-08  0.10566000000E+00  0.10566000000E+00 0. -1.
     999900   -1    0    0    0    0 -0.00000000000E+00 -0.00000000000E+00 -0.74505805969E-08  0.93827000000E+00  0.93827000000E+00 0. -1.
     999902    2    1    2    0    0  0.30940457714E-02 -0.17252367059E-01 -0.16215804121E-01  0.10200517758E+01  0.10197722568E+01 0.  0.
     999903    2    3    3    0    0  0.93936965378E-01 -0.88509838734E-01  0.18714606012E-01  0.13182309078E+00  0.19207961047E-01 0.  0.
         14    1    1    2    0    0 -0.30940457714E-02  0.17252367059E-01  0.16215804121E-01  0.23878224215E-01  0.00000000000E+00 0. -1.
     999901    1    3    3    0    0 -0.90842919607E-01  0.71257471674E-01 -0.34930410133E-01  0.88822868500E+00  0.88000000000E+00 0. -1.
        -11    1    4    4    0    0  0.76336570060E-01 -0.70301530430E-01  0.72816332067E-02  0.10403297752E+00  0.51100000000E-03 0. -1.
         11    1    4    4    0    0  0.17600395318E-01 -0.18208308304E-01  0.11432972805E-01  0.27790113257E-01  0.51100000000E-03 0.  1.
</event>
<event>
 8    1  0.1129676E+005  0.1043930E+01  0.7957747E-01            NaN
         13   -1    0    0    0    0  0.00000000000E+00  0.00000000000E+00  0.74505805969E-08  0.10566000000E+00  0.10566000000E+00 0.  1.
     999900   -1    0    0    0    0 -0.00000000000E+00 -0.00000000000E+00 -0.74505805969E-08  0.93827000000E+00  0.93827000000E+00 0. -1.
     999902    2    1    2    0    0 -0.15006623393E-01  0.17622385718E-01  0.35701556081E-02  0.10205100676E+01  0.10202412973E+01 0.  0.
     999903    2    3    3    0    0 -0.45447151326E-01 -0.10843048938E+00 -0.50174966649E-01  0.12938466044E+00  0.20006211273E-01 0.  0.
         14    1    1    2    0    0  0.15006623393E-01 -0.17622385718E-01 -0.35701556081E-02  0.23419932432E-01  0.00000000000E+00 0. -1.
     999901    1    3    3    0    0  0.30440527932E-01  0.12605287509E+00  0.53745122257E-01  0.89112540713E+00  0.88000000000E+00 0.  1.
        -11    1    4    4    0    0 -0.28149790999E-01 -0.44795810987E-01 -0.17057921330E-01  0.55590549704E-01  0.51100000000E-03 0.  1.
         11    1    4    4    0    0 -0.17297360326E-01 -0.63634678388E-01 -0.33117045319E-01  0.73794110738E-01  0.51100000000E-03 0. -1.
</event>
<event>
 8    1  0.1129676E+005  0.1043930E+01  0.7957747E-01            NaN
         13   -1    0    0    0    0  0.00000000000E+00  0.00000000000E+00  0.74505805969E-08  0.10566000000E+00  0.10566000000E+00 0. -1.
     999900   -1    0    0    0    0 -0.00000000000E+00 -0.00000000000E+00 -0.74505805969E-08  0.93827000000E+00  0.93827000000E+00 0. -1.
     999902    2    1    2    0    0  0.65194589165E-02 -0.20358070297E-01  0.95854751203E-02  0.10205027572E+01  0.10202338172E+01 0.  0.
     999903    2    3    3    0    0 -0.13665326391E-01  0.34956670966E-01  0.12424601069E+00  0.13111297508E+00  0.18569627727E-01 0.  0.
         14    1    1    2    0    0 -0.65194589165E-02  0.20358070297E-01 -0.95854751203E-02  0.23427242776E-01  0.00000000000E+00 0.  1.
     999901    1    3    3    0    0  0.20184785307E-01 -0.55314741264E-01 -0.11466053556E+00  0.88938978214E+00  0.88000000000E+00 0. -1.
        -11    1    4    4    0    0 -0.10664649182E-01  0.13320585482E-01  0.31504636919E-01  0.35832610959E-01  0.51100000000E-03 0.  1.
         11    1    4    4    0    0 -0.30006772090E-02  0.21636085484E-01  0.92741373766E-01  0.95280364125E-01  0.51100000000E-03 0. -1.
</event>
<event>
 8    1  0.1153884E+005  0.1043930E+01  0.7957747E-01            NaN
         13   -1    0    0    0    0  0.00000000000E+00  0.00000000000E+00  0.74505805969E-08  0.10566000000E+00  0.10566000000E+00 0. -1.
     999900   -1    0    0    0    0 -0.00000000000E+00 -0.00000000000E+00 -0.74505805969E-08  0.93827000000E+00  0.93827000000E+00 0.  1.
     999902    2    1    2    0    0 -0.13572275688E-01  0.34470746401E-02  0.19807119088E-01  0.10196728164E+01  0.10193842462E+01 0.  0.
     999903    2    3    3    0    0  0.93634881347E-01  0.74569960934E-01 -0.41777345959E-01  0.12818838812E+00  0.18940594925E-01 0.  0.
         14    1    1    2    0    0  0.13572275688E-01 -0.34470746401E-02 -0.19807119088E-01  0.24257183627E-01  0.00000000000E+00 0. -1.
     999901    1    3    3    0    0 -0.10720715704E+00 -0.71122886294E-01  0.61584465047E-01  0.89148442825E+00  0.88000000000E+00 0. -1.
        -11    1    4    4    0    0  0.64016464053E-01  0.57739453702E-01 -0.22734626654E-01  0.89157593921E-01  0.51100000000E-03 0. -1.
         11    1    4    4    0    0  0.29618417294E-01  0.16830507232E-01 -0.19042719304E-01  0.39030794204E-01  0.51100000000E-03 0.  1.
</event>
<event>
 8    1  0.1129676E+005  0.1043930E+01  0.7957747E-01            NaN
         13   -1    0    0    0    0  0.00000000000E+00  0.00000000000E+00  0.74505805969E-08  0.10566000000E+00  0.10566000000E+00 0.  1.
     999900   -1    0    0    0    0 -0.00000000000E+00 -0.00000000000E+00 -0.74505805969E-08  0.93827000000E+00  0.93827000000E+00 0.  1.
     999902    2    1    2    0    0 -0.23072559129E-01  0.56863187752E-02 -0.31697632806E-02  0.10199565854E+01  0.10196748068E+01 0.  0.
     999903    2    3    3    0    0  0.84286170136E-01 -0.92637783683E-01  0.20099151015E-01  0.12769262885E+00  0.14680400171E-01 0.  0.
         14    1    1    2    0    0  0.23072559129E-01 -0.56863187752E-02  0.31697632806E-02  0.23973414551E-01  0.00000000000E+00 0.  1.
     999901    1    3    3    0    0 -0.10735872926E+00  0.98324102458E-01 -0.23268914296E-01  0.89226395660E+00  0.88000000000E+00 0. -1.
        -11    1    4    4    0    0  0.66323488218E-01 -0.65664540245E-01  0.19098174169E-01  0.95266144629E-01  0.51100000000E-03 0.  1.
         11    1    4    4    0    0  0.17962681918E-01 -0.26973243438E-01  0.10009768464E-02  0.32426484220E-01  0.51100000000E-03 0. -1.
</event>
<event>
 8    1  0.1129676E+005  0.1043930E+01  0.7957747E-01            NaN
         13   -1    0    0    0    0  0.00000000000E+00  0.00000000000E+00  0.74505805969E-08  0.10566000000E+00  0.10566000000E+00 0.  1.
     999900   -1    0    0    0    0 -0.00000000000E+00 -0.00000000000E+00 -0.74505805969E-08  0.93827000000E+00  0.93827000000E+00 0. -1.
     999902    2    1    2    0    0 -0.22006293297E-01 -0.71413967201E-02  0.47695420097E-02  0.10203074467E+01  0.10200339508E+01 0.  0.
     999903    2    3    3    0    0  0.20071489256E-01  0.11098203239E+00  0.61096365446E-01  0.12963556813E+00  0.18781332743E-01 0.  0.
         14    1    1    2    0    0  0.22006293297E-01  0.71413967201E-02 -0.47695420097E-02  0.23622553266E-01  0.00000000000E+00 0.  1.
     999901    1    3    3    0    0 -0.42077782553E-01 -0.11812342911E+00 -0.56326823437E-01  0.89067187860E+00  0.88000000000E+00 0.  1.
        -11    1    4    4    0    0  0.13686943628E-02  0.50912179660E-02  0.82911684700E-02  0.98386188174E-02  0.51100000000E-03 0. -1.
         11    1    4    4    0    0  0.18702794893E-01  0.10589081443E+00  0.52805196976E-01  0.11979694932E+00  0.51100000000E-03 0.  1.
</event>
<event>
 8    1  0.1129676E+005  0.1043930E+01  0.7957747E-01            NaN
         13   -1    0    0    0    0  0.00000000000E+00  0.00000000000E+00  0.74505805969E-08  0.10566000000E+00  0.10566000000E+00 0. -1.
     999900   -1    0    0    0    0 -0.00000000000E+00 -0.00000000000E+00 -0.74505805969E-08  0.93827000000E+00  0.93827000000E+00 0. -1.
     999902    2    1    2    0    0 -0.11547491812E-02  0.20184948027E-01 -0.30763218623E-02  0.10234793441E+01  0.10232750062E+01 0.  0.
     999903    2    3    3    0    0  0.52034454638E-01  0.10371739099E+00  0.66775351922E-01  0.13517420686E+00  0.18661106978E-01 0.  0.
         14    1    1    2    0    0  0.11547491812E-02 -0.20184948027E-01  0.30763218623E-02  0.20450655948E-01  0.00000000000E+00 0. -1.
     999901    1    3    3    0    0 -0.53189203820E-01 -0.83532442959E-01 -0.69851673784E-01  0.88830513719E+00  0.88000000000E+00 0. -1.
        -11    1    4    4    0    0  0.10420409633E-01  0.93526724808E-02  0.11708807495E-01  0.18259647133E-01  0.51100000000E-03 0. -1.
         11    1    4    4    0    0  0.41614045006E-01  0.94364718505E-01  0.55066544427E-01  0.11691455973E+00  0.51100000000E-03 0.  1.
</event>
<event>
 8    1  0.1129676E+005  0.1043930E+01  0.7957747E-01            NaN
         13   -1    0    0    0    0  0.00000000000E+00  0.00000000000E+00  0.74505805969E-08  0.10566000000E+00  0.10566000000E+00 0. -1.
     999900   -1    0    0    0    0 -0.00000000000E+00 -0.00000000000E+00 -0.74505805969E-08  0.93827000000E+00  0.93827000000E+00 0. -1.
     999902    2    1    2    0    0  0.13240712617E-01 -0.18350510646E-01 -0.95000693048E-02  0.10193880150E+01  0.10190925454E+01 0.  0.
     999903    2    3    3    0    0  0.77786478406E-02  0.12552832622E+00 -0.30211131637E-02  0.12766332052E+00  0.21700881022E-01 0.  0.
         14    1    1    2    0    0 -0.13240712617E-01  0.18350510646E-01  0.95000693048E-02  0.24541985013E-01  0.00000000000E+00 0. -1.
     999901    1    3    3    0    0  0.54620647768E-02 -0.14387883686E+00 -0.64789561412E-02  0.89172469447E+00  0.88000000000E+00 0. -1.
        -11    1    4    4    0    0  0.42428503307E-02  0.44817044045E-01 -0.11395475735E-01  0.46440146469E-01  0.51100000000E-03 0.  1.
         11    1    4    4    0    0  0.35357975099E-02  0.80711282170E-01  0.83743625714E-02  0.81223174052E-01  0.51100000000E-03 0. -1.
</event>
<event>
 8    1  0.1129676E+005  0.1043930E+01  0.7957747E-01            NaN
         13   -1    0    0    0    0  0.00000000000E+00  0.00000000000E+00  0.74505805969E-08  0.10566000000E+00  0.10566000000E+00 0. -1.
     999900   -1    0    0    0    0 -0.00000000000E+00 -0.00000000000E+00 -0.74505805969E-08  0.93827000000E+00  0.93827000000E+00 0. -1.
     999902    2    1    2    0    0 -0.17502550791E-02  0.10542278169E-01 -0.21998170038E-01  0.10194734568E+01  0.10191800658E+01 0.  0.
     999903    2    3    3    0    0 -0.12405571202E+00 -0.30857864729E-01  0.30390352760E-02  0.12969850866E+00  0.21689626832E-01 0.  0.
         14    1    1    2    0    0  0.17502550791E-02 -0.10542278169E-01  0.21998170038E-01  0.24456543232E-01  0.00000000000E+00 0. -1.
     999901    1    3    3    0    0  0.12230545694E+00  0.41400142898E-01 -0.25037205314E-01  0.88977494811E+00  0.88000000000E+00 0.  1.
        -11    1    4    4    0    0 -0.72295469353E-01 -0.98639245997E-02  0.90140218645E-02  0.73521735621E-01  0.51100000000E-03 0. -1.
         11    1    4    4    0    0 -0.51760242670E-01 -0.20993940130E-01 -0.59749865885E-02  0.56176773040E-01  0.51100000000E-03 0.  1.
</event>
<event>
 8    1  0.1129676E+005  0.1043930E+01  0.7957747E-01            NaN
         13   -1    0    0    0    0  0.00000000000E+00  0.00000000000E+00  0.74505805969E-08  0.10566000000E+00  0.10566000000E+00 0. -1.
     999900   -1    0    0    0    0 -0.00000000000E+00 -0.00000000000E+00 -0.74505805969E-08  0.93827000000E+00  0.93827000000E+00 0.  1.
     999902    2    1    2    0    0  0.87237039022E-02 -0.14899569169E-01  0.16650780134E-01  0.10199435736E+01  0.10196614854E+01 0.  0.
     999903    2    3    3    0    0 -0.65007767749E-01 -0.10717411234E+00  0.35128750988E-01  0.13186004341E+00  0.20993848589E-01 0.  0.
         14    1    1    2    0    0 -0.87237039022E-02  0.14899569169E-01 -0.16650780134E-01  0.23986426376E-01  0.00000000000E+00 0. -1.
     999901    1    3    3    0    0  0.73731471651E-01  0.92274543172E-01 -0.18477970854E-01  0.88808353021E+00  0.88000000000E+00 0.  1.
        -11    1    4    4    0    0 -0.37021313247E-01 -0.74794201560E-01  0.15990640692E-01  0.84974772328E-01  0.51100000000E-03 0.  1.
         11    1    4    4    0    0 -0.27986454502E-01 -0.32379910781E-01  0.19138110296E-01  0.46885271083E-01  0.51100000000E-03 0. -1.
</event>
<event>
 8    1  0.1491890E+005  0.1043930E+01  0.7957747E-01            NaN
         13   -1    0    0    0    0  0.00000000000E+00  0.00000000000E+00  0.74505805969E-08  0.10566000000E+00  0.10566000000E+00 0. -1.
     999900   -1    0    0    0    0 -0.00000000000E+00 -0.00000000000E+00 -0.74505805969E-08  0.93827000000E+00  0.93827000000E+00 0. -1.
     999902    2    1    2    0    0 -0.22196439244E-01  0.85356261383E-02 -0.45299173516E-02  0.10197213449E+01  0.10194339421E+01 0.  0.
     999903    2    3    3    0    0  0.71351035563E-01 -0.19903669135E-01  0.10234440538E+00  0.12787940579E+00  0.19789865922E-01 0.  0.
         14    1    1    2    0    0  0.22196439244E-01 -0.85356261383E-02  0.45299173516E-02  0.24208655062E-01  0.00000000000E+00 0.  1.
     999901    1    3    3    0    0 -0.93547474807E-01  0.28439295273E-01 -0.10687432273E+00  0.89184193914E+00  0.88000000000E+00 0. -1.
        -11    1    4    4    0    0  0.22933609365E-01 -0.12024709788E-01  0.48887363792E-01  0.55324312408E-01  0.51100000000E-03 0. -1.
         11    1    4    4    0    0  0.48417426199E-01 -0.78789593477E-02  0.53457041585E-01  0.72555093385E-01  0.51100000000E-03 0.  1.
</event>
<event>
 8    1  0.1129676E+005  0.1043930E+01  0.7957747E-01            NaN
         13   -1    0    0    0    0  0.00000000000E+00  0.00000000000E+00  0.74505805969E-08  0.10566000000E+00  0.10566000000E+00 0.  1.
     999900   -1    0    0    0    0 -0.00000000000E+00 -0.00000000000E+00 -0.74505805969E-08  0.93827000000E+00  0.93827000000E+00 0.  1.
     999902    2    1    2    0    0  0.35745810360E-02  0.21238271996E-01 -0.43391959349E-02  0.10219602379E+01  0.10217240612E+01 0.  0.
     999903    2    3    3    0    0  0.98987113221E-01 -0.62004539234E-01  0.55275559152E-01  0.13090084818E+00  0.20895768595E-01 0.  0.
         14    1    1    2    0    0 -0.35745810360E-02 -0.21238271996E-01  0.43391959349E-02  0.21969762136E-01  0.00000000000E+00 0. -1.
     999901    1    3    3    0    0 -0.95412532185E-01  0.83242811230E-01 -0.59614755087E-01  0.89105938968E+00  0.88000000000E+00 0. -1.
        -11    1    4    4    0    0  0.34682282487E-01 -0.27936549739E-01  0.30686133520E-01  0.54085223872E-01  0.51100000000E-03 0. -1.
         11    1    4    4    0    0  0.64304830734E-01 -0.34067989495E-01  0.24589425632E-01  0.76815624308E-01  0.51100000000E-03 0.  1.
</event>
<event>
 7    1  0.1129676E+005  0.1043930E+01  0.7957747E-01            NaN
         13   -1    0    0    0    0  0.00000000000E+00  0.00000000000E+00  0.74505805969E-08  0.10566000000E+00  0.10566000000E+00 0. -1.
     999900   -1    0    0    0    0 -0.00000000000E+00 -0.00000000000E+00 -0.74505805969E-08  0.93827000000E+00  0.93827000000E+00 0. -1.
     999902    2    1    2    0    0  0.95890040948E-02 -0.18714419401E-02  0.23575184034E-01  0.10184105839E+01  0.10180907999E+01 0.  0.
         14    1    1    2    0    0 -0.95890040948E-02  0.18714419401E-02 -0.23575184034E-01  0.25519416073E-01  0.00000000000E+00 0.  1.
     999901    1    3    3    0    0  0.52793434747E-01  0.11436908462E+00  0.14592574449E-01  0.88908963412E+00  0.88000000000E+00 0. -1.
        -11    1    3    3    0    0 -0.31007172051E-01 -0.72283705380E-01 -0.11175679496E-01  0.79445174273E-01  0.51100000000E-03 0.  1.
         11    1    3    3    0    0 -0.12197258601E-01 -0.43956821180E-01  0.20158289081E-01  0.49875775535E-01  0.51100000000E-03 0. -1.
</event>
<event>
 8    1  0.1129676E+005  0.1043930E+01  0.7957747E-01            NaN
         13   -1    0    0    0    0  0.00000000000E+00  0.00000000000E+00  0.74505805969E-08  0.10566000000E+00  0.10566000000E+00 0. -1.
     999900   -1    0    0    0    0 -0.00000000000E+00 -0.00000000000E+00 -0.74505805969E-08  0.93827000000E+00  0.93827000000E+00 0.  1.
     999902    2    1    2    0    0  0.24435590035E-01  0.16997713728E-02 -0.20207840304E-02  0.10193521471E+01  0.10190558027E+01 0.  0.
     999903    2    3    3    0    0  0.10448071369E+00 -0.25936500030E-01 -0.74342610943E-01  0.13233386550E+00  0.19912473220E-01 0.  0.
         14    1    1    2    0    0 -0.24435590035E-01 -0.16997713728E-02  0.20207840304E-02  0.24577852859E-01  0.00000000000E+00 0.  1.
     999901    1    3    3    0    0 -0.80045123653E-01  0.27636271403E-01  0.72321826912E-01  0.88701828164E+00  0.88000000000E+00 0. -1.
        -11    1    4    4    0    0  0.89459426044E-01 -0.22119694686E-01 -0.71333561567E-01  0.11653758161E+00  0.51100000000E-03 0.  1.
         11    1    4    4    0    0  0.15021287643E-01 -0.38168053442E-02 -0.30090493756E-02  0.15796283887E-01  0.51100000000E-03 0. -1.
</event>
<event>
 7    1  0.1129676E+005  0.1043930E+01  0.7957747E-01            NaN
         13   -1    0    0    0    0  0.00000000000E+00  0.00000000000E+00  0.74505805969E-08  0.10566000000E+00  0.10566000000E+00 0.  1.
     999900   -1    0    0    0    0 -0.00000000000E+00 -0.00000000000E+00 -0.74505805969E-08  0.93827000000E+00  0.93827000000E+00 0.  1.
     999903    2    1    2    0    0 -0.37471312327E-01  0.85870122423E-01  0.42830629592E-01  0.10496973003E+00  0.20159469694E-01 0.  0.
         14    1    1    2    0    0 -0.32582718635E-01 -0.39848174574E-01  0.13405829523E-01  0.53190476927E-01  0.00000000000E+00 0.  1.
     999901    1    1    2    0    0  0.70054030962E-01 -0.46021947849E-01 -0.56236459116E-01  0.88576979305E+00  0.88000000000E+00 0.  1.
        -11    1    3    3    0    0 -0.24135066824E-01  0.33159533088E-01  0.23442141629E-01  0.47242472526E-01  0.51100000000E-03 0.  1.
         11    1    3    3    0    0 -0.13336245504E-01  0.52710589335E-01  0.19388487963E-01  0.57727257502E-01  0.51100000000E-03 0. -1.
</event>
<event>
 8    1  0.1129676E+005  0.1043930E+01  0.7957747E-01            NaN
         13   -1    0    0    0    0  0.00000000000E+00  0.00000000000E+00  0.74505805969E-08  0.10566000000E+00  0.10566000000E+00 0. -1.
     999900   -1    0    0    0    0 -0.00000000000E+00 -0.00000000000E+00 -0.74505805969E-08  0.93827000000E+00  0.93827000000E+00 0. -1.
     999902    2    1    2    0    0 -0.15165108581E-01 -0.16930034326E-01  0.62568145629E-02  0.10203555581E+01  0.10200831881E+01 0.  0.
     999903    2    3    3    0    0  0.48956684254E-01  0.17143947482E-01 -0.11634600725E+00  0.12889378528E+00  0.19660687009E-01 0.  0.
         14    1    1    2    0    0  0.15165108581E-01  0.16930034326E-01 -0.62568145629E-02  0.23574441860E-01  0.00000000000E+00 0.  1.
     999901    1    3    3    0    0 -0.64121792834E-01 -0.34073981807E-01  0.12260282181E+00  0.89146177286E+00  0.88000000000E+00 0.  1.
        -11    1    4    4    0    0  0.21546532063E-01 -0.10998903455E-02 -0.58171638941E-01  0.62045656583E-01  0.51100000000E-03 0.  1.
         11    1    4    4    0    0  0.27410152191E-01  0.18243837827E-01 -0.58174368306E-01  0.66848128699E-01  0.51100000000E-03 0. -1.
</event>
<event>
 8    1  0.1129676E+005  0.1043930E+01  0.7957747E-01            NaN
         13   -1    0    0    0    0  0.00000000000E+00  0.00000000000E+00  0.74505805969E-08  0.10566000000E+00  0.10566000000E+00 0. -1.
     999900   -1    0    0    0    0 -0.00000000000E+00 -0.00000000000E+00 -0.74505805969E-08  0.93827000000E+00  0.93827000000E+00 0.  1.
     999902    2    1    2    0    0 -0.19473177381E-01  0.12672243779E-01  0.63071410026E-02  0.10198557310E+01  0.10195715481E+01 0.  0.
     999903    2    3    3    0    0 -0.49252995658E-01  0.12054502847E+00  0.17763079866E-01  0.13269474574E+00  0.18314122120E-01 0.  0.
         14    1    1    2    0    0  0.19473177381E-01 -0.12672243779E-01 -0.63071410026E-02  0.24074268989E-01  0.00000000000E+00 0.  1.
     999901    1    3    3    0    0  0.29779818277E-01 -0.10787278470E+00 -0.11455938863E-01  0.88716098527E+00  0.88000000000E+00 0.  1.
        -11    1    4    4    0    0 -0.41506533872E-01  0.99626294067E-01  0.76550093022E-02  0.10819912713E+00  0.51100000000E-03 0. -1.
         11    1    4    4    0    0 -0.77464617866E-02  0.20918734407E-01  0.10108070564E-01  0.24495618607E-01  0.51100000000E-03 0.  1.
</event>
<event>
 8    1  0.1129676E+005  0.1043930E+01  0.7957747E-01            NaN
         13   -1    0    0    0    0  0.00000000000E+00  0.00000000000E+00  0.74505805969E-08  0.10566000000E+00  0.10566000000E+00 0.  1.
     999900   -1    0    0    0    0 -0.00000000000E+00 -0.00000000000E+00 -0.74505805969E-08  0.93827000000E+00  0.93827000000E+00 0. -1.
     999902    2    1    2    0    0 -0.22615729603E-01 -0.69169119256E-02  0.10077635738E-02  0.10202586992E+01  0.10199840600E+01 0.  0.
     999903    2    3    3    0    0  0.25754974925E-02  0.12087188880E+00  0.42130649594E-01  0.12972196928E+00  0.20884228216E-01 0.  0.
         14    1    1    2    0    0  0.22615729603E-01  0.69169119256E-02 -0.10077635738E-02  0.23671300840E-01  0.00000000000E+00 0. -1.
     999901    1    3    3    0    0 -0.25191227095E-01 -0.12778880073E+00 -0.41122886020E-01  0.89053672988E+00  0.88000000000E+00 0. -1.
        -11    1    4    4    0    0 -0.84662748104E-02  0.50555966571E-01  0.21719094203E-01  0.55673725752E-01  0.51100000000E-03 0.  1.
         11    1    4    4    0    0  0.11041772303E-01  0.70315922231E-01  0.20411555391E-01  0.74048243526E-01  0.51100000000E-03 0. -1.
</event>
<event>
 8    1  0.1129676E+005  0.1043930E+01  0.7957747E-01            NaN
         13   -1    0    0    0    0  0.00000000000E+00  0.00000000000E+00  0.74505805969E-08  0.10566000000E+00  0.10566000000E+00 0.  1.
     999900   -1    0    0    0    0 -0.00000000000E+00 -0.00000000000E+00 -0.74505805969E-08  0.93827000000E+00  0.93827000000E+00 0.  1.
     999902    2    1    2    0    0 -0.24329048709E-02 -0.17403227393E-01  0.14992335746E-01  0.10208310502E+01  0.10205696799E+01 0.  0.
     999903    2    3    3    0    0 -0.96595173165E-01  0.72139011267E-01 -0.42472540953E-01  0.12943520250E+00  0.20368860711E-01 0.  0.
         14    1    1    2    0    0  0.24329048709E-02  0.17403227393E-01 -0.14992335746E-01  0.23098949780E-01  0.00000000000E+00 0. -1.
     999901    1    3    3    0    0  0.94162268294E-01 -0.89542238659E-01  0.57464876699E-01  0.89139584772E+00  0.88000000000E+00 0. -1.
        -11    1    4    4    0    0 -0.25385405643E-01  0.30605693823E-01 -0.11879112664E-01  0.41503033054E-01  0.51100000000E-03 0.  1.
         11    1    4    4    0    0 -0.71209767522E-01  0.41533317444E-01 -0.30593428290E-01  0.87932169448E-01  0.51100000000E-03 0. -1.
</event>
<event>
 8    1  0.1129676E+005  0.1043930E+01  0.7957747E-01            NaN
         13   -1    0    0    0    0  0.00000000000E+00  0.00000000000E+00  0.74505805969E-08  0.10566000000E+00  0.10566000000E+00 0. -1.
     999900   -1    0    0    0    0 -0.00000000000E+00 -0.00000000000E+00 -0.74505805969E-08  0.93827000000E+00  0.93827000000E+00 0.  1.
     999902    2    1    2    0    0 -0.18427936990E-01 -0.11925072016E-02  0.61599319995E-02  0.10244632155E+01  0.10242782455E+01 0.  0.
     999903    2    3    3    0    0 -0.96629463894E-01  0.15779246159E-01 -0.88730312746E-01  0.13575197010E+00  0.31133439953E-01 0.  0.
         14    1    1    2    0    0  0.18427936990E-01  0.11925072016E-02 -0.61599319995E-02  0.19466784464E-01  0.00000000000E+00 0.  1.
     999901    1    3    3    0    0  0.78201526904E-01 -0.16971753361E-01  0.94890244745E-01  0.88871124544E+00  0.88000000000E+00 0. -1.
        -11    1    4    4    0    0 -0.76150626176E-01  0.12349240499E-02 -0.75969760448E-01  0.10757373531E+00  0.51100000000E-03 0.  1.
         11    1    4    4    0    0 -0.20478837718E-01  0.14544322109E-01 -0.12760552298E-01  0.28178234789E-01  0.51100000000E-03 0. -1.
</event>
<event>
 8    1  0.1129676E+005  0.1043930E+01  0.7957747E-01            NaN
         13   -1    0    0    0    0  0.00000000000E+00  0.00000000000E+00  0.74505805969E-08  0.10566000000E+00  0.10566000000E+00 0. -1.
     999900   -1    0    0    0    0 -0.00000000000E+00 -0.00000000000E+00 -0.74505805969E-08  0.93827000000E+00  0.93827000000E+00 0.  1.
     999902    2    1    2    0    0 -0.36183503977E-02 -0.10802665343E-02 -0.21849556748E-01  0.10217565347E+01  0.10215159096E+01 0.  0.
     999903    2    3    3    0    0 -0.11864894448E+00 -0.44449997311E-02  0.52119531617E-01  0.13118661318E+00  0.19903563785E-01 0.  0.
         14    1    1    2    0    0  0.36183503977E-02  0.10802665343E-02  0.21849556748E-01  0.22173465346E-01  0.00000000000E+00 0. -1.
     999901    1    3    3    0    0  0.11503059409E+00  0.33647331968E-02 -0.73969088365E-01  0.89056992148E+00  0.88000000000E+00 0.  1.
        -11    1    4    4    0    0 -0.10835580639E+00 -0.73178160862E-02  0.52177571944E-01  0.12048772280E+00  0.51100000000E-03 0.  1.
         11    1    4    4    0    0 -0.10293138089E-01  0.28728163551E-02 -0.58040327187E-04  0.10698890373E-01  0.51100000000E-03 0. -1.
</event>
<event>
 8    1  0.1129676E+005  0.1043930E+01  0.7957747E-01            NaN
         13   -1    0    0    0    0  0.00000000000E+00  0.00000000000E+00  0.74505805969E-08  0.10566000000E+00  0.10566000000E+00 0. -1.
     999900   -1    0    0    0    0 -0.00000000000E+00 -0.00000000000E+00 -0.74505805969E-08  0.93827000000E+00  0.93827000000E+00 0.  1.
     999902    2    1    2    0    0  0.73277801028E-02  0.40944360282E-02 -0.22079684004E-01  0.10203085434E+01  0.10200350732E+01 0.  0.
     999903    2    3    3    0    0  0.66159773150E-01 -0.31965565226E-01  0.10383425707E+00  0.12867193148E+00  0.19390721169E-01 0.  0.
         14    1    1    2    0    0 -0.73277801028E-02 -0.40944360282E-02  0.22079684004E-01  0.23621456631E-01  0.00000000000E+00 0. -1.
     999901    1    3    3    0    0 -0.58831993047E-01  0.36060001254E-01 -0.12591394107E+00  0.89163661188E+00  0.88000000000E+00 0.  1.
        -11    1    4    4    0    0  0.36907786892E-01 -0.85402616962E-02  0.43943886068E-01  0.58021091397E-01  0.51100000000E-03 0.  1.
         11    1    4    4    0    0  0.29251986258E-01 -0.23425303529E-01  0.59890371001E-01  0.70650840088E-01  0.51100000000E-03 0. -1.
</event>
<event>
 8    1  0.1129676E+005  0.1043930E+01  0.7957747E-01            NaN
         13   -1    0    0    0    0  0.00000000000E+00  0.00000000000E+00  0.74505805969E-08  0.10566000000E+00  0.10566000000E+00 0.  1.
     999900   -1    0    0    0    0 -0.00000000000E+00 -0.00000000000E+00 -0.74505805969E-08  0.93827000000E+00  0.93827000000E+00 0.  1.
     999902    2    1    2    0    0  0.14593504439E-01 -0.13170962004E-01  0.12408101129E-01  0.10206833747E+01  0.10204186131E+01 0.  0.
     999903    2    3    3    0    0 -0.10888500789E+00  0.21282062253E-01  0.64567534603E-01  0.12986658080E+00  0.19684795298E-01 0.  0.
         14    1    1    2    0    0 -0.14593504439E-01  0.13170962004E-01 -0.12408101129E-01  0.23246625251E-01  0.00000000000E+00 0. -1.
     999901    1    3    3    0    0  0.12347851233E+00 -0.34453024257E-01 -0.52159433474E-01  0.89081679395E+00  0.88000000000E+00 0.  1.
        -11    1    4    4    0    0 -0.20107674303E-01  0.30954804808E-02  0.36586913451E-02  0.20677226812E-01  0.51100000000E-03 0. -1.
         11    1    4    4    0    0 -0.88777333588E-01  0.18186581772E-01  0.60908843258E-01  0.10918935398E+00  0.51100000000E-03 0.  1.
</event>
<event>
 8    1  0.1129676E+005  0.1043930E+01  0.7957747E-01            NaN
         13   -1    0    0    0    0  0.00000000000E+00  0.00000000000E+00  0.74505805969E-08  0.10566000000E+00  0.10566000000E+00 0.  1.
     999900   -1    0    0    0    0 -0.00000000000E+00 -0.00000000000E+00 -0.74505805969E-08  0.93827000000E+00  0.93827000000E+00 0.  1.
     999902    2    1    2    0    0 -0.13744688748E-01 -0.15981959099E-01  0.13627796460E-01  0.10188290773E+01  0.10185198242E+01 0.  0.
     999903    2    3    3    0    0 -0.10726748793E+00  0.80470095147E-03  0.73223977636E-01  0.13171013895E+00  0.21882602453E-01 0.  0.
         14    1    1    2    0    0  0.13744688748E-01  0.15981959099E-01 -0.13627796460E-01  0.25100922727E-01  0.00000000000E+00 0. -1.
     999901    1    3    3    0    0  0.93522799184E-01 -0.16786660050E-01 -0.59596181176E-01  0.88711893832E+00  0.88000000000E+00 0.  1.
        -11    1    4    4    0    0 -0.56165234076E-01  0.77030536112E-02  0.28521061908E-01  0.63463238549E-01  0.51100000000E-03 0.  1.
         11    1    4    4    0    0 -0.51102253856E-01 -0.68983526597E-02  0.44702915728E-01  0.68246900400E-01  0.51100000000E-03 0. -1.
</event>
<event>
 8    1  0.1129676E+005  0.1043930E+01  0.7957747E-01            NaN
         13   -1    0    0    0    0  0.00000000000E+00  0.00000000000E+00  0.74505805969E-08  0.10566000000E+00  0.10566000000E+00 0.  1.
     999900   -1    0    0    0    0 -0.00000000000E+00 -0.00000000000E+00 -0.74505805969E-08  0.93827000000E+00  0.93827000000E+00 0. -1.
     999902    2    1    2    0    0 -0.18661170404E-01  0.14033771757E-01 -0.68024784852E-02  0.10196100546E+01  0.10193199712E+01 0.  0.
     999903    2    3    3    0    0  0.81466410777E-01 -0.95445767323E-01 -0.45805838601E-02  0.12718849569E+00  0.20230202754E-01 0.  0.
         14    1    1    2    0    0  0.18661170404E-01 -0.14033771757E-01  0.68024784852E-02  0.24319945397E-01  0.00000000000E+00 0.  1.
     999901    1    3    3    0    0 -0.10012758118E+00  0.10947953908E+00 -0.22218946251E-02  0.89242155891E+00  0.88000000000E+00 0. -1.
        -11    1    4    4    0    0  0.34053194087E-01 -0.41048192034E-01 -0.11924292830E-01  0.54653673044E-01  0.51100000000E-03 0.  1.
         11    1    4    4    0    0  0.47413216691E-01 -0.54397575289E-01  0.73437089698E-02  0.72534822649E-01  0.51100000000E-03 0. -1.
</event>
<event>
 8    1  0.1129676E+005  0.1043930E+01  0.7957747E-01            NaN
         13   -1    0    0    0    0  0.00000000000E+00  0.00000000000E+00  0.74505805969E-08  0.10566000000E+00  0.10566000000E+00 0. -1.
     999900   -1    0    0    0    0 -0.00000000000E+00 -0.00000000000E+00 -0.74505805969E-08  0.93827000000E+00  0.93827000000E+00 0.  1.
     999902    2    1    2    0    0  0.19471675384E-01  0.12913490409E-01  0.52374990557E-02  0.10199855691E+01  0.10197044794E+01 0.  0.
     999903    2    3    3    0    0  0.80249451117E-01  0.10429037803E+00  0.20399393494E-03  0.13315468902E+00  0.20338934127E-01 0.  0.
         14    1    1    2    0    0 -0.19471675384E-01 -0.12913490409E-01 -0.52374990557E-02  0.23944430942E-01  0.00000000000E+00 0.  1.
     999901    1    3    3    0    0 -0.60777775734E-01 -0.91376887616E-01  0.50335051208E-02  0.88683088004E+00  0.88000000000E+00 0. -1.
        -11    1    4    4    0    0  0.57881088400E-01  0.66610554288E-01 -0.78636202939E-02  0.88596184918E-01  0.51100000000E-03 0. -1.
         11    1    4    4    0    0  0.22368362717E-01  0.37679823737E-01  0.80676142288E-02  0.44558504102E-01  0.51100000000E-03 0.  1.
</event>
<event>
 8    1  0.1129676E+005  0.1043930E+01  0.7957747E-01            NaN
         13   -1    0    0    0    0  0.00000000000E+00  0.00000000000E+00  0.74505805969E-08  0.10566000000E+00  0.10566000000E+00 0. -1.
     999900   -1    0    0    0    0 -0.00000000000E+00 -0.00000000000E+00 -0.74505805969E-08  0.93827000000E+00  0.93827000000E+00 0.  1.
     999902    2    1    2    0    0 -0.45115753683E-02 -0.12881737366E-01  0.17787811743E-01  0.10215090340E+01  0.10212629470E+01 0.  0.
     999903    2    3    3    0    0 -0.94054009622E-01  0.73039567336E-01 -0.49677341632E-01  0.13024483913E+00  0.17746682100E-01 0.  0.
         14    1    1    2    0    0  0.45115753683E-02  0.12881737366E-01 -0.17787811743E-01  0.22420966002E-01  0.00000000000E+00 0.  1.
     999901    1    3    3    0    0  0.89542434254E-01 -0.85921304702E-01  0.67465153375E-01  0.89126419487E+00  0.88000000000E+00 0.  1.
        -11    1    4    4    0    0 -0.66626782057E-01  0.58691098971E-01 -0.30783962833E-01  0.93977053978E-01  0.51100000000E-03 0.  1.
         11    1    4    4    0    0 -0.27427227566E-01  0.14348468365E-01 -0.18893378799E-01  0.36267785152E-01  0.51100000000E-03 0. -1.
</event>
<event>
 8    1  0.1129676E+005  0.1043930E+01  0.7957747E-01            NaN
         13   -1    0    0    0    0  0.00000000000E+00  0.00000000000E+00  0.74505805969E-08  0.10566000000E+00  0.10566000000E+00 0.  1.
     999900   -1    0    0    0    0 -0.00000000000E+00 -0.00000000000E+00 -0.74505805969E-08  0.93827000000E+00  0.93827000000E+00 0.  1.
     999902    2    1    2    0    0 -0.13668460898E-01 -0.18609950061E-01 -0.64524295104E-02  0.10199552026E+01  0.10196733910E+01 0.  0.
     999903    2    3    3    0    0  0.40109761519E-02  0.10258334975E+00  0.74952499785E-01  0.12775167147E+00  0.12774222611E-01 0.  0.
         14    1    1    2    0    0  0.13668460898E-01  0.18609950061E-01  0.64524295104E-02  0.23974797416E-01  0.00000000000E+00 0.  1.
     999901    1    3    3    0    0 -0.17679437049E-01 -0.12119329981E+00 -0.81404929296E-01  0.89220353111E+00  0.88000000000E+00 0. -1.
        -11    1    4    4    0    0  0.84457129617E-02  0.62369837205E-01  0.43643894690E-01  0.76592279801E-01  0.51100000000E-03 0. -1.
         11    1    4    4    0    0 -0.44347368098E-02  0.40213512549E-01  0.31308605096E-01  0.51159391671E-01  0.51100000000E-03 0.  1.
</event>
<event>
 8    1  0.1129676E+005  0.1043930E+01  0.7957747E-01            NaN
         13   -1    0    0    0    0  0.00000000000E+00  0.00000000000E+00  0.74505805969E-08  0.10566000000E+00  0.10566000000E+00 0. -1.
     999900   -1    0    0    0    0 -0.00000000000E+00 -0.00000000000E+00 -0.74505805969E-08  0.93827000000E+00  0.93827000000E+00 0.  1.
     999902    2    1    2    0    0 -0.11492842459E-02  0.21140278369E-01 -0.10931217761E-01  0.10201030458E+01  0.10198247400E+01 0.  0.
     999903    2    3    3    0    0 -0.11906340998E+00  0.44385522932E-01 -0.29978767854E-01  0.13172987445E+00  0.17546026880E-01 0.  0.
         14    1    1    2    0    0  0.11492842459E-02 -0.21140278369E-01  0.10931217761E-01  0.23826954181E-01  0.00000000000E+00 0. -1.
     999901    1    3    3    0    0  0.11791412573E+00 -0.23245244563E-01  0.19047550093E-01  0.88837317137E+00  0.88000000000E+00 0. -1.
        -11    1    4    4    0    0 -0.47731581873E-01  0.10713367972E-01 -0.60244747238E-02  0.49291333702E-01  0.51100000000E-03 0. -1.
         11    1    4    4    0    0 -0.71331828105E-01  0.33672154960E-01 -0.23954293130E-01  0.82438540749E-01  0.51100000000E-03 0.  1.
</event>
<event>
 8    1  0.1129676E+005  0.1043930E+01  0.7957747E-01            NaN
         13   -1    0    0    0    0  0.00000000000E+00  0.00000000000E+00  0.74505805969E-08  0.10566000000E+00  0.10566000000E+00 0. -1.
     999900   -1    0    0    0    0 -0.00000000000E+00 -0.00000000000E+00 -0.74505805969E-08  0.93827000000E+00  0.93827000000E+00 0. -1.
     999902    2    1    2    0    0 -0.17613698925E-01  0.16812142562E-01 -0.10466893701E-01  0.10174262948E+01  0.10170810287E+01 0.  0.
     999903    2    3    3    0    0  0.56391945831E-01 -0.25981871616E-01  0.10705838995E+00  0.12550681667E+00  0.20865113631E-01 0.  0.
         14    1    1    2    0    0  0.17613698925E-01 -0.16812142562E-01  0.10466893701E-01  0.26503705233E-01  0.00000000000E+00 0.  1.
     999901    1    3    3    0    0 -0.74005644755E-01  0.42794014177E-01 -0.11752528365E+00  0.89191947809E+00  0.88000000000E+00 0. -1.
        -11    1    4    4    0    0  0.85142754147E-02 -0.43141152562E-02  0.51806780975E-02  0.10872213336E-01  0.51100000000E-03 0.  1.
         11    1    4    4    0    0  0.47877670416E-01 -0.21667756360E-01  0.10187771185E+00  0.11463460334E+00  0.51100000000E-03 0. -1.
</event>
<event>
 8    1  0.1129676E+005  0.1043930E+01  0.7957747E-01            NaN
         13   -1    0    0    0    0  0.00000000000E+00  0.00000000000E+00  0.74505805969E-08  0.10566000000E+00  0.10566000000E+00 0.  1.
     999900   -1    0    0    0    0 -0.00000000000E+00 -0.00000000000E+00 -0.74505805969E-08  0.93827000000E+00  0.93827000000E+00 0.  1.
     999902    2    1    2    0    0  0.11785652940E-01  0.16624863291E-01 -0.11657548474E-01  0.10204526464E+01  0.10201825412E+01 0.  0.
     999903    2    3    3    0    0  0.66402220580E-01 -0.43651290145E-01 -0.10344296499E+00  0.13194786488E+00  0.19877173153E-01 0.  0.
         14    1    1    2    0    0 -0.11785652940E-01 -0.16624863291E-01  0.11657548474E-01  0.23477353579E-01  0.00000000000E+00 0.  1.
     999901    1    3    3    0    0 -0.54616567640E-01  0.60276153436E-01  0.91785416511E-01  0.88850478154E+00  0.88000000000E+00 0. -1.
        -11    1    4    4    0    0  0.93887851950E-02 -0.15794095476E-01 -0.25643203133E-01  0.31550558271E-01  0.51100000000E-03 0. -1.
         11    1    4    4    0    0  0.57013435385E-01 -0.27857194669E-01 -0.77799761853E-01  0.10039730661E+00  0.51100000000E-03 0.  1.
</event>
<event>
 8    1  0.1129676E+005  0.1043930E+01  0.7957747E-01            NaN
         13   -1    0    0    0    0  0.00000000000E+00  0.00000000000E+00  0.74505805969E-08  0.10566000000E+00  0.10566000000E+00 0. -1.
     999900   -1    0    0    0    0 -0.00000000000E+00 -0.00000000000E+00 -0.74505805969E-08  0.93827000000E+00  0.93827000000E+00 0. -1.
     999902    2    1    2    0    0  0.22695851729E-02  0.12609935313E-01 -0.52365651667E-02  0.10300886453E+01  0.10299956476E+01 0.  0.
     999903    2    3    3    0    0 -0.24256974496E-01  0.29895372246E-01  0.13193167762E+00  0.13889979239E+00  0.20125870732E-01 0.  0.
         14    1    1    2    0    0 -0.22695851729E-02 -0.12609935313E-01  0.52365651667E-02  0.13841354710E-01  0.00000000000E+00 0. -1.
     999901    1    3    3    0    0  0.26526559669E-01 -0.17285436933E-01 -0.13716824279E+00  0.89118885290E+00  0.88000000000E+00 0. -1.
        -11    1    4    4    0    0 -0.15345977769E-01  0.64429522289E-02  0.34793448480E-01  0.38572734479E-01  0.51100000000E-03 0.  1.
         11    1    4    4    0    0 -0.89109967277E-02  0.23452420017E-01  0.97138229144E-01  0.10032705791E+00  0.51100000000E-03 0. -1.
</event>
<event>
 8    1  0.1129676E+005  0.1043930E+01  0.7957747E-01            NaN
         13   -1    0    0    0    0  0.00000000000E+00  0.00000000000E+00  0.74505805969E-08  0.10566000000E+00  0.10566000000E+00 0.  1.
     999900   -1    0    0    0    0 -0.00000000000E+00 -0.00000000000E+00 -0.74505805969E-08  0.93827000000E+00  0.93827000000E+00 0.  1.
     999902    2    1    2    0    0 -0.11606946821E-01  0.64135677769E-02  0.19046064962E-01  0.10207220777E+01  0.10204582070E+01 0.  0.
     999903    2    3    3    0    0 -0.69923429415E-01  0.31539390327E-01 -0.10276907616E+00  0.13006442873E+00  0.21708373562E-01 0.  0.
         14    1    1    2    0    0  0.11606946821E-01 -0.64135677769E-02 -0.19046064962E-01  0.23207922282E-01  0.00000000000E+00 0. -1.
     999901    1    3    3    0    0  0.58316482594E-01 -0.25125822551E-01  0.12181514112E+00  0.89065764899E+00  0.88000000000E+00 0. -1.
        -11    1    4    4    0    0 -0.47651476825E-01  0.18079901228E-01 -0.82917639257E-01  0.97330067775E-01  0.51100000000E-03 0. -1.
         11    1    4    4    0    0 -0.22271952591E-01  0.13459489099E-01 -0.19851436898E-01  0.32734360952E-01  0.51100000000E-03 0.  1.
</event>
<event>
 8    1  0.1129676E+005  0.1043930E+01  0.7957747E-01            NaN
         13   -1    0    0    0    0  0.00000000000E+00  0.00000000000E+00  0.74505805969E-08  0.10566000000E+00  0.10566000000E+00 0.  1.
     999900   -1    0    0    0    0 -0.00000000000E+00 -0.00000000000E+00 -0.74505805969E-08  0.93827000000E+00  0.93827000000E+00 0.  1.
     999902    2    1    2    0    0  0.14706981819E-01  0.12914841144E-01 -0.86915058844E-02  0.10225143349E+01  0.10222900442E+01 0.  0.
     999903    2    3    3    0    0 -0.63493786389E-01  0.87443794816E-01 -0.75605736314E-01  0.13338698785E+00  0.19949511344E-01 0.  0.
         14    1    1    2    0    0 -0.14706981819E-01 -0.12914841144E-01  0.86915058844E-02  0.21415665073E-01  0.00000000000E+00 0.  1.
     999901    1    3    3    0    0  0.78200768207E-01 -0.74528953672E-01  0.66914230429E-01  0.88912734708E+00  0.88000000000E+00 0. -1.
        -11    1    4    4    0    0 -0.16471634721E-01  0.22155113685E-01 -0.93328883273E-02  0.29146659128E-01  0.51100000000E-03 0. -1.
         11    1    4    4    0    0 -0.47022151667E-01  0.65288681131E-01 -0.66272847986E-01  0.10424032872E+00  0.51100000000E-03 0.  1.
</event>
<event>
 8    1  0.1129676E+005  0.1043930E+01  0.7957747E-01            NaN
         13   -1    0    0    0    0  0.00000000000E+00  0.00000000000E+00  0.74505805969E-08  0.10566000000E+00  0.10566000000E+00 0.  1.
     999900   -1    0    0    0    0 -0.00000000000E+00 -0.00000000000E+00 -0.74505805969E-08  0.93827000000E+00  0.93827000000E+00 0.  1.
     999902    2    1    2    0    0 -0.20504379788E-01 -0.64477360046E-02 -0.89428402521E-02  0.10206495945E+01  0.10203840539E+01 0.  0.
     999903    2    3    3    0    0  0.19661294966E-01 -0.96345583148E-01  0.82910511138E-01  0.13040696321E+00  0.21512444858E-01 0.  0.
         14    1    1    2    0    0  0.20504379788E-01  0.64477360046E-02  0.89428402521E-02  0.23280405534E-01  0.00000000000E+00 0.  1.
     999901    1    3    3    0    0 -0.40165674753E-01  0.89897847143E-01 -0.91853351390E-01  0.89024263126E+00  0.88000000000E+00 0.  1.
        -11    1    4    4    0    0  0.13163829799E-01 -0.84993972331E-01  0.63142878353E-01  0.10669838778E+00  0.51100000000E-03 0.  1.
         11    1    4    4    0    0  0.64974651663E-02 -0.11351610817E-01  0.19767632786E-01  0.23708575425E-01  0.51100000000E-03 0. -1.
</event>
<event>
 8    1  0.1129676E+005  0.1043930E+01  0.7957747E-01            NaN
         13   -1    0    0    0    0  0.00000000000E+00  0.00000000000E+00  0.74505805969E-08  0.10566000000E+00  0.10566000000E+00 0. -1.
     999900   -1    0    0    0    0 -0.00000000000E+00 -0.00000000000E+00 -0.74505805969E-08  0.93827000000E+00  0.93827000000E+00 0. -1.
     999902    2    1    2    0    0 -0.13753733343E-02 -0.10801714617E-01 -0.20671268493E-01  0.10205661383E+01  0.10202986684E+01 0.  0.
     999903    2    3    3    0    0  0.10443732492E-02 -0.10852586436E+00 -0.75184994350E-01  0.13347673421E+00  0.19603602957E-01 0.  0.
         14    1    1    2    0    0  0.13753733343E-02  0.10801714617E-01  0.20671268493E-01  0.23363861658E-01  0.00000000000E+00 0. -1.
     999901    1    3    3    0    0 -0.24197465835E-02  0.97724149744E-01  0.54513725857E-01  0.88708940413E+00  0.88000000000E+00 0.  1.
        -11    1    4    4    0    0 -0.92642340137E-02 -0.54048905399E-01 -0.37741353464E-01  0.66571623752E-01  0.51100000000E-03 0.  1.
         11    1    4    4    0    0  0.10308607263E-01 -0.54476958963E-01 -0.37443640886E-01  0.66905110458E-01  0.51100000000E-03 0. -1.
</event>
<event>
 8    1  0.1129676E+005  0.1043930E+01  0.7957747E-01            NaN
         13   -1    0    0    0    0  0.00000000000E+00  0.00000000000E+00  0.74505805969E-08  0.10566000000E+00  0.10566000000E+00 0.  1.
     999900   -1    0    0    0    0 -0.00000000000E+00 -0.00000000000E+00 -0.74505805969E-08  0.93827000000E+00  0.93827000000E+00 0. -1.
     999902    2    1    2    0    0 -0.20800673736E-01  0.88054322709E-02  0.60773979073E-02  0.10205390096E+01  0.10202709110E+01 0.  0.
     999903    2    3    3    0    0  0.82103864806E-01  0.85300996119E-01 -0.48787598806E-01  0.12955579811E+00  0.19676647873E-01 0.  0.
         14    1    1    2    0    0  0.20800673736E-01 -0.88054322709E-02 -0.60773979073E-02  0.23390990374E-01  0.00000000000E+00 0.  1.
     999901    1    3    3    0    0 -0.10290453854E+00 -0.76495563848E-01  0.54864996714E-01  0.89098321152E+00  0.88000000000E+00 0.  1.
        -11    1    4    4    0    0  0.24373562420E-01  0.21647952225E-01 -0.22775894557E-01  0.39770678576E-01  0.51100000000E-03 0.  1.
         11    1    4    4    0    0  0.57730302386E-01  0.63653043894E-01 -0.26011704249E-01  0.89785119533E-01  0.51100000000E-03 0. -1.
</event>
<event>
 8    1  0.1129676E+005  0.1043930E+01  0.7957747E-01            NaN
         13   -1    0    0    0    0  0.00000000000E+00  0.00000000000E+00  0.74505805969E-08  0.10566000000E+00  0.10566000000E+00 0.  1.
     999900   -1    0    0    0    0 -0.00000000000E+00 -0.00000000000E+00 -0.74505805969E-08  0.93827000000E+00  0.93827000000E+00 0. -1.
     999902    2    1    2    0    0 -0.19955941226E-01 -0.10956864438E-01 -0.24976094456E-03  0.10211625924E+01  0.10209087546E+01 0.  0.
     999903    2    3    3    0    0  0.40769467192E-01  0.11690818916E+00  0.31538489961E-01  0.12928393470E+00  0.19748044787E-01 0.  0.
         14    1    1    2    0    0  0.19955941226E-01  0.10956864438E-01  0.24976094456E-03  0.22767407605E-01  0.00000000000E+00 0. -1.
     999901    1    3    3    0    0 -0.60725408418E-01 -0.12786505360E+00 -0.31788250906E-01  0.89187865770E+00  0.88000000000E+00 0. -1.
        -11    1    4    4    0    0  0.23558535547E-01  0.86115370292E-01  0.15867907110E-01  0.90680280076E-01  0.51100000000E-03 0. -1.
         11    1    4    4    0    0  0.17210931645E-01  0.30792818872E-01  0.15670582851E-01  0.38603654621E-01  0.51100000000E-03 0.  1.
</event>
<event>
 8    1  0.1129676E+005  0.1043930E+01  0.7957747E-01            NaN
         13   -1    0    0    0    0  0.00000000000E+00  0.00000000000E+00  0.74505805969E-08  0.10566000000E+00  0.10566000000E+00 0.  1.
     999900   -1    0    0    0    0 -0.00000000000E+00 -0.00000000000E+00 -0.74505805969E-08  0.93827000000E+00  0.93827000000E+00 0. -1.
     999902    2    1    2    0    0  0.51909294650E-02 -0.49657906997E-02  0.22934385129E-01  0.10198968802E+01  0.10196136795E+01 0.  0.
     999903    2    3    3    0    0 -0.11964264916E+00 -0.20068986838E-01 -0.38218546215E-01  0.12885748158E+00  0.20651042403E-01 0.  0.
         14    1    1    2    0    0 -0.51909294650E-02  0.49657906997E-02 -0.22934385129E-01  0.24033119798E-01  0.00000000000E+00 0. -1.
     999901    1    3    3    0    0  0.12483357863E+00  0.15103196138E-01  0.61152931343E-01  0.89103939862E+00  0.88000000000E+00 0.  1.
        -11    1    4    4    0    0 -0.88534885509E-01 -0.15894909298E-01 -0.18643908942E-01  0.91863651982E-01  0.51100000000E-03 0. -1.
         11    1    4    4    0    0 -0.31107763655E-01 -0.41740775393E-02 -0.19574637273E-01  0.36993829597E-01  0.51100000000E-03 0.  1.
</event>
<event>
 8    1  0.1129676E+005  0.1043930E+01  0.7957747E-01            NaN
         13   -1    0    0    0    0  0.00000000000E+00  0.00000000000E+00  0.74505805969E-08  0.10566000000E+00  0.10566000000E+00 0. -1.
     999900   -1    0    0    0    0 -0.00000000000E+00 -0.00000000000E+00 -0.74505805969E-08  0.93827000000E+00  0.93827000000E+00 0. -1.
     999902    2    1    2    0    0  0.21661072957E-01 -0.61092264854E-02 -0.68328552174E-02  0.10204095272E+01  0.10201384174E+01 0.  0.
     999903    2    3    3    0    0 -0.66267512197E-01 -0.10764342080E+00 -0.23275998872E-01  0.13006633176E+00  0.19924590878E-01 0.  0.
         14    1    1    2    0    0 -0.21661072957E-01  0.61092264854E-02  0.68328552174E-02  0.23520472791E-01  0.00000000000E+00 0. -1.
     999901    1    3    3    0    0  0.87928585155E-01  0.10153419431E+00  0.16443143655E-01  0.89034319544E+00  0.88000000000E+00 0.  1.
        -11    1    4    4    0    0 -0.34063792393E-01 -0.69775875508E-01 -0.20336770830E-01  0.80267428786E-01  0.51100000000E-03 0. -1.
         11    1    4    4    0    0 -0.32203719805E-01 -0.37867545287E-01 -0.29392280426E-02  0.49798902978E-01  0.51100000000E-03 0.  1.
</event>
<event>
 8    1  0.1467956E+005  0.1043930E+01  0.7957747E-01            NaN
         13   -1    0    0    0    0  0.00000000000E+00  0.00000000000E+00  0.74505805969E-08  0.10566000000E+00  0.10566000000E+00 0. -1.
     999900   -1    0    0    0    0 -0.00000000000E+00 -0.00000000000E+00 -0.74505805969E-08  0.93827000000E+00  0.93827000000E+00 0.  1.
     999902    2    1    2    0    0  0.32653480844E-02  0.93702458964E-03 -0.24044673946E-01  0.10196465312E+01  0.10193573278E+01 0.  0.
     999903    2    3    3    0    0 -0.31676666019E-02  0.16807957054E-01  0.12435056458E+00  0.12705792661E+00  0.19700565252E-01 0.  0.
         14    1    1    2    0    0 -0.32653480844E-02 -0.93702458964E-03  0.24044673946E-01  0.24283468829E-01  0.00000000000E+00 0. -1.
     999901    1    3    3    0    0  0.64330146864E-02 -0.15870932464E-01 -0.14839523853E+00  0.89258860456E+00  0.88000000000E+00 0.  1.
        -11    1    4    4    0    0  0.28455989165E-02  0.10054782028E-02  0.71517247908E-01  0.71582723397E-01  0.51100000000E-03 0.  1.
         11    1    4    4    0    0 -0.60132655184E-02  0.15802478851E-01  0.52833316672E-01  0.55475203213E-01  0.51100000000E-03 0. -1.
</event>
<event>
 8    1  0.1129676E+005  0.1043930E+01  0.7957747E-01            NaN
         13   -1    0    0    0    0  0.00000000000E+00  0.00000000000E+00  0.74505805969E-08  0.10566000000E+00  0.10566000000E+00 0. -1.
     999900   -1    0    0    0    0 -0.00000000000E+00 -0.00000000000E+00 -0.74505805969E-08  0.93827000000E+00  0.93827000000E+00 0. -1.
     999902    2    1    2    0    0 -0.12073132487E-01  0.19165243677E-01 -0.57068105168E-02  0.10205711734E+01  0.10203038201E+01 0.  0.
     999903    2    3    3    0    0 -0.71092121306E-01  0.75900064876E-01 -0.81765396668E-01  0.13350466547E+00  0.17972369108E-01 0.  0.
         14    1    1    2    0    0  0.12073132487E-01 -0.19165243677E-01  0.57068105168E-02  0.23358826587E-01  0.00000000000E+00 0. -1.
     999901    1    3    3    0    0  0.59018988818E-01 -0.56734821199E-01  0.76058586151E-01  0.88706650794E+00  0.88000000000E+00 0.  1.
        -11    1    4    4    0    0 -0.17274640823E-01  0.30700588656E-01 -0.25977755110E-01  0.43772642609E-01  0.51100000000E-03 0. -1.
         11    1    4    4    0    0 -0.53817480483E-01  0.45199476220E-01 -0.55787641558E-01  0.89732022866E-01  0.51100000000E-03 0.  1.
</event>
<event>
 8    1  0.1129676E+005  0.1043930E+01  0.7957747E-01            NaN
         13   -1    0    0    0    0  0.00000000000E+00  0.00000000000E+00  0.74505805969E-08  0.10566000000E+00  0.10566000000E+00 0. -1.
     999900   -1    0    0    0    0 -0.00000000000E+00 -0.00000000000E+00 -0.74505805969E-08  0.93827000000E+00  0.93827000000E+00 0. -1.
     999902    2    1    2    0    0  0.12005944872E-02 -0.20083937625E-01 -0.10582651897E-01  0.10211967974E+01  0.10209437304E+01 0.  0.
     999903    2    3    3    0    0  0.11274497253E+00  0.47881830492E-01  0.37729840217E-01  0.13024472757E+00  0.23152747029E-01 0.  0.
         14    1    1    2    0    0 -0.12005944872E-02  0.20083937625E-01  0.10582651897E-01  0.22733202564E-01  0.00000000000E+00 0. -1.
     999901    1    3    3    0    0 -0.11154437804E+00 -0.67965768118E-01 -0.48312492114E-01  0.89095206987E+00  0.88000000000E+00 0. -1.
        -11    1    4    4    0    0  0.29343189227E-01  0.59250893983E-02  0.17625211542E-01  0.34742461647E-01  0.51100000000E-03 0. -1.
         11    1    4    4    0    0  0.83401783299E-01  0.41956741094E-01  0.20104628675E-01  0.95502265920E-01  0.51100000000E-03 0.  1.
</event>
<event>
 8    1  0.1129676E+005  0.1043930E+01  0.7957747E-01            NaN
         13   -1    0    0    0    0  0.00000000000E+00  0.00000000000E+00  0.74505805969E-08  0.10566000000E+00  0.10566000000E+00 0.  1.
     999900   -1    0    0    0    0 -0.00000000000E+00 -0.00000000000E+00 -0.74505805969E-08  0.93827000000E+00  0.93827000000E+00 0. -1.
     999902    2    1    2    0    0  0.12771126176E-02  0.11016538632E-01  0.22376244509E-01  0.10189561845E+01  0.10186500943E+01 0.  0.
     999903    2    3    3    0    0  0.98014583007E-01  0.18560308456E-01  0.83297304409E-01  0.13152932999E+00  0.20252905830E-01 0.  0.
         14    1    1    2    0    0 -0.12771126176E-02 -0.11016538632E-01 -0.22376244509E-01  0.24973815456E-01  0.00000000000E+00 0. -1.
     999901    1    3    3    0    0 -0.96737470389E-01 -0.75437698235E-02 -0.60921059900E-01  0.88742685455E+00  0.88000000000E+00 0. -1.
        -11    1    4    4    0    0  0.45157440098E-01  0.12352243547E-01  0.26957159764E-01  0.54025196903E-01  0.51100000000E-03 0.  1.
         11    1    4    4    0    0  0.52857142909E-01  0.62080649088E-02  0.56340144645E-01  0.77504133090E-01  0.51100000000E-03 0. -1.
</event>
<event>
 8    1  0.1129676E+005  0.1043930E+01  0.7957747E-01            NaN
         13   -1    0    0    0    0  0.00000000000E+00  0.00000000000E+00  0.74505805969E-08  0.10566000000E+00  0.10566000000E+00 0. -1.
     999900   -1    0    0    0    0 -0.00000000000E+00 -0.00000000000E+00 -0.74505805969E-08  0.93827000000E+00  0.93827000000E+00 0. -1.
     999902    2    1    2    0    0  0.26362136016E-02 -0.11429125446E-01  0.20878969199E-01  0.10199820171E+01  0.10197008430E+01 0.  0.
     999903    2    3    3    0    0 -0.85388792457E-01 -0.74276072312E-01  0.65614276013E-01  0.13223239693E+00  0.19287114491E-01 0.  0.
         14    1    1    2    0    0 -0.26362136016E-02  0.11429125446E-01 -0.20878969199E-01  0.23947982909E-01  0.00000000000E+00 0.  1.
     999901    1    3    3    0    0  0.88025006059E-01  0.62846946866E-01 -0.44735306814E-01  0.88774962016E+00  0.88000000000E+00 0. -1.
        -11    1    4    4    0    0 -0.30025195045E-01 -0.15095148536E-01  0.16162681708E-01  0.37294359464E-01  0.51100000000E-03 0. -1.
         11    1    4    4    0    0 -0.55363597412E-01 -0.59180923775E-01  0.49451594305E-01  0.94938037465E-01  0.51100000000E-03 0.  1.
</event>
<event>
 8    1  0.1129676E+005  0.1043930E+01  0.7957747E-01            NaN
         13   -1    0    0    0    0  0.00000000000E+00  0.00000000000E+00  0.74505805969E-08  0.10566000000E+00  0.10566000000E+00 0. -1.
     999900   -1    0    0    0    0 -0.00000000000E+00 -0.00000000000E+00 -0.74505805969E-08  0.93827000000E+00  0.93827000000E+00 0. -1.
     999902    2    1    2    0    0  0.22141781151E-01 -0.55272203712E-02 -0.80165078027E-02  0.10197417170E+01  0.10194548035E+01 0.  0.
     999903    2    3    3    0    0  0.91678441478E-01 -0.12396278883E-01  0.91154059830E-01  0.13141895325E+00  0.20081690368E-01 0.  0.
         14    1    1    2    0    0 -0.22141781151E-01  0.55272203712E-02  0.80165078027E-02  0.24188283009E-01  0.00000000000E+00 0. -1.
     999901    1    3    3    0    0 -0.69536660327E-01  0.68690585120E-02 -0.99170567633E-01  0.88832276374E+00  0.88000000000E+00 0. -1.
        -11    1    4    4    0    0  0.17358172110E-01 -0.44181507720E-02  0.29537587957E-01  0.34547885877E-01  0.51100000000E-03 0.  1.
         11    1    4    4    0    0  0.74320269367E-01 -0.79781281112E-02  0.61616471873E-01  0.96871067374E-01  0.51100000000E-03 0. -1.
</event>
<event>
 8    1  0.1129676E+005  0.1043930E+01  0.7957747E-01            NaN
         13   -1    0    0    0    0  0.00000000000E+00  0.00000000000E+00  0.74505805969E-08  0.10566000000E+00  0.10566000000E+00 0. -1.
     999900   -1    0    0    0    0 -0.00000000000E+00 -0.00000000000E+00 -0.74505805969E-08  0.93827000000E+00  0.93827000000E+00 0.  1.
     999902    2    1    2    0    0  0.34267450332E-02 -0.22671150657E-01 -0.63814227799E-02  0.10201298695E+01  0.10198521974E+01 0.  0.
     999903    2    3    3    0    0 -0.74815020159E-02 -0.13153574376E+00 -0.66285188727E-02  0.13335450308E+00  0.19541276085E-01 0.  0.
         14    1    1    2    0    0 -0.34267450332E-02  0.22671150657E-01  0.63814227799E-02  0.23800130469E-01  0.00000000000E+00 0. -1.
     999901    1    3    3    0    0  0.10908247049E-01  0.10886459310E+00  0.24709609285E-03  0.88677536645E+00  0.88000000000E+00 0.  1.
        -11    1    4    4    0    0 -0.10789385765E-01 -0.36407648511E-01 -0.68896291510E-03  0.37982410484E-01  0.51100000000E-03 0. -1.
         11    1    4    4    0    0  0.33078837493E-02 -0.95128095248E-01 -0.59395559576E-02  0.95372092598E-01  0.51100000000E-03 0.  1.
</event>
<event>
 8    1  0.1129676E+005  0.1043930E+01  0.7957747E-01            NaN
         13   -1    0    0    0    0  0.00000000000E+00  0.00000000000E+00  0.74505805969E-08  0.10566000000E+00  0.10566000000E+00 0.  1.
     999900   -1    0    0    0    0 -0.00000000000E+00 -0.00000000000E+00 -0.74505805969E-08  0.93827000000E+00  0.93827000000E+00 0.  1.
     999902    2    1    2    0    0 -0.17286836720E-01  0.81176783570E-02 -0.13677366110E-01  0.10204395388E+01  0.10201691284E+01 0.  0.
     999903    2    3    3    0    0  0.12128309830E+00  0.24573061100E-01  0.28314888107E-01  0.12845537078E+00  0.19637314702E-01 0.  0.
         14    1    1    2    0    0  0.17286836720E-01 -0.81176783570E-02  0.13677366110E-01  0.23490461243E-01  0.00000000000E+00 0.  1.
     999901    1    3    3    0    0 -0.13856993502E+00 -0.16455382743E-01 -0.41992254218E-01  0.89198416798E+00  0.88000000000E+00 0.  1.
        -11    1    4    4    0    0  0.91773803544E-01  0.11345958183E-01  0.15999476444E-01  0.93847781815E-01  0.51100000000E-03 0. -1.
         11    1    4    4    0    0  0.29509294753E-01  0.13227102917E-01  0.12315411663E-01  0.34607588963E-01  0.51100000000E-03 0.  1.
</event>
<event>
 8    1  0.1129676E+005  0.1043930E+01  0.7957747E-01            NaN
         13   -1    0    0    0    0  0.00000000000E+00  0.00000000000E+00  0.74505805969E-08  0.10566000000E+00  0.10566000000E+00 0. -1.
     999900   -1    0    0    0    0 -0.00000000000E+00 -0.00000000000E+00 -0.74505805969E-08  0.93827000000E+00  0.93827000000E+00 0.  1.
     999902    2    1    2    0    0  0.32742108422E-02  0.67710162735E-02 -0.22942560709E-01  0.10197860937E+01  0.10195002446E+01 0.  0.
     999903    2    3    3    0    0  0.76619170407E-01  0.48209619427E-01  0.89270579439E-01  0.12866969856E+00  0.19798744775E-01 0.  0.
         14    1    1    2    0    0 -0.32742108422E-02 -0.67710162735E-02  0.22942560709E-01  0.24143906268E-01  0.00000000000E+00 0. -1.
     999901    1    3    3    0    0 -0.73344959565E-01 -0.41438603153E-01 -0.11221314015E+00  0.89111639517E+00  0.88000000000E+00 0.  1.
        -11    1    4    4    0    0  0.37984718615E-01  0.16970140471E-01  0.51784388542E-01  0.66428220912E-01  0.51100000000E-03 0.  1.
         11    1    4    4    0    0  0.38634451792E-01  0.31239478955E-01  0.37486190897E-01  0.62241477647E-01  0.51100000000E-03 0. -1.
</event>
<event>
 8    1  0.1129676E+005  0.1043930E+01  0.7957747E-01            NaN
         13   -1    0    0    0    0  0.00000000000E+00  0.00000000000E+00  0.74505805969E-08  0.10566000000E+00  0.10566000000E+00 0.  1.
     999900   -1    0    0    0    0 -0.00000000000E+00 -0.00000000000E+00 -0.74505805969E-08  0.93827000000E+00  0.93827000000E+00 0.  1.
     999902    2    1    2    0    0  0.31164970513E-01  0.80775005596E-02  0.10297905356E-01  0.10101283986E+01  0.10095626941E+01 0.  0.
     999903    2    3    3    0    0 -0.60481450929E-01  0.10120207736E+00 -0.11379895172E-01  0.12021762757E+00  0.20564765866E-01 0.  0.
         14    1    1    2    0    0 -0.31164970513E-01 -0.80775005596E-02 -0.10297905356E-01  0.33801601398E-01  0.00000000000E+00 0. -1.
     999901    1    3    3    0    0  0.91646421442E-01 -0.93124576801E-01  0.21677800528E-01  0.88991077103E+00  0.88000000000E+00 0. -1.
        -11    1    4    4    0    0 -0.25153466704E-01  0.57236269673E-01  0.74454241940E-03  0.62526017927E-01  0.51100000000E-03 0.  1.
         11    1    4    4    0    0 -0.35327984225E-01  0.43965807688E-01 -0.12124437592E-01  0.57691609641E-01  0.51100000000E-03 0. -1.
</event>
<event>
 8    1  0.1129676E+005  0.1043930E+01  0.7957747E-01            NaN
         13   -1    0    0    0    0  0.00000000000E+00  0.00000000000E+00  0.74505805969E-08  0.10566000000E+00  0.10566000000E+00 0.  1.
     999900   -1    0    0    0    0 -0.00000000000E+00 -0.00000000000E+00 -0.74505805969E-08  0.93827000000E+00  0.93827000000E+00 0. -1.
     999902    2    1    2    0    0  0.17218074479E-01  0.16586127031E-01  0.26369231308E-02  0.10198776599E+01  0.10195940007E+01 0.  0.
     999903    2    3    3    0    0 -0.53536364957E-01  0.10976245786E+00  0.43375361558E-01  0.13120019331E+00  0.20448207901E-01 0.  0.
         14    1    1    2    0    0 -0.17218074479E-01 -0.16586127031E-01 -0.26369231308E-02  0.24052340058E-01  0.00000000000E+00 0. -1.
     999901    1    3    3    0    0  0.70754439436E-01 -0.93176330832E-01 -0.40738438427E-01  0.88867746663E+00  0.88000000000E+00 0.  1.
        -11    1    4    4    0    0 -0.14013402707E-01  0.32065229132E-01  0.22356656218E-01  0.41528731897E-01  0.51100000000E-03 0.  1.
         11    1    4    4    0    0 -0.39522962249E-01  0.77697228731E-01  0.21018705340E-01  0.89671461417E-01  0.51100000000E-03 0. -1.
</event>
<event>
 8    1  0.1129676E+005  0.1043930E+01  0.7957747E-01            NaN
         13   -1    0    0    0    0  0.00000000000E+00  0.00000000000E+00  0.74505805969E-08  0.10566000000E+00  0.10566000000E+00 0.  1.
     999900   -1    0    0    0    0 -0.00000000000E+00 -0.00000000000E+00 -0.74505805969E-08  0.93827000000E+00  0.93827000000E+00 0.  1.
     999902    2    1    2    0    0 -0.17347099663E-01 -0.68305064751E-02  0.15067466063E-01  0.10199590547E+01  0.10196773348E+01 0.  0.
     999903    2    3    3    0    0 -0.72056823100E-01  0.26544004325E-01  0.10655631360E+00  0.13289805282E+00  0.20270040855E-01 0.  0.
         14    1    1    2    0    0  0.17347099663E-01  0.68305064751E-02 -0.15067466063E-01  0.23970945309E-01  0.00000000000E+00 0. -1.
     999901    1    3    3    0    0  0.54709723436E-01 -0.33374510800E-01 -0.91488847534E-01  0.88706100187E+00  0.88000000000E+00 0.  1.
        -11    1    4    4    0    0 -0.71270988756E-02  0.31502717121E-02  0.28248417111E-02  0.83042520395E-02  0.51100000000E-03 0. -1.
         11    1    4    4    0    0 -0.64929724224E-01  0.23393732613E-01  0.10373147189E+00  0.12459380078E+00  0.51100000000E-03 0.  1.
</event>
<event>
 8    1  0.1129676E+005  0.1043930E+01  0.7957747E-01            NaN
         13   -1    0    0    0    0  0.00000000000E+00  0.00000000000E+00  0.74505805969E-08  0.10566000000E+00  0.10566000000E+00 0. -1.
     999900   -1    0    0    0    0 -0.00000000000E+00 -0.00000000000E+00 -0.74505805969E-08  0.93827000000E+00  0.93827000000E+00 0. -1.
     999902    2    1    2    0    0 -0.85319480363E-02  0.57280434604E-02  0.22440009922E-01  0.10192488601E+01  0.10189499891E+01 0.  0.
     999903    2    3    3    0    0  0.12427215884E+00 -0.25345829587E-01 -0.58640953066E-03  0.12844431796E+00  0.20288380876E-01 0.  0.
         14    1    1    2    0    0  0.85319480363E-02 -0.57280434604E-02 -0.22440009922E-01  0.24681139854E-01  0.00000000000E+00 0.  1.
     999901    1    3    3    0    0 -0.13280410688E+00  0.31073873048E-01  0.23026419453E-01  0.89080454219E+00  0.88000000000E+00 0. -1.
        -11    1    4    4    0    0  0.85132494546E-01 -0.15193356680E-01  0.88162528743E-02  0.86927367098E-01  0.51100000000E-03 0.  1.
         11    1    4    4    0    0  0.39139664297E-01 -0.10152472908E-01 -0.94026624049E-02  0.41516950860E-01  0.51100000000E-03 0. -1.
</event>
<event>
 8    1  0.1129676E+005  0.1043930E+01  0.7957747E-01            NaN
         13   -1    0    0    0    0  0.00000000000E+00  0.00000000000E+00  0.74505805969E-08  0.10566000000E+00  0.10566000000E+00 0.  1.
     999900   -1    0    0    0    0 -0.00000000000E+00 -0.00000000000E+00 -0.74505805969E-08  0.93827000000E+00  0.93827000000E+00 0.  1.
     999902    2    1    2    0    0  0.20117085070E-01 -0.88997431877E-02 -0.12390492718E-01  0.10186826863E+01  0.10183697700E+01 0.  0.
     999903    2    3    3    0    0 -0.61082977729E-01  0.70717552887E-01  0.82293776827E-01  0.12632767008E+00  0.21314597543E-01 0.  0.
         14    1    1    2    0    0 -0.20117085070E-01  0.88997431877E-02  0.12390492718E-01  0.25247313724E-01  0.00000000000E+00 0.  1.
     999901    1    3    3    0    0  0.81200062799E-01 -0.79617296075E-01 -0.94684269545E-01  0.89235501620E+00  0.88000000000E+00 0.  1.
        -11    1    4    4    0    0 -0.58487311287E-01  0.63663038827E-01  0.67343707560E-01  0.10958642326E+00  0.51100000000E-03 0.  1.
         11    1    4    4    0    0 -0.25956664422E-02  0.70545140603E-02  0.14950069268E-01  0.16741246818E-01  0.51100000000E-03 0. -1.
</event>
<event>
 8    1  0.1129676E+005  0.1043930E+01  0.7957747E-01            NaN
         13   -1    0    0    0    0  0.00000000000E+00  0.00000000000E+00  0.74505805969E-08  0.10566000000E+00  0.10566000000E+00 0.  1.
     999900   -1    0    0    0    0 -0.00000000000E+00 -0.00000000000E+00 -0.74505805969E-08  0.93827000000E+00  0.93827000000E+00 0.  1.
     999902    2    1    2    0    0  0.13503850303E-01 -0.58607617836E-02  0.18497380499E-01  0.10202898734E+01  0.10200159656E+01 0.  0.
     999903    2    3    3    0    0  0.91278348751E-01  0.21184425846E-01  0.92746369670E-01  0.13333258738E+00  0.19878956732E-01 0.  0.
         14    1    1    2    0    0 -0.13503850303E-01  0.58607617836E-02 -0.18497380499E-01  0.23640126629E-01  0.00000000000E+00 0. -1.
     999901    1    3    3    0    0 -0.77774498448E-01 -0.27045187630E-01 -0.74248989171E-01  0.88695728599E+00  0.88000000000E+00 0.  1.
        -11    1    4    4    0    0  0.70549897408E-01  0.75223394426E-02  0.69410857970E-01  0.99257251323E-01  0.51100000000E-03 0.  1.
         11    1    4    4    0    0  0.20728451343E-01  0.13662086404E-01  0.23335511700E-01  0.34075336055E-01  0.51100000000E-03 0. -1.
</event>
<event>
 8    1  0.1129676E+005  0.1043930E+01  0.7957747E-01            NaN
         13   -1    0    0    0    0  0.00000000000E+00  0.00000000000E+00  0.74505805969E-08  0.10566000000E+00  0.10566000000E+00 0.  1.
     999900   -1    0    0    0    0 -0.00000000000E+00 -0.00000000000E+00 -0.74505805969E-08  0.93827000000E+00  0.93827000000E+00 0.  1.
     999902    2    1    2    0    0  0.99898707739E-02  0.20095555622E-02  0.23885008488E-01  0.10179621456E+01  0.10176308763E+01 0.  0.
     999903    2    3    3    0    0 -0.14258961764E-01 -0.78470513668E-01 -0.95614138856E-01  0.12591669068E+00  0.18761927873E-01 0.  0.
         14    1    1    2    0    0 -0.99898707739E-02 -0.20095555622E-02 -0.23885008488E-01  0.25967854399E-01  0.00000000000E+00 0. -1.
     999901    1    3    3    0    0  0.24248832537E-01  0.80480069231E-01  0.11949914734E+00  0.89204545492E+00  0.88000000000E+00 0. -1.
        -11    1    4    4    0    0  0.67915581093E-03 -0.46955217996E-01 -0.51938721729E-01  0.70022465577E-01  0.51100000000E-03 0.  1.
         11    1    4    4    0    0 -0.14938117574E-01 -0.31515295672E-01 -0.43675417127E-01  0.55894225106E-01  0.51100000000E-03 0. -1.
</event>
<event>
 8    1  0.1129676E+005  0.1043930E+01  0.7957747E-01            NaN
         13   -1    0    0    0    0  0.00000000000E+00  0.00000000000E+00  0.74505805969E-08  0.10566000000E+00  0.10566000000E+00 0. -1.
     999900   -1    0    0    0    0 -0.00000000000E+00 -0.00000000000E+00 -0.74505805969E-08  0.93827000000E+00  0.93827000000E+00 0. -1.
     999902    2    1    2    0    0 -0.15128091829E-01 -0.97011946569E-02 -0.13660851931E-01  0.10213558729E+01  0.10211063744E+01 0.  0.
     999903    2    3    3    0    0  0.79077843983E-01 -0.97606639529E-01  0.30500969368E-01  0.13087712970E+00  0.20448776415E-01 0.  0.
         14    1    1    2    0    0  0.15128091829E-01  0.97011946569E-02  0.13660851931E-01  0.22574127129E-01  0.00000000000E+00 0. -1.
     999901    1    3    3    0    0 -0.94205935812E-01  0.87905444872E-01 -0.44161821298E-01  0.89047874317E+00  0.88000000000E+00 0. -1.
        -11    1    4    4    0    0  0.37446697321E-01 -0.34851580286E-01  0.51590334423E-02  0.51417550853E-01  0.51100000000E-03 0. -1.
         11    1    4    4    0    0  0.41631146662E-01 -0.62755059243E-01  0.25341935925E-01  0.79459578846E-01  0.51100000000E-03 0.  1.
</event>
<event>
 8    1  0.1129676E+005  0.1043930E+01  0.7957747E-01            NaN
         13   -1    0    0    0    0  0.00000000000E+00  0.00000000000E+00  0.74505805969E-08  0.10566000000E+00  0.10566000000E+00 0.  1.
     999900   -1    0    0    0    0 -0.00000000000E+00 -0.00000000000E+00 -0.74505805969E-08  0.93827000000E+00  0.93827000000E+00 0. -1.
     999902    2    1    2    0    0 -0.26530489561E-01  0.91578207307E-02  0.99722823891E-02  0.10141444503E+01  0.10137069532E+01 0.  0.
     999903    2    3    3    0    0 -0.79234339339E-01  0.13670166341E-01 -0.95233579565E-01  0.12630080951E+00  0.20432959345E-01 0.  0.
         14    1    1    2    0    0  0.26530489561E-01 -0.91578207307E-02 -0.99722823891E-02  0.29785549734E-01  0.00000000000E+00 0. -1.
     999901    1    3    3    0    0  0.52703849778E-01 -0.45123456107E-02  0.10520586195E+00  0.88784364076E+00  0.88000000000E+00 0.  1.
        -11    1    4    4    0    0 -0.21227606751E-01 -0.28375122833E-02 -0.16070715859E-01  0.26780436769E-01  0.51100000000E-03 0.  1.
         11    1    4    4    0    0 -0.58006732588E-01  0.16507678625E-01 -0.79162863706E-01  0.99520372740E-01  0.51100000000E-03 0. -1.
</event>
<event>
 8    1  0.1129676E+005  0.1043930E+01  0.7957747E-01            NaN
         13   -1    0    0    0    0  0.00000000000E+00  0.00000000000E+00  0.74505805969E-08  0.10566000000E+00  0.10566000000E+00 0.  1.
     999900   -1    0    0    0    0 -0.00000000000E+00 -0.00000000000E+00 -0.74505805969E-08  0.93827000000E+00  0.93827000000E+00 0. -1.
     999902    2    1    2    0    0 -0.16792630612E-01 -0.60687646217E-02  0.14539352288E-01  0.10209035997E+01  0.10206438873E+01 0.  0.
     999903    2    3    3    0    0 -0.96455898652E-01 -0.85808632623E-01 -0.22859328737E-01  0.13292649177E+00  0.21909849078E-01 0.  0.
         14    1    1    2    0    0  0.16792630612E-01  0.60687646217E-02 -0.14539352288E-01  0.23026400323E-01  0.00000000000E+00 0. -1.
     999901    1    3    3    0    0  0.79663268041E-01  0.79739868001E-01  0.37398681025E-01  0.88797710791E+00  0.88000000000E+00 0. -1.
        -11    1    4    4    0    0 -0.52004813478E-01 -0.45381813457E-01 -0.11364404822E-02  0.69033051762E-01  0.51100000000E-03 0.  1.
         11    1    4    4    0    0 -0.44451085174E-01 -0.40426819166E-01 -0.21722888254E-01  0.63893440009E-01  0.51100000000E-03 0. -1.
</event>
<event>
 8    1  0.1225207E+005  0.1043930E+01  0.7957747E-01            NaN
         13   -1    0    0    0    0  0.00000000000E+00  0.00000000000E+00  0.74505805969E-08  0.10566000000E+00  0.10566000000E+00 0.  1.
     999900   -1    0    0    0    0 -0.00000000000E+00 -0.00000000000E+00 -0.74505805969E-08  0.93827000000E+00  0.93827000000E+00 0.  1.
     999902    2    1    2    0    0  0.70198817844E-02  0.91112824615E-02  0.21297641093E-01  0.10197249649E+01  0.10194376491E+01 0.  0.
     999903    2    3    3    0    0  0.70325979574E-01  0.11894231082E-01  0.10997578853E+00  0.13300109544E+00  0.22525567491E-01 0.  0.
         14    1    1    2    0    0 -0.70198817844E-02 -0.91112824615E-02 -0.21297641093E-01  0.24205035106E-01  0.00000000000E+00 0. -1.
     999901    1    3    3    0    0 -0.63306097790E-01 -0.27829486201E-02 -0.88678147434E-01  0.88672386945E+00  0.88000000000E+00 0.  1.
        -11    1    4    4    0    0  0.42491930923E-01  0.17563268640E-01  0.61112849180E-01  0.76479239371E-01  0.51100000000E-03 0.  1.
         11    1    4    4    0    0  0.27834048651E-01 -0.56690375588E-02  0.48862939348E-01  0.56521856072E-01  0.51100000000E-03 0. -1.
</event>
<event>
 8    1  0.1129676E+005  0.1043930E+01  0.7957747E-01            NaN
         13   -1    0    0    0    0  0.00000000000E+00  0.00000000000E+00  0.74505805969E-08  0.10566000000E+00  0.10566000000E+00 0. -1.
     999900   -1    0    0    0    0 -0.00000000000E+00 -0.00000000000E+00 -0.74505805969E-08  0.93827000000E+00  0.93827000000E+00 0. -1.
     999902    2    1    2    0    0  0.19677614545E-01  0.11174769540E-01 -0.81693445490E-02  0.10198712765E+01  0.10195874648E+01 0.  0.
     999903    2    3    3    0    0 -0.17370801237E-01 -0.11501040964E+00  0.50128669149E-01  0.12819087241E+00  0.19770615483E-01 0.  0.
         14    1    1    2    0    0 -0.19677614545E-01 -0.11174769540E-01  0.81693445490E-02  0.24058723549E-01  0.00000000000E+00 0. -1.
     999901    1    3    3    0    0  0.37048415783E-01  0.12618517918E+00 -0.58298013698E-01  0.89168040404E+00  0.88000000000E+00 0.  1.
        -11    1    4    4    0    0 -0.19670461496E-01 -0.10789027915E+00  0.50377176946E-01  0.12068703521E+00  0.51100000000E-03 0.  1.
         11    1    4    4    0    0  0.22996602588E-02 -0.71201304932E-02 -0.24850779684E-03  0.75038371965E-02  0.51100000000E-03 0. -1.
</event>
<event>
 8    1  0.1129676E+005  0.1043930E+01  0.7957747E-01            NaN
         13   -1    0    0    0    0  0.00000000000E+00  0.00000000000E+00  0.74505805969E-08  0.10566000000E+00  0.10566000000E+00 0. -1.
     999900   -1    0    0    0    0 -0.00000000000E+00 -0.00000000000E+00 -0.74505805969E-08  0.93827000000E+00  0.93827000000E+00 0. -1.
     999902    2    1    2    0    0  0.23346998492E-01  0.37573434991E-02  0.21183386168E-02  0.10201878997E+01  0.10199115958E+01 0.  0.
     999903    2    3    3    0    0  0.11587906593E+00 -0.43510529450E-01  0.44596495717E-01  0.13305722772E+00  0.19855838556E-01 0.  0.
         14    1    1    2    0    0 -0.23346998492E-01 -0.37573434991E-02 -0.21183386168E-02  0.23742100312E-01  0.00000000000E+00 0.  1.
     999901    1    3    3    0    0 -0.92532067436E-01  0.47267872949E-01 -0.42478157100E-01  0.88713067197E+00  0.88000000000E+00 0. -1.
        -11    1    4    4    0    0  0.50190461375E-01 -0.28615021128E-01  0.24577798230E-01  0.62787189251E-01  0.51100000000E-03 0. -1.
         11    1    4    4    0    0  0.65688604552E-01 -0.14895508322E-01  0.20018697487E-01  0.70270038468E-01  0.51100000000E-03 0.  1.
</event>
<event>
 8    1  0.1129676E+005  0.1043930E+01  0.7957747E-01            NaN
         13   -1    0    0    0    0  0.00000000000E+00  0.00000000000E+00  0.74505805969E-08  0.10566000000E+00  0.10566000000E+00 0. -1.
     999900   -1    0    0    0    0 -0.00000000000E+00 -0.00000000000E+00 -0.74505805969E-08  0.93827000000E+00  0.93827000000E+00 0. -1.
     999902    2    1    2    0    0  0.20563486127E-01 -0.15221705439E-01 -0.79915873760E-03  0.10183332046E+01  0.10180114536E+01 0.  0.
     999903    2    3    3    0    0  0.54965394233E-01 -0.99140546278E-01 -0.64172928987E-01  0.13140474197E+00  0.17291585203E-01 0.  0.
         14    1    1    2    0    0 -0.20563486127E-01  0.15221705439E-01  0.79915873760E-03  0.25596795362E-01  0.00000000000E+00 0.  1.
     999901    1    3    3    0    0 -0.34401908106E-01  0.83918840839E-01  0.63373770249E-01  0.88692846266E+00  0.88000000000E+00 0.  1.
        -11    1    4    4    0    0  0.33568549833E-01 -0.52388295985E-01 -0.26342428782E-01  0.67568970461E-01  0.51100000000E-03 0. -1.
         11    1    4    4    0    0  0.21396844400E-01 -0.46752250293E-01 -0.37830500205E-01  0.63835771512E-01  0.51100000000E-03 0.  1.
</event>
<event>
 8    1  0.1129676E+005  0.1043930E+01  0.7957747E-01            NaN
         13   -1    0    0    0    0  0.00000000000E+00  0.00000000000E+00  0.74505805969E-08  0.10566000000E+00  0.10566000000E+00 0. -1.
     999900   -1    0    0    0    0 -0.00000000000E+00 -0.00000000000E+00 -0.74505805969E-08  0.93827000000E+00  0.93827000000E+00 0. -1.
     999902    2    1    2    0    0  0.35905705808E-02  0.61649338451E-02  0.23938741093E-01  0.10189507700E+01  0.10186445453E+01 0.  0.
     999903    2    3    3    0    0  0.20681893264E-01 -0.12534066405E+00 -0.69458626615E-02  0.12847915656E+00  0.17906029391E-01 0.  0.
         14    1    1    2    0    0 -0.35905705808E-02 -0.61649338451E-02 -0.23938741093E-01  0.24979230003E-01  0.00000000000E+00 0.  1.
     999901    1    3    3    0    0 -0.17091322683E-01  0.13150559790E+00  0.30884603754E-01  0.89047161344E+00  0.88000000000E+00 0.  1.
        -11    1    4    4    0    0  0.68737703625E-02 -0.84222259951E-01  0.27498321004E-03  0.84504287034E-01  0.51100000000E-03 0.  1.
         11    1    4    4    0    0  0.13808122902E-01 -0.41118404099E-01 -0.72208458715E-02  0.43974869526E-01  0.51100000000E-03 0. -1.
</event>
<event>
 8    1  0.1129676E+005  0.1043930E+01  0.7957747E-01            NaN
         13   -1    0    0    0    0  0.00000000000E+00  0.00000000000E+00  0.74505805969E-08  0.10566000000E+00  0.10566000000E+00 0. -1.
     999900   -1    0    0    0    0 -0.00000000000E+00 -0.00000000000E+00 -0.74505805969E-08  0.93827000000E+00  0.93827000000E+00 0. -1.
     999902    2    1    2    0    0 -0.82043541911E-02 -0.91956218714E-02  0.18819067038E-01  0.10214349300E+01  0.10211871954E+01 0.  0.
     999903    2    3    3    0    0 -0.83702279559E-01 -0.23533198631E-02 -0.98014552626E-01  0.13048215432E+00  0.20177471422E-01 0.  0.
         14    1    1    2    0    0  0.82043541911E-02  0.91956218714E-02 -0.18819067038E-01  0.22495069982E-01  0.00000000000E+00 0.  1.
     999901    1    3    3    0    0  0.75497925368E-01 -0.68423020083E-02  0.11683361966E+00  0.89095277569E+00  0.88000000000E+00 0.  1.
        -11    1    4    4    0    0 -0.35018913719E-01  0.41311119102E-02 -0.54203488457E-01  0.64665830897E-01  0.51100000000E-03 0. -1.
         11    1    4    4    0    0 -0.48683365840E-01 -0.64844317733E-02 -0.43811064169E-01  0.65816323428E-01  0.51100000000E-03 0.  1.
</event>
<event>
 8    1  0.1129676E+005  0.1043930E+01  0.7957747E-01            NaN
         13   -1    0    0    0    0  0.00000000000E+00  0.00000000000E+00  0.74505805969E-08  0.10566000000E+00  0.10566000000E+00 0. -1.
     999900   -1    0    0    0    0 -0.00000000000E+00 -0.00000000000E+00 -0.74505805969E-08  0.93827000000E+00  0.93827000000E+00 0. -1.
     999902    2    1    2    0    0  0.20990348369E-02 -0.49282364044E-02 -0.23207261080E-01  0.10201125604E+01  0.10198344795E+01 0.  0.
     999903    2    3    3    0    0  0.66788307995E-01 -0.76492048533E-01  0.77283568702E-01  0.12915549740E+00  0.19916850772E-01 0.  0.
         14    1    1    2    0    0 -0.20990348369E-02  0.49282364044E-02  0.23207261080E-01  0.23817439580E-01  0.00000000000E+00 0. -1.
     999901    1    3    3    0    0 -0.64689273158E-01  0.71563812129E-01 -0.10049082978E+00  0.89095706302E+00  0.88000000000E+00 0. -1.
        -11    1    4    4    0    0  0.31827250048E-01 -0.24333655394E-01  0.37096802047E-01  0.54603429138E-01  0.51100000000E-03 0.  1.
         11    1    4    4    0    0  0.34961057947E-01 -0.52158393139E-01  0.40186766655E-01  0.74552068266E-01  0.51100000000E-03 0. -1.
</event>
<event>
 8    1  0.1129676E+005  0.1043930E+01  0.7957747E-01            NaN
         13   -1    0    0    0    0  0.00000000000E+00  0.00000000000E+00  0.74505805969E-08  0.10566000000E+00  0.10566000000E+00 0. -1.
     999900   -1    0    0    0    0 -0.00000000000E+00 -0.00000000000E+00 -0.74505805969E-08  0.93827000000E+00  0.93827000000E+00 0. -1.
     999902    2    1    2    0    0 -0.19492893877E-01  0.11775780681E-01  0.65912311823E-02  0.10202216418E+01  0.10199461319E+01 0.  0.
     999903    2    3    3    0    0 -0.29676925181E-01 -0.12445087638E+00 -0.56424230798E-02  0.12959765887E+00  0.19873996263E-01 0.  0.
         14    1    1    2    0    0  0.19492893877E-01 -0.11775780681E-01 -0.65912311823E-02  0.23708358249E-01  0.00000000000E+00 0.  1.
     999901    1    3    3    0    0  0.10184031304E-01  0.13622665706E+00  0.12233654262E-01  0.89062398288E+00  0.88000000000E+00 0. -1.
        -11    1    4    4    0    0 -0.13249745582E-02 -0.44729089760E-01 -0.44753954634E-02  0.44974852016E-01  0.51100000000E-03 0. -1.
         11    1    4    4    0    0 -0.28351950623E-01 -0.79721786616E-01 -0.11670276164E-02  0.84622806854E-01  0.51100000000E-03 0.  1.
</event>
<event>
 8    1  0.1129676E+005  0.1043930E+01  0.7957747E-01            NaN
         13   -1    0    0    0    0  0.00000000000E+00  0.00000000000E+00  0.74505805969E-08  0.10566000000E+00  0.10566000000E+00 0.  1.
     999900   -1    0    0    0    0 -0.00000000000E+00 -0.00000000000E+00 -0.74505805969E-08  0.93827000000E+00  0.93827000000E+00 0. -1.
     999902    2    1    2    0    0 -0.15076758777E-01 -0.18527988421E-01 -0.59446628632E-02  0.10193142728E+01  0.10190170031E+01 0.  0.
     999903    2    3    3    0    0  0.11499085629E+00  0.40084986268E-01 -0.32258040729E-01  0.12743678167E+00  0.19231458000E-01 0.  0.
         14    1    1    2    0    0  0.15076758777E-01  0.18527988421E-01  0.59446628632E-02  0.24615727223E-01  0.00000000000E+00 0. -1.
     999901    1    3    3    0    0 -0.13006761506E+00 -0.58612974690E-01  0.26313377865E-01  0.89187749111E+00  0.88000000000E+00 0.  1.
        -11    1    4    4    0    0  0.29640869037E-01  0.56457298314E-02 -0.85840522820E-03  0.30190285907E-01  0.51100000000E-03 0.  1.
         11    1    4    4    0    0  0.85349987249E-01  0.34439256437E-01 -0.31399635500E-01  0.97246495762E-01  0.51100000000E-03 0. -1.
</event>
<event>
 8    1  0.1129676E+005  0.1043930E+01  0.7957747E-01            NaN
         13   -1    0    0    0    0  0.00000000000E+00  0.00000000000E+00  0.74505805969E-08  0.10566000000E+00  0.10566000000E+00 0.  1.
     999900   -1    0    0    0    0 -0.00000000000E+00 -0.00000000000E+00 -0.74505805969E-08  0.93827000000E+00  0.93827000000E+00 0.  1.
     999902    2    1    2    0    0 -0.17521019172E-01 -0.15960825461E-01 -0.18483895370E-02  0.10201571035E+01  0.10198800740E+01 0.  0.
     999903    2    3    3    0    0 -0.42597059280E-01  0.67338803153E-01  0.10068818590E+00  0.12994286797E+00  0.19950295399E-01 0.  0.
         14    1    1    2    0    0  0.17521019172E-01  0.15960825461E-01  0.18483895370E-02  0.23772896460E-01  0.00000000000E+00 0. -1.
     999901    1    3    3    0    0  0.25076040108E-01 -0.83299628613E-01 -0.10253657544E+00  0.89021423557E+00  0.88000000000E+00 0.  1.
        -11    1    4    4    0    0 -0.38681213930E-01  0.52289673049E-01  0.70118358321E-01  0.95641473814E-01  0.51100000000E-03 0.  1.
         11    1    4    4    0    0 -0.39158453497E-02  0.15049130104E-01  0.30569827578E-01  0.34301394153E-01  0.51100000000E-03 0. -1.
</event>
<event>
 8    1  0.1129676E+005  0.1043930E+01  0.7957747E-01            NaN
         13   -1    0    0    0    0  0.00000000000E+00  0.00000000000E+00  0.74505805969E-08  0.10566000000E+00  0.10566000000E+00 0.  1.
     999900   -1    0    0    0    0 -0.00000000000E+00 -0.00000000000E+00 -0.74505805969E-08  0.93827000000E+00  0.93827000000E+00 0. -1.
     999902    2    1    2    0    0  0.22255177037E-01  0.34651461345E-03 -0.39776320859E-02  0.10213195039E+01  0.10210691918E+01 0.  0.
     999903    2    3    3    0    0  0.37486801965E-01 -0.11313763468E+00  0.53572936335E-01  0.13203736505E+00  0.18932024701E-01 0.  0.
         14    1    1    2    0    0 -0.22255177037E-01 -0.34651461345E-03  0.39776320859E-02  0.22610496109E-01  0.00000000000E+00 0.  1.
     999901    1    3    3    0    0 -0.15231624928E-01  0.11348414929E+00 -0.57550568421E-01  0.88928213884E+00  0.88000000000E+00 0.  1.
        -11    1    4    4    0    0  0.21793190126E-01 -0.41680726074E-01  0.15257502166E-01  0.49449757889E-01  0.51100000000E-03 0. -1.
         11    1    4    4    0    0  0.15693611839E-01 -0.71456908604E-01  0.38315434168E-01  0.82587607159E-01  0.51100000000E-03 0.  1.
</event>
<event>
 8    1  0.1129676E+005  0.1043930E+01  0.7957747E-01            NaN
         13   -1    0    0    0    0  0.00000000000E+00  0.00000000000E+00  0.74505805969E-08  0.10566000000E+00  0.10566000000E+00 0.  1.
     999900   -1    0    0    0    0 -0.00000000000E+00 -0.00000000000E+00 -0.74505805969E-08  0.93827000000E+00  0.93827000000E+00 0. -1.
     999902    2    1    2    0    0  0.87632996124E-02 -0.24803753704E-01 -0.26142517845E-01  0.10068429017E+01  0.10061596175E+01 0.  0.
     999903    2    3    3    0    0  0.88398700761E-02  0.73442874209E-01  0.85968951562E-01  0.11430641099E+00  0.14258186587E-01 0.  0.
         14    1    1    2    0    0 -0.87632996124E-02  0.24803753704E-01  0.26142517845E-01  0.37087098258E-01  0.00000000000E+00 0.  1.
     999901    1    3    3    0    0 -0.76570463683E-04 -0.98246627913E-01 -0.11211146941E+00  0.89253649076E+00  0.88000000000E+00 0. -1.
        -11    1    4    4    0    0 -0.37596798098E-02  0.24542234346E-01  0.28157323977E-01  0.37544007158E-01  0.51100000000E-03 0.  1.
         11    1    4    4    0    0  0.12599549886E-01  0.48900639863E-01  0.57811627585E-01  0.76762403828E-01  0.51100000000E-03 0. -1.
</event>
<event>
 8    1  0.1129676E+005  0.1043930E+01  0.7957747E-01            NaN
         13   -1    0    0    0    0  0.00000000000E+00  0.00000000000E+00  0.74505805969E-08  0.10566000000E+00  0.10566000000E+00 0.  1.
     999900   -1    0    0    0    0 -0.00000000000E+00 -0.00000000000E+00 -0.74505805969E-08  0.93827000000E+00  0.93827000000E+00 0. -1.
     999902    2    1    2    0    0 -0.12102629495E-01 -0.46534658265E-02 -0.20842478559E-01  0.10193833648E+01  0.10190877819E+01 0.  0.
     999903    2    3    3    0    0  0.93775304200E-01 -0.69133146337E-01 -0.54006247753E-01  0.13007599299E+00  0.20733778165E-01 0.  0.
         14    1    1    2    0    0  0.12102629495E-01  0.46534658265E-02  0.20842478559E-01  0.24546635154E-01  0.00000000000E+00 0.  1.
     999901    1    3    3    0    0 -0.10587793370E+00  0.64479680510E-01  0.33163769194E-01  0.88930737185E+00  0.88000000000E+00 0.  1.
        -11    1    4    4    0    0  0.57040353714E-01 -0.38417410702E-01 -0.20971050901E-01  0.71899551415E-01  0.51100000000E-03 0. -1.
         11    1    4    4    0    0  0.36734950487E-01 -0.30715735635E-01 -0.33035196852E-01  0.58176441580E-01  0.51100000000E-03 0.  1.
</event>
<event>
 8    1  0.1129676E+005  0.1043930E+01  0.7957747E-01            NaN
         13   -1    0    0    0    0  0.00000000000E+00  0.00000000000E+00  0.74505805969E-08  0.10566000000E+00  0.10566000000E+00 0.  1.
     999900   -1    0    0    0    0 -0.00000000000E+00 -0.00000000000E+00 -0.74505805969E-08  0.93827000000E+00  0.93827000000E+00 0. -1.
     999902    2    1    2    0    0  0.10387059451E-01 -0.12232712955E-01 -0.16680435727E-01  0.10207833543E+01  0.10205208911E+01 0.  0.
     999903    2    3    3    0    0 -0.94904560562E-01  0.13954064786E-01 -0.87185534832E-01  0.13132113389E+00  0.21031670936E-01 0.  0.
         14    1    1    2    0    0 -0.10387059451E-01  0.12232712955E-01  0.16680435727E-01  0.23146645681E-01  0.00000000000E+00 0. -1.
     999901    1    3    3    0    0  0.10529162001E+00 -0.26186777741E-01  0.70505099105E-01  0.88946222043E+00  0.88000000000E+00 0.  1.
        -11    1    4    4    0    0 -0.20094071824E-01 -0.20089624831E-03 -0.29939871759E-01  0.36062017743E-01  0.51100000000E-03 0. -1.
         11    1    4    4    0    0 -0.74810488738E-01  0.14154961035E-01 -0.57245663072E-01  0.95259116145E-01  0.51100000000E-03 0.  1.
</event>
<event>
 8    1  0.1129676E+005  0.1043930E+01  0.7957747E-01            NaN
         13   -1    0    0    0    0  0.00000000000E+00  0.00000000000E+00  0.74505805969E-08  0.10566000000E+00  0.10566000000E+00 0. -1.
     999900   -1    0    0    0    0 -0.00000000000E+00 -0.00000000000E+00 -0.74505805969E-08  0.93827000000E+00  0.93827000000E+00 0. -1.
     999902    2    1    2    0    0  0.14162508331E-02  0.12024741959E-01  0.20804801576E-01  0.10198584410E+01  0.10195743228E+01 0.  0.
     999903    2    3    3    0    0 -0.78547439730E-01 -0.39012226620E-01  0.95994448916E-01  0.13157219936E+00  0.20116046000E-01 0.  0.
         14    1    1    2    0    0 -0.14162508331E-02 -0.12024741959E-01 -0.20804801576E-01  0.24071559032E-01  0.00000000000E+00 0.  1.
     999901    1    3    3    0    0  0.79963690563E-01  0.51036968579E-01 -0.75189647340E-01  0.88828624161E+00  0.88000000000E+00 0. -1.
        -11    1    4    4    0    0 -0.60404833876E-01 -0.38085678968E-01  0.81235391484E-01  0.10816058824E+00  0.51100000000E-03 0.  1.
         11    1    4    4    0    0 -0.18142605854E-01 -0.92654765210E-03  0.14759057433E-01  0.23411611115E-01  0.51100000000E-03 0. -1.
</event>
<event>
 8    1  0.1129676E+005  0.1043930E+01  0.7957747E-01            NaN
         13   -1    0    0    0    0  0.00000000000E+00  0.00000000000E+00  0.74505805969E-08  0.10566000000E+00  0.10566000000E+00 0. -1.
     999900   -1    0    0    0    0 -0.00000000000E+00 -0.00000000000E+00 -0.74505805969E-08  0.93827000000E+00  0.93827000000E+00 0.  1.
     999902    2    1    2    0    0  0.88324763086E-02  0.20764234881E-01  0.46605922271E-02  0.10208890103E+01  0.10206289649E+01 0.  0.
     999903    2    3    3    0    0  0.22580028369E-01 -0.11720531622E+00  0.44972844905E-01  0.12912128830E+00  0.20070039416E-01 0.  0.
         14    1    1    2    0    0 -0.88324763086E-02 -0.20764234881E-01 -0.46605922271E-02  0.23040989733E-01  0.00000000000E+00 0.  1.
     999901    1    3    3    0    0 -0.13747552060E-01  0.13796955111E+00 -0.40312252678E-01  0.89176772196E+00  0.88000000000E+00 0.  1.
        -11    1    4    4    0    0  0.20034299162E-01 -0.69001220124E-01  0.34582479243E-01  0.79741773953E-01  0.51100000000E-03 0. -1.
         11    1    4    4    0    0  0.25457292070E-02 -0.48204096100E-01  0.10390365662E-01  0.49379514351E-01  0.51100000000E-03 0.  1.
</event>
<event>
 8    1  0.1129676E+005  0.1043930E+01  0.7957747E-01            NaN
         13   -1    0    0    0    0  0.00000000000E+00  0.00000000000E+00  0.74505805969E-08  0.10566000000E+00  0.10566000000E+00 0. -1.
     999900   -1    0    0    0    0 -0.00000000000E+00 -0.00000000000E+00 -0.74505805969E-08  0.93827000000E+00  0.93827000000E+00 0.  1.
     999902    2    1    2    0    0  0.84913239080E-02 -0.43712562286E-02 -0.21632175479E-01  0.10202834045E+01  0.10200093451E+01 0.  0.
     999903    2    3    3    0    0 -0.30840309119E-01  0.11715195142E+00 -0.44831461134E-01  0.13075933276E+00  0.20308589545E-01 0.  0.
         14    1    1    2    0    0 -0.84913239080E-02  0.43712562286E-02  0.21632175479E-01  0.23646595499E-01  0.00000000000E+00 0. -1.
     999901    1    3    3    0    0  0.39331633027E-01 -0.12152320764E+00  0.23199285654E-01  0.88952407174E+00  0.88000000000E+00 0.  1.
        -11    1    4    4    0    0 -0.11122985295E-01  0.75656510570E-01 -0.22749326410E-01  0.79783590836E-01  0.51100000000E-03 0. -1.
         11    1    4    4    0    0 -0.19717323824E-01  0.41495440845E-01 -0.22082134724E-01  0.50975741924E-01  0.51100000000E-03 0.  1.
</event>
<event>
 8    1  0.1129676E+005  0.1043930E+01  0.7957747E-01            NaN
         13   -1    0    0    0    0  0.00000000000E+00  0.00000000000E+00  0.74505805969E-08  0.10566000000E+00  0.10566000000E+00 0. -1.
     999900   -1    0    0    0    0 -0.00000000000E+00 -0.00000000000E+00 -0.74505805969E-08  0.93827000000E+00  0.93827000000E+00 0. -1.
     999902    2    1    2    0    0  0.13358890406E-02 -0.24847760580E-01 -0.32582758638E-02  0.10188339412E+01  0.10185248095E+01 0.  0.
     999903    2    3    3    0    0  0.10514460029E-01 -0.11798902111E-01 -0.12741222208E+00  0.12997584160E+00  0.20250360592E-01 0.  0.
         14    1    1    2    0    0 -0.13358890406E-02  0.24847760580E-01  0.32582758638E-02  0.25096058794E-01  0.00000000000E+00 0. -1.
     999901    1    3    3    0    0 -0.91785709888E-02 -0.13048858470E-01  0.12415394621E+00  0.88885809961E+00  0.88000000000E+00 0.  1.
        -11    1    4    4    0    0 -0.18154786326E-03  0.87633584779E-03 -0.74842507185E-01  0.74849602049E-01  0.51100000000E-03 0. -1.
         11    1    4    4    0    0  0.10696007893E-01 -0.12675237958E-01 -0.52569714894E-01  0.55126239553E-01  0.51100000000E-03 0.  1.
</event>
<event>
 8    1  0.1129676E+005  0.1043930E+01  0.7957747E-01            NaN
         13   -1    0    0    0    0  0.00000000000E+00  0.00000000000E+00  0.74505805969E-08  0.10566000000E+00  0.10566000000E+00 0.  1.
     999900   -1    0    0    0    0 -0.00000000000E+00 -0.00000000000E+00 -0.74505805969E-08  0.93827000000E+00  0.93827000000E+00 0.  1.
     999902    2    1    2    0    0 -0.87446256176E-02 -0.22213528456E-01  0.16590733881E-02  0.10199996459E+01  0.10197188906E+01 0.  0.
     999903    2    3    3    0    0 -0.81891159036E-01 -0.99298894093E-01  0.28389766943E-01  0.13320367221E+00  0.19256352887E-01 0.  0.
         14    1    1    2    0    0  0.87446256176E-02  0.22213528456E-01 -0.16590733881E-02  0.23930354117E-01  0.00000000000E+00 0.  1.
     999901    1    3    3    0    0  0.73146533418E-01  0.77085365637E-01 -0.26730693555E-01  0.88679597367E+00  0.88000000000E+00 0. -1.
        -11    1    4    4    0    0 -0.32283854994E-01 -0.47137804416E-01  0.20863503432E-01  0.60825708339E-01  0.51100000000E-03 0. -1.
         11    1    4    4    0    0 -0.49607304041E-01 -0.52161089677E-01  0.75262635119E-02  0.72377963870E-01  0.51100000000E-03 0.  1.
</event>
<event>
 8    1  0.1129676E+005  0.1043930E+01  0.7957747E-01            NaN
         13   -1    0    0    0    0  0.00000000000E+00  0.00000000000E+00  0.74505805969E-08  0.10566000000E+00  0.10566000000E+00 0.  1.
     999900   -1    0    0    0    0 -0.00000000000E+00 -0.00000000000E+00 -0.74505805969E-08  0.93827000000E+00  0.93827000000E+00 0.  1.
     999902    2    1    2    0    0 -0.23715505558E-01 -0.75756623912E-02  0.36678144421E-02  0.10187651688E+01  0.10184543193E+01 0.  0.
     999903    2    3    3    0    0  0.87177091957E-01 -0.55013069164E-01 -0.72499322742E-01  0.12727826006E+00  0.17813493316E-01 0.  0.
         14    1    1    2    0    0  0.23715505558E-01  0.75756623912E-02 -0.36678144421E-02  0.25164831160E-01  0.00000000000E+00 0.  1.
     999901    1    3    3    0    0 -0.11089259751E+00  0.47437406773E-01  0.76167137184E-01  0.89148690878E+00  0.88000000000E+00 0. -1.
        -11    1    4    4    0    0  0.22430679733E-01 -0.74038089998E-02 -0.10904535572E-01  0.26021564096E-01  0.51100000000E-03 0. -1.
         11    1    4    4    0    0  0.64746412223E-01 -0.47609260164E-01 -0.61594787170E-01  0.10125669596E+00  0.51100000000E-03 0.  1.
</event>
<event>
 8    1  0.1129676E+005  0.1043930E+01  0.7957747E-01            NaN
         13   -1    0    0    0    0  0.00000000000E+00  0.00000000000E+00  0.74505805969E-08  0.10566000000E+00  0.10566000000E+00 0.  1.
     999900   -1    0    0    0    0 -0.00000000000E+00 -0.00000000000E+00 -0.74505805969E-08  0.93827000000E+00  0.93827000000E+00 0.  1.
     999902    2    1    2    0    0  0.22044242356E-01 -0.11330254921E-02 -0.71477835333E-02  0.10207282075E+01  0.10204644777E+01 0.  0.
     999903    2    3    3    0    0  0.26507638652E-01  0.12645045752E+00 -0.12560362460E-01  0.13150002355E+00  0.21026658668E-01 0.  0.
         14    1    1    2    0    0 -0.22044242356E-01  0.11330254921E-02  0.71477835333E-02  0.23201792544E-01  0.00000000000E+00 0. -1.
     999901    1    3    3    0    0 -0.44633962956E-02 -0.12758348301E+00  0.54125789269E-02  0.88922818391E+00  0.88000000000E+00 0. -1.
        -11    1    4    4    0    0  0.23749467174E-01  0.11782112495E+00 -0.60723731394E-02  0.12034529285E+00  0.51100000000E-03 0.  1.
         11    1    4    4    0    0  0.27581714777E-02  0.86293325732E-02 -0.64879893208E-02  0.11154730700E-01  0.51100000000E-03 0. -1.
</event>
<event>
 8    1  0.1129676E+005  0.1043930E+01  0.7957747E-01            NaN
         13   -1    0    0    0    0  0.00000000000E+00  0.00000000000E+00  0.74505805969E-08  0.10566000000E+00  0.10566000000E+00 0. -1.
     999900   -1    0    0    0    0 -0.00000000000E+00 -0.00000000000E+00 -0.74505805969E-08  0.93827000000E+00  0.93827000000E+00 0.  1.
     999902    2    1    2    0    0  0.15877543335E-01 -0.87905687307E-02 -0.15865551505E-01  0.10198242703E+01  0.10195393352E+01 0.  0.
     999903    2    3    3    0    0  0.71791634439E-01  0.10180292683E+00  0.30878156582E-01  0.12991288082E+00  0.20149971725E-01 0.  0.
         14    1    1    2    0    0 -0.15877543335E-01  0.87905687307E-02  0.15865551505E-01  0.24105729724E-01  0.00000000000E+00 0. -1.
     999901    1    3    3    0    0 -0.55914091104E-01 -0.11059349557E+00 -0.46743708087E-01  0.88991138946E+00  0.88000000000E+00 0.  1.
        -11    1    4    4    0    0  0.42362301118E-01  0.49590280144E-01  0.78072070137E-02  0.65688462025E-01  0.51100000000E-03 0. -1.
         11    1    4    4    0    0  0.29429333321E-01  0.52212646690E-01  0.23070949568E-01  0.64224418791E-01  0.51100000000E-03 0.  1.
</event>
<event>
 8    1  0.1129676E+005  0.1043930E+01  0.7957747E-01            NaN
         13   -1    0    0    0    0  0.00000000000E+00  0.00000000000E+00  0.74505805969E-08  0.10566000000E+00  0.10566000000E+00 0. -1.
     999900   -1    0    0    0    0 -0.00000000000E+00 -0.00000000000E+00 -0.74505805969E-08  0.93827000000E+00  0.93827000000E+00 0.  1.
     999902    2    1    2    0    0  0.29791810284E-02 -0.11004002426E-01  0.20814936009E-01  0.10201976350E+01  0.10199215603E+01 0.  0.
     999903    2    3    3    0    0  0.12537811828E-01 -0.11572966804E+00  0.61211867655E-01  0.13301628679E+00  0.19896909812E-01 0.  0.
         14    1    1    2    0    0 -0.29791810284E-02  0.11004002426E-01 -0.20814936009E-01  0.23732365033E-01  0.00000000000E+00 0.  1.
     999901    1    3    3    0    0 -0.95586307993E-02  0.10472566561E+00 -0.40396931646E-01  0.88718134817E+00  0.88000000000E+00 0.  1.
        -11    1    4    4    0    0  0.16044415069E-01 -0.79157295077E-01  0.48082996804E-01  0.93997533592E-01  0.51100000000E-03 0.  1.
         11    1    4    4    0    0 -0.35066032413E-02 -0.36572372964E-01  0.13128870852E-01  0.39018753201E-01  0.51100000000E-03 0. -1.
</event>
<event>
 8    1  0.1129676E+005  0.1043930E+01  0.7957747E-01            NaN
         13   -1    0    0    0    0  0.00000000000E+00  0.00000000000E+00  0.74505805969E-08  0.10566000000E+00  0.10566000000E+00 0.  1.
     999900   -1    0    0    0    0 -0.00000000000E+00 -0.00000000000E+00 -0.74505805969E-08  0.93827000000E+00  0.93827000000E+00 0. -1.
     999902    2    1    2    0    0 -0.11521587572E-01  0.37678935651E-02  0.20537212842E-01  0.10200821256E+01  0.10198033251E+01 0.  0.
     999903    2    3    3    0    0 -0.83344912810E-01 -0.35394981445E-01 -0.90302980514E-01  0.12936451081E+00  0.19528675468E-01 0.  0.
         14    1    1    2    0    0  0.11521587572E-01 -0.37678935651E-02 -0.20537212842E-01  0.23847874400E-01  0.00000000000E+00 0. -1.
     999901    1    3    3    0    0  0.71823325238E-01  0.39162875010E-01  0.11084019336E+00  0.89071761479E+00  0.88000000000E+00 0.  1.
        -11    1    4    4    0    0 -0.43881075077E-02 -0.53036693368E-02 -0.13570577358E-01  0.15225179367E-01  0.51100000000E-03 0. -1.
         11    1    4    4    0    0 -0.78956805303E-01 -0.30091312108E-01 -0.76732403155E-01  0.11413933145E+00  0.51100000000E-03 0.  1.
</event>
<event>
 8    1  0.1129676E+005  0.1043930E+01  0.7957747E-01            NaN
         13   -1    0    0    0    0  0.00000000000E+00  0.00000000000E+00  0.74505805969E-08  0.10566000000E+00  0.10566000000E+00 0.  1.
     999900   -1    0    0    0    0 -0.00000000000E+00 -0.00000000000E+00 -0.74505805969E-08  0.93827000000E+00  0.93827000000E+00 0. -1.
     999902    2    1    2    0    0  0.19074163146E-01  0.26694063874E-02  0.15624485967E-01  0.10191293147E+01  0.10188275056E+01 0.  0.
     999903    2    3    3    0    0  0.78993951716E-01  0.93905620557E-01  0.43697718763E-01  0.13194132207E+00  0.20993138543E-01 0.  0.
         14    1    1    2    0    0 -0.19074163146E-01 -0.26694063874E-02 -0.15624485967E-01  0.24800685311E-01  0.00000000000E+00 0. -1.
     999901    1    3    3    0    0 -0.59919788570E-01 -0.91236214169E-01 -0.28073232797E-01  0.88718799261E+00  0.88000000000E+00 0. -1.
        -11    1    4    4    0    0  0.31830150390E-01  0.42358478790E-01  0.29492341563E-01  0.60642052498E-01  0.51100000000E-03 0.  1.
         11    1    4    4    0    0  0.47163801327E-01  0.51547141767E-01  0.14205377200E-01  0.71299269577E-01  0.51100000000E-03 0. -1.
</event>
<event>
 8    1  0.1129676E+005  0.1043930E+01  0.7957747E-01            NaN
         13   -1    0    0    0    0  0.00000000000E+00  0.00000000000E+00  0.74505805969E-08  0.10566000000E+00  0.10566000000E+00 0. -1.
     999900   -1    0    0    0    0 -0.00000000000E+00 -0.00000000000E+00 -0.74505805969E-08  0.93827000000E+00  0.93827000000E+00 0.  1.
     999902    2    1    2    0    0 -0.22293611436E-01 -0.10313268990E-02  0.84040860923E-02  0.10200826226E+01  0.10198038338E+01 0.  0.
     999903    2    3    3    0    0 -0.22846612491E-01 -0.97640633661E-01  0.82827392170E-01  0.13167253010E+00  0.20533320354E-01 0.  0.
         14    1    1    2    0    0  0.22293611436E-01  0.10313268990E-02 -0.84040860923E-02  0.23847377405E-01  0.00000000000E+00 0.  1.
     999901    1    3    3    0    0  0.55300105471E-03  0.96609306762E-01 -0.74423306077E-01  0.88841009250E+00  0.88000000000E+00 0.  1.
        -11    1    4    4    0    0  0.25953444398E-02 -0.12768509114E-01  0.58173786803E-02  0.14278433159E-01  0.51100000000E-03 0. -1.
         11    1    4    4    0    0 -0.25441956931E-01 -0.84872124547E-01  0.77010013489E-01  0.11739409694E+00  0.51100000000E-03 0.  1.
</event>
<event>
 8    1  0.1129676E+005  0.1043930E+01  0.7957747E-01            NaN
         13   -1    0    0    0    0  0.00000000000E+00  0.00000000000E+00  0.74505805969E-08  0.10566000000E+00  0.10566000000E+00 0.  1.
     999900   -1    0    0    0    0 -0.00000000000E+00 -0.00000000000E+00 -0.74505805969E-08  0.93827000000E+00  0.93827000000E+00 0. -1.
     999902    2    1    2    0    0 -0.21024796665E-01  0.24413956750E-02  0.10969722279E-01  0.10200901742E+01  0.10198115641E+01 0.  0.
     999903    2    3    3    0    0  0.88019085594E-01 -0.15215803282E-01  0.91580520398E-01  0.12952830340E+00  0.20290627580E-01 0.  0.
         14    1    1    2    0    0  0.21024796665E-01 -0.24413956750E-02 -0.10969722279E-01  0.23839825807E-01  0.00000000000E+00 0. -1.
     999901    1    3    3    0    0 -0.10904388226E+00  0.17657198957E-01 -0.80610798119E-01  0.89056187079E+00  0.88000000000E+00 0.  1.
        -11    1    4    4    0    0  0.83727456831E-01 -0.98084671077E-02  0.87450985774E-01  0.12146781091E+00  0.51100000000E-03 0. -1.
         11    1    4    4    0    0  0.42916287629E-02 -0.54073361744E-02  0.41295346239E-02  0.80604924881E-02  0.51100000000E-03 0.  1.
</event>
<event>
 8    1  0.1129676E+005  0.1043930E+01  0.7957747E-01            NaN
         13   -1    0    0    0    0  0.00000000000E+00  0.00000000000E+00  0.74505805969E-08  0.10566000000E+00  0.10566000000E+00 0. -1.
     999900   -1    0    0    0    0 -0.00000000000E+00 -0.00000000000E+00 -0.74505805969E-08  0.93827000000E+00  0.93827000000E+00 0. -1.
     999902    2    1    2    0    0  0.33865371531E-02 -0.36017042809E-02  0.22953525197E-01  0.10204501102E+01  0.10201799459E+01 0.  0.
     999903    2    3    3    0    0  0.12922822141E-01  0.10952331389E+00  0.69412316258E-01  0.13194201806E+00  0.20694706176E-01 0.  0.
         14    1    1    2    0    0 -0.33865371531E-02  0.36017042809E-02 -0.22953525197E-01  0.23479889833E-01  0.00000000000E+00 0.  1.
     999901    1    3    3    0    0 -0.95362849880E-02 -0.11312501817E+00 -0.46458791061E-01  0.88850809210E+00  0.88000000000E+00 0. -1.
        -11    1    4    4    0    0 -0.56689286700E-02  0.29848052995E-01  0.18256913567E-01  0.35448822743E-01  0.51100000000E-03 0.  1.
         11    1    4    4    0    0  0.18591750811E-01  0.79675260898E-01  0.51155402692E-01  0.96493195319E-01  0.51100000000E-03 0. -1.
</event>
<event>
 8    1  0.1129676E+005  0.1043930E+01  0.7957747E-01            NaN
         13   -1    0    0    0    0  0.00000000000E+00  0.00000000000E+00  0.74505805969E-08  0.10566000000E+00  0.10566000000E+00 0.  1.
     999900   -1    0    0    0    0 -0.00000000000E+00 -0.00000000000E+00 -0.74505805969E-08  0.93827000000E+00  0.93827000000E+00 0. -1.
     999902    2    1    2    0    0  0.15967588834E-01 -0.17853147604E-02  0.14133929650E-01  0.10225309531E+01  0.10223070140E+01 0.  0.
     999903    2    3    3    0    0 -0.62246123283E-01 -0.11336891450E+00  0.17040800298E-01  0.13203854188E+00  0.20413158260E-01 0.  0.
         14    1    1    2    0    0 -0.15967588834E-01  0.17853147604E-02 -0.14133929650E-01  0.21399046925E-01  0.00000000000E+00 0.  1.
     999901    1    3    3    0    0  0.78213712117E-01  0.11158359974E+00 -0.29068706483E-02  0.89049241119E+00  0.88000000000E+00 0.  1.
        -11    1    4    4    0    0 -0.46033731870E-01 -0.63172297173E-01  0.11149356886E-01  0.78958298361E-01  0.51100000000E-03 0. -1.
         11    1    4    4    0    0 -0.16212391413E-01 -0.50196617323E-01  0.58914434119E-02  0.53080243523E-01  0.51100000000E-03 0.  1.
</event>
<event>
 8    1  0.1129676E+005  0.1043930E+01  0.7957747E-01            NaN
         13   -1    0    0    0    0  0.00000000000E+00  0.00000000000E+00  0.74505805969E-08  0.10566000000E+00  0.10566000000E+00 0.  1.
     999900   -1    0    0    0    0 -0.00000000000E+00 -0.00000000000E+00 -0.74505805969E-08  0.93827000000E+00  0.93827000000E+00 0.  1.
     999902    2    1    2    0    0 -0.73529265710E-02  0.11200776559E-02  0.22863155621E-01  0.10198874546E+01  0.10196040291E+01 0.  0.
     999903    2    3    3    0    0 -0.12725324975E+00 -0.22186350564E-01  0.12867020796E-01  0.13139479860E+00  0.20332465494E-01 0.  0.
         14    1    1    2    0    0  0.73529265710E-02 -0.11200776559E-02 -0.22863155621E-01  0.24042545374E-01  0.00000000000E+00 0. -1.
     999901    1    3    3    0    0  0.11990032318E+00  0.23306428220E-01  0.99961348246E-02  0.88849265602E+00  0.88000000000E+00 0. -1.
        -11    1    4    4    0    0 -0.51509276850E-01  0.22155567703E-03  0.91351650397E-02  0.52316030524E-01  0.51100000000E-03 0.  1.
         11    1    4    4    0    0 -0.75743972898E-01 -0.22407906241E-01  0.37318557564E-02  0.79078768079E-01  0.51100000000E-03 0. -1.
</event>
<event>
 8    1  0.1129676E+005  0.1043930E+01  0.7957747E-01            NaN
         13   -1    0    0    0    0  0.00000000000E+00  0.00000000000E+00  0.74505805969E-08  0.10566000000E+00  0.10566000000E+00 0. -1.
     999900   -1    0    0    0    0 -0.00000000000E+00 -0.00000000000E+00 -0.74505805969E-08  0.93827000000E+00  0.93827000000E+00 0.  1.
     999902    2    1    2    0    0 -0.14402567518E-01 -0.18481119120E-01 -0.85570995240E-02  0.10189858691E+01  0.10186805150E+01 0.  0.
     999903    2    3    3    0    0  0.42210662876E-01 -0.48703157430E-01  0.10956133583E+00  0.12877780676E+00  0.20647023990E-01 0.  0.
         14    1    1    2    0    0  0.14402567518E-01  0.18481119120E-01  0.85570995240E-02  0.24944130919E-01  0.00000000000E+00 0.  1.
     999901    1    3    3    0    0 -0.56613230394E-01  0.30222038310E-01 -0.11811843536E+00  0.89020806232E+00  0.88000000000E+00 0.  1.
        -11    1    4    4    0    0  0.20207261792E-01 -0.27116967769E-01  0.38076154569E-01  0.50928558176E-01  0.51100000000E-03 0.  1.
         11    1    4    4    0    0  0.22003401084E-01 -0.21586189661E-01  0.71485181265E-01  0.77849248582E-01  0.51100000000E-03 0. -1.
</event>
<event>
 8    1  0.1129676E+005  0.1043930E+01  0.7957747E-01            NaN
         13   -1    0    0    0    0  0.00000000000E+00  0.00000000000E+00  0.74505805969E-08  0.10566000000E+00  0.10566000000E+00 0. -1.
     999900   -1    0    0    0    0 -0.00000000000E+00 -0.00000000000E+00 -0.74505805969E-08  0.93827000000E+00  0.93827000000E+00 0. -1.
     999902    2    1    2    0    0 -0.20252336060E-01  0.26328892982E-02 -0.12101751147E-01  0.10201909688E+01  0.10199147372E+01 0.  0.
     999903    2    3    3    0    0 -0.65274486788E-01  0.40487872678E-03 -0.11419298255E+00  0.13314273018E+00  0.20640416276E-01 0.  0.
         14    1    1    2    0    0  0.20252336060E-01 -0.26328892982E-02  0.12101751147E-01  0.23739031209E-01  0.00000000000E+00 0. -1.
     999901    1    3    3    0    0  0.45022150728E-01  0.22280105714E-02  0.10209123141E+00  0.88704823861E+00  0.88000000000E+00 0.  1.
        -11    1    4    4    0    0 -0.45808595232E-01 -0.72868174680E-02 -0.89187396264E-01  0.10052948761E+00  0.51100000000E-03 0.  1.
         11    1    4    4    0    0 -0.19465891556E-01  0.76916961948E-02 -0.25005586289E-01  0.32613242572E-01  0.51100000000E-03 0. -1.
</event>
<event>
 8    1  0.1129676E+005  0.1043930E+01  0.7957747E-01            NaN
         13   -1    0    0    0    0  0.00000000000E+00  0.00000000000E+00  0.74505805969E-08  0.10566000000E+00  0.10566000000E+00 0.  1.
     999900   -1    0    0    0    0 -0.00000000000E+00 -0.00000000000E+00 -0.74505805969E-08  0.93827000000E+00  0.93827000000E+00 0. -1.
     999902    2    1    2    0    0  0.52695848953E-02 -0.34309486281E-02 -0.23267557531E-01  0.10198277352E+01  0.10195428831E+01 0.  0.
     999903    2    3    3    0    0 -0.36612658032E-01  0.52884343094E-01  0.10810524509E+00  0.12731199441E+00  0.19605086877E-01 0.  0.
         14    1    1    2    0    0 -0.52695848953E-02  0.34309486281E-02  0.23267557531E-01  0.24102264768E-01  0.00000000000E+00 0.  1.
     999901    1    3    3    0    0  0.41882242928E-01 -0.56315291723E-01 -0.13137280262E+00  0.89251574083E+00  0.88000000000E+00 0. -1.
        -11    1    4    4    0    0 -0.16973217951E-01  0.38389214153E-01  0.58246719181E-01  0.71796680335E-01  0.51100000000E-03 0. -1.
         11    1    4    4    0    0 -0.19639440081E-01  0.14495128942E-01  0.49858525907E-01  0.55515314071E-01  0.51100000000E-03 0.  1.
</event>
<event>
 8    1  0.1129676E+005  0.1043930E+01  0.7957747E-01            NaN
         13   -1    0    0    0    0  0.00000000000E+00  0.00000000000E+00  0.74505805969E-08  0.10566000000E+00  0.10566000000E+00 0. -1.
     999900   -1    0    0    0    0 -0.00000000000E+00 -0.00000000000E+00 -0.74505805969E-08  0.93827000000E+00  0.93827000000E+00 0. -1.
     999902    2    1    2    0    0  0.17805681224E-02  0.71304134560E-02  0.24579607578E-01  0.10182751695E+01  0.10179519392E+01 0.  0.
     999903    2    3    3    0    0  0.62762490762E-01  0.63729997911E-01 -0.88071476553E-01  0.12720133721E+00  0.20565804764E-01 0.  0.
         14    1    1    2    0    0 -0.17805681224E-02 -0.71304134560E-02 -0.24579607578E-01  0.25654830492E-01  0.00000000000E+00 0.  1.
     999901    1    3    3    0    0 -0.60981922639E-01 -0.56599584456E-01  0.11265108413E+00  0.89107383230E+00  0.88000000000E+00 0. -1.
        -11    1    4    4    0    0  0.39759864915E-01  0.26148991678E-01 -0.42415550466E-01  0.63749169925E-01  0.51100000000E-03 0. -1.
         11    1    4    4    0    0  0.23002625847E-01  0.37581006234E-01 -0.45655926087E-01  0.63452167286E-01  0.51100000000E-03 0.  1.
</event>
<event>
 8    1  0.1129676E+005  0.1043930E+01  0.7957747E-01            NaN
         13   -1    0    0    0    0  0.00000000000E+00  0.00000000000E+00  0.74505805969E-08  0.10566000000E+00  0.10566000000E+00 0.  1.
     999900   -1    0    0    0    0 -0.00000000000E+00 -0.00000000000E+00 -0.74505805969E-08  0.93827000000E+00  0.93827000000E+00 0.  1.
     999902    2    1    2    0    0  0.22353133096E-01 -0.21804145442E-02  0.60586563430E-02  0.10206679261E+01  0.10204028083E+01 0.  0.
     999903    2    3    3    0    0  0.73399729028E-01  0.77106946976E-01  0.75252863447E-01  0.13292918131E+00  0.25964828007E-01 0.  0.
         14    1    1    2    0    0 -0.22353133096E-01  0.21804145442E-02 -0.60586563430E-02  0.23262073929E-01  0.00000000000E+00 0. -1.
     999901    1    3    3    0    0 -0.51046595933E-01 -0.79287361520E-01 -0.69194207104E-01  0.88773874476E+00  0.88000000000E+00 0.  1.
        -11    1    4    4    0    0  0.34274423733E-01  0.26711479892E-01  0.44149833903E-01  0.61949239180E-01  0.51100000000E-03 0. -1.
         11    1    4    4    0    0  0.39125305295E-01  0.50395467084E-01  0.31103029544E-01  0.70979942131E-01  0.51100000000E-03 0.  1.
</event>
<event>
 8    1  0.1129676E+005  0.1043930E+01  0.7957747E-01            NaN
         13   -1    0    0    0    0  0.00000000000E+00  0.00000000000E+00  0.74505805969E-08  0.10566000000E+00  0.10566000000E+00 0.  1.
     999900   -1    0    0    0    0 -0.00000000000E+00 -0.00000000000E+00 -0.74505805969E-08  0.93827000000E+00  0.93827000000E+00 0.  1.
     999902    2    1    2    0    0 -0.12638032249E-03  0.48880619867E-02  0.22184800562E-01  0.10212127269E+01  0.10209600183E+01 0.  0.
     999903    2    3    3    0    0 -0.64565135122E-01  0.12537695060E-01  0.11507124672E+00  0.13394796263E+00  0.19360123927E-01 0.  0.
         14    1    1    2    0    0  0.12638032249E-03 -0.48880619867E-02 -0.22184800562E-01  0.22717273119E-01  0.00000000000E+00 0. -1.
     999901    1    3    3    0    0  0.64438754799E-01 -0.76496330731E-02 -0.92886446163E-01  0.88726476425E+00  0.88000000000E+00 0.  1.
        -11    1    4    4    0    0 -0.49638159921E-01  0.50663547064E-02  0.98517884927E-01  0.11043391527E+00  0.51100000000E-03 0. -1.
         11    1    4    4    0    0 -0.14926975201E-01  0.74713403534E-02  0.16553361798E-01  0.23514047358E-01  0.51100000000E-03 0.  1.
</event>
<event>
 8    1  0.1129676E+005  0.1043930E+01  0.7957747E-01            NaN
         13   -1    0    0    0    0  0.00000000000E+00  0.00000000000E+00  0.74505805969E-08  0.10566000000E+00  0.10566000000E+00 0. -1.
     999900   -1    0    0    0    0 -0.00000000000E+00 -0.00000000000E+00 -0.74505805969E-08  0.93827000000E+00  0.93827000000E+00 0.  1.
     999902    2    1    2    0    0 -0.18885648750E-01  0.78973413355E-03 -0.14330417900E-01  0.10202097073E+01  0.10199339168E+01 0.  0.
     999903    2    3    3    0    0  0.92637929108E-01 -0.85704786950E-01  0.13251188831E-01  0.12853737083E+00  0.20473526283E-01 0.  0.
         14    1    1    2    0    0  0.18885648750E-01 -0.78973413355E-03  0.14330417900E-01  0.23720292702E-01  0.00000000000E+00 0.  1.
     999901    1    3    3    0    0 -0.11152357786E+00  0.86494521084E-01 -0.27581606730E-01  0.89167233647E+00  0.88000000000E+00 0.  1.
        -11    1    4    4    0    0  0.32886559739E-01 -0.20714926136E-01  0.10262684147E-01  0.40202211172E-01  0.51100000000E-03 0. -1.
         11    1    4    4    0    0  0.59751369369E-01 -0.64989860814E-01  0.29885046834E-02  0.88335159656E-01  0.51100000000E-03 0.  1.
</event>
<event>
 8    1  0.1129676E+005  0.1043930E+01  0.7957747E-01            NaN
         13   -1    0    0    0    0  0.00000000000E+00  0.00000000000E+00  0.74505805969E-08  0.10566000000E+00  0.10566000000E+00 0.  1.
     999900   -1    0    0    0    0 -0.00000000000E+00 -0.00000000000E+00 -0.74505805969E-08  0.93827000000E+00  0.93827000000E+00 0.  1.
     999902    2    1    2    0    0 -0.40913187658E-02  0.21532445552E-01 -0.83421385859E-02  0.10204784249E+01  0.10202089194E+01 0.  0.
     999903    2    3    3    0    0  0.11775747725E+00 -0.17390769840E-01 -0.48691737632E-01  0.13031538589E+00  0.21022658351E-01 0.  0.
         14    1    1    2    0    0  0.40913187658E-02 -0.21532445552E-01  0.83421385859E-02  0.23451575147E-01  0.00000000000E+00 0.  1.
     999901    1    3    3    0    0 -0.12184879601E+00  0.38923215392E-01  0.40349599047E-01  0.89016303896E+00  0.88000000000E+00 0. -1.
        -11    1    4    4    0    0  0.19595163817E-01  0.38641800011E-02 -0.12437375059E-01  0.23534055142E-01  0.51100000000E-03 0.  1.
         11    1    4    4    0    0  0.98162313429E-01 -0.21254949841E-01 -0.36254362574E-01  0.10678133075E+00  0.51100000000E-03 0. -1.
</event>
<event>
 8    1  0.1129676E+005  0.1043930E+01  0.7957747E-01            NaN
         13   -1    0    0    0    0  0.00000000000E+00  0.00000000000E+00  0.74505805969E-08  0.10566000000E+00  0.10566000000E+00 0.  1.
     999900   -1    0    0    0    0 -0.00000000000E+00 -0.00000000000E+00 -0.74505805969E-08  0.93827000000E+00  0.93827000000E+00 0. -1.
     999902    2    1    2    0    0  0.22027624699E-01  0.43915116246E-02 -0.42608338010E-03  0.10214648454E+01  0.10212177766E+01 0.  0.
     999903    2    3    3    0    0 -0.12431056224E+00  0.23775558435E-01 -0.14976323613E-01  0.12905108726E+00  0.20285457627E-01 0.  0.
         14    1    1    2    0    0 -0.22027624699E-01 -0.43915116246E-02  0.42608338010E-03  0.22465154602E-01  0.00000000000E+00 0.  1.
     999901    1    3    3    0    0  0.14633818694E+00 -0.19384046810E-01  0.14550240233E-01  0.89241375814E+00  0.88000000000E+00 0. -1.
        -11    1    4    4    0    0 -0.50400198081E-01 -0.37939712304E-03 -0.48971387303E-02  0.50641554059E-01  0.51100000000E-03 0.  1.
         11    1    4    4    0    0 -0.73910364156E-01  0.24154955558E-01 -0.10079184883E-01  0.78409533200E-01  0.51100000000E-03 0. -1.
</event>
<event>
 8    1  0.1653955E+005  0.1043930E+01  0.7957747E-01            NaN
         13   -1    0    0    0    0  0.00000000000E+00  0.00000000000E+00  0.74505805969E-08  0.10566000000E+00  0.10566000000E+00 0.  1.
     999900   -1    0    0    0    0 -0.00000000000E+00 -0.00000000000E+00 -0.74505805969E-08  0.93827000000E+00  0.93827000000E+00 0. -1.
     999902    2    1    2    0    0 -0.89809613782E-02  0.13827623530E-01 -0.16700757041E-01  0.10204613800E+01  0.10201914781E+01 0.  0.
     999903    2    3    3    0    0 -0.54274772502E-01 -0.10306971541E+00 -0.55920086798E-01  0.13071159886E+00  0.19731923479E-01 0.  0.
         14    1    1    2    0    0  0.89809613782E-02 -0.13827623530E-01  0.16700757041E-01  0.23468620017E-01  0.00000000000E+00 0.  1.
     999901    1    3    3    0    0  0.45293811124E-01  0.11689733894E+00  0.39219329757E-01  0.88974978112E+00  0.88000000000E+00 0. -1.
        -11    1    4    4    0    0 -0.19193561341E-01 -0.46304595454E-01 -0.14552328209E-01  0.52197123814E-01  0.51100000000E-03 0.  1.
         11    1    4    4    0    0 -0.35081211161E-01 -0.56765119958E-01 -0.41367758589E-01  0.78514475048E-01  0.51100000000E-03 0. -1.
</event>
<event>
 8    1  0.1129676E+005  0.1043930E+01  0.7957747E-01            NaN
         13   -1    0    0    0    0  0.00000000000E+00  0.00000000000E+00  0.74505805969E-08  0.10566000000E+00  0.10566000000E+00 0.  1.
     999900   -1    0    0    0    0 -0.00000000000E+00 -0.00000000000E+00 -0.74505805969E-08  0.93827000000E+00  0.93827000000E+00 0. -1.
     999902    2    1    2    0    0  0.11462326304E-01  0.10067265749E-01  0.18452894814E-01  0.10199874836E+01  0.10197064394E+01 0.  0.
     999903    2    3    3    0    0 -0.11093113851E-01  0.95170498144E-01  0.89728062307E-01  0.13272683558E+00  0.19616493725E-01 0.  0.
         14    1    1    2    0    0 -0.11462326304E-01 -0.10067265749E-01 -0.18452894814E-01  0.23942516388E-01  0.00000000000E+00 0. -1.
     999901    1    3    3    0    0  0.22555440154E-01 -0.85103232395E-01 -0.71275167492E-01  0.88726064803E+00  0.88000000000E+00 0. -1.
        -11    1    4    4    0    0 -0.10992001656E-01  0.72632435756E-01  0.56980202449E-01  0.92969346649E-01  0.51100000000E-03 0. -1.
         11    1    4    4    0    0 -0.10111219470E-03  0.22538062388E-01  0.32747859858E-01  0.39757488931E-01  0.51100000000E-03 0.  1.
</event>
<event>
 8    1  0.1129676E+005  0.1043930E+01  0.7957747E-01            NaN
         13   -1    0    0    0    0  0.00000000000E+00  0.00000000000E+00  0.74505805969E-08  0.10566000000E+00  0.10566000000E+00 0. -1.
     999900   -1    0    0    0    0 -0.00000000000E+00 -0.00000000000E+00 -0.74505805969E-08  0.93827000000E+00  0.93827000000E+00 0. -1.
     999902    2    1    2    0    0  0.67539313692E-02 -0.53497617097E-02 -0.22551655200E-01  0.10197884861E+01  0.10195026943E+01 0.  0.
     999903    2    3    3    0    0 -0.97550358749E-01  0.60331898845E-01  0.52863434912E-01  0.12800325342E+00  0.20839376813E-01 0.  0.
         14    1    1    2    0    0 -0.67539313692E-02  0.53497617097E-02  0.22551655200E-01  0.24141513862E-01  0.00000000000E+00 0. -1.
     999901    1    3    3    0    0  0.10430429012E+00 -0.65681660555E-01 -0.75415090113E-01  0.89178523271E+00  0.88000000000E+00 0. -1.
        -11    1    4    4    0    0 -0.39604770688E-01  0.12897761391E-01  0.17374896825E-01  0.45133560361E-01  0.51100000000E-03 0. -1.
         11    1    4    4    0    0 -0.57945588061E-01  0.47434137454E-01  0.35488538088E-01  0.82869693062E-01  0.51100000000E-03 0.  1.
</event>
<event>
 8    1  0.1129676E+005  0.1043930E+01  0.7957747E-01            NaN
         13   -1    0    0    0    0  0.00000000000E+00  0.00000000000E+00  0.74505805969E-08  0.10566000000E+00  0.10566000000E+00 0.  1.
     999900   -1    0    0    0    0 -0.00000000000E+00 -0.00000000000E+00 -0.74505805969E-08  0.93827000000E+00  0.93827000000E+00 0. -1.
     999902    2    1    2    0    0 -0.18556847948E-01  0.50702584498E-02 -0.14113689404E-01  0.10200708224E+01  0.10197917544E+01 0.  0.
     999903    2    3    3    0    0  0.20264443144E-01 -0.16122547840E-01 -0.12757649617E+00  0.13168462475E+00  0.19861868379E-01 0.  0.
         14    1    1    2    0    0  0.18556847948E-01 -0.50702584498E-02  0.14113689404E-01  0.23859177587E-01  0.00000000000E+00 0.  1.
     999901    1    3    3    0    0 -0.38821291093E-01  0.21192806290E-01  0.11346280677E+00  0.88838619766E+00  0.88000000000E+00 0.  1.
        -11    1    4    4    0    0  0.61980204653E-02 -0.17380990487E-01 -0.68865147654E-01  0.71296451317E-01  0.51100000000E-03 0.  1.
         11    1    4    4    0    0  0.14066422679E-01  0.12584426472E-02 -0.58711348516E-01  0.60388173432E-01  0.51100000000E-03 0. -1.
</event>
<event>
 8    1  0.1129676E+005  0.1043930E+01  0.7957747E-01            NaN
         13   -1    0    0    0    0  0.00000000000E+00  0.00000000000E+00  0.74505805969E-08  0.10566000000E+00  0.10566000000E+00 0. -1.
     999900   -1    0    0    0    0 -0.00000000000E+00 -0.00000000000E+00 -0.74505805969E-08  0.93827000000E+00  0.93827000000E+00 0. -1.
     999902    2    1    2    0    0  0.21330874417E-01  0.15523420957E-01  0.45759859367E-02  0.10171545925E+01  0.10168021157E+01 0.  0.
     999903    2    3    3    0    0 -0.12210622087E+00 -0.12485393644E-01 -0.66512838177E-02  0.12503086473E+00  0.22861831230E-01 0.  0.
         14    1    1    2    0    0 -0.21330874417E-01 -0.15523420957E-01 -0.45759859367E-02  0.26775407539E-01  0.00000000000E+00 0.  1.
     999901    1    3    3    0    0  0.14343709529E+00  0.28008814601E-01  0.11227269754E-01  0.89212372773E+00  0.88000000000E+00 0.  1.
        -11    1    4    4    0    0 -0.33991597143E-01 -0.33071557606E-02 -0.12187663605E-01  0.36265220539E-01  0.51100000000E-03 0. -1.
         11    1    4    4    0    0 -0.88114623731E-01 -0.91782378832E-02  0.55363797878E-02  0.88765644187E-01  0.51100000000E-03 0.  1.
</event>
<event>
 8    1  0.1129676E+005  0.1043930E+01  0.7957747E-01            NaN
         13   -1    0    0    0    0  0.00000000000E+00  0.00000000000E+00  0.74505805969E-08  0.10566000000E+00  0.10566000000E+00 0. -1.
     999900   -1    0    0    0    0 -0.00000000000E+00 -0.00000000000E+00 -0.74505805969E-08  0.93827000000E+00  0.93827000000E+00 0. -1.
     999902    2    1    2    0    0 -0.21541382663E-01  0.90941297034E-02 -0.76274752953E-02  0.10193350261E+01  0.10190382636E+01 0.  0.
     999903    2    3    3    0    0 -0.12347890695E+00 -0.40247301812E-01 -0.12454100747E-01  0.13206441797E+00  0.20469980592E-01 0.  0.
         14    1    1    2    0    0  0.21541382663E-01 -0.90941297034E-02  0.76274752953E-02  0.24594973907E-01  0.00000000000E+00 0. -1.
     999901    1    3    3    0    0  0.10193752428E+00  0.49341431516E-01  0.48266254517E-02  0.88727060812E+00  0.88000000000E+00 0. -1.
        -11    1    4    4    0    0 -0.97482590412E-01 -0.22732937163E-01 -0.10610640360E-01  0.10066026364E+00  0.51100000000E-03 0. -1.
         11    1    4    4    0    0 -0.25996316533E-01 -0.17514364650E-01 -0.18434603868E-02  0.31404154336E-01  0.51100000000E-03 0.  1.
</event>
<event>
 8    1  0.1129676E+005  0.1043930E+01  0.7957747E-01            NaN
         13   -1    0    0    0    0  0.00000000000E+00  0.00000000000E+00  0.74505805969E-08  0.10566000000E+00  0.10566000000E+00 0. -1.
     999900   -1    0    0    0    0 -0.00000000000E+00 -0.00000000000E+00 -0.74505805969E-08  0.93827000000E+00  0.93827000000E+00 0. -1.
     999902    2    1    2    0    0  0.48085666729E-03  0.18109624783E-01 -0.11490180322E-01  0.10224774016E+01  0.10222523284E+01 0.  0.
     999903    2    3    3    0    0 -0.10036684410E+00 -0.55453106437E-01  0.59625056454E-01  0.13082774449E+00  0.20302732891E-01 0.  0.
         14    1    1    2    0    0 -0.48085666729E-03 -0.18109624783E-01  0.11490180322E-01  0.21452598368E-01  0.00000000000E+00 0. -1.
     999901    1    3    3    0    0  0.10084770077E+00  0.73562731220E-01 -0.71115236776E-01  0.89164965714E+00  0.88000000000E+00 0. -1.
        -11    1    4    4    0    0 -0.67080424039E-01 -0.32041865630E-01  0.28603456639E-01  0.79654775720E-01  0.51100000000E-03 0.  1.
         11    1    4    4    0    0 -0.33286420065E-01 -0.23411240807E-01  0.31021599815E-01  0.51172968772E-01  0.51100000000E-03 0. -1.
</event>
<event>
 8    1  0.1129676E+005  0.1043930E+01  0.7957747E-01            NaN
         13   -1    0    0    0    0  0.00000000000E+00  0.00000000000E+00  0.74505805969E-08  0.10566000000E+00  0.10566000000E+00 0. -1.
     999900   -1    0    0    0    0 -0.00000000000E+00 -0.00000000000E+00 -0.74505805969E-08  0.93827000000E+00  0.93827000000E+00 0. -1.
     999902    2    1    2    0    0  0.11802652364E-01 -0.11862628341E-01 -0.18439045229E-01  0.10190297401E+01  0.10187254725E+01 0.  0.
     999903    2    3    3    0    0  0.66974748264E-01  0.71335485741E-01 -0.82944486092E-01  0.13103940330E+00  0.26780011453E-01 0.  0.
         14    1    1    2    0    0 -0.11802652364E-01  0.11862628341E-01  0.18439045229E-01  0.24900259897E-01  0.00000000000E+00 0.  1.
     999901    1    3    3    0    0 -0.55172095901E-01 -0.83198114082E-01  0.64505440864E-01  0.88799033680E+00  0.88000000000E+00 0. -1.
        -11    1    4    4    0    0  0.62713917632E-01  0.58073872711E-01 -0.60873472882E-01  0.10493546101E+00  0.51100000000E-03 0.  1.
         11    1    4    4    0    0  0.42608306327E-02  0.13261613030E-01 -0.22071013210E-01  0.26103942288E-01  0.51100000000E-03 0. -1.
</event>
<event>
 8    1  0.1129676E+005  0.1043930E+01  0.7957747E-01            NaN
         13   -1    0    0    0    0  0.00000000000E+00  0.00000000000E+00  0.74505805969E-08  0.10566000000E+00  0.10566000000E+00 0. -1.
     999900   -1    0    0    0    0 -0.00000000000E+00 -0.00000000000E+00 -0.74505805969E-08  0.93827000000E+00  0.93827000000E+00 0. -1.
     999902    2    1    2    0    0 -0.16715709569E-02  0.23248309154E-01 -0.55162587618E-02  0.10199778156E+01  0.10196965417E+01 0.  0.
     999903    2    3    3    0    0  0.11343212421E+00 -0.56270292395E-01 -0.13270574794E-01  0.12889297222E+00  0.20102177073E-01 0.  0.
         14    1    1    2    0    0  0.16715709569E-02 -0.23248309154E-01  0.55162587618E-02  0.23952184425E-01  0.00000000000E+00 0. -1.
     999901    1    3    3    0    0 -0.11510369517E+00  0.79518601549E-01  0.77543160325E-02  0.89108484335E+00  0.88000000000E+00 0. -1.
        -11    1    4    4    0    0  0.27540983226E-01 -0.82873400817E-02 -0.99934433288E-02  0.30451860259E-01  0.51100000000E-03 0.  1.
         11    1    4    4    0    0  0.85891140989E-01 -0.47982952313E-01 -0.32771314655E-02  0.98441111964E-01  0.51100000000E-03 0. -1.
</event>
<event>
 8    1  0.1129676E+005  0.1043930E+01  0.7957747E-01            NaN
         13   -1    0    0    0    0  0.00000000000E+00  0.00000000000E+00  0.74505805969E-08  0.10566000000E+00  0.10566000000E+00 0. -1.
     999900   -1    0    0    0    0 -0.00000000000E+00 -0.00000000000E+00 -0.74505805969E-08  0.93827000000E+00  0.93827000000E+00 0.  1.
     999902    2    1    2    0    0 -0.10903143919E-01  0.12866499592E-01 -0.11905739842E-01  0.10232860663E+01  0.10230778081E+01 0.  0.
     999903    2    3    3    0    0  0.13002373574E+00  0.18516381633E-02  0.48476020549E-02  0.13184768530E+00  0.21229989491E-01 0.  0.
         14    1    1    2    0    0  0.10903143919E-01 -0.12866499592E-01  0.11905739842E-01  0.20643933741E-01  0.00000000000E+00 0. -1.
     999901    1    3    3    0    0 -0.14092687966E+00  0.11014861429E-01 -0.16753341897E-01  0.89143838096E+00  0.88000000000E+00 0. -1.
        -11    1    4    4    0    0  0.46189455552E-01  0.10840307463E-02 -0.84173049487E-02  0.46965445494E-01  0.51100000000E-03 0. -1.
         11    1    4    4    0    0  0.83834280187E-01  0.76760741700E-03  0.13264907004E-01  0.84882239806E-01  0.51100000000E-03 0.  1.
</event>
