<event>
 8    1  0.1300453E+005  0.1043930E+01  0.7957747E-01            NaN
         13   -1    0    0    0    0  0.00000000000E+00  0.00000000000E+00  0.74505805969E-08  0.10566000000E+00  0.10566000000E+00 0. -1.
     999900   -1    0    0    0    0 -0.00000000000E+00 -0.00000000000E+00 -0.74505805969E-08  0.93827000000E+00  0.93827000000E+00 0.  1.
     999902    2    1    2    0    0 -0.17213014617E-01 -0.58574704239E-02  0.14741325723E-01  0.10205226397E+01  0.10202541613E+01 0.  0.
     999903    2    3    3    0    0  0.89752087721E-02  0.33020008890E-02 -0.12704261470E+00  0.12874217080E+00  0.18527358438E-01 0.  0.
         14    1    1    2    0    0  0.17213014617E-01  0.58574704239E-02 -0.14741325723E-01  0.23407360296E-01  0.00000000000E+00 0.  1.
     999901    1    3    3    0    0 -0.26188223389E-01 -0.91594713128E-02  0.14178394042E+00  0.89178046890E+00  0.88000000000E+00 0. -1.
        -11    1    4    4    0    0  0.77272288444E-02  0.10767785902E-01 -0.80773636494E-01  0.81855340402E-01  0.51100000000E-03 0. -1.
         11    1    4    4    0    0  0.12479799277E-02 -0.74657850131E-02 -0.46268978203E-01  0.46886830397E-01  0.51100000000E-03 0.  1.
</event>
<event>
 8    1  0.1129602E+005  0.1043930E+01  0.7957747E-01            NaN
         13   -1    0    0    0    0  0.00000000000E+00  0.00000000000E+00  0.74505805969E-08  0.10566000000E+00  0.10566000000E+00 0. -1.
     999900   -1    0    0    0    0 -0.00000000000E+00 -0.00000000000E+00 -0.74505805969E-08  0.93827000000E+00  0.93827000000E+00 0. -1.
     999902    2    1    2    0    0  0.16104836993E-01 -0.11542614111E-01 -0.13960762221E-01  0.10196915884E+01  0.10194034701E+01 0.  0.
     999903    2    3    3    0    0  0.11606936228E+00  0.39073745950E-01 -0.45000223093E-01  0.13204392725E+00  0.20290987186E-01 0.  0.
         14    1    1    2    0    0 -0.16104836993E-01  0.11542614111E-01  0.13960762221E-01  0.24238411600E-01  0.00000000000E+00 0. -1.
     999901    1    3    3    0    0 -0.99964525288E-01 -0.50616360061E-01  0.31039460872E-01  0.88764766115E+00  0.88000000000E+00 0. -1.
        -11    1    4    4    0    0  0.52532218685E-01  0.26368323759E-01 -0.27679573572E-01  0.64971858616E-01  0.51100000000E-03 0.  1.
         11    1    4    4    0    0  0.63537143596E-01  0.12705422190E-01 -0.17320649521E-01  0.67072068630E-01  0.51100000000E-03 0. -1.
</event>
<event>
 8    1  0.1129602E+005  0.1043930E+01  0.7957747E-01            NaN
         13   -1    0    0    0    0  0.00000000000E+00  0.00000000000E+00  0.74505805969E-08  0.10566000000E+00  0.10566000000E+00 0.  1.
     999900   -1    0    0    0    0 -0.00000000000E+00 -0.00000000000E+00 -0.74505805969E-08  0.93827000000E+00  0.93827000000E+00 0.  1.
     999902    2    1    2    0    0  0.13081051164E-01 -0.18803710068E-01 -0.90789901994E-02  0.10192901649E+01  0.10189923055E+01 0.  0.
     999903    2    3    3    0    0  0.11779500454E+00  0.32382640370E-01  0.39359723618E-01  0.13028433616E+00  0.22372347021E-01 0.  0.
         14    1    1    2    0    0 -0.13081051164E-01  0.18803710068E-01  0.90789901994E-02  0.24639835123E-01  0.00000000000E+00 0.  1.
     999901    1    3    3    0    0 -0.10471395338E+00 -0.51186350438E-01 -0.48438713817E-01  0.88900582872E+00  0.88000000000E+00 0. -1.
        -11    1    4    4    0    0  0.97385038761E-01  0.25199515805E-01  0.23094923815E-01  0.10321093933E+00  0.51100000000E-03 0. -1.
         11    1    4    4    0    0  0.20409965784E-01  0.71831245647E-02  0.16264799803E-01  0.27073396822E-01  0.51100000000E-03 0.  1.
</event>
<event>
 8    1  0.1129602E+005  0.1043930E+01  0.7957747E-01            NaN
         13   -1    0    0    0    0  0.00000000000E+00  0.00000000000E+00  0.74505805969E-08  0.10566000000E+00  0.10566000000E+00 0. -1.
     999900   -1    0    0    0    0 -0.00000000000E+00 -0.00000000000E+00 -0.74505805969E-08  0.93827000000E+00  0.93827000000E+00 0.  1.
     999902    2    1    2    0    0  0.12440839269E-01  0.18513751600E-01 -0.36285100174E-02  0.10213313371E+01  0.10210812899E+01 0.  0.
     999903    2    3    3    0    0  0.12651071411E+00 -0.22534042889E-01  0.25461947651E-01  0.13254389766E+00  0.20170031097E-01 0.  0.
         14    1    1    2    0    0 -0.12440839269E-01 -0.18513751600E-01  0.36285100174E-02  0.22598662902E-01  0.00000000000E+00 0.  1.
     999901    1    3    3    0    0 -0.11406987484E+00  0.41047794489E-01 -0.29090457668E-01  0.88878743944E+00  0.88000000000E+00 0.  1.
        -11    1    4    4    0    0  0.11246882862E+00 -0.24468586624E-01  0.27151362462E-01  0.11825991183E+00  0.51100000000E-03 0.  1.
         11    1    4    4    0    0  0.14041885495E-01  0.19345437353E-02 -0.16894148110E-02  0.14283985828E-01  0.51100000000E-03 0. -1.
</event>
<event>
 8    1  0.1129602E+005  0.1043930E+01  0.7957747E-01            NaN
         13   -1    0    0    0    0  0.00000000000E+00  0.00000000000E+00  0.74505805969E-08  0.10566000000E+00  0.10566000000E+00 0. -1.
     999900   -1    0    0    0    0 -0.00000000000E+00 -0.00000000000E+00 -0.74505805969E-08  0.93827000000E+00  0.93827000000E+00 0.  1.
     999902    2    1    2    0    0 -0.53182362303E-02  0.21749388178E-01 -0.81842638454E-02  0.10200909208E+01  0.10198123283E+01 0.  0.
     999903    2    3    3    0    0  0.34878861231E-01 -0.23013532872E-01 -0.12239991531E+00  0.13067271725E+00  0.18640335557E-01 0.  0.
         14    1    1    2    0    0  0.53182362303E-02 -0.21749388178E-01  0.81842638454E-02  0.23839079207E-01  0.00000000000E+00 0. -1.
     999901    1    3    3    0    0 -0.40197097461E-01  0.44762921050E-01  0.11421565147E+00  0.88941820354E+00  0.88000000000E+00 0. -1.
        -11    1    4    4    0    0  0.23342822715E-01 -0.10622412610E-01 -0.48599072434E-01  0.54953198127E-01  0.51100000000E-03 0.  1.
         11    1    4    4    0    0  0.11536038516E-01 -0.12391120262E-01 -0.73800842881E-01  0.75719519127E-01  0.51100000000E-03 0. -1.
</event>
<event>
 8    1  0.1129602E+005  0.1043930E+01  0.7957747E-01            NaN
         13   -1    0    0    0    0  0.00000000000E+00  0.00000000000E+00  0.74505805969E-08  0.10566000000E+00  0.10566000000E+00 0. -1.
     999900   -1    0    0    0    0 -0.00000000000E+00 -0.00000000000E+00 -0.74505805969E-08  0.93827000000E+00  0.93827000000E+00 0.  1.
     999902    2    1    2    0    0 -0.46991686449E-03  0.44329203828E-02 -0.23171260697E-01  0.10203338366E+01  0.10200609586E+01 0.  0.
     999903    2    3    3    0    0  0.10573193417E+00  0.72544899482E-01 -0.20670471284E-01  0.13133196438E+00  0.19463096904E-01 0.  0.
         14    1    1    2    0    0  0.46991686449E-03 -0.44329203828E-02  0.23171260697E-01  0.23596163401E-01  0.00000000000E+00 0. -1.
     999901    1    3    3    0    0 -0.10620185103E+00 -0.68111979099E-01 -0.25007894126E-02  0.88900187222E+00  0.88000000000E+00 0. -1.
        -11    1    4    4    0    0  0.85732344341E-01  0.52748060434E-01 -0.22436694078E-01  0.10313127124E+00  0.51100000000E-03 0. -1.
         11    1    4    4    0    0  0.19999589827E-01  0.19796839049E-01  0.17662227935E-02  0.28200693139E-01  0.51100000000E-03 0.  1.
</event>
<event>
 8    1  0.1129602E+005  0.1043930E+01  0.7957747E-01            NaN
         13   -1    0    0    0    0  0.00000000000E+00  0.00000000000E+00  0.74505805969E-08  0.10566000000E+00  0.10566000000E+00 0. -1.
     999900   -1    0    0    0    0 -0.00000000000E+00 -0.00000000000E+00 -0.74505805969E-08  0.93827000000E+00  0.93827000000E+00 0. -1.
     999902    2    1    2    0    0  0.22469098717E-01 -0.51430597699E-02  0.49170982043E-02  0.10203611792E+01  0.10200889405E+01 0.  0.
     999903    2    3    3    0    0  0.50763048542E-01  0.11940267107E+00  0.10817744827E-03  0.13112818810E+00  0.18992236782E-01 0.  0.
         14    1    1    2    0    0 -0.22469098717E-01  0.51430597699E-02 -0.49170982043E-02  0.23568820838E-01  0.00000000000E+00 0. -1.
     999901    1    3    3    0    0 -0.28293949825E-01 -0.12454573084E+00  0.48089207560E-02  0.88923299106E+00  0.88000000000E+00 0.  1.
        -11    1    4    4    0    0  0.35907144814E-01  0.90350417610E-01 -0.78368480490E-02  0.97540752096E-01  0.51100000000E-03 0. -1.
         11    1    4    4    0    0  0.14855903728E-01  0.29052253456E-01  0.79450254973E-02  0.33587436009E-01  0.51100000000E-03 0.  1.
</event>
<event>
 8    1  0.1129602E+005  0.1043930E+01  0.7957747E-01            NaN
         13   -1    0    0    0    0  0.00000000000E+00  0.00000000000E+00  0.74505805969E-08  0.10566000000E+00  0.10566000000E+00 0. -1.
     999900   -1    0    0    0    0 -0.00000000000E+00 -0.00000000000E+00 -0.74505805969E-08  0.93827000000E+00  0.93827000000E+00 0. -1.
     999902    2    1    2    0    0  0.98597844745E-02  0.16562829656E-01  0.80931527882E-02  0.10230244553E+01  0.10228108302E+01 0.  0.
     999903    2    3    3    0    0 -0.37051029791E-01  0.12745228392E+00 -0.10639493153E-01  0.13462814309E+00  0.19866419249E-01 0.  0.
         14    1    1    2    0    0 -0.98597844745E-02 -0.16562829656E-01 -0.80931527882E-02  0.20905544675E-01  0.00000000000E+00 0.  1.
     999901    1    3    3    0    0  0.46910814265E-01 -0.11088945426E+00  0.18732645941E-01  0.88839631223E+00  0.88000000000E+00 0.  1.
        -11    1    4    4    0    0 -0.16920650427E-01  0.55588206994E-01  0.51760767159E-02  0.58338752634E-01  0.51100000000E-03 0.  1.
         11    1    4    4    0    0 -0.20130379364E-01  0.71864076924E-01 -0.15815569869E-01  0.76289390460E-01  0.51100000000E-03 0. -1.
</event>
<event>
 8    1  0.1129602E+005  0.1043930E+01  0.7957747E-01            NaN
         13   -1    0    0    0    0  0.00000000000E+00  0.00000000000E+00  0.74505805969E-08  0.10566000000E+00  0.10566000000E+00 0.  1.
     999900   -1    0    0    0    0 -0.00000000000E+00 -0.00000000000E+00 -0.74505805969E-08  0.93827000000E+00  0.93827000000E+00 0.  1.
     999902    2    1    2    0    0  0.88739647693E-02 -0.20846193137E-01 -0.49391653942E-02  0.10207415034E+01  0.10204780793E+01 0.  0.
     999903    2    3    3    0    0 -0.65261134125E-01 -0.61288853685E-01 -0.95071522064E-01  0.13211589980E+00  0.20016929325E-01 0.  0.
         14    1    1    2    0    0 -0.88739647693E-02  0.20846193137E-01  0.49391653942E-02  0.23188496584E-01  0.00000000000E+00 0.  1.
     999901    1    3    3    0    0  0.74135098894E-01  0.40442660547E-01  0.90132356669E-01  0.88862560361E+00  0.88000000000E+00 0. -1.
        -11    1    4    4    0    0 -0.24578823090E-01 -0.13666774588E-01 -0.38749874350E-01  0.47882284358E-01  0.51100000000E-03 0. -1.
         11    1    4    4    0    0 -0.40682311035E-01 -0.47622079096E-01 -0.56321647713E-01  0.84233615444E-01  0.51100000000E-03 0.  1.
</event>
<event>
 8    1  0.1129602E+005  0.1043930E+01  0.7957747E-01            NaN
         13   -1    0    0    0    0  0.00000000000E+00  0.00000000000E+00  0.74505805969E-08  0.10566000000E+00  0.10566000000E+00 0.  1.
     999900   -1    0    0    0    0 -0.00000000000E+00 -0.00000000000E+00 -0.74505805969E-08  0.93827000000E+00  0.93827000000E+00 0. -1.
     999902    2    1    2    0    0  0.80487828604E-02  0.18099575908E-01  0.12929427453E-01  0.10202752405E+01  0.10200009896E+01 0.  0.
     999903    2    3    3    0    0  0.63427245942E-01 -0.46032905063E-01  0.10396311155E+00  0.13153068723E+00  0.18706930421E-01 0.  0.
         14    1    1    2    0    0 -0.80487828604E-02 -0.18099575908E-01 -0.12929427453E-01  0.23654759517E-01  0.00000000000E+00 0. -1.
     999901    1    3    3    0    0 -0.55378463082E-01  0.64132480971E-01 -0.91033684093E-01  0.88874455325E+00  0.88000000000E+00 0.  1.
        -11    1    4    4    0    0  0.50608997836E-01 -0.32052144886E-01  0.89380328552E-01  0.10759979046E+00  0.51100000000E-03 0. -1.
         11    1    4    4    0    0  0.12818248106E-01 -0.13980760177E-01  0.14582782994E-01  0.23930896776E-01  0.51100000000E-03 0.  1.
</event>
<event>
 8    1  0.1129602E+005  0.1043930E+01  0.7957747E-01            NaN
         13   -1    0    0    0    0  0.00000000000E+00  0.00000000000E+00  0.74505805969E-08  0.10566000000E+00  0.10566000000E+00 0.  1.
     999900   -1    0    0    0    0 -0.00000000000E+00 -0.00000000000E+00 -0.74505805969E-08  0.93827000000E+00  0.93827000000E+00 0. -1.
     999902    2    1    2    0    0 -0.16107455025E-02 -0.84917160221E-02 -0.22700981610E-01  0.10196392958E+01  0.10193499180E+01 0.  0.
     999903    2    3    3    0    0  0.79592507680E-02  0.41944842893E-01 -0.12318240075E+00  0.13243472705E+00  0.23288056115E-01 0.  0.
         14    1    1    2    0    0  0.16107455025E-02  0.84917160221E-02  0.22700981610E-01  0.24290704151E-01  0.00000000000E+00 0.  1.
     999901    1    3    3    0    0 -0.95699962705E-02 -0.50436558915E-01  0.10048141914E+00  0.88720456880E+00  0.88000000000E+00 0.  1.
        -11    1    4    4    0    0  0.77799791731E-02  0.14725610865E-01 -0.77366911090E-01  0.79140834869E-01  0.51100000000E-03 0.  1.
         11    1    4    4    0    0  0.17927159482E-03  0.27219232028E-01 -0.45815489656E-01  0.53293892182E-01  0.51100000000E-03 0. -1.
</event>
<event>
 8    1  0.1129602E+005  0.1043930E+01  0.7957747E-01            NaN
         13   -1    0    0    0    0  0.00000000000E+00  0.00000000000E+00  0.74505805969E-08  0.10566000000E+00  0.10566000000E+00 0.  1.
     999900   -1    0    0    0    0 -0.00000000000E+00 -0.00000000000E+00 -0.74505805969E-08  0.93827000000E+00  0.93827000000E+00 0.  1.
     999902    2    1    2    0    0  0.17729751484E-01 -0.48679383205E-02  0.13066743182E-01  0.10213738326E+01  0.10211247354E+01 0.  0.
     999903    2    3    3    0    0  0.62056299356E-01 -0.11569870941E+00  0.11490038520E-01  0.13331370587E+00  0.20083514047E-01 0.  0.
         14    1    1    2    0    0 -0.17729751484E-01  0.48679383205E-02 -0.13066743182E-01  0.22556167418E-01  0.00000000000E+00 0. -1.
     999901    1    3    3    0    0 -0.44326547871E-01  0.11083077109E+00  0.15767046615E-02  0.88806012672E+00  0.88000000000E+00 0. -1.
        -11    1    4    4    0    0  0.31621261273E-01 -0.38780432803E-01  0.24812270815E-02  0.50102332697E-01  0.51100000000E-03 0.  1.
         11    1    4    4    0    0  0.30435038083E-01 -0.76918276611E-01  0.90088114387E-02  0.83211373168E-01  0.51100000000E-03 0. -1.
</event>
<event>
 8    1  0.1129602E+005  0.1043930E+01  0.7957747E-01            NaN
         13   -1    0    0    0    0  0.00000000000E+00  0.00000000000E+00  0.74505805969E-08  0.10566000000E+00  0.10566000000E+00 0. -1.
     999900   -1    0    0    0    0 -0.00000000000E+00 -0.00000000000E+00 -0.74505805969E-08  0.93827000000E+00  0.93827000000E+00 0. -1.
     999902    2    1    2    0    0 -0.41454722004E-02 -0.23232832715E-01 -0.45038490521E-02  0.10199043031E+01  0.10196212794E+01 0.  0.
     999903    2    3    3    0    0  0.10680217891E+00  0.23347034278E-01  0.65510149257E-01  0.12896040741E+00  0.19682926416E-01 0.  0.
         14    1    1    2    0    0  0.41454722004E-02  0.23232832715E-01  0.45038490521E-02  0.24025696910E-01  0.00000000000E+00 0. -1.
     999901    1    3    3    0    0 -0.11094765111E+00 -0.46579866993E-01 -0.70013998309E-01  0.89094389568E+00  0.88000000000E+00 0. -1.
        -11    1    4    4    0    0  0.34919852737E-01  0.18215237851E-02  0.29393687304E-01  0.45683301527E-01  0.51100000000E-03 0. -1.
         11    1    4    4    0    0  0.71882326177E-01  0.21525510493E-01  0.36116461953E-01  0.83277105879E-01  0.51100000000E-03 0.  1.
</event>
<event>
 8    1  0.1129602E+005  0.1043930E+01  0.7957747E-01            NaN
         13   -1    0    0    0    0  0.00000000000E+00  0.00000000000E+00  0.74505805969E-08  0.10566000000E+00  0.10566000000E+00 0.  1.
     999900   -1    0    0    0    0 -0.00000000000E+00 -0.00000000000E+00 -0.74505805969E-08  0.93827000000E+00  0.93827000000E+00 0.  1.
     999902    2    1    2    0    0  0.27717207798E-02 -0.11511452107E-01 -0.20615893993E-01  0.10201558323E+01  0.10198787727E+01 0.  0.
     999903    2    3    3    0    0 -0.24340364322E-01  0.11993510394E+00 -0.38441947533E-01  0.12980139137E+00  0.19842766439E-01 0.  0.
         14    1    1    2    0    0 -0.27717207798E-02  0.11511452107E-01  0.20615893993E-01  0.23774167721E-01  0.00000000000E+00 0.  1.
     999901    1    3    3    0    0  0.27112085101E-01 -0.13144655605E+00  0.17826053540E-01  0.89035444091E+00  0.88000000000E+00 0. -1.
        -11    1    4    4    0    0 -0.22464275906E-03  0.37196989401E-01 -0.17495807374E-01  0.41109985180E-01  0.51100000000E-03 0. -1.
         11    1    4    4    0    0 -0.24115721563E-01  0.82738114539E-01 -0.20946140159E-01  0.88691406193E-01  0.51100000000E-03 0.  1.
</event>
<event>
 8    1  0.1129602E+005  0.1043930E+01  0.7957747E-01            NaN
         13   -1    0    0    0    0  0.00000000000E+00  0.00000000000E+00  0.74505805969E-08  0.10566000000E+00  0.10566000000E+00 0. -1.
     999900   -1    0    0    0    0 -0.00000000000E+00 -0.00000000000E+00 -0.74505805969E-08  0.93827000000E+00  0.93827000000E+00 0. -1.
     999902    2    1    2    0    0  0.34055007303E-02 -0.21141079807E-01 -0.83133997780E-02  0.10209592511E+01  0.10207008068E+01 0.  0.
     999903    2    3    3    0    0  0.20233151862E-01 -0.61573206011E-01  0.11273116592E+00  0.13159447014E+00  0.20202689668E-01 0.  0.
         14    1    1    2    0    0 -0.34055007303E-02  0.21141079807E-01  0.83133997780E-02  0.22970748932E-01  0.00000000000E+00 0. -1.
     999901    1    3    3    0    0 -0.16827651132E-01  0.40432126203E-01 -0.12104456569E+00  0.88936478093E+00  0.88000000000E+00 0. -1.
        -11    1    4    4    0    0  0.85166647835E-03 -0.15977808682E-01  0.44345642543E-01  0.47146716106E-01  0.51100000000E-03 0. -1.
         11    1    4    4    0    0  0.19381485384E-01 -0.45595397329E-01  0.68385523373E-01  0.84447754033E-01  0.51100000000E-03 0.  1.
</event>
<event>
 8    1  0.1129602E+005  0.1043930E+01  0.7957747E-01            NaN
         13   -1    0    0    0    0  0.00000000000E+00  0.00000000000E+00  0.74505805969E-08  0.10566000000E+00  0.10566000000E+00 0. -1.
     999900   -1    0    0    0    0 -0.00000000000E+00 -0.00000000000E+00 -0.74505805969E-08  0.93827000000E+00  0.93827000000E+00 0. -1.
     999902    2    1    2    0    0 -0.19784955117E-01 -0.78272567691E-02  0.10569396176E-01  0.10201724216E+01  0.10198957531E+01 0.  0.
     999903    2    3    3    0    0  0.24865645293E-02  0.24085653189E-01 -0.12508360906E+00  0.12892823940E+00  0.19755504725E-01 0.  0.
         14    1    1    2    0    0  0.19784955117E-01  0.78272567691E-02 -0.10569396176E-01  0.23757578433E-01  0.00000000000E+00 0. -1.
     999901    1    3    3    0    0 -0.22271519646E-01 -0.31912909958E-01  0.13565300524E+00  0.89124418216E+00  0.88000000000E+00 0.  1.
        -11    1    4    4    0    0  0.68933074424E-02  0.21394223383E-02 -0.51729691096E-01  0.52233292805E-01  0.51100000000E-03 0. -1.
         11    1    4    4    0    0 -0.44067429130E-02  0.21946230850E-01 -0.73353917967E-01  0.76694946598E-01  0.51100000000E-03 0.  1.
</event>
<event>
 8    1  0.1129602E+005  0.1043930E+01  0.7957747E-01            NaN
         13   -1    0    0    0    0  0.00000000000E+00  0.00000000000E+00  0.74505805969E-08  0.10566000000E+00  0.10566000000E+00 0.  1.
     999900   -1    0    0    0    0 -0.00000000000E+00 -0.00000000000E+00 -0.74505805969E-08  0.93827000000E+00  0.93827000000E+00 0. -1.
     999902    2    1    2    0    0  0.20699109356E-01  0.31042215001E-02 -0.58225600844E-02  0.10222046341E+01  0.10219737386E+01 0.  0.
     999903    2    3    3    0    0  0.78698840151E-01  0.10123801281E+00 -0.34958500954E-01  0.13437406868E+00  0.19790170947E-01 0.  0.
         14    1    1    2    0    0 -0.20699109356E-01 -0.31042215001E-02  0.58225600844E-02  0.21725365939E-01  0.00000000000E+00 0. -1.
     999901    1    3    3    0    0 -0.57999730795E-01 -0.98133791312E-01  0.29135940869E-01  0.88783056538E+00  0.88000000000E+00 0.  1.
        -11    1    4    4    0    0  0.65213585443E-01  0.73062084563E-01 -0.31828775417E-01  0.10297675462E+00  0.51100000000E-03 0.  1.
         11    1    4    4    0    0  0.13485254707E-01  0.28175928250E-01 -0.31297255367E-02  0.31397314060E-01  0.51100000000E-03 0. -1.
</event>
<event>
 8    1  0.1129602E+005  0.1043930E+01  0.7957747E-01            NaN
         13   -1    0    0    0    0  0.00000000000E+00  0.00000000000E+00  0.74505805969E-08  0.10566000000E+00  0.10566000000E+00 0. -1.
     999900   -1    0    0    0    0 -0.00000000000E+00 -0.00000000000E+00 -0.74505805969E-08  0.93827000000E+00  0.93827000000E+00 0. -1.
     999902    2    1    2    0    0 -0.17473454647E-02  0.39944219937E-02  0.22530582451E-01  0.10209814539E+01  0.10207235147E+01 0.  0.
     999903    2    3    3    0    0 -0.24472904057E-01  0.12762836191E+00  0.79576540863E-02  0.13192905253E+00  0.21307952665E-01 0.  0.
         14    1    1    2    0    0  0.17473454647E-02 -0.39944219937E-02 -0.22530582451E-01  0.22948546116E-01  0.00000000000E+00 0.  1.
     999901    1    3    3    0    0  0.22725558592E-01 -0.12363393991E+00  0.14572928365E-01  0.88905240135E+00  0.88000000000E+00 0.  1.
        -11    1    4    4    0    0 -0.18814934853E-03  0.10640121415E-01  0.64140457218E-02  0.12435782542E-01  0.51100000000E-03 0.  1.
         11    1    4    4    0    0 -0.24284754708E-01  0.11698824049E+00  0.15436083645E-02  0.11949326999E+00  0.51100000000E-03 0. -1.
</event>
<event>
 8    1  0.1129602E+005  0.1043930E+01  0.7957747E-01            NaN
         13   -1    0    0    0    0  0.00000000000E+00  0.00000000000E+00  0.74505805969E-08  0.10566000000E+00  0.10566000000E+00 0. -1.
     999900   -1    0    0    0    0 -0.00000000000E+00 -0.00000000000E+00 -0.74505805969E-08  0.93827000000E+00  0.93827000000E+00 0.  1.
     999902    2    1    2    0    0  0.98036484907E-02 -0.21388204557E-01  0.46166982960E-02  0.10199533297E+01  0.10196714735E+01 0.  0.
     999903    2    3    3    0    0  0.70970108800E-01  0.87943616883E-01 -0.58753125438E-01  0.12882454120E+00  0.19313119196E-01 0.  0.
         14    1    1    2    0    0 -0.98036484907E-02  0.21388204557E-01 -0.46166982960E-02  0.23976670350E-01  0.00000000000E+00 0. -1.
     999901    1    3    3    0    0 -0.61166460309E-01 -0.10933182144E+00  0.63369823734E-01  0.89112878845E+00  0.88000000000E+00 0. -1.
        -11    1    4    4    0    0  0.28587426081E-01  0.21998546613E-01 -0.21895422541E-01  0.42200090430E-01  0.51100000000E-03 0.  1.
         11    1    4    4    0    0  0.42382682718E-01  0.65945070270E-01 -0.36857702897E-01  0.86624450770E-01  0.51100000000E-03 0. -1.
</event>
<event>
 8    1  0.1129602E+005  0.1043930E+01  0.7957747E-01            NaN
         13   -1    0    0    0    0  0.00000000000E+00  0.00000000000E+00  0.74505805969E-08  0.10566000000E+00  0.10566000000E+00 0.  1.
     999900   -1    0    0    0    0 -0.00000000000E+00 -0.00000000000E+00 -0.74505805969E-08  0.93827000000E+00  0.93827000000E+00 0.  1.
     999902    2    1    2    0    0 -0.13170264116E-01 -0.17619756756E-01 -0.91754606124E-02  0.10200951356E+01  0.10198166428E+01 0.  0.
     999903    2    3    3    0    0  0.33627185154E-01 -0.12606906934E+00 -0.73181107040E-02  0.13220172732E+00  0.19988600158E-01 0.  0.
         14    1    1    2    0    0  0.13170264116E-01  0.17619756756E-01  0.91754606124E-02  0.23834864432E-01  0.00000000000E+00 0.  1.
     999901    1    3    3    0    0 -0.46797449270E-01  0.10844931259E+00 -0.18573499084E-02  0.88789340825E+00  0.88000000000E+00 0.  1.
        -11    1    4    4    0    0  0.45803165593E-02 -0.23979882782E-01 -0.90595409620E-02  0.26045162343E-01  0.51100000000E-03 0. -1.
         11    1    4    4    0    0  0.29046868595E-01 -0.10208918656E+00  0.17414302580E-02  0.10615656498E+00  0.51100000000E-03 0.  1.
</event>
<event>
 8    1  0.1129602E+005  0.1043930E+01  0.7957747E-01            NaN
         13   -1    0    0    0    0  0.00000000000E+00  0.00000000000E+00  0.74505805969E-08  0.10566000000E+00  0.10566000000E+00 0.  1.
     999900   -1    0    0    0    0 -0.00000000000E+00 -0.00000000000E+00 -0.74505805969E-08  0.93827000000E+00  0.93827000000E+00 0.  1.
     999902    2    1    2    0    0  0.16474165370E-01  0.10442229979E-01 -0.10506023570E-01  0.10217756591E+01  0.10215354534E+01 0.  0.
     999903    2    3    3    0    0 -0.64513640223E-01  0.25234823239E-01  0.10817967873E+00  0.12999982321E+00  0.19957581626E-01 0.  0.
         14    1    1    2    0    0 -0.16474165370E-01 -0.10442229979E-01  0.10506023570E-01  0.22154340947E-01  0.00000000000E+00 0. -1.
     999901    1    3    3    0    0  0.80987805593E-01 -0.14792593260E-01 -0.11868570230E+00  0.89177583585E+00  0.88000000000E+00 0.  1.
        -11    1    4    4    0    0 -0.37249522488E-01  0.53830301011E-02  0.66153593142E-01  0.76112173436E-01  0.51100000000E-03 0.  1.
         11    1    4    4    0    0 -0.27264117735E-01  0.19851793138E-01  0.42026085590E-01  0.53887649769E-01  0.51100000000E-03 0. -1.
</event>
<event>
 8    1  0.1129602E+005  0.1043930E+01  0.7957747E-01            NaN
         13   -1    0    0    0    0  0.00000000000E+00  0.00000000000E+00  0.74505805969E-08  0.10566000000E+00  0.10566000000E+00 0. -1.
     999900   -1    0    0    0    0 -0.00000000000E+00 -0.00000000000E+00 -0.74505805969E-08  0.93827000000E+00  0.93827000000E+00 0. -1.
     999902    2    1    2    0    0  0.11025475583E-01  0.15360817346E-01 -0.15272387992E-01  0.10196244110E+01  0.10193346741E+01 0.  0.
     999903    2    3    3    0    0  0.62874076269E-01 -0.10757597182E+00 -0.21187926937E-01  0.12954760245E+00  0.28423825830E-01 0.  0.
         14    1    1    2    0    0 -0.11025475583E-01 -0.15360817346E-01  0.15272387992E-01  0.24305588994E-01  0.00000000000E+00 0. -1.
     999901    1    3    3    0    0 -0.51848600686E-01  0.12293678916E+00  0.59155389450E-02  0.89007680855E+00  0.88000000000E+00 0. -1.
        -11    1    4    4    0    0  0.55116471218E-01 -0.77529394109E-01 -0.68854940507E-02  0.95374543248E-01  0.51100000000E-03 0. -1.
         11    1    4    4    0    0  0.77576050515E-02 -0.30046577707E-01 -0.14302432886E-01  0.34173059206E-01  0.51100000000E-03 0.  1.
</event>
<event>
 8    1  0.1129602E+005  0.1043930E+01  0.7957747E-01            NaN
         13   -1    0    0    0    0  0.00000000000E+00  0.00000000000E+00  0.74505805969E-08  0.10566000000E+00  0.10566000000E+00 0. -1.
     999900   -1    0    0    0    0 -0.00000000000E+00 -0.00000000000E+00 -0.74505805969E-08  0.93827000000E+00  0.93827000000E+00 0.  1.
     999902    2    1    2    0    0  0.20383361412E-02 -0.88281129271E-02  0.21688387532E-01  0.10204251804E+01  0.10201544355E+01 0.  0.
     999903    2    3    3    0    0 -0.80735617887E-01 -0.53389637623E-01 -0.83187671061E-01  0.12922585103E+00  0.20259283233E-01 0.  0.
         14    1    1    2    0    0 -0.20383361412E-02  0.88281129271E-02 -0.21688387532E-01  0.23504819629E-01  0.00000000000E+00 0.  1.
     999901    1    3    3    0    0  0.82773954028E-01  0.44561524696E-01  0.10487605859E+00  0.89119932934E+00  0.88000000000E+00 0. -1.
        -11    1    4    4    0    0 -0.36568246554E-01 -0.19738327691E-01 -0.23667851304E-01  0.47825375507E-01  0.51100000000E-03 0.  1.
         11    1    4    4    0    0 -0.44167371333E-01 -0.33651309933E-01 -0.59519819758E-01  0.81400475525E-01  0.51100000000E-03 0. -1.
</event>
<event>
 8    1  0.1129602E+005  0.1043930E+01  0.7957747E-01            NaN
         13   -1    0    0    0    0  0.00000000000E+00  0.00000000000E+00  0.74505805969E-08  0.10566000000E+00  0.10566000000E+00 0.  1.
     999900   -1    0    0    0    0 -0.00000000000E+00 -0.00000000000E+00 -0.74505805969E-08  0.93827000000E+00  0.93827000000E+00 0. -1.
     999902    2    1    2    0    0  0.64733561534E-02  0.11603642857E-01 -0.19135793095E-01  0.10206334886E+01  0.10203675762E+01 0.  0.
     999903    2    3    3    0    0 -0.17286863461E-02  0.12035047923E+00  0.48517558715E-01  0.13132469859E+00  0.20124531044E-01 0.  0.
         14    1    1    2    0    0 -0.64733561534E-02 -0.11603642857E-01  0.19135793095E-01  0.23296511430E-01  0.00000000000E+00 0.  1.
     999901    1    3    3    0    0  0.82020424996E-02 -0.10874683637E+00 -0.67653351810E-01  0.88930878998E+00  0.88000000000E+00 0.  1.
        -11    1    4    4    0    0 -0.62092105447E-02  0.72468940350E-01  0.38120543089E-01  0.82120268737E-01  0.51100000000E-03 0. -1.
         11    1    4    4    0    0  0.44805241985E-02  0.47881538878E-01  0.10397015625E-01  0.49204429854E-01  0.51100000000E-03 0.  1.
</event>
<event>
 8    1  0.1129602E+005  0.1043930E+01  0.7957747E-01            NaN
         13   -1    0    0    0    0  0.00000000000E+00  0.00000000000E+00  0.74505805969E-08  0.10566000000E+00  0.10566000000E+00 0.  1.
     999900   -1    0    0    0    0 -0.00000000000E+00 -0.00000000000E+00 -0.74505805969E-08  0.93827000000E+00  0.93827000000E+00 0. -1.
     999902    2    1    2    0    0  0.26465526656E-02 -0.16258959372E-01  0.98434725969E-02  0.10247401080E+01  0.10245604116E+01 0.  0.
     999903    2    3    3    0    0  0.31977858345E-01 -0.63629216623E-01 -0.11256652304E+00  0.13452189108E+00  0.18805755439E-01 0.  0.
         14    1    1    2    0    0 -0.26465526656E-02  0.16258959372E-01 -0.98434725969E-02  0.19189891965E-01  0.00000000000E+00 0. -1.
     999901    1    3    3    0    0 -0.29331305679E-01  0.47370257251E-01  0.12240999564E+00  0.89021821695E+00  0.88000000000E+00 0.  1.
        -11    1    4    4    0    0  0.99359710169E-03 -0.46522191656E-02 -0.15144436761E-02  0.50184697880E-02  0.51100000000E-03 0. -1.
         11    1    4    4    0    0  0.30984261243E-01 -0.58976997457E-01 -0.11105207937E+00  0.12950342129E+00  0.51100000000E-03 0.  1.
</event>
<event>
 8    1  0.1129602E+005  0.1043930E+01  0.7957747E-01            NaN
         13   -1    0    0    0    0  0.00000000000E+00  0.00000000000E+00  0.74505805969E-08  0.10566000000E+00  0.10566000000E+00 0. -1.
     999900   -1    0    0    0    0 -0.00000000000E+00 -0.00000000000E+00 -0.74505805969E-08  0.93827000000E+00  0.93827000000E+00 0.  1.
     999902    2    1    2    0    0 -0.23095436583E-01  0.37392823016E-02 -0.32361499259E-02  0.10203110650E+01  0.10200376539E+01 0.  0.
     999903    2    3    3    0    0  0.95720616726E-01  0.34137432231E-01  0.75829188393E-01  0.12829501709E+00  0.19538291958E-01 0.  0.
         14    1    1    2    0    0  0.23095436583E-01 -0.37392823016E-02  0.32361499259E-02  0.23618934977E-01  0.00000000000E+00 0. -1.
     999901    1    3    3    0    0 -0.11881605331E+00 -0.30398149929E-01 -0.79065338319E-01  0.89201604793E+00  0.88000000000E+00 0.  1.
        -11    1    4    4    0    0  0.31659806248E-01  0.17298825896E-01  0.36179162927E-01  0.51095847778E-01  0.51100000000E-03 0. -1.
         11    1    4    4    0    0  0.64060810477E-01  0.16838606335E-01  0.39650025467E-01  0.77199169314E-01  0.51100000000E-03 0.  1.
</event>
<event>
 8    1  0.1129602E+005  0.1043930E+01  0.7957747E-01            NaN
         13   -1    0    0    0    0  0.00000000000E+00  0.00000000000E+00  0.74505805969E-08  0.10566000000E+00  0.10566000000E+00 0.  1.
     999900   -1    0    0    0    0 -0.00000000000E+00 -0.00000000000E+00 -0.74505805969E-08  0.93827000000E+00  0.93827000000E+00 0.  1.
     999902    2    1    2    0    0 -0.87619923442E-02 -0.19884748691E-01  0.10159135480E-01  0.10199428415E+01  0.10196607358E+01 0.  0.
     999903    2    3    3    0    0  0.58372115532E-01  0.94093773554E-01 -0.59473454623E-01  0.12733610300E+00  0.20407087704E-01 0.  0.
         14    1    1    2    0    0  0.87619923442E-02  0.19884748691E-01 -0.10159135480E-01  0.23987158524E-01  0.00000000000E+00 0.  1.
     999901    1    3    3    0    0 -0.67134107876E-01 -0.11397852224E+00  0.69632590103E-01  0.89260673848E+00  0.88000000000E+00 0. -1.
        -11    1    4    4    0    0  0.48491240159E-01  0.73503881230E-01 -0.55662243798E-01  0.10417661654E+00  0.51100000000E-03 0. -1.
         11    1    4    4    0    0  0.98808753730E-02  0.20589892324E-01 -0.38112108250E-02  0.23159486458E-01  0.51100000000E-03 0.  1.
</event>
<event>
 8    1  0.1129602E+005  0.1043930E+01  0.7957747E-01            NaN
         13   -1    0    0    0    0  0.00000000000E+00  0.00000000000E+00  0.74505805969E-08  0.10566000000E+00  0.10566000000E+00 0. -1.
     999900   -1    0    0    0    0 -0.00000000000E+00 -0.00000000000E+00 -0.74505805969E-08  0.93827000000E+00  0.93827000000E+00 0. -1.
     999902    2    1    2    0    0 -0.20722603901E-01  0.15945116192E-02 -0.12070439445E-01  0.10198953523E+01  0.10196121152E+01 0.  0.
     999903    2    3    3    0    0  0.10167211223E-01  0.20194465534E-01  0.12502471499E+00  0.12855073866E+00  0.19568454994E-01 0.  0.
         14    1    1    2    0    0  0.20722603901E-01 -0.15945116192E-02  0.12070439445E-01  0.24034647660E-01  0.00000000000E+00 0. -1.
     999901    1    3    3    0    0 -0.30889815124E-01 -0.18599953915E-01 -0.13709515443E+00  0.89134461368E+00  0.88000000000E+00 0. -1.
        -11    1    4    4    0    0  0.92778134986E-02  0.69943682103E-02  0.95346411795E-01  0.96053101840E-01  0.51100000000E-03 0.  1.
         11    1    4    4    0    0  0.88939772424E-03  0.13200097324E-01  0.29678303192E-01  0.32497636822E-01  0.51100000000E-03 0. -1.
</event>
<event>
 8    1  0.1129602E+005  0.1043930E+01  0.7957747E-01            NaN
         13   -1    0    0    0    0  0.00000000000E+00  0.00000000000E+00  0.74505805969E-08  0.10566000000E+00  0.10566000000E+00 0.  1.
     999900   -1    0    0    0    0 -0.00000000000E+00 -0.00000000000E+00 -0.74505805969E-08  0.93827000000E+00  0.93827000000E+00 0. -1.
     999902    2    1    2    0    0  0.19467894421E-01 -0.13173076572E-01 -0.28192716536E-02  0.10202556013E+01  0.10199808895E+01 0.  0.
     999903    2    3    3    0    0  0.21300316990E-02  0.26640376165E-01 -0.12636780821E+00  0.13056466995E+00  0.19080445772E-01 0.  0.
         14    1    1    2    0    0 -0.19467894421E-01  0.13173076572E-01  0.28192716536E-02  0.23674398667E-01  0.00000000000E+00 0. -1.
     999901    1    3    3    0    0  0.17337862722E-01 -0.39813452738E-01  0.12354853655E+00  0.88969093138E+00  0.88000000000E+00 0.  1.
        -11    1    4    4    0    0  0.71313046891E-02  0.98243235170E-02 -0.81244916242E-01  0.82148465447E-01  0.51100000000E-03 0. -1.
         11    1    4    4    0    0 -0.50012729900E-02  0.16816052648E-01 -0.45122891964E-01  0.48416204502E-01  0.51100000000E-03 0.  1.
</event>
<event>
 8    1  0.1129602E+005  0.1043930E+01  0.7957747E-01            NaN
         13   -1    0    0    0    0  0.00000000000E+00  0.00000000000E+00  0.74505805969E-08  0.10566000000E+00  0.10566000000E+00 0.  1.
     999900   -1    0    0    0    0 -0.00000000000E+00 -0.00000000000E+00 -0.74505805969E-08  0.93827000000E+00  0.93827000000E+00 0.  1.
     999902    2    1    2    0    0 -0.10773254428E-01  0.97186554348E-02 -0.18162246153E-01  0.10206838722E+01  0.10204191219E+01 0.  0.
     999903    2    3    3    0    0 -0.79604318495E-01  0.91130198793E-01  0.48159578083E-01  0.13177209974E+00  0.20074378030E-01 0.  0.
         14    1    1    2    0    0  0.10773254428E-01 -0.97186554348E-02  0.18162246153E-01  0.23246127844E-01  0.00000000000E+00 0.  1.
     999901    1    3    3    0    0  0.68831064067E-01 -0.81411543359E-01 -0.66321824236E-01  0.88891177242E+00  0.88000000000E+00 0.  1.
        -11    1    4    4    0    0 -0.69110332666E-01  0.67744932847E-01  0.34650439019E-01  0.10279361874E+00  0.51100000000E-03 0.  1.
         11    1    4    4    0    0 -0.10493985828E-01  0.23385265947E-01  0.13509139064E-01  0.28978481002E-01  0.51100000000E-03 0. -1.
</event>
<event>
 8    1  0.1129602E+005  0.1043930E+01  0.7957747E-01            NaN
         13   -1    0    0    0    0  0.00000000000E+00  0.00000000000E+00  0.74505805969E-08  0.10566000000E+00  0.10566000000E+00 0.  1.
     999900   -1    0    0    0    0 -0.00000000000E+00 -0.00000000000E+00 -0.74505805969E-08  0.93827000000E+00  0.93827000000E+00 0.  1.
     999902    2    1    2    0    0  0.15371390312E-01 -0.79923321577E-02  0.14001215692E-01  0.10216546537E+01  0.10214117878E+01 0.  0.
     999903    2    3    3    0    0  0.11759085951E+00  0.38114092307E-01 -0.47177639312E-01  0.13243169256E+00  0.56682686448E-02 0.  0.
         14    1    1    2    0    0 -0.15371390312E-01  0.79923321577E-02 -0.14001215692E-01  0.22275346334E-01  0.00000000000E+00 0.  1.
     999901    1    3    3    0    0 -0.10221946920E+00 -0.46106424465E-01  0.61178855004E-01  0.88922296111E+00  0.88000000000E+00 0. -1.
        -11    1    4    4    0    0  0.48536955496E-01  0.18442971220E-01 -0.20822677943E-01  0.55944832415E-01  0.51100000000E-03 0. -1.
         11    1    4    4    0    0  0.69053904018E-01  0.19671121087E-01 -0.26354961369E-01  0.76486860144E-01  0.51100000000E-03 0.  1.
</event>
<event>
 8    1  0.1129602E+005  0.1043930E+01  0.7957747E-01            NaN
         13   -1    0    0    0    0  0.00000000000E+00  0.00000000000E+00  0.74505805969E-08  0.10566000000E+00  0.10566000000E+00 0. -1.
     999900   -1    0    0    0    0 -0.00000000000E+00 -0.00000000000E+00 -0.74505805969E-08  0.93827000000E+00  0.93827000000E+00 0.  1.
     999902    2    1    2    0    0 -0.36824952020E-02 -0.98895303986E-02 -0.22327842686E-01  0.10192339246E+01  0.10189346872E+01 0.  0.
     999903    2    3    3    0    0  0.11174916279E+00  0.11477710619E-01  0.57617620907E-01  0.12784607195E+00  0.20129944092E-01 0.  0.
         14    1    1    2    0    0  0.36824952020E-02  0.98895303986E-02  0.22327842686E-01  0.24696075426E-01  0.00000000000E+00 0. -1.
     999901    1    3    3    0    0 -0.11543165799E+00 -0.21367241018E-01 -0.79945463593E-01  0.89138785262E+00  0.88000000000E+00 0.  1.
        -11    1    4    4    0    0  0.36010782784E-01  0.42137828100E-02  0.29446669860E-01  0.46710811694E-01  0.51100000000E-03 0.  1.
         11    1    4    4    0    0  0.75738380005E-01  0.72639278092E-02  0.28170951047E-01  0.81135260257E-01  0.51100000000E-03 0. -1.
</event>
<event>
 8    1  0.1129602E+005  0.1043930E+01  0.7957747E-01            NaN
         13   -1    0    0    0    0  0.00000000000E+00  0.00000000000E+00  0.74505805969E-08  0.10566000000E+00  0.10566000000E+00 0.  1.
     999900   -1    0    0    0    0 -0.00000000000E+00 -0.00000000000E+00 -0.74505805969E-08  0.93827000000E+00  0.93827000000E+00 0.  1.
     999902    2    1    2    0    0  0.17137828493E-01  0.19957252734E-01  0.67534030934E-02  0.10167711054E+01  0.10164083211E+01 0.  0.
     999903    2    3    3    0    0 -0.36887222376E-02  0.89655336992E-01  0.91571648811E-01  0.12970532263E+00  0.19657510779E-01 0.  0.
         14    1    1    2    0    0 -0.17137828493E-01 -0.19957252734E-01 -0.67534030934E-02  0.27158894593E-01  0.00000000000E+00 0. -1.
     999901    1    3    3    0    0  0.20826550731E-01 -0.69698084258E-01 -0.84818245718E-01  0.88706578278E+00  0.88000000000E+00 0. -1.
        -11    1    4    4    0    0  0.28614370370E-02  0.80674872977E-01  0.80045245899E-01  0.11368432374E+00  0.51100000000E-03 0. -1.
         11    1    4    4    0    0 -0.65501592745E-02  0.89804640152E-02  0.11526402912E-01  0.16020998893E-01  0.51100000000E-03 0.  1.
</event>
<event>
 8    1  0.1129602E+005  0.1043930E+01  0.7957747E-01            NaN
         13   -1    0    0    0    0  0.00000000000E+00  0.00000000000E+00  0.74505805969E-08  0.10566000000E+00  0.10566000000E+00 0. -1.
     999900   -1    0    0    0    0 -0.00000000000E+00 -0.00000000000E+00 -0.74505805969E-08  0.93827000000E+00  0.93827000000E+00 0.  1.
     999902    2    1    2    0    0 -0.14437747993E-01 -0.18174409467E-01  0.22226373546E-02  0.10206126707E+01  0.10203462774E+01 0.  0.
     999903    2    3    3    0    0  0.44954438035E-01 -0.72918057228E-01 -0.97563122109E-01  0.13129748673E+00  0.19558186456E-01 0.  0.
         14    1    1    2    0    0  0.14437747993E-01  0.18174409467E-01 -0.22226373546E-02  0.23317329251E-01  0.00000000000E+00 0.  1.
     999901    1    3    3    0    0 -0.59392186028E-01  0.54743647761E-01  0.99785759464E-01  0.88931518402E+00  0.88000000000E+00 0. -1.
        -11    1    4    4    0    0  0.18758176979E-01 -0.48686155235E-01 -0.58021623228E-01  0.78031921661E-01  0.51100000000E-03 0.  1.
         11    1    4    4    0    0  0.26196261056E-01 -0.24231901993E-01 -0.39541498881E-01  0.53265565071E-01  0.51100000000E-03 0. -1.
</event>
<event>
 8    1  0.1129602E+005  0.1043930E+01  0.7957747E-01            NaN
         13   -1    0    0    0    0  0.00000000000E+00  0.00000000000E+00  0.74505805969E-08  0.10566000000E+00  0.10566000000E+00 0.  1.
     999900   -1    0    0    0    0 -0.00000000000E+00 -0.00000000000E+00 -0.74505805969E-08  0.93827000000E+00  0.93827000000E+00 0.  1.
     999902    2    1    2    0    0 -0.16388463035E-01  0.17091850051E-01  0.18970050086E-02  0.10201747545E+01  0.10198981410E+01 0.  0.
     999903    2    3    3    0    0  0.12611315346E-01  0.12615973784E+00 -0.32312682791E-01  0.13230815756E+00  0.19647248215E-01 0.  0.
         14    1    1    2    0    0  0.16388463035E-01 -0.17091850051E-01 -0.18970050086E-02  0.23755245459E-01  0.00000000000E+00 0. -1.
     999901    1    3    3    0    0 -0.28999778381E-01 -0.10906788779E+00  0.34209687800E-01  0.88786659698E+00  0.88000000000E+00 0. -1.
        -11    1    4    4    0    0  0.26439883223E-02  0.77314264973E-01 -0.11201640731E-01  0.78167922568E-01  0.51100000000E-03 0. -1.
         11    1    4    4    0    0  0.99673270242E-02  0.48845472864E-01 -0.21111042060E-01  0.54140234994E-01  0.51100000000E-03 0.  1.
</event>
<event>
 8    1  0.1129602E+005  0.1043930E+01  0.7957747E-01            NaN
         13   -1    0    0    0    0  0.00000000000E+00  0.00000000000E+00  0.74505805969E-08  0.10566000000E+00  0.10566000000E+00 0.  1.
     999900   -1    0    0    0    0 -0.00000000000E+00 -0.00000000000E+00 -0.74505805969E-08  0.93827000000E+00  0.93827000000E+00 0.  1.
     999902    2    1    2    0    0 -0.10480275589E-01 -0.36754313608E-03 -0.21240338383E-01  0.10202419600E+01  0.10199669278E+01 0.  0.
     999903    2    3    3    0    0  0.40675284273E-01 -0.11157834453E+00  0.46705848679E-01  0.12917438793E+00  0.20009509695E-01 0.  0.
         14    1    1    2    0    0  0.10480275589E-01  0.36754313608E-03  0.21240338383E-01  0.23688039999E-01  0.00000000000E+00 0.  1.
     999901    1    3    3    0    0 -0.51155559862E-01  0.11121080140E+00 -0.67946187062E-01  0.89106757207E+00  0.88000000000E+00 0.  1.
        -11    1    4    4    0    0  0.14435646269E-01 -0.67990983239E-01  0.28763254842E-01  0.75224647790E-01  0.51100000000E-03 0.  1.
         11    1    4    4    0    0  0.26239638004E-01 -0.43587361293E-01  0.17942593838E-01  0.53949740145E-01  0.51100000000E-03 0. -1.
</event>
<event>
 8    1  0.1129602E+005  0.1043930E+01  0.7957747E-01            NaN
         13   -1    0    0    0    0  0.00000000000E+00  0.00000000000E+00  0.74505805969E-08  0.10566000000E+00  0.10566000000E+00 0. -1.
     999900   -1    0    0    0    0 -0.00000000000E+00 -0.00000000000E+00 -0.74505805969E-08  0.93827000000E+00  0.93827000000E+00 0. -1.
     999902    2    1    2    0    0  0.20713109383E-01 -0.35132530124E-02 -0.11302600937E-01  0.10200736668E+01  0.10197946661E+01 0.  0.
     999903    2    3    3    0    0 -0.10015591638E+00 -0.79892168135E-01 -0.63927131405E-02  0.12852043389E+00  0.79163774171E-02 0.  0.
         14    1    1    2    0    0 -0.20713109383E-01  0.35132530124E-02  0.11302600937E-01  0.23856333226E-01  0.00000000000E+00 0.  1.
     999901    1    3    3    0    0  0.12086902576E+00  0.76378915122E-01 -0.49098877963E-02  0.89155323288E+00  0.88000000000E+00 0. -1.
        -11    1    4    4    0    0 -0.23448928271E-01 -0.14617765734E-01 -0.10598534126E-02  0.27657109798E-01  0.51100000000E-03 0.  1.
         11    1    4    4    0    0 -0.76706988108E-01 -0.65274402401E-01 -0.53328597279E-02  0.10086332409E+00  0.51100000000E-03 0. -1.
</event>
<event>
 8    1  0.1129602E+005  0.1043930E+01  0.7957747E-01            NaN
         13   -1    0    0    0    0  0.00000000000E+00  0.00000000000E+00  0.74505805969E-08  0.10566000000E+00  0.10566000000E+00 0.  1.
     999900   -1    0    0    0    0 -0.00000000000E+00 -0.00000000000E+00 -0.74505805969E-08  0.93827000000E+00  0.93827000000E+00 0.  1.
     999902    2    1    2    0    0 -0.13351546061E-01  0.45287824219E-02 -0.19488608671E-01  0.10198763200E+01  0.10195926288E+01 0.  0.
     999903    2    3    3    0    0 -0.75102611147E-01  0.82509274529E-01 -0.69426053293E-01  0.13286566644E+00  0.19624623803E-01 0.  0.
         14    1    1    2    0    0  0.13351546061E-01 -0.45287824219E-02  0.19488608671E-01  0.24053679976E-01  0.00000000000E+00 0.  1.
     999901    1    3    3    0    0  0.61751065086E-01 -0.77980492107E-01  0.49937444622E-01  0.88701065358E+00  0.88000000000E+00 0. -1.
        -11    1    4    4    0    0 -0.50316966048E-01  0.58774047014E-01 -0.37457922154E-01  0.85962449521E-01  0.51100000000E-03 0.  1.
         11    1    4    4    0    0 -0.24785645099E-01  0.23735227516E-01 -0.31968131139E-01  0.46903216923E-01  0.51100000000E-03 0. -1.
</event>
<event>
 8    1  0.1129602E+005  0.1043930E+01  0.7957747E-01            NaN
         13   -1    0    0    0    0  0.00000000000E+00  0.00000000000E+00  0.74505805969E-08  0.10566000000E+00  0.10566000000E+00 0. -1.
     999900   -1    0    0    0    0 -0.00000000000E+00 -0.00000000000E+00 -0.74505805969E-08  0.93827000000E+00  0.93827000000E+00 0.  1.
     999902    2    1    2    0    0 -0.16001262180E-01 -0.10491391018E-01 -0.14353420725E-01  0.10200107533E+01  0.10197302616E+01 0.  0.
     999903    2    3    3    0    0 -0.11196587212E+00 -0.25948020161E-02  0.65290726846E-01  0.13118301254E+00  0.20075214793E-01 0.  0.
         14    1    1    2    0    0  0.16001262180E-01  0.10491391018E-01  0.14353420725E-01  0.23919246714E-01  0.00000000000E+00 0.  1.
     999901    1    3    3    0    0  0.95964609943E-01 -0.78965890019E-02 -0.79644147571E-01  0.88882774075E+00  0.88000000000E+00 0.  1.
        -11    1    4    4    0    0 -0.34027695934E-01 -0.88654264449E-02  0.15122448291E-01  0.38280927887E-01  0.51100000000E-03 0. -1.
         11    1    4    4    0    0 -0.77938176189E-01  0.62706244289E-02  0.50168278555E-01  0.92902084652E-01  0.51100000000E-03 0.  1.
</event>
<event>
 8    1  0.1129602E+005  0.1043930E+01  0.7957747E-01            NaN
         13   -1    0    0    0    0  0.00000000000E+00  0.00000000000E+00  0.74505805969E-08  0.10566000000E+00  0.10566000000E+00 0. -1.
     999900   -1    0    0    0    0 -0.00000000000E+00 -0.00000000000E+00 -0.74505805969E-08  0.93827000000E+00  0.93827000000E+00 0. -1.
     999902    2    1    2    0    0 -0.20794920975E-01 -0.10026244109E-01 -0.36719976702E-02  0.10205539893E+01  0.10202862379E+01 0.  0.
     999903    2    3    3    0    0 -0.18396621197E-01  0.10586776622E+00  0.70122299216E-01  0.12988975867E+00  0.20193884356E-01 0.  0.
         14    1    1    2    0    0  0.20794920975E-01  0.10026244109E-01  0.36719976702E-02  0.23376010699E-01  0.00000000000E+00 0.  1.
     999901    1    3    3    0    0 -0.23982997779E-02 -0.11589401032E+00 -0.73794296887E-01  0.89066423063E+00  0.88000000000E+00 0. -1.
        -11    1    4    4    0    0 -0.92112640862E-02  0.66873929343E-01  0.32473271289E-01  0.74911576415E-01  0.51100000000E-03 0.  1.
         11    1    4    4    0    0 -0.91853571111E-02  0.38993836873E-01  0.37649027927E-01  0.54978182256E-01  0.51100000000E-03 0. -1.
</event>
<event>
 7    1  0.1213004E+005  0.1043930E+01  0.7957747E-01            NaN
         13   -1    0    0    0    0  0.00000000000E+00  0.00000000000E+00  0.74505805969E-08  0.10566000000E+00  0.10566000000E+00 0.  1.
     999900   -1    0    0    0    0 -0.00000000000E+00 -0.00000000000E+00 -0.74505805969E-08  0.93827000000E+00  0.93827000000E+00 0. -1.
     999903    2    1    2    0    0 -0.40451707239E-01  0.61241301442E-02  0.98954712722E-01  0.10924042484E+00  0.21623821597E-01 0.  0.
         14    1    1    2    0    0 -0.23008059636E-01  0.30743179163E-01 -0.30402068244E-01  0.48977542065E-01  0.00000000000E+00 0. -1.
     999901    1    1    2    0    0  0.63459766874E-01 -0.36867309307E-01 -0.68552644478E-01  0.88571203310E+00  0.88000000000E+00 0.  1.
        -11    1    3    3    0    0 -0.31417197594E-01  0.13291652746E-01  0.65544299392E-01  0.73891979546E-01  0.51100000000E-03 0. -1.
         11    1    3    3    0    0 -0.90345096450E-02 -0.71675226013E-02  0.33410413330E-01  0.35348445293E-01  0.51100000000E-03 0.  1.
</event>
<event>
 8    1  0.1129602E+005  0.1043930E+01  0.7957747E-01            NaN
         13   -1    0    0    0    0  0.00000000000E+00  0.00000000000E+00  0.74505805969E-08  0.10566000000E+00  0.10566000000E+00 0. -1.
     999900   -1    0    0    0    0 -0.00000000000E+00 -0.00000000000E+00 -0.74505805969E-08  0.93827000000E+00  0.93827000000E+00 0.  1.
     999902    2    1    2    0    0  0.15376944467E-01  0.11138530284E-01 -0.14370729357E-01  0.10201175003E+01  0.10198395361E+01 0.  0.
     999903    2    3    3    0    0 -0.55221485130E-01  0.98465387612E-01 -0.64533390174E-01  0.13156451328E+00  0.19995442693E-01 0.  0.
         14    1    1    2    0    0 -0.15376944467E-01 -0.11138530284E-01  0.14370729357E-01  0.23812499665E-01  0.00000000000E+00 0. -1.
     999901    1    3    3    0    0  0.70598429597E-01 -0.87326857328E-01  0.50162660816E-01  0.88855298706E+00  0.88000000000E+00 0. -1.
        -11    1    4    4    0    0 -0.86076095793E-02  0.34024095533E-01 -0.18763075495E-01  0.39800052042E-01  0.51100000000E-03 0. -1.
         11    1    4    4    0    0 -0.46613875550E-01  0.64441292080E-01 -0.45770314679E-01  0.91764461234E-01  0.51100000000E-03 0.  1.
</event>
<event>
 8    1  0.1129602E+005  0.1043930E+01  0.7957747E-01            NaN
         13   -1    0    0    0    0  0.00000000000E+00  0.00000000000E+00  0.74505805969E-08  0.10566000000E+00  0.10566000000E+00 0.  1.
     999900   -1    0    0    0    0 -0.00000000000E+00 -0.00000000000E+00 -0.74505805969E-08  0.93827000000E+00  0.93827000000E+00 0.  1.
     999902    2    1    2    0    0  0.51742653890E-02  0.10006261002E-01 -0.19371555048E-01  0.10215211753E+01  0.10212753576E+01 0.  0.
     999903    2    3    3    0    0  0.12103976529E-01 -0.23677616075E-01 -0.12972824826E+00  0.13396203682E+00  0.20230500825E-01 0.  0.
         14    1    1    2    0    0 -0.51742653890E-02 -0.10006261002E-01  0.19371555048E-01  0.22408824747E-01  0.00000000000E+00 0.  1.
     999901    1    3    3    0    0 -0.69297111403E-02  0.33683877077E-01  0.11035669321E+00  0.88755913843E+00  0.88000000000E+00 0. -1.
        -11    1    4    4    0    0 -0.49473847197E-02 -0.60172594724E-02 -0.18946982973E-01  0.20492274444E-01  0.51100000000E-03 0.  1.
         11    1    4    4    0    0  0.17051361249E-01 -0.17660356602E-01 -0.11078126528E+00  0.11346976238E+00  0.51100000000E-03 0. -1.
</event>
<event>
 8    1  0.1129602E+005  0.1043930E+01  0.7957747E-01            NaN
         13   -1    0    0    0    0  0.00000000000E+00  0.00000000000E+00  0.74505805969E-08  0.10566000000E+00  0.10566000000E+00 0.  1.
     999900   -1    0    0    0    0 -0.00000000000E+00 -0.00000000000E+00 -0.74505805969E-08  0.93827000000E+00  0.93827000000E+00 0.  1.
     999902    2    1    2    0    0 -0.80911799282E-02  0.22016368221E-01 -0.25551184855E-02  0.10203351639E+01  0.10200623169E+01 0.  0.
     999903    2    3    3    0    0 -0.38076636323E-01 -0.11768905674E+00  0.28352966228E-01  0.12827460366E+00  0.18706654984E-01 0.  0.
         14    1    1    2    0    0  0.80911799282E-02 -0.22016368221E-01  0.25551184855E-02  0.23594836146E-01  0.00000000000E+00 0. -1.
     999901    1    3    3    0    0  0.29985456395E-01  0.13970542496E+00 -0.30908084714E-01  0.89206056020E+00  0.88000000000E+00 0.  1.
        -11    1    4    4    0    0 -0.23498857171E-01 -0.47722509902E-01  0.68309546213E-02  0.53633546421E-01  0.51100000000E-03 0.  1.
         11    1    4    4    0    0 -0.14577779153E-01 -0.69966546833E-01  0.21522011607E-01  0.74641057237E-01  0.51100000000E-03 0. -1.
</event>
<event>
 8    1  0.1129602E+005  0.1043930E+01  0.7957747E-01            NaN
         13   -1    0    0    0    0  0.00000000000E+00  0.00000000000E+00  0.74505805969E-08  0.10566000000E+00  0.10566000000E+00 0.  1.
     999900   -1    0    0    0    0 -0.00000000000E+00 -0.00000000000E+00 -0.74505805969E-08  0.93827000000E+00  0.93827000000E+00 0. -1.
     999902    2    1    2    0    0  0.22792657350E-01  0.77023605031E-03  0.56168855863E-02  0.10204428142E+01  0.10201724801E+01 0.  0.
     999903    2    3    3    0    0 -0.11751486272E+00 -0.26415896767E-01 -0.37721398473E-01  0.12786032902E+00  0.20440579042E-01 0.  0.
         14    1    1    2    0    0 -0.22792657350E-01 -0.77023605031E-03 -0.56168855863E-02  0.23487185790E-01  0.00000000000E+00 0. -1.
     999901    1    3    3    0    0  0.14030752007E+00  0.27186132817E-01  0.43338284059E-01  0.89258248519E+00  0.88000000000E+00 0.  1.
        -11    1    4    4    0    0 -0.82649652266E-01 -0.21114073718E-01 -0.17093477627E-01  0.87001248422E-01  0.51100000000E-03 0. -1.
         11    1    4    4    0    0 -0.34865210455E-01 -0.53018230492E-02 -0.20627920846E-01  0.40859080596E-01  0.51100000000E-03 0.  1.
</event>
<event>
 8    1  0.1129602E+005  0.1043930E+01  0.7957747E-01            NaN
         13   -1    0    0    0    0  0.00000000000E+00  0.00000000000E+00  0.74505805969E-08  0.10566000000E+00  0.10566000000E+00 0.  1.
     999900   -1    0    0    0    0 -0.00000000000E+00 -0.00000000000E+00 -0.74505805969E-08  0.93827000000E+00  0.93827000000E+00 0. -1.
     999902    2    1    2    0    0  0.15684996087E-01 -0.79140188868E-02  0.16304571984E-01  0.10199614818E+01  0.10196798196E+01 0.  0.
     999903    2    3    3    0    0 -0.35930263118E-01 -0.38820809684E-01 -0.11495793730E+00  0.12819401713E+00  0.20502185390E-01 0.  0.
         14    1    1    2    0    0 -0.15684996087E-01  0.79140188868E-02 -0.16304571984E-01  0.23968518201E-01  0.00000000000E+00 0. -1.
     999901    1    3    3    0    0  0.51615259205E-01  0.30906790797E-01  0.13126250929E+00  0.89176746467E+00  0.88000000000E+00 0.  1.
        -11    1    4    4    0    0 -0.19616479058E-01 -0.20564277283E-01 -0.38139019467E-01  0.47566182081E-01  0.51100000000E-03 0. -1.
         11    1    4    4    0    0 -0.16313784060E-01 -0.18256532401E-01 -0.76818917837E-01  0.80627835047E-01  0.51100000000E-03 0.  1.
</event>
<event>
 8    1  0.1129602E+005  0.1043930E+01  0.7957747E-01            NaN
         13   -1    0    0    0    0  0.00000000000E+00  0.00000000000E+00  0.74505805969E-08  0.10566000000E+00  0.10566000000E+00 0. -1.
     999900   -1    0    0    0    0 -0.00000000000E+00 -0.00000000000E+00 -0.74505805969E-08  0.93827000000E+00  0.93827000000E+00 0. -1.
     999902    2    1    2    0    0  0.11676102110E-01 -0.18688773449E-01  0.93438535707E-02  0.10199944780E+01  0.10197136000E+01 0.  0.
     999903    2    3    3    0    0 -0.13166889912E-01 -0.10906338497E+00 -0.69673005719E-01  0.13149663968E+00  0.19205457314E-01 0.  0.
         14    1    1    2    0    0 -0.11676102110E-01  0.18688773449E-01 -0.93438535707E-02  0.23935521993E-01  0.00000000000E+00 0. -1.
     999901    1    3    3    0    0  0.24842992022E-01  0.90374611518E-01  0.79016859290E-01  0.88849783833E+00  0.88000000000E+00 0.  1.
        -11    1    4    4    0    0 -0.17412012026E-01 -0.74035029249E-01 -0.44110700007E-01  0.87922572158E-01  0.51100000000E-03 0. -1.
         11    1    4    4    0    0  0.42451221145E-02 -0.35028355718E-01 -0.25562305713E-01  0.43574067522E-01  0.51100000000E-03 0.  1.
</event>
<event>
 8    1  0.1129602E+005  0.1043930E+01  0.7957747E-01            NaN
         13   -1    0    0    0    0  0.00000000000E+00  0.00000000000E+00  0.74505805969E-08  0.10566000000E+00  0.10566000000E+00 0. -1.
     999900   -1    0    0    0    0 -0.00000000000E+00 -0.00000000000E+00 -0.74505805969E-08  0.93827000000E+00  0.93827000000E+00 0.  1.
     999902    2    1    2    0    0  0.32974296350E-02  0.22543636021E-01 -0.31954392202E-02  0.10209234922E+01  0.10206642335E+01 0.  0.
     999903    2    3    3    0    0  0.24001787164E-01  0.33769130766E-01  0.12328758327E+00  0.13156831172E+00  0.19848236174E-01 0.  0.
         14    1    1    2    0    0 -0.32974296350E-02 -0.22543636021E-01  0.31954392202E-02  0.23006507755E-01  0.00000000000E+00 0.  1.
     999901    1    3    3    0    0 -0.20704357529E-01 -0.11225494744E-01 -0.12648302249E+00  0.88935518053E+00  0.88000000000E+00 0.  1.
        -11    1    4    4    0    0  0.49825216933E-02  0.23851711083E-01  0.70115516245E-01  0.74230562327E-01  0.51100000000E-03 0.  1.
         11    1    4    4    0    0  0.19019265471E-01  0.99174196827E-02  0.53172067027E-01  0.57337749391E-01  0.51100000000E-03 0. -1.
</event>
<event>
 8    1  0.1129602E+005  0.1043930E+01  0.7957747E-01            NaN
         13   -1    0    0    0    0  0.00000000000E+00  0.00000000000E+00  0.74505805969E-08  0.10566000000E+00  0.10566000000E+00 0. -1.
     999900   -1    0    0    0    0 -0.00000000000E+00 -0.00000000000E+00 -0.74505805969E-08  0.93827000000E+00  0.93827000000E+00 0.  1.
     999902    2    1    2    0    0 -0.80745773260E-02 -0.33577978516E-01 -0.12955177054E-01  0.10070448261E+01  0.10063691002E+01 0.  0.
     999903    2    3    3    0    0  0.10270277335E+00  0.87545945088E-02  0.50544042373E-01  0.11682248364E+00  0.21640006619E-01 0.  0.
         14    1    1    2    0    0  0.80745773260E-02  0.33577978516E-01  0.12955177054E-01  0.36885173887E-01  0.00000000000E+00 0. -1.
     999901    1    3    3    0    0 -0.11077735068E+00 -0.42332573024E-01 -0.63499219427E-01  0.89022234247E+00  0.88000000000E+00 0.  1.
        -11    1    4    4    0    0  0.38644459685E-01  0.41350189713E-02  0.77187112612E-02  0.39627418169E-01  0.51100000000E-03 0. -1.
         11    1    4    4    0    0  0.64058313666E-01  0.46195755374E-02  0.42825331112E-01  0.77195065475E-01  0.51100000000E-03 0.  1.
</event>
<event>
 8    1  0.1129602E+005  0.1043930E+01  0.7957747E-01            NaN
         13   -1    0    0    0    0  0.00000000000E+00  0.00000000000E+00  0.74505805969E-08  0.10566000000E+00  0.10566000000E+00 0. -1.
     999900   -1    0    0    0    0 -0.00000000000E+00 -0.00000000000E+00 -0.74505805969E-08  0.93827000000E+00  0.93827000000E+00 0. -1.
     999902    2    1    2    0    0  0.27048197882E-02  0.23077538865E-01  0.11765107467E-02  0.10206647249E+01  0.10203995333E+01 0.  0.
     999903    2    3    3    0    0  0.70887705707E-01  0.81268354062E-01  0.71083382658E-01  0.13335302785E+00  0.33174848199E-01 0.  0.
         14    1    1    2    0    0 -0.27048197882E-02 -0.23077538865E-01 -0.11765107467E-02  0.23265275147E-01  0.00000000000E+00 0.  1.
     999901    1    3    3    0    0 -0.68182885919E-01 -0.58190815198E-01 -0.69906871911E-01  0.88731169701E+00  0.88000000000E+00 0. -1.
        -11    1    4    4    0    0  0.62512954467E-01  0.49037886113E-01  0.52213311958E-01  0.95074049127E-01  0.51100000000E-03 0. -1.
         11    1    4    4    0    0  0.83747512401E-02  0.32230467949E-01  0.18870070699E-01  0.38278978719E-01  0.51100000000E-03 0.  1.
</event>
<event>
 8    1  0.1129602E+005  0.1043930E+01  0.7957747E-01            NaN
         13   -1    0    0    0    0  0.00000000000E+00  0.00000000000E+00  0.74505805969E-08  0.10566000000E+00  0.10566000000E+00 0. -1.
     999900   -1    0    0    0    0 -0.00000000000E+00 -0.00000000000E+00 -0.74505805969E-08  0.93827000000E+00  0.93827000000E+00 0.  1.
     999902    2    1    2    0    0 -0.20648426011E-02 -0.89456345571E-02 -0.22140601727E-01  0.10199613914E+01  0.10196797271E+01 0.  0.
     999903    2    3    3    0    0  0.89325109075E-01  0.35843970873E-01 -0.87506758477E-01  0.13168724090E+00  0.20501982302E-01 0.  0.
         14    1    1    2    0    0  0.20648426011E-02  0.89456345571E-02  0.22140601727E-01  0.23968608583E-01  0.00000000000E+00 0. -1.
     999901    1    3    3    0    0 -0.91389951676E-01 -0.44789605430E-01  0.65366156750E-01  0.88827415051E+00  0.88000000000E+00 0. -1.
        -11    1    4    4    0    0  0.56537571268E-01  0.12014735143E-01 -0.53871050993E-01  0.79013935995E-01  0.51100000000E-03 0.  1.
         11    1    4    4    0    0  0.32787537807E-01  0.23829235730E-01 -0.33635707484E-01  0.52673304908E-01  0.51100000000E-03 0. -1.
</event>
<event>
 8    1  0.1129602E+005  0.1043930E+01  0.7957747E-01            NaN
         13   -1    0    0    0    0  0.00000000000E+00  0.00000000000E+00  0.74505805969E-08  0.10566000000E+00  0.10566000000E+00 0.  1.
     999900   -1    0    0    0    0 -0.00000000000E+00 -0.00000000000E+00 -0.74505805969E-08  0.93827000000E+00  0.93827000000E+00 0. -1.
     999902    2    1    2    0    0 -0.16238952638E-02  0.14348240564E-01 -0.18763468521E-01  0.10202534970E+01  0.10199787357E+01 0.  0.
     999903    2    3    3    0    0 -0.94292487398E-01  0.89913341364E-01 -0.88517892385E-02  0.13211173253E+00  0.19991837423E-01 0.  0.
         14    1    1    2    0    0  0.16238952638E-02 -0.14348240564E-01  0.18763468521E-01  0.23676502994E-01  0.00000000000E+00 0.  1.
     999901    1    3    3    0    0  0.92668592134E-01 -0.75565100800E-01 -0.99116792822E-02  0.88814176448E+00  0.88000000000E+00 0.  1.
        -11    1    4    4    0    0 -0.63781823226E-01  0.56465729166E-01 -0.14747069825E-01  0.86453668133E-01  0.51100000000E-03 0. -1.
         11    1    4    4    0    0 -0.30510664172E-01  0.33447612197E-01  0.58952805864E-02  0.45658064393E-01  0.51100000000E-03 0.  1.
</event>
<event>
 8    1  0.1129602E+005  0.1043930E+01  0.7957747E-01            NaN
         13   -1    0    0    0    0  0.00000000000E+00  0.00000000000E+00  0.74505805969E-08  0.10566000000E+00  0.10566000000E+00 0.  1.
     999900   -1    0    0    0    0 -0.00000000000E+00 -0.00000000000E+00 -0.74505805969E-08  0.93827000000E+00  0.93827000000E+00 0.  1.
     999902    2    1    2    0    0 -0.43540789676E-02  0.10644389152E-01 -0.21179595861E-01  0.10198294543E+01  0.10195446432E+01 0.  0.
     999903    2    3    3    0    0 -0.94117392290E-01  0.84750914253E-01 -0.32462277754E-01  0.13209270928E+00  0.18811788047E-01 0.  0.
         14    1    1    2    0    0  0.43540789676E-02 -0.10644389152E-01  0.21179595861E-01  0.24100545739E-01  0.00000000000E+00 0. -1.
     999901    1    3    3    0    0  0.89763313322E-01 -0.74106525101E-01  0.11282681893E-01  0.88773674498E+00  0.88000000000E+00 0. -1.
        -11    1    4    4    0    0 -0.26398032062E-01  0.23774451081E-01 -0.17984383360E-01  0.39821850619E-01  0.51100000000E-03 0. -1.
         11    1    4    4    0    0 -0.67719360228E-01  0.60976463173E-01 -0.14477894395E-01  0.92270858659E-01  0.51100000000E-03 0.  1.
</event>
<event>
 8    1  0.1129602E+005  0.1043930E+01  0.7957747E-01            NaN
         13   -1    0    0    0    0  0.00000000000E+00  0.00000000000E+00  0.74505805969E-08  0.10566000000E+00  0.10566000000E+00 0.  1.
     999900   -1    0    0    0    0 -0.00000000000E+00 -0.00000000000E+00 -0.74505805969E-08  0.93827000000E+00  0.93827000000E+00 0.  1.
     999902    2    1    2    0    0  0.44860624534E-02  0.21322170255E-01  0.10005646888E-01  0.10199534975E+01  0.10196716454E+01 0.  0.
     999903    2    3    3    0    0  0.36690393952E-01 -0.45136997596E-02 -0.12207570758E+00  0.12913920974E+00  0.20196500138E-01 0.  0.
         14    1    1    2    0    0 -0.44860624534E-02 -0.21322170255E-01 -0.10005646888E-01  0.23976502463E-01  0.00000000000E+00 0. -1.
     999901    1    3    3    0    0 -0.32204331498E-01  0.25835870015E-01  0.13208135446E+00  0.89081428780E+00  0.88000000000E+00 0. -1.
        -11    1    4    4    0    0  0.10906088410E-01  0.78590125229E-02 -0.35694601567E-01  0.38145413149E-01  0.51100000000E-03 0. -1.
         11    1    4    4    0    0  0.25784305541E-01 -0.12372712283E-01 -0.86381106010E-01  0.90993796590E-01  0.51100000000E-03 0.  1.
</event>
<event>
 8    1  0.1129602E+005  0.1043930E+01  0.7957747E-01            NaN
         13   -1    0    0    0    0  0.00000000000E+00  0.00000000000E+00  0.74505805969E-08  0.10566000000E+00  0.10566000000E+00 0. -1.
     999900   -1    0    0    0    0 -0.00000000000E+00 -0.00000000000E+00 -0.74505805969E-08  0.93827000000E+00  0.93827000000E+00 0. -1.
     999902    2    1    2    0    0 -0.63349780225E-02  0.34763706249E-02 -0.22679746138E-01  0.10201268913E+01  0.10198491488E+01 0.  0.
     999903    2    3    3    0    0 -0.11876802875E+00  0.44738200922E-01 -0.29365014904E-01  0.13198927676E+00  0.21248854160E-01 0.  0.
         14    1    1    2    0    0  0.63349780225E-02 -0.34763706249E-02  0.22679746138E-01  0.23803108708E-01  0.00000000000E+00 0. -1.
     999901    1    3    3    0    0  0.11243305073E+00 -0.41261830297E-01  0.66852687653E-02  0.88813761454E+00  0.88000000000E+00 0.  1.
        -11    1    4    4    0    0 -0.17669668790E-01  0.70159788107E-02  0.31754491807E-02  0.19281746609E-01  0.51100000000E-03 0.  1.
         11    1    4    4    0    0 -0.10109835996E+00  0.37722222112E-01 -0.32540464084E-01  0.11270753015E+00  0.51100000000E-03 0. -1.
</event>
<event>
 8    1  0.1129602E+005  0.1043930E+01  0.7957747E-01            NaN
         13   -1    0    0    0    0  0.00000000000E+00  0.00000000000E+00  0.74505805969E-08  0.10566000000E+00  0.10566000000E+00 0. -1.
     999900   -1    0    0    0    0 -0.00000000000E+00 -0.00000000000E+00 -0.74505805969E-08  0.93827000000E+00  0.93827000000E+00 0. -1.
     999902    2    1    2    0    0  0.29078815401E-01  0.16352902552E-01 -0.53703223801E-02  0.10101389466E+01  0.10095736012E+01 0.  0.
     999903    2    3    3    0    0 -0.10427050574E+00 -0.48613602847E-01 -0.15119873964E-01  0.11767172478E+00  0.19555139365E-01 0.  0.
         14    1    1    2    0    0 -0.29078815401E-01 -0.16352902552E-01  0.53703223801E-02  0.33791053394E-01  0.00000000000E+00 0.  1.
     999901    1    3    3    0    0  0.13334932114E+00  0.64966505399E-01  0.97495515842E-02  0.89246722182E+00  0.88000000000E+00 0. -1.
        -11    1    4    4    0    0 -0.38674813771E-01 -0.93686712363E-02 -0.24759113888E-03  0.39797432623E-01  0.51100000000E-03 0.  1.
         11    1    4    4    0    0 -0.65595691969E-01 -0.39244931611E-01 -0.14872282825E-01  0.77874292160E-01  0.51100000000E-03 0. -1.
</event>
<event>
 8    1  0.1129602E+005  0.1043930E+01  0.7957747E-01            NaN
         13   -1    0    0    0    0  0.00000000000E+00  0.00000000000E+00  0.74505805969E-08  0.10566000000E+00  0.10566000000E+00 0. -1.
     999900   -1    0    0    0    0 -0.00000000000E+00 -0.00000000000E+00 -0.74505805969E-08  0.93827000000E+00  0.93827000000E+00 0.  1.
     999902    2    1    2    0    0  0.10552758843E-01 -0.29611783271E-01 -0.30649205507E-02  0.10123450009E+01  0.10118521576E+01 0.  0.
     999903    2    3    3    0    0  0.11045891920E+00 -0.32722126128E-01  0.38343011003E-01  0.12571907536E+00  0.32606579821E-01 0.  0.
         14    1    1    2    0    0 -0.10552758843E-01  0.29611783271E-01  0.30649205507E-02  0.31584999061E-01  0.00000000000E+00 0.  1.
     999901    1    3    3    0    0 -0.99906160359E-01  0.31103428567E-02 -0.41407931554E-01  0.88662592558E+00  0.88000000000E+00 0.  1.
        -11    1    4    4    0    0  0.38697645711E-01 -0.25569313812E-01  0.63313115872E-02  0.46814999944E-01  0.51100000000E-03 0. -1.
         11    1    4    4    0    0  0.71761273491E-01 -0.71528123161E-02  0.32011699416E-01  0.78904075418E-01  0.51100000000E-03 0.  1.
</event>
<event>
 8    1  0.1129602E+005  0.1043930E+01  0.7957747E-01            NaN
         13   -1    0    0    0    0  0.00000000000E+00  0.00000000000E+00  0.74505805969E-08  0.10566000000E+00  0.10566000000E+00 0. -1.
     999900   -1    0    0    0    0 -0.00000000000E+00 -0.00000000000E+00 -0.74505805969E-08  0.93827000000E+00  0.93827000000E+00 0.  1.
     999902    2    1    2    0    0  0.21517718245E-01 -0.32348935761E-02 -0.93824734336E-02  0.10202338496E+01  0.10199586268E+01 0.  0.
     999903    2    3    3    0    0 -0.11588470035E+00 -0.44713083390E-01 -0.25970788897E-01  0.12845190482E+00  0.19922007319E-01 0.  0.
         14    1    1    2    0    0 -0.21517718245E-01  0.32348935761E-02  0.93824734336E-02  0.23696150376E-01  0.00000000000E+00 0. -1.
     999901    1    3    3    0    0  0.13740241859E+00  0.41478189813E-01  0.16588315464E-01  0.89178194480E+00  0.88000000000E+00 0. -1.
        -11    1    4    4    0    0 -0.73582679322E-01 -0.17966129653E-01 -0.15984529193E-01  0.77414202867E-01  0.51100000000E-03 0.  1.
         11    1    4    4    0    0 -0.42302021025E-01 -0.26746953736E-01 -0.99862597043E-02  0.51037701955E-01  0.51100000000E-03 0. -1.
</event>
<event>
 8    1  0.1129602E+005  0.1043930E+01  0.7957747E-01            NaN
         13   -1    0    0    0    0  0.00000000000E+00  0.00000000000E+00  0.74505805969E-08  0.10566000000E+00  0.10566000000E+00 0. -1.
     999900   -1    0    0    0    0 -0.00000000000E+00 -0.00000000000E+00 -0.74505805969E-08  0.93827000000E+00  0.93827000000E+00 0.  1.
     999902    2    1    2    0    0  0.77797961821E-03 -0.42993314835E-02 -0.22296299555E-01  0.10212096462E+01  0.10209568683E+01 0.  0.
     999903    2    3    3    0    0 -0.12700228468E+00  0.24336665795E-01  0.67542013979E-02  0.13104575797E+00  0.20137473291E-01 0.  0.
         14    1    1    2    0    0 -0.77797961821E-03  0.42993314835E-02  0.22296299555E-01  0.22720353812E-01  0.00000000000E+00 0. -1.
     999901    1    3    3    0    0  0.12778026429E+00 -0.28635997278E-01 -0.29050500953E-01  0.89016388822E+00  0.88000000000E+00 0.  1.
        -11    1    4    4    0    0 -0.60707845938E-01  0.79903563633E-02 -0.61974903200E-02  0.61546391938E-01  0.51100000000E-03 0. -1.
         11    1    4    4    0    0 -0.66294438737E-01  0.16346309432E-01  0.12951691718E-01  0.69499366032E-01  0.51100000000E-03 0.  1.
</event>
<event>
 8    1  0.1129602E+005  0.1043930E+01  0.7957747E-01            NaN
         13   -1    0    0    0    0  0.00000000000E+00  0.00000000000E+00  0.74505805969E-08  0.10566000000E+00  0.10566000000E+00 0. -1.
     999900   -1    0    0    0    0 -0.00000000000E+00 -0.00000000000E+00 -0.74505805969E-08  0.93827000000E+00  0.93827000000E+00 0. -1.
     999902    2    1    2    0    0 -0.78351369714E-02  0.11118736904E-01  0.20902890033E-01  0.10189911449E+01  0.10186859216E+01 0.  0.
     999903    2    3    3    0    0  0.47070341504E-01 -0.52753853607E-01 -0.10295570294E+00  0.12633484462E+00  0.19027087999E-01 0.  0.
         14    1    1    2    0    0  0.78351369714E-02 -0.11118736904E-01 -0.20902890033E-01  0.24938855095E-01  0.00000000000E+00 0.  1.
     999901    1    3    3    0    0 -0.54905478475E-01  0.63872590512E-01  0.12385859297E+00  0.89265630028E+00  0.88000000000E+00 0.  1.
        -11    1    4    4    0    0  0.36627911060E-01 -0.42209277672E-01 -0.65858086068E-01  0.86375781396E-01  0.51100000000E-03 0. -1.
         11    1    4    4    0    0  0.10442430444E-01 -0.10544575936E-01 -0.37097616871E-01  0.39959063224E-01  0.51100000000E-03 0.  1.
</event>
<event>
 8    1  0.1129602E+005  0.1043930E+01  0.7957747E-01            NaN
         13   -1    0    0    0    0  0.00000000000E+00  0.00000000000E+00  0.74505805969E-08  0.10566000000E+00  0.10566000000E+00 0. -1.
     999900   -1    0    0    0    0 -0.00000000000E+00 -0.00000000000E+00 -0.74505805969E-08  0.93827000000E+00  0.93827000000E+00 0.  1.
     999902    2    1    2    0    0 -0.60928375054E-02 -0.12322744839E-01  0.19264964589E-01  0.10202633236E+01  0.10199887931E+01 0.  0.
     999903    2    3    3    0    0  0.57652121308E-01 -0.29357099317E-02  0.11751755950E+00  0.13245416137E+00  0.20033536625E-01 0.  0.
         14    1    1    2    0    0  0.60928375054E-02  0.12322744839E-01 -0.19264964589E-01  0.23666676358E-01  0.00000000000E+00 0.  1.
     999901    1    3    3    0    0 -0.63744958813E-01 -0.93870349076E-02 -0.98252594915E-01  0.88780916227E+00  0.88000000000E+00 0.  1.
        -11    1    4    4    0    0  0.21825775981E-01  0.82791055724E-02  0.39803665843E-01  0.46146516898E-01  0.51100000000E-03 0.  1.
         11    1    4    4    0    0  0.35826345327E-01 -0.11214815504E-01  0.77713893660E-01  0.86307644477E-01  0.51100000000E-03 0. -1.
</event>
<event>
 8    1  0.1129602E+005  0.1043930E+01  0.7957747E-01            NaN
         13   -1    0    0    0    0  0.00000000000E+00  0.00000000000E+00  0.74505805969E-08  0.10566000000E+00  0.10566000000E+00 0. -1.
     999900   -1    0    0    0    0 -0.00000000000E+00 -0.00000000000E+00 -0.74505805969E-08  0.93827000000E+00  0.93827000000E+00 0.  1.
     999902    2    1    2    0    0 -0.17880776666E-01  0.15460089833E-01 -0.58862235524E-02  0.10195705218E+01  0.10192794831E+01 0.  0.
     999903    2    3    3    0    0  0.12320012876E+00  0.26010983646E-01 -0.42438922962E-02  0.12826931540E+00  0.24086586574E-01 0.  0.
         14    1    1    2    0    0  0.17880776666E-01 -0.15460089833E-01  0.58862235524E-02  0.24359478228E-01  0.00000000000E+00 0. -1.
     999901    1    3    3    0    0 -0.14108090543E+00 -0.10550893813E-01 -0.16423312563E-02  0.89130120638E+00  0.88000000000E+00 0. -1.
        -11    1    4    4    0    0  0.10215303816E+00  0.14357553607E-01 -0.96419169347E-02  0.10360796415E+00  0.51100000000E-03 0.  1.
         11    1    4    4    0    0  0.21047090599E-01  0.11653430039E-01  0.53980246385E-02  0.24661351248E-01  0.51100000000E-03 0. -1.
</event>
<event>
 8    1  0.1129602E+005  0.1043930E+01  0.7957747E-01            NaN
         13   -1    0    0    0    0  0.00000000000E+00  0.00000000000E+00  0.74505805969E-08  0.10566000000E+00  0.10566000000E+00 0. -1.
     999900   -1    0    0    0    0 -0.00000000000E+00 -0.00000000000E+00 -0.74505805969E-08  0.93827000000E+00  0.93827000000E+00 0.  1.
     999902    2    1    2    0    0  0.11721645188E-01 -0.12200186496E-02  0.21688381408E-01  0.10192465784E+01  0.10189476514E+01 0.  0.
     999903    2    3    3    0    0  0.12923638377E+00  0.94405496093E-02  0.10836545811E-02  0.13113176815E+00  0.20079826784E-01 0.  0.
         14    1    1    2    0    0 -0.11721645188E-01  0.12200186496E-02 -0.21688381408E-01  0.24683421552E-01  0.00000000000E+00 0. -1.
     999901    1    3    3    0    0 -0.11751473858E+00 -0.10660568259E-01  0.20604726827E-01  0.88811481030E+00  0.88000000000E+00 0.  1.
        -11    1    4    4    0    0  0.83424905948E-02  0.55453134236E-02 -0.15265895412E-02  0.10145898034E-01  0.51100000000E-03 0.  1.
         11    1    4    4    0    0  0.12089389318E+00  0.38952361857E-02  0.26102441223E-02  0.12098587012E+00  0.51100000000E-03 0. -1.
</event>
<event>
 8    1  0.1129602E+005  0.1043930E+01  0.7957747E-01            NaN
         13   -1    0    0    0    0  0.00000000000E+00  0.00000000000E+00  0.74505805969E-08  0.10566000000E+00  0.10566000000E+00 0.  1.
     999900   -1    0    0    0    0 -0.00000000000E+00 -0.00000000000E+00 -0.74505805969E-08  0.93827000000E+00  0.93827000000E+00 0.  1.
     999902    2    1    2    0    0  0.23304365078E-01 -0.13478992716E-02 -0.92822236972E-03  0.10205682393E+01  0.10203008180E+01 0.  0.
     999903    2    3    3    0    0 -0.24804332916E-01  0.61438026496E-01 -0.11028101427E+00  0.13027921190E+00  0.20515479823E-01 0.  0.
         14    1    1    2    0    0 -0.23304365078E-01  0.13478992716E-02  0.92822236972E-03  0.23361760655E-01  0.00000000000E+00 0. -1.
     999901    1    3    3    0    0  0.48108697993E-01 -0.62785925768E-01  0.10935279190E+00  0.89028902745E+00  0.88000000000E+00 0. -1.
        -11    1    4    4    0    0 -0.27167207039E-01  0.58736344099E-01 -0.97731764142E-01  0.11721678250E+00  0.51100000000E-03 0.  1.
         11    1    4    4    0    0  0.23628741232E-02  0.27016823968E-02 -0.12549250131E-01  0.13062429397E-01  0.51100000000E-03 0. -1.
</event>
<event>
 8    1  0.1129602E+005  0.1043930E+01  0.7957747E-01            NaN
         13   -1    0    0    0    0  0.00000000000E+00  0.00000000000E+00  0.74505805969E-08  0.10566000000E+00  0.10566000000E+00 0.  1.
     999900   -1    0    0    0    0 -0.00000000000E+00 -0.00000000000E+00 -0.74505805969E-08  0.93827000000E+00  0.93827000000E+00 0.  1.
     999902    2    1    2    0    0  0.31209712410E-02 -0.13523088417E-01  0.18674803986E-01  0.10206627981E+01  0.10203975621E+01 0.  0.
     999903    2    3    3    0    0  0.34923575832E-01 -0.10620324062E+00  0.70618749635E-01  0.13370215082E+00  0.19760386315E-01 0.  0.
         14    1    1    2    0    0 -0.31209712410E-02  0.13523088417E-01 -0.18674803986E-01  0.23267201932E-01  0.00000000000E+00 0. -1.
     999901    1    3    3    0    0 -0.31802604591E-01  0.92680152204E-01 -0.51943945649E-01  0.88696064724E+00  0.88000000000E+00 0.  1.
        -11    1    4    4    0    0  0.24665938056E-01 -0.47800112633E-01  0.27729193127E-01  0.60518001788E-01  0.51100000000E-03 0. -1.
         11    1    4    4    0    0  0.10257637777E-01 -0.58403127989E-01  0.42889556508E-01  0.73184149036E-01  0.51100000000E-03 0.  1.
</event>
<event>
 8    1  0.1129602E+005  0.1043930E+01  0.7957747E-01            NaN
         13   -1    0    0    0    0  0.00000000000E+00  0.00000000000E+00  0.74505805969E-08  0.10566000000E+00  0.10566000000E+00 0.  1.
     999900   -1    0    0    0    0 -0.00000000000E+00 -0.00000000000E+00 -0.74505805969E-08  0.93827000000E+00  0.93827000000E+00 0. -1.
     999902    2    1    2    0    0 -0.22018088847E-01  0.80917563864E-02  0.10213219910E-02  0.10204498838E+01  0.10201797143E+01 0.  0.
     999903    2    3    3    0    0  0.33204458569E-01 -0.12116781041E+00  0.21526837186E-01  0.12905881278E+00  0.20213809370E-01 0.  0.
         14    1    1    2    0    0  0.22018088847E-01 -0.80917563864E-02 -0.10213219910E-02  0.23480116194E-01  0.00000000000E+00 0.  1.
     999901    1    3    3    0    0 -0.55222547416E-01  0.12925956679E+00 -0.20505515195E-01  0.89139107103E+00  0.88000000000E+00 0. -1.
        -11    1    4    4    0    0  0.25207541797E-01 -0.95142708589E-01  0.82729284581E-02  0.98773769936E-01  0.51100000000E-03 0. -1.
         11    1    4    4    0    0  0.79969167722E-02 -0.26025101818E-01  0.13253908728E-01  0.30285042844E-01  0.51100000000E-03 0.  1.
</event>
<event>
 8    1  0.1129602E+005  0.1043930E+01  0.7957747E-01            NaN
         13   -1    0    0    0    0  0.00000000000E+00  0.00000000000E+00  0.74505805969E-08  0.10566000000E+00  0.10566000000E+00 0.  1.
     999900   -1    0    0    0    0 -0.00000000000E+00 -0.00000000000E+00 -0.74505805969E-08  0.93827000000E+00  0.93827000000E+00 0.  1.
     999902    2    1    2    0    0  0.80809619892E-02  0.15987358618E-01 -0.15354788083E-01  0.10203362063E+01  0.10200633837E+01 0.  0.
     999903    2    3    3    0    0 -0.39648902745E-01  0.10923470580E+00 -0.61297360908E-01  0.13293329461E+00  0.20239513850E-01 0.  0.
         14    1    1    2    0    0 -0.80809619892E-02 -0.15987358618E-01  0.15354788083E-01  0.23593793661E-01  0.00000000000E+00 0.  1.
     999901    1    3    3    0    0  0.47729864734E-01 -0.93247347187E-01  0.45942572825E-01  0.88740291173E+00  0.88000000000E+00 0.  1.
        -11    1    4    4    0    0 -0.11016331000E-01  0.25976518048E-01 -0.24992411925E-01  0.37696429718E-01  0.51100000000E-03 0.  1.
         11    1    4    4    0    0 -0.28632571745E-01  0.83258187756E-01 -0.36304948983E-01  0.95236864894E-01  0.51100000000E-03 0. -1.
</event>
<event>
 8    1  0.1129602E+005  0.1043930E+01  0.7957747E-01            NaN
         13   -1    0    0    0    0  0.00000000000E+00  0.00000000000E+00  0.74505805969E-08  0.10566000000E+00  0.10566000000E+00 0. -1.
     999900   -1    0    0    0    0 -0.00000000000E+00 -0.00000000000E+00 -0.74505805969E-08  0.93827000000E+00  0.93827000000E+00 0. -1.
     999902    2    1    2    0    0  0.17880231895E-01  0.77636296171E-02 -0.10798711547E-01  0.10216457273E+01  0.10214026647E+01 0.  0.
     999903    2    3    3    0    0 -0.85388706779E-01  0.96869182216E-01  0.78836869582E-02  0.13094190157E+00  0.20217798079E-01 0.  0.
         14    1    1    2    0    0 -0.17880231895E-01 -0.77636296171E-02  0.10798711547E-01  0.22284272672E-01  0.00000000000E+00 0. -1.
     999901    1    3    3    0    0  0.10326893867E+00 -0.89105552599E-01 -0.18682398505E-01  0.89070382575E+00  0.88000000000E+00 0. -1.
        -11    1    4    4    0    0 -0.64705915251E-01  0.64468956889E-01 -0.15649253154E-02  0.91355415730E-01  0.51100000000E-03 0. -1.
         11    1    4    4    0    0 -0.20682791527E-01  0.32400225327E-01  0.94486122736E-02  0.39586485844E-01  0.51100000000E-03 0.  1.
</event>
<event>
 8    1  0.1129602E+005  0.1043930E+01  0.7957747E-01            NaN
         13   -1    0    0    0    0  0.00000000000E+00  0.00000000000E+00  0.74505805969E-08  0.10566000000E+00  0.10566000000E+00 0. -1.
     999900   -1    0    0    0    0 -0.00000000000E+00 -0.00000000000E+00 -0.74505805969E-08  0.93827000000E+00  0.93827000000E+00 0.  1.
     999902    2    1    2    0    0  0.12374383477E-01  0.18330081257E-01  0.70107266388E-02  0.10207294066E+01  0.10204657045E+01 0.  0.
     999903    2    3    3    0    0  0.46772405909E-01 -0.35203268549E-01 -0.11443000751E+00  0.13011338644E+00  0.20207390751E-01 0.  0.
         14    1    1    2    0    0 -0.12374383477E-01 -0.18330081257E-01 -0.70107266388E-02  0.23200593383E-01  0.00000000000E+00 0.  1.
     999901    1    3    3    0    0 -0.34398022432E-01  0.53533349806E-01  0.12144073415E+00  0.89061602018E+00  0.88000000000E+00 0. -1.
        -11    1    4    4    0    0  0.36549286348E-01 -0.36419277319E-01 -0.96655710131E-01  0.10956642513E+00  0.51100000000E-03 0. -1.
         11    1    4    4    0    0  0.10223119562E-01  0.12160087703E-02 -0.17774297378E-01  0.20546961312E-01  0.51100000000E-03 0.  1.
</event>
<event>
 8    1  0.1129602E+005  0.1043930E+01  0.7957747E-01            NaN
         13   -1    0    0    0    0  0.00000000000E+00  0.00000000000E+00  0.74505805969E-08  0.10566000000E+00  0.10566000000E+00 0.  1.
     999900   -1    0    0    0    0 -0.00000000000E+00 -0.00000000000E+00 -0.74505805969E-08  0.93827000000E+00  0.93827000000E+00 0.  1.
     999902    2    1    2    0    0 -0.26818965678E-01 -0.22276948356E-01  0.21335167707E-02  0.10090004818E+01  0.10083957066E+01 0.  0.
     999903    2    3    3    0    0  0.35491733065E-01 -0.93398931774E-01  0.61954276792E-01  0.12191565889E+00  0.32281138411E-01 0.  0.
         14    1    1    2    0    0  0.26818965678E-01  0.22276948356E-01 -0.21335167707E-02  0.34929518203E-01  0.00000000000E+00 0.  1.
     999901    1    3    3    0    0 -0.62310698743E-01  0.71121983418E-01 -0.59820760021E-01  0.88708482291E+00  0.88000000000E+00 0.  1.
        -11    1    4    4    0    0  0.24591246730E-02 -0.46242815176E-01  0.36487436163E-01  0.58957945761E-01  0.51100000000E-03 0.  1.
         11    1    4    4    0    0  0.33032608392E-01 -0.47156116598E-01  0.25466840629E-01  0.62957713129E-01  0.51100000000E-03 0. -1.
</event>
<event>
 8    1  0.1129602E+005  0.1043930E+01  0.7957747E-01            NaN
         13   -1    0    0    0    0  0.00000000000E+00  0.00000000000E+00  0.74505805969E-08  0.10566000000E+00  0.10566000000E+00 0. -1.
     999900   -1    0    0    0    0 -0.00000000000E+00 -0.00000000000E+00 -0.74505805969E-08  0.93827000000E+00  0.93827000000E+00 0.  1.
     999902    2    1    2    0    0 -0.20836933925E-01  0.11789535181E-02  0.63212448801E-02  0.10221234440E+01  0.10218908009E+01 0.  0.
     999903    2    3    3    0    0  0.96555824276E-01  0.84930853688E-01  0.35447063525E-02  0.13038180564E+00  0.21226709323E-01 0.  0.
         14    1    1    2    0    0  0.20836933925E-01 -0.11789535181E-02 -0.63212448801E-02  0.21806555978E-01  0.00000000000E+00 0.  1.
     999901    1    3    3    0    0 -0.11739275820E+00 -0.83751900170E-01  0.27765385275E-02  0.89174163838E+00  0.88000000000E+00 0. -1.
        -11    1    4    4    0    0  0.57049377875E-01  0.38842575641E-01  0.81670674293E-02  0.69500642513E-01  0.51100000000E-03 0.  1.
         11    1    4    4    0    0  0.39506446401E-01  0.46088278047E-01 -0.46223610767E-02  0.60881163126E-01  0.51100000000E-03 0. -1.
</event>
<event>
 8    1  0.1129602E+005  0.1043930E+01  0.7957747E-01            NaN
         13   -1    0    0    0    0  0.00000000000E+00  0.00000000000E+00  0.74505805969E-08  0.10566000000E+00  0.10566000000E+00 0. -1.
     999900   -1    0    0    0    0 -0.00000000000E+00 -0.00000000000E+00 -0.74505805969E-08  0.93827000000E+00  0.93827000000E+00 0.  1.
     999902    2    1    2    0    0 -0.19447096979E-01 -0.56284351115E-03  0.15496199711E-01  0.10190575538E+01  0.10187539739E+01 0.  0.
     999903    2    3    3    0    0 -0.84120591339E-01  0.51365762107E-01  0.85933461885E-01  0.13235543424E+00  0.20461810710E-01 0.  0.
         14    1    1    2    0    0  0.19447096979E-01  0.56284351115E-03 -0.15496199711E-01  0.24872446184E-01  0.00000000000E+00 0.  1.
     999901    1    3    3    0    0  0.64673494360E-01 -0.51928605618E-01 -0.70437262175E-01  0.88670211957E+00  0.88000000000E+00 0. -1.
        -11    1    4    4    0    0 -0.11106685094E-01  0.15156785407E-01  0.20713937780E-01  0.27971680983E-01  0.51100000000E-03 0.  1.
         11    1    4    4    0    0 -0.73013906245E-01  0.36208976700E-01  0.65219524105E-01  0.10438375326E+00  0.51100000000E-03 0. -1.
</event>
<event>
 8    1  0.1129602E+005  0.1043930E+01  0.7957747E-01            NaN
         13   -1    0    0    0    0  0.00000000000E+00  0.00000000000E+00  0.74505805969E-08  0.10566000000E+00  0.10566000000E+00 0.  1.
     999900   -1    0    0    0    0 -0.00000000000E+00 -0.00000000000E+00 -0.74505805969E-08  0.93827000000E+00  0.93827000000E+00 0.  1.
     999902    2    1    2    0    0 -0.41092441505E-02  0.16209452854E-01 -0.16232017533E-01  0.10206252657E+01  0.10203591634E+01 0.  0.
     999903    2    3    3    0    0 -0.28374797219E-01 -0.11430468144E+00  0.47563489864E-01  0.12838503844E+00  0.18701422708E-01 0.  0.
         14    1    1    2    0    0  0.41092441505E-02 -0.16209452854E-01  0.16232017533E-01  0.23304734337E-01  0.00000000000E+00 0.  1.
     999901    1    3    3    0    0  0.24265553069E-01  0.13051413429E+00 -0.63795507397E-01  0.89224022723E+00  0.88000000000E+00 0. -1.
        -11    1    4    4    0    0 -0.22576744780E-01 -0.10908155926E+00  0.43667349785E-01  0.11964779369E+00  0.51100000000E-03 0. -1.
         11    1    4    4    0    0 -0.57980524392E-02 -0.52231221746E-02  0.38961400791E-02  0.87372447519E-02  0.51100000000E-03 0.  1.
</event>
<event>
 8    1  0.1129602E+005  0.1043930E+01  0.7957747E-01            NaN
         13   -1    0    0    0    0  0.00000000000E+00  0.00000000000E+00  0.74505805969E-08  0.10566000000E+00  0.10566000000E+00 0.  1.
     999900   -1    0    0    0    0 -0.00000000000E+00 -0.00000000000E+00 -0.74505805969E-08  0.93827000000E+00  0.93827000000E+00 0. -1.
     999902    2    1    2    0    0  0.10792894473E-01  0.16080481524E-01  0.87366949240E-02  0.10226838640E+01  0.10224631472E+01 0.  0.
     999903    2    3    3    0    0 -0.90819371805E-01 -0.56879681896E-01 -0.71500546612E-01  0.13022307884E+00  0.19033275828E-01 0.  0.
         14    1    1    2    0    0 -0.10792894473E-01 -0.16080481524E-01 -0.87366949240E-02  0.21246136010E-01  0.00000000000E+00 0.  1.
     999901    1    3    3    0    0  0.10161226628E+00  0.72960163420E-01  0.80237241536E-01  0.89246078515E+00  0.88000000000E+00 0.  1.
        -11    1    4    4    0    0 -0.48399391007E-01 -0.19454325831E-01 -0.31505233604E-01  0.60941059302E-01  0.51100000000E-03 0. -1.
         11    1    4    4    0    0 -0.42419980798E-01 -0.37425356065E-01 -0.39995313008E-01  0.69282019537E-01  0.51100000000E-03 0.  1.
</event>
<event>
 8    1  0.1129602E+005  0.1043930E+01  0.7957747E-01            NaN
         13   -1    0    0    0    0  0.00000000000E+00  0.00000000000E+00  0.74505805969E-08  0.10566000000E+00  0.10566000000E+00 0. -1.
     999900   -1    0    0    0    0 -0.00000000000E+00 -0.00000000000E+00 -0.74505805969E-08  0.93827000000E+00  0.93827000000E+00 0. -1.
     999902    2    1    2    0    0  0.72134560139E-02  0.20826012513E-01  0.15680037228E-02  0.10218344036E+01  0.10215954840E+01 0.  0.
     999903    2    3    3    0    0  0.99045484884E-01 -0.58636819697E-01  0.60436670643E-01  0.13154625744E+00  0.20088354568E-01 0.  0.
         14    1    1    2    0    0 -0.72134560139E-02 -0.20826012513E-01 -0.15680037228E-02  0.22095596406E-01  0.00000000000E+00 0.  1.
     999901    1    3    3    0    0 -0.91832028870E-01  0.79462832210E-01 -0.58868666920E-01  0.89028814615E+00  0.88000000000E+00 0. -1.
        -11    1    4    4    0    0  0.26520923562E-01 -0.26370896767E-01  0.17444337270E-01  0.41271656214E-01  0.51100000000E-03 0. -1.
         11    1    4    4    0    0  0.72524561322E-01 -0.32265922929E-01  0.42992333373E-01  0.90274601230E-01  0.51100000000E-03 0.  1.
</event>
<event>
 8    1  0.1129602E+005  0.1043930E+01  0.7957747E-01            NaN
         13   -1    0    0    0    0  0.00000000000E+00  0.00000000000E+00  0.74505805969E-08  0.10566000000E+00  0.10566000000E+00 0.  1.
     999900   -1    0    0    0    0 -0.00000000000E+00 -0.00000000000E+00 -0.74505805969E-08  0.93827000000E+00  0.93827000000E+00 0.  1.
     999902    2    1    2    0    0  0.33670423383E-02  0.19411888041E-01  0.13034419669E-01  0.10203068235E+01  0.10200333130E+01 0.  0.
     999903    2    3    3    0    0  0.12471015480E+00  0.28904454621E-01 -0.20559462743E-01  0.13129455773E+00  0.20675569518E-01 0.  0.
         14    1    1    2    0    0 -0.33670423383E-02 -0.19411888041E-01 -0.13034419669E-01  0.23623176491E-01  0.00000000000E+00 0. -1.
     999901    1    3    3    0    0 -0.12134311246E+00 -0.94925665800E-02  0.33593882412E-01  0.88901226577E+00  0.88000000000E+00 0.  1.
        -11    1    4    4    0    0  0.10765008110E+00  0.17548079126E-01 -0.15393189218E-01  0.11015301375E+00  0.51100000000E-03 0. -1.
         11    1    4    4    0    0  0.17060073697E-01  0.11356375495E-01 -0.51662735251E-02  0.21141543985E-01  0.51100000000E-03 0.  1.
</event>
<event>
 8    1  0.1129602E+005  0.1043930E+01  0.7957747E-01            NaN
         13   -1    0    0    0    0  0.00000000000E+00  0.00000000000E+00  0.74505805969E-08  0.10566000000E+00  0.10566000000E+00 0. -1.
     999900   -1    0    0    0    0 -0.00000000000E+00 -0.00000000000E+00 -0.74505805969E-08  0.93827000000E+00  0.93827000000E+00 0.  1.
     999902    2    1    2    0    0 -0.21039489292E-01  0.83010301243E-02  0.31410797608E-02  0.10210950795E+01  0.10208397170E+01 0.  0.
     999903    2    3    3    0    0  0.16571746102E-01 -0.11840202430E+00 -0.46628676825E-01  0.12983456896E+00  0.19726116379E-01 0.  0.
         14    1    1    2    0    0  0.21039489292E-01 -0.83010301243E-02 -0.31410797608E-02  0.22834920470E-01  0.00000000000E+00 0. -1.
     999901    1    3    3    0    0 -0.37611235394E-01  0.12670305443E+00  0.49769756585E-01  0.89126051057E+00  0.88000000000E+00 0. -1.
        -11    1    4    4    0    0  0.17331895550E-01 -0.53982010531E-01 -0.23643011590E-01  0.61430490657E-01  0.51100000000E-03 0. -1.
         11    1    4    4    0    0 -0.76014944809E-03 -0.64420013771E-01 -0.22985665235E-01  0.68404078305E-01  0.51100000000E-03 0.  1.
</event>
<event>
 8    1  0.1129602E+005  0.1043930E+01  0.7957747E-01            NaN
         13   -1    0    0    0    0  0.00000000000E+00  0.00000000000E+00  0.74505805969E-08  0.10566000000E+00  0.10566000000E+00 0.  1.
     999900   -1    0    0    0    0 -0.00000000000E+00 -0.00000000000E+00 -0.74505805969E-08  0.93827000000E+00  0.93827000000E+00 0. -1.
     999902    2    1    2    0    0 -0.21148251763E-01 -0.89671689777E-02 -0.55115533340E-02  0.10203072167E+01  0.10200337154E+01 0.  0.
     999903    2    3    3    0    0 -0.39630447518E-01 -0.80892639468E-01  0.93962251655E-01  0.13159471943E+00  0.19340991602E-01 0.  0.
         14    1    1    2    0    0  0.21148251763E-01  0.89671689777E-02  0.55115533340E-02  0.23622783330E-01  0.00000000000E+00 0.  1.
     999901    1    3    3    0    0  0.18482195754E-01  0.71925470491E-01 -0.99473804989E-01  0.88871249724E+00  0.88000000000E+00 0. -1.
        -11    1    4    4    0    0 -0.13074832336E-01 -0.47584218419E-01  0.46321507268E-01  0.67684209678E-01  0.51100000000E-03 0. -1.
         11    1    4    4    0    0 -0.26555615181E-01 -0.33308421049E-01  0.47640744386E-01  0.63910509755E-01  0.51100000000E-03 0.  1.
</event>
<event>
 8    1  0.1129602E+005  0.1043930E+01  0.7957747E-01            NaN
         13   -1    0    0    0    0  0.00000000000E+00  0.00000000000E+00  0.74505805969E-08  0.10566000000E+00  0.10566000000E+00 0. -1.
     999900   -1    0    0    0    0 -0.00000000000E+00 -0.00000000000E+00 -0.74505805969E-08  0.93827000000E+00  0.93827000000E+00 0. -1.
     999902    2    1    2    0    0  0.38307746650E-02 -0.20064390925E-01  0.10063076413E-01  0.10211589630E+01  0.10209050434E+01 0.  0.
     999903    2    3    3    0    0 -0.10481228547E+00 -0.59249896328E-01  0.51935207205E-01  0.13262528686E+00  0.19900642405E-01 0.  0.
         14    1    1    2    0    0 -0.38307746650E-02  0.20064390925E-01 -0.10063076413E-01  0.22771036969E-01  0.00000000000E+00 0.  1.
     999901    1    3    3    0    0  0.10864306013E+00  0.39185505403E-01 -0.41872130792E-01  0.88853367617E+00  0.88000000000E+00 0. -1.
        -11    1    4    4    0    0 -0.41591679031E-02 -0.39881439852E-02  0.75668488688E-02  0.95248250848E-02  0.51100000000E-03 0. -1.
         11    1    4    4    0    0 -0.10065311756E+00 -0.55261752343E-01  0.44368358336E-01  0.12310046178E+00  0.51100000000E-03 0.  1.
</event>
<event>
 8    1  0.1129602E+005  0.1043930E+01  0.7957747E-01            NaN
         13   -1    0    0    0    0  0.00000000000E+00  0.00000000000E+00  0.74505805969E-08  0.10566000000E+00  0.10566000000E+00 0. -1.
     999900   -1    0    0    0    0 -0.00000000000E+00 -0.00000000000E+00 -0.74505805969E-08  0.93827000000E+00  0.93827000000E+00 0.  1.
     999902    2    1    2    0    0  0.27884921885E-02 -0.27187374303E-01 -0.18125225195E-02  0.10165399608E+01  0.10161708900E+01 0.  0.
     999903    2    3    3    0    0 -0.10741160103E+00 -0.30720653940E-01 -0.58257724179E-01  0.12786532663E+00  0.21784598030E-01 0.  0.
         14    1    1    2    0    0 -0.27884921885E-02  0.27187374303E-01  0.18125225195E-02  0.27390039213E-01  0.00000000000E+00 0. -1.
     999901    1    3    3    0    0  0.11020009322E+00  0.35332796368E-02  0.56445201660E-01  0.88867463416E+00  0.88000000000E+00 0. -1.
        -11    1    4    4    0    0 -0.15484865108E-01  0.31931556034E-02 -0.72902754955E-02  0.17417994371E-01  0.51100000000E-03 0.  1.
         11    1    4    4    0    0 -0.91926735927E-01 -0.33913809543E-01 -0.50967448684E-01  0.11044733225E+00  0.51100000000E-03 0. -1.
</event>
<event>
 8    1  0.1153369E+005  0.1043930E+01  0.7957747E-01            NaN
         13   -1    0    0    0    0  0.00000000000E+00  0.00000000000E+00  0.74505805969E-08  0.10566000000E+00  0.10566000000E+00 0.  1.
     999900   -1    0    0    0    0 -0.00000000000E+00 -0.00000000000E+00 -0.74505805969E-08  0.93827000000E+00  0.93827000000E+00 0. -1.
     999902    2    1    2    0    0  0.78510841171E-02  0.20393090296E-01 -0.18956362266E-02  0.10219957553E+01  0.10217603500E+01 0.  0.
     999903    2    3    3    0    0 -0.44282793543E-01 -0.11314199522E+00 -0.40394248302E-01  0.12956553204E+00  0.19835697894E-01 0.  0.
         14    1    1    2    0    0 -0.78510841171E-02 -0.20393090296E-01  0.18956362266E-02  0.21934244695E-01  0.00000000000E+00 0. -1.
     999901    1    3    3    0    0  0.52133877660E-01  0.13353508552E+00  0.38498612075E-01  0.89243022326E+00  0.88000000000E+00 0. -1.
        -11    1    4    4    0    0 -0.17852923089E-01 -0.53158445945E-01 -0.86797293892E-02  0.56746330819E-01  0.51100000000E-03 0. -1.
         11    1    4    4    0    0 -0.26429870453E-01 -0.59983549275E-01 -0.31714518913E-01  0.72819201223E-01  0.51100000000E-03 0.  1.
</event>
<event>
 8    1  0.1129602E+005  0.1043930E+01  0.7957747E-01            NaN
         13   -1    0    0    0    0  0.00000000000E+00  0.00000000000E+00  0.74505805969E-08  0.10566000000E+00  0.10566000000E+00 0. -1.
     999900   -1    0    0    0    0 -0.00000000000E+00 -0.00000000000E+00 -0.74505805969E-08  0.93827000000E+00  0.93827000000E+00 0.  1.
     999902    2    1    2    0    0 -0.22158977099E-01  0.25382885830E-01  0.64400976301E-02  0.10096256852E+01  0.10090427335E+01 0.  0.
     999903    2    3    3    0    0 -0.85541115162E-01 -0.81191183615E-01  0.15285482429E-01  0.12088862138E+00  0.21705347872E-01 0.  0.
         14    1    1    2    0    0  0.22158977099E-01 -0.25382885830E-01 -0.64400976301E-02  0.34304314840E-01  0.00000000000E+00 0.  1.
     999901    1    3    3    0    0  0.63382138062E-01  0.10657406945E+00 -0.88453847985E-02  0.88873706378E+00  0.88000000000E+00 0.  1.
        -11    1    4    4    0    0 -0.70412331176E-01 -0.62081793684E-01  0.38278624178E-02  0.93951898014E-01  0.51100000000E-03 0. -1.
         11    1    4    4    0    0 -0.15128783985E-01 -0.19109389931E-01  0.11457620011E-01  0.26936723367E-01  0.51100000000E-03 0.  1.
</event>
<event>
 8    1  0.1129602E+005  0.1043930E+01  0.7957747E-01            NaN
         13   -1    0    0    0    0  0.00000000000E+00  0.00000000000E+00  0.74505805969E-08  0.10566000000E+00  0.10566000000E+00 0. -1.
     999900   -1    0    0    0    0 -0.00000000000E+00 -0.00000000000E+00 -0.74505805969E-08  0.93827000000E+00  0.93827000000E+00 0. -1.
     999902    2    1    2    0    0 -0.13126509196E-01  0.13991583317E-01 -0.93066772170E-02  0.10226066821E+01  0.10223843418E+01 0.  0.
     999903    2    3    3    0    0 -0.93375517208E-01  0.66919017670E-01 -0.68764889552E-01  0.13537700739E+00  0.20029527064E-01 0.  0.
         14    1    1    2    0    0  0.13126509196E-01 -0.13991583317E-01  0.93066772170E-02  0.21323317946E-01  0.00000000000E+00 0.  1.
     999901    1    3    3    0    0  0.80249008013E-01 -0.52927434353E-01  0.59458212335E-01  0.88722967467E+00  0.88000000000E+00 0.  1.
        -11    1    4    4    0    0 -0.48721458194E-01  0.37033061312E-01 -0.47965970037E-01  0.77757466016E-01  0.51100000000E-03 0.  1.
         11    1    4    4    0    0 -0.44654059014E-01  0.29885956359E-01 -0.20798919515E-01  0.57619541372E-01  0.51100000000E-03 0. -1.
</event>
<event>
 8    1  0.1129602E+005  0.1043930E+01  0.7957747E-01            NaN
         13   -1    0    0    0    0  0.00000000000E+00  0.00000000000E+00  0.74505805969E-08  0.10566000000E+00  0.10566000000E+00 0. -1.
     999900   -1    0    0    0    0 -0.00000000000E+00 -0.00000000000E+00 -0.74505805969E-08  0.93827000000E+00  0.93827000000E+00 0. -1.
     999902    2    1    2    0    0  0.26160482843E-02  0.24906517422E-01  0.56580307314E-02  0.10182552725E+01  0.10179315342E+01 0.  0.
     999903    2    3    3    0    0 -0.32518132522E-01  0.29075104380E-01  0.12081329213E+00  0.13004779564E+00  0.20341754059E-01 0.  0.
         14    1    1    2    0    0 -0.26160482843E-02 -0.24906517422E-01 -0.56580307314E-02  0.25674727466E-01  0.00000000000E+00 0.  1.
     999901    1    3    3    0    0  0.35134180807E-01 -0.41685869581E-02 -0.11515526140E+00  0.88820747689E+00  0.88000000000E+00 0. -1.
        -11    1    4    4    0    0 -0.43029782055E-02  0.14495865469E-01  0.53816573930E-01  0.55902866542E-01  0.51100000000E-03 0.  1.
         11    1    4    4    0    0 -0.28215154317E-01  0.14579238911E-01  0.66996718202E-01  0.74144929100E-01  0.51100000000E-03 0. -1.
</event>
<event>
 8    1  0.1129602E+005  0.1043930E+01  0.7957747E-01            NaN
         13   -1    0    0    0    0  0.00000000000E+00  0.00000000000E+00  0.74505805969E-08  0.10566000000E+00  0.10566000000E+00 0. -1.
     999900   -1    0    0    0    0 -0.00000000000E+00 -0.00000000000E+00 -0.74505805969E-08  0.93827000000E+00  0.93827000000E+00 0.  1.
     999902    2    1    2    0    0 -0.20710169316E-01 -0.23099520889E-01 -0.37905743448E-02  0.10126751215E+01  0.10121926863E+01 0.  0.
     999903    2    3    3    0    0  0.19855504683E-01  0.55292331058E-01 -0.10540058402E+00  0.12244175295E+00  0.20765760597E-01 0.  0.
         14    1    1    2    0    0  0.20710169316E-01  0.23099520889E-01  0.37905743448E-02  0.31254878535E-01  0.00000000000E+00 0.  1.
     999901    1    3    3    0    0 -0.40565673999E-01 -0.78391851947E-01  0.10161000967E+00  0.89023336852E+00  0.88000000000E+00 0.  1.
        -11    1    4    4    0    0  0.12285415557E-01  0.46113352350E-01 -0.67161270463E-01  0.82390958676E-01  0.51100000000E-03 0. -1.
         11    1    4    4    0    0  0.75700891259E-02  0.91789787074E-02 -0.38239313555E-01  0.40050794270E-01  0.51100000000E-03 0.  1.
</event>
<event>
 8    1  0.1129602E+005  0.1043930E+01  0.7957747E-01            NaN
         13   -1    0    0    0    0  0.00000000000E+00  0.00000000000E+00  0.74505805969E-08  0.10566000000E+00  0.10566000000E+00 0. -1.
     999900   -1    0    0    0    0 -0.00000000000E+00 -0.00000000000E+00 -0.74505805969E-08  0.93827000000E+00  0.93827000000E+00 0. -1.
     999902    2    1    2    0    0 -0.21298403708E-01 -0.98218685930E-02  0.54542744782E-02  0.10198501285E+01  0.10195658117E+01 0.  0.
     999903    2    3    3    0    0 -0.27250720579E-01 -0.10600835983E+00  0.71133662441E-01  0.13215589441E+00  0.20610879842E-01 0.  0.
         14    1    1    2    0    0  0.21298403708E-01  0.98218685930E-02 -0.54542744782E-02  0.24079871537E-01  0.00000000000E+00 0. -1.
     999901    1    3    3    0    0  0.59523168710E-02  0.96186491239E-01 -0.65679387963E-01  0.88769423406E+00  0.88000000000E+00 0.  1.
        -11    1    4    4    0    0 -0.87731328762E-02 -0.64682773748E-01  0.49829972480E-01  0.82122569118E-01  0.51100000000E-03 0. -1.
         11    1    4    4    0    0 -0.18477587702E-01 -0.41325586085E-01  0.21303689961E-01  0.50033325289E-01  0.51100000000E-03 0.  1.
</event>
<event>
 8    1  0.1129602E+005  0.1043930E+01  0.7957747E-01            NaN
         13   -1    0    0    0    0  0.00000000000E+00  0.00000000000E+00  0.74505805969E-08  0.10566000000E+00  0.10566000000E+00 0. -1.
     999900   -1    0    0    0    0 -0.00000000000E+00 -0.00000000000E+00 -0.74505805969E-08  0.93827000000E+00  0.93827000000E+00 0. -1.
     999902    2    1    2    0    0  0.20837882619E-01 -0.98581898440E-02  0.14876323359E-02  0.10208299067E+01  0.10205685103E+01 0.  0.
     999903    2    3    3    0    0  0.63906900398E-01 -0.67818501655E-01  0.92863576135E-01  0.13315659907E+00  0.20581424073E-01 0.  0.
         14    1    1    2    0    0 -0.20837882619E-01  0.98581898440E-02 -0.14876323359E-02  0.23100093269E-01  0.00000000000E+00 0. -1.
     999901    1    3    3    0    0 -0.43069017778E-01  0.57960311811E-01 -0.91375943799E-01  0.88767330767E+00  0.88000000000E+00 0. -1.
        -11    1    4    4    0    0  0.49478561772E-01 -0.38325268060E-01  0.61604631308E-01  0.87819963371E-01  0.51100000000E-03 0. -1.
         11    1    4    4    0    0  0.14428338626E-01 -0.29493233594E-01  0.31258944827E-01  0.45336635694E-01  0.51100000000E-03 0.  1.
</event>
<event>
 8    1  0.1129602E+005  0.1043930E+01  0.7957747E-01            NaN
         13   -1    0    0    0    0  0.00000000000E+00  0.00000000000E+00  0.74505805969E-08  0.10566000000E+00  0.10566000000E+00 0.  1.
     999900   -1    0    0    0    0 -0.00000000000E+00 -0.00000000000E+00 -0.74505805969E-08  0.93827000000E+00  0.93827000000E+00 0. -1.
     999902    2    1    2    0    0 -0.82143440476E-02  0.12802754918E-01  0.19670312827E-01  0.10190642165E+01  0.10187608013E+01 0.  0.
     999903    2    3    3    0    0  0.55247357055E-02 -0.10732216202E+00  0.69669220627E-01  0.12939087828E+00  0.18429050852E-01 0.  0.
         14    1    1    2    0    0  0.82143440476E-02 -0.12802754918E-01 -0.19670312827E-01  0.24865783485E-01  0.00000000000E+00 0. -1.
     999901    1    3    3    0    0 -0.13739079753E-01  0.12012491693E+00 -0.49998907800E-01  0.88967333823E+00  0.88000000000E+00 0. -1.
        -11    1    4    4    0    0  0.56139186560E-02 -0.23466636745E-01  0.23400286280E-01  0.33615973015E-01  0.51100000000E-03 0.  1.
         11    1    4    4    0    0 -0.89182950454E-04 -0.83855525272E-01  0.46268934347E-01  0.95774905267E-01  0.51100000000E-03 0. -1.
</event>
<event>
 8    1  0.1129602E+005  0.1043930E+01  0.7957747E-01            NaN
         13   -1    0    0    0    0  0.00000000000E+00  0.00000000000E+00  0.74505805969E-08  0.10566000000E+00  0.10566000000E+00 0. -1.
     999900   -1    0    0    0    0 -0.00000000000E+00 -0.00000000000E+00 -0.74505805969E-08  0.93827000000E+00  0.93827000000E+00 0.  1.
     999902    2    1    2    0    0 -0.19520017430E-01  0.48432134149E-02  0.10558131465E-01  0.10212152045E+01  0.10209625517E+01 0.  0.
     999903    2    3    3    0    0  0.58551005103E-01  0.72616359560E-02 -0.11264415214E+00  0.12920638386E+00  0.22904869906E-01 0.  0.
         14    1    1    2    0    0  0.19520017430E-01 -0.48432134149E-02 -0.10558131465E-01  0.22714795546E-01  0.00000000000E+00 0.  1.
     999901    1    3    3    0    0 -0.78071022533E-01 -0.24184225411E-02  0.12320228360E+00  0.89200882059E+00  0.88000000000E+00 0. -1.
        -11    1    4    4    0    0  0.24963689972E-01  0.14231176846E-01 -0.57024727538E-01  0.63857598477E-01  0.51100000000E-03 0.  1.
         11    1    4    4    0    0  0.33587315132E-01 -0.69695408905E-02 -0.55619424598E-01  0.65348785387E-01  0.51100000000E-03 0. -1.
</event>
<event>
 8    1  0.1129602E+005  0.1043930E+01  0.7957747E-01            NaN
         13   -1    0    0    0    0  0.00000000000E+00  0.00000000000E+00  0.74505805969E-08  0.10566000000E+00  0.10566000000E+00 0. -1.
     999900   -1    0    0    0    0 -0.00000000000E+00 -0.00000000000E+00 -0.74505805969E-08  0.93827000000E+00  0.93827000000E+00 0.  1.
     999902    2    1    2    0    0 -0.21916638810E-01 -0.30518732672E-02  0.79604384470E-02  0.10204135894E+01  0.10201425743E+01 0.  0.
     999903    2    3    3    0    0 -0.11688654261E+00  0.57692036697E-01  0.18656689572E-01  0.13315741725E+00  0.19798756609E-01 0.  0.
         14    1    1    2    0    0  0.21916638810E-01  0.30518732672E-02 -0.79604384470E-02  0.23516410598E-01  0.00000000000E+00 0.  1.
     999901    1    3    3    0    0  0.94969903797E-01 -0.60743909965E-01 -0.10696251125E-01  0.88725617215E+00  0.88000000000E+00 0. -1.
        -11    1    4    4    0    0 -0.19049400670E-02  0.48943363058E-02  0.92721518188E-04  0.52775982050E-02  0.51100000000E-03 0. -1.
         11    1    4    4    0    0 -0.11498160254E+00  0.52797700392E-01  0.18563968053E-01  0.12787981905E+00  0.51100000000E-03 0.  1.
</event>
<event>
 8    1  0.1129602E+005  0.1043930E+01  0.7957747E-01            NaN
         13   -1    0    0    0    0  0.00000000000E+00  0.00000000000E+00  0.74505805969E-08  0.10566000000E+00  0.10566000000E+00 0.  1.
     999900   -1    0    0    0    0 -0.00000000000E+00 -0.00000000000E+00 -0.74505805969E-08  0.93827000000E+00  0.93827000000E+00 0.  1.
     999902    2    1    2    0    0 -0.29442778499E-02  0.66450022947E-02  0.23739218593E-01  0.10191030927E+01  0.10188006371E+01 0.  0.
     999903    2    3    3    0    0  0.60078259760E-02  0.12018590747E+00 -0.42703830077E-01  0.12927931461E+00  0.20218253041E-01 0.  0.
         14    1    1    2    0    0  0.29442778499E-02 -0.66450022947E-02 -0.23739218593E-01  0.24826907318E-01  0.00000000000E+00 0. -1.
     999901    1    3    3    0    0 -0.89521038259E-02 -0.11354090517E+00  0.66443048670E-01  0.88982377807E+00  0.88000000000E+00 0. -1.
        -11    1    4    4    0    0 -0.19419426971E-02  0.83390511064E-01 -0.21795390047E-01  0.86215129910E-01  0.51100000000E-03 0.  1.
         11    1    4    4    0    0  0.79497686732E-02  0.36795396401E-01 -0.20908440030E-01  0.43064184698E-01  0.51100000000E-03 0. -1.
</event>
<event>
 8    1  0.1129602E+005  0.1043930E+01  0.7957747E-01            NaN
         13   -1    0    0    0    0  0.00000000000E+00  0.00000000000E+00  0.74505805969E-08  0.10566000000E+00  0.10566000000E+00 0. -1.
     999900   -1    0    0    0    0 -0.00000000000E+00 -0.00000000000E+00 -0.74505805969E-08  0.93827000000E+00  0.93827000000E+00 0.  1.
     999902    2    1    2    0    0  0.14430789872E-01  0.17689203691E-01 -0.59692885218E-02  0.10203336437E+01  0.10200607612E+01 0.  0.
     999903    2    3    3    0    0  0.10992327191E+00 -0.29729078254E-01  0.61920922360E-01  0.13130249224E+00  0.20957100041E-01 0.  0.
         14    1    1    2    0    0 -0.14430789872E-01 -0.17689203691E-01  0.59692885218E-02  0.23596356265E-01  0.00000000000E+00 0.  1.
     999901    1    3    3    0    0 -0.95492482039E-01  0.47418281945E-01 -0.67890210882E-01  0.88903115149E+00  0.88000000000E+00 0. -1.
        -11    1    4    4    0    0  0.15276376460E-01 -0.10044901450E-01  0.15894711076E-01  0.24231605065E-01  0.51100000000E-03 0. -1.
         11    1    4    4    0    0  0.94646895451E-01 -0.19684176805E-01  0.46026211284E-01  0.10707088718E+00  0.51100000000E-03 0.  1.
</event>
<event>
 8    1  0.1129602E+005  0.1043930E+01  0.7957747E-01            NaN
         13   -1    0    0    0    0  0.00000000000E+00  0.00000000000E+00  0.74505805969E-08  0.10566000000E+00  0.10566000000E+00 0. -1.
     999900   -1    0    0    0    0 -0.00000000000E+00 -0.00000000000E+00 -0.74505805969E-08  0.93827000000E+00  0.93827000000E+00 0.  1.
     999902    2    1    2    0    0  0.14471767849E-01  0.17469276660E-01  0.78321444880E-02  0.10199310380E+01  0.10196486513E+01 0.  0.
     999903    2    3    3    0    0 -0.82486710242E-01  0.88673319285E-01 -0.43342378815E-01  0.13027391637E+00  0.20632900077E-01 0.  0.
         14    1    1    2    0    0 -0.14471767849E-01 -0.17469276660E-01 -0.78321444880E-02  0.23998962040E-01  0.00000000000E+00 0. -1.
     999901    1    3    3    0    0  0.96958478091E-01 -0.71204042625E-01  0.51174523303E-01  0.88965712159E+00  0.88000000000E+00 0.  1.
        -11    1    4    4    0    0 -0.38807835089E-01  0.54303944602E-01 -0.17653369552E-01  0.69042516185E-01  0.51100000000E-03 0. -1.
         11    1    4    4    0    0 -0.43678875153E-01  0.34369374683E-01 -0.25689009263E-01  0.61231400185E-01  0.51100000000E-03 0.  1.
</event>
<event>
 8    1  0.1129602E+005  0.1043930E+01  0.7957747E-01            NaN
         13   -1    0    0    0    0  0.00000000000E+00  0.00000000000E+00  0.74505805969E-08  0.10566000000E+00  0.10566000000E+00 0.  1.
     999900   -1    0    0    0    0 -0.00000000000E+00 -0.00000000000E+00 -0.74505805969E-08  0.93827000000E+00  0.93827000000E+00 0. -1.
     999902    2    1    2    0    0  0.16945259388E-01  0.46105202977E-03 -0.15702635346E-01  0.10208231365E+01  0.10205615850E+01 0.  0.
     999903    2    3    3    0    0 -0.51881033791E-01 -0.11732157523E+00  0.59770395784E-02  0.13004829724E+00  0.20514407899E-01 0.  0.
         14    1    1    2    0    0 -0.16945259388E-01 -0.46105202977E-03  0.15702635346E-01  0.23106863515E-01  0.00000000000E+00 0. -1.
     999901    1    3    3    0    0  0.68826293180E-01  0.11778262726E+00 -0.21679674925E-01  0.89077483924E+00  0.88000000000E+00 0. -1.
        -11    1    4    4    0    0 -0.32041726232E-01 -0.93196433953E-01  0.69225134952E-02  0.98794887700E-01  0.51100000000E-03 0.  1.
         11    1    4    4    0    0 -0.19839307559E-01 -0.24125141281E-01 -0.94547391680E-03  0.31253409545E-01  0.51100000000E-03 0. -1.
</event>
<event>
 8    1  0.1129602E+005  0.1043930E+01  0.7957747E-01            NaN
         13   -1    0    0    0    0  0.00000000000E+00  0.00000000000E+00  0.74505805969E-08  0.10566000000E+00  0.10566000000E+00 0.  1.
     999900   -1    0    0    0    0 -0.00000000000E+00 -0.00000000000E+00 -0.74505805969E-08  0.93827000000E+00  0.93827000000E+00 0.  1.
     999902    2    1    2    0    0 -0.97357133365E-02 -0.15153758599E-01 -0.14960754989E-01  0.10205153742E+01  0.10202467271E+01 0.  0.
     999903    2    3    3    0    0 -0.71204892679E-01  0.10548853060E+00 -0.18817494015E-01  0.13015146182E+00  0.19680907045E-01 0.  0.
         14    1    1    2    0    0  0.97357133365E-02  0.15153758599E-01  0.14960754989E-01  0.23414625850E-01  0.00000000000E+00 0.  1.
     999901    1    3    3    0    0  0.61469179343E-01 -0.12064228920E+00  0.38567390262E-02  0.89036391233E+00  0.88000000000E+00 0.  1.
        -11    1    4    4    0    0 -0.41909218764E-01  0.69786817677E-01 -0.34579967025E-02  0.81478840205E-01  0.51100000000E-03 0. -1.
         11    1    4    4    0    0 -0.29295673915E-01  0.35701712923E-01 -0.15359497313E-01  0.48672621610E-01  0.51100000000E-03 0.  1.
</event>
<event>
 8    1  0.1129602E+005  0.1043930E+01  0.7957747E-01            NaN
         13   -1    0    0    0    0  0.00000000000E+00  0.00000000000E+00  0.74505805969E-08  0.10566000000E+00  0.10566000000E+00 0. -1.
     999900   -1    0    0    0    0 -0.00000000000E+00 -0.00000000000E+00 -0.74505805969E-08  0.93827000000E+00  0.93827000000E+00 0.  1.
     999902    2    1    2    0    0  0.14034820372E-01 -0.13962946479E-01 -0.23823207053E-01  0.10129544411E+01  0.10124807230E+01 0.  0.
     999903    2    3    3    0    0 -0.11956421701E+00 -0.11265082139E-01 -0.16527991899E-01  0.12283691993E+00  0.19830035692E-01 0.  0.
         14    1    1    2    0    0 -0.14034820372E-01  0.13962946479E-01  0.23823207053E-01  0.30975558938E-01  0.00000000000E+00 0.  1.
     999901    1    3    3    0    0  0.13359903739E+00 -0.26978643402E-02 -0.72952151536E-02  0.89011752113E+00  0.88000000000E+00 0. -1.
        -11    1    4    4    0    0 -0.25794814073E-01 -0.69270342621E-02  0.32326185539E-02  0.26908496436E-01  0.51100000000E-03 0.  1.
         11    1    4    4    0    0 -0.93769402942E-01 -0.43380478771E-02 -0.19760610453E-01  0.95928423494E-01  0.51100000000E-03 0. -1.
</event>
<event>
 8    1  0.1129602E+005  0.1043930E+01  0.7957747E-01            NaN
         13   -1    0    0    0    0  0.00000000000E+00  0.00000000000E+00  0.74505805969E-08  0.10566000000E+00  0.10566000000E+00 0. -1.
     999900   -1    0    0    0    0 -0.00000000000E+00 -0.00000000000E+00 -0.74505805969E-08  0.93827000000E+00  0.93827000000E+00 0.  1.
     999902    2    1    2    0    0 -0.64310285095E-02  0.41111120915E-03 -0.22368119484E-01  0.10206521154E+01  0.10203866330E+01 0.  0.
     999903    2    3    3    0    0 -0.43421485129E-01 -0.64789970050E-01 -0.10645212416E+00  0.13347141529E+00  0.19984953629E-01 0.  0.
         14    1    1    2    0    0  0.64310285095E-02 -0.41111120915E-03  0.22368119484E-01  0.23277884556E-01  0.00000000000E+00 0. -1.
     999901    1    3    3    0    0  0.36990456620E-01  0.65201081259E-01  0.84084004679E-01  0.88718070015E+00  0.88000000000E+00 0. -1.
        -11    1    4    4    0    0 -0.11182251153E-01 -0.18460739664E-01 -0.45709765156E-01  0.50551809081E-01  0.51100000000E-03 0. -1.
         11    1    4    4    0    0 -0.32239233976E-01 -0.46329230385E-01 -0.60742359008E-01  0.82919606212E-01  0.51100000000E-03 0.  1.
</event>
<event>
 8    1  0.1129602E+005  0.1043930E+01  0.7957747E-01            NaN
         13   -1    0    0    0    0  0.00000000000E+00  0.00000000000E+00  0.74505805969E-08  0.10566000000E+00  0.10566000000E+00 0. -1.
     999900   -1    0    0    0    0 -0.00000000000E+00 -0.00000000000E+00 -0.74505805969E-08  0.93827000000E+00  0.93827000000E+00 0. -1.
     999902    2    1    2    0    0 -0.19844938585E-01 -0.67244873203E-02  0.10476793550E-01  0.10205034441E+01  0.10202345201E+01 0.  0.
     999903    2    3    3    0    0 -0.49088574702E-01 -0.41119626781E-01  0.11530014215E+00  0.13313308724E+00  0.18159963255E-01 0.  0.
         14    1    1    2    0    0  0.19844938585E-01  0.67244873203E-02 -0.10476793550E-01  0.23426555876E-01  0.00000000000E+00 0.  1.
     999901    1    3    3    0    0  0.29243636118E-01  0.34395139461E-01 -0.10482334860E+00  0.88737035689E+00  0.88000000000E+00 0. -1.
        -11    1    4    4    0    0 -0.11884927788E-01 -0.94661883647E-02  0.45222575851E-01  0.47709566318E-01  0.51100000000E-03 0.  1.
         11    1    4    4    0    0 -0.37203646914E-01 -0.31653438416E-01  0.70077566294E-01  0.85423520918E-01  0.51100000000E-03 0. -1.
</event>
<event>
 8    1  0.1129602E+005  0.1043930E+01  0.7957747E-01            NaN
         13   -1    0    0    0    0  0.00000000000E+00  0.00000000000E+00  0.74505805969E-08  0.10566000000E+00  0.10566000000E+00 0.  1.
     999900   -1    0    0    0    0 -0.00000000000E+00 -0.00000000000E+00 -0.74505805969E-08  0.93827000000E+00  0.93827000000E+00 0. -1.
     999902    2    1    2    0    0 -0.18391295259E-01  0.11598186291E-01 -0.89802065394E-02  0.10204055069E+01  0.10201343033E+01 0.  0.
     999903    2    3    3    0    0  0.45162542842E-01  0.91005618437E-01 -0.81174460451E-01  0.13161045688E+00  0.20256886951E-01 0.  0.
         14    1    1    2    0    0  0.18391295259E-01 -0.11598186291E-01  0.89802065394E-02  0.23524493109E-01  0.00000000000E+00 0.  1.
     999901    1    3    3    0    0 -0.63553838101E-01 -0.79407432146E-01  0.72194253911E-01  0.88879505001E+00  0.88000000000E+00 0. -1.
        -11    1    4    4    0    0  0.15694791519E-01  0.14336423537E-01 -0.13528112272E-01  0.25201794843E-01  0.51100000000E-03 0.  1.
         11    1    4    4    0    0  0.29467751323E-01  0.76669194900E-01 -0.67646348179E-01  0.10640866204E+00  0.51100000000E-03 0. -1.
</event>
<event>
 8    1  0.1129602E+005  0.1043930E+01  0.7957747E-01            NaN
         13   -1    0    0    0    0  0.00000000000E+00  0.00000000000E+00  0.74505805969E-08  0.10566000000E+00  0.10566000000E+00 0. -1.
     999900   -1    0    0    0    0 -0.00000000000E+00 -0.00000000000E+00 -0.74505805969E-08  0.93827000000E+00  0.93827000000E+00 0.  1.
     999902    2    1    2    0    0 -0.43686147107E-02 -0.22971904491E-01  0.57304556599E-02  0.10198544665E+01  0.10195702534E+01 0.  0.
     999903    2    3    3    0    0 -0.40626923155E-01  0.35059731669E-02  0.12289555279E+00  0.13095435800E+00  0.19567530495E-01 0.  0.
         14    1    1    2    0    0  0.43686147107E-02  0.22971904491E-01 -0.57304556599E-02  0.24075533483E-01  0.00000000000E+00 0.  1.
     999901    1    3    3    0    0  0.36258308444E-01 -0.26477877658E-01 -0.11716509713E+00  0.88890010852E+00  0.88000000000E+00 0.  1.
        -11    1    4    4    0    0 -0.65030165371E-02 -0.22702307473E-02  0.47421454254E-01  0.47921796881E-01  0.51100000000E-03 0.  1.
         11    1    4    4    0    0 -0.34123906618E-01  0.57762039143E-02  0.75474098540E-01  0.83032561119E-01  0.51100000000E-03 0. -1.
</event>
<event>
 8    1  0.1129602E+005  0.1043930E+01  0.7957747E-01            NaN
         13   -1    0    0    0    0  0.00000000000E+00  0.00000000000E+00  0.74505805969E-08  0.10566000000E+00  0.10566000000E+00 0. -1.
     999900   -1    0    0    0    0 -0.00000000000E+00 -0.00000000000E+00 -0.74505805969E-08  0.93827000000E+00  0.93827000000E+00 0.  1.
     999902    2    1    2    0    0 -0.19327721599E-03 -0.23489043910E-01 -0.30870434600E-02  0.10202381791E+01  0.10199630580E+01 0.  0.
     999903    2    3    3    0    0 -0.12568266577E-01 -0.85786310410E-01 -0.98983425628E-01  0.13275285197E+00  0.17559862693E-01 0.  0.
         14    1    1    2    0    0  0.19327721599E-03  0.23489043910E-01  0.30870434600E-02  0.23691820893E-01  0.00000000000E+00 0.  1.
     999901    1    3    3    0    0  0.12374989361E-01  0.62297266500E-01  0.95896382168E-01  0.88748532714E+00  0.88000000000E+00 0. -1.
        -11    1    4    4    0    0 -0.70103684230E-02 -0.15880806212E-01 -0.12437776482E-01  0.21361289198E-01  0.51100000000E-03 0. -1.
         11    1    4    4    0    0 -0.55578981543E-02 -0.69905504198E-01 -0.86545649147E-01  0.11139156277E+00  0.51100000000E-03 0.  1.
</event>
<event>
 8    1  0.1129602E+005  0.1043930E+01  0.7957747E-01            NaN
         13   -1    0    0    0    0  0.00000000000E+00  0.00000000000E+00  0.74505805969E-08  0.10566000000E+00  0.10566000000E+00 0.  1.
     999900   -1    0    0    0    0 -0.00000000000E+00 -0.00000000000E+00 -0.74505805969E-08  0.93827000000E+00  0.93827000000E+00 0.  1.
     999902    2    1    2    0    0 -0.22979181707E-01 -0.15129629313E-02  0.65584295998E-02  0.10199853796E+01  0.10197042854E+01 0.  0.
     999903    2    3    3    0    0  0.95965021242E-01 -0.54113188538E-01  0.62630231224E-01  0.12866133407E+00  0.22218698115E-01 0.  0.
         14    1    1    2    0    0  0.22979181707E-01  0.15129629313E-02 -0.65584295998E-02  0.23944620430E-01  0.00000000000E+00 0.  1.
     999901    1    3    3    0    0 -0.11894420295E+00  0.52600225606E-01 -0.56071801624E-01  0.89132404550E+00  0.88000000000E+00 0. -1.
        -11    1    4    4    0    0  0.71074622648E-01 -0.29939476100E-01  0.49030517434E-01  0.91390519062E-01  0.51100000000E-03 0. -1.
         11    1    4    4    0    0  0.24890398594E-01 -0.24173712437E-01  0.13599713790E-01  0.37270815007E-01  0.51100000000E-03 0.  1.
</event>
<event>
 8    1  0.1129602E+005  0.1043930E+01  0.7957747E-01            NaN
         13   -1    0    0    0    0  0.00000000000E+00  0.00000000000E+00  0.74505805969E-08  0.10566000000E+00  0.10566000000E+00 0. -1.
     999900   -1    0    0    0    0 -0.00000000000E+00 -0.00000000000E+00 -0.74505805969E-08  0.93827000000E+00  0.93827000000E+00 0.  1.
     999902    2    1    2    0    0 -0.12042803823E-01  0.16661155340E-01  0.12153832209E-01  0.10200482317E+01  0.10197686287E+01 0.  0.
     999903    2    3    3    0    0 -0.11356977335E+00  0.65692358323E-01  0.60241810727E-02  0.13283385113E+00  0.19873648084E-01 0.  0.
         14    1    1    2    0    0  0.12042803823E-01 -0.16661155340E-01 -0.12153832209E-01  0.23881768329E-01  0.00000000000E+00 0. -1.
     999901    1    3    3    0    0  0.10152696953E+00 -0.49031202984E-01  0.61296511362E-02  0.88721438054E+00  0.88000000000E+00 0. -1.
        -11    1    4    4    0    0 -0.74014238899E-01  0.35850821153E-01  0.11248197597E-01  0.83007059985E-01  0.51100000000E-03 0. -1.
         11    1    4    4    0    0 -0.39555534453E-01  0.29841537171E-01 -0.52240165246E-02  0.49826791149E-01  0.51100000000E-03 0.  1.
</event>
<event>
 8    1  0.1129602E+005  0.1043930E+01  0.7957747E-01            NaN
         13   -1    0    0    0    0  0.00000000000E+00  0.00000000000E+00  0.74505805969E-08  0.10566000000E+00  0.10566000000E+00 0.  1.
     999900   -1    0    0    0    0 -0.00000000000E+00 -0.00000000000E+00 -0.74505805969E-08  0.93827000000E+00  0.93827000000E+00 0.  1.
     999902    2    1    2    0    0 -0.10201877176E-01  0.20927135803E-01  0.53801349792E-02  0.10200350390E+01  0.10197551233E+01 0.  0.
     999903    2    3    3    0    0 -0.25172406350E-01 -0.40494491077E-01 -0.11824696007E+00  0.12914762092E+00  0.20574512742E-01 0.  0.
         14    1    1    2    0    0  0.10201877176E-01 -0.20927135803E-01 -0.53801349792E-02  0.23894961042E-01  0.00000000000E+00 0. -1.
     999901    1    3    3    0    0  0.14970529174E-01  0.61421626880E-01  0.12362709505E+00  0.89088741804E+00  0.88000000000E+00 0. -1.
        -11    1    4    4    0    0 -0.28779204485E-01 -0.35524087447E-01 -0.10588990562E+00  0.11533922417E+00  0.51100000000E-03 0. -1.
         11    1    4    4    0    0  0.36067981357E-02 -0.49704036302E-02 -0.12357054452E-01  0.13808396749E-01  0.51100000000E-03 0.  1.
</event>
<event>
 8    1  0.1129602E+005  0.1043930E+01  0.7957747E-01            NaN
         13   -1    0    0    0    0  0.00000000000E+00  0.00000000000E+00  0.74505805969E-08  0.10566000000E+00  0.10566000000E+00 0.  1.
     999900   -1    0    0    0    0 -0.00000000000E+00 -0.00000000000E+00 -0.74505805969E-08  0.93827000000E+00  0.93827000000E+00 0.  1.
     999902    2    1    2    0    0  0.22970489211E-01  0.26837076420E-02  0.41604183643E-02  0.10204320268E+01  0.10201614415E+01 0.  0.
     999903    2    3    3    0    0 -0.10038611250E+00 -0.53286734649E-01  0.56480901974E-01  0.12853126185E+00  0.20330895508E-01 0.  0.
         14    1    1    2    0    0 -0.22970489211E-01 -0.26837076420E-02 -0.41604183643E-02  0.23497973152E-01  0.00000000000E+00 0.  1.
     999901    1    3    3    0    0  0.12335660171E+00  0.55970442291E-01 -0.52320483610E-01  0.89190076500E+00  0.88000000000E+00 0. -1.
        -11    1    4    4    0    0 -0.42132217993E-01 -0.25991661336E-01  0.14039096963E-01  0.51459183986E-01  0.51100000000E-03 0.  1.
         11    1    4    4    0    0 -0.58253894510E-01 -0.27295073313E-01  0.42441805011E-01  0.77072077864E-01  0.51100000000E-03 0. -1.
</event>
<event>
 8    1  0.1129602E+005  0.1043930E+01  0.7957747E-01            NaN
         13   -1    0    0    0    0  0.00000000000E+00  0.00000000000E+00  0.74505805969E-08  0.10566000000E+00  0.10566000000E+00 0.  1.
     999900   -1    0    0    0    0 -0.00000000000E+00 -0.00000000000E+00 -0.74505805969E-08  0.93827000000E+00  0.93827000000E+00 0.  1.
     999902    2    1    2    0    0 -0.60013479122E-02 -0.23045000345E-01  0.96781898792E-03  0.10200967272E+01  0.10198182720E+01 0.  0.
     999903    2    3    3    0    0 -0.81365463268E-01 -0.10241807147E+00  0.15958691075E-01  0.13318942623E+00  0.19363456916E-01 0.  0.
         14    1    1    2    0    0  0.60013479122E-02  0.23045000345E-01 -0.96781898792E-03  0.23833272777E-01  0.00000000000E+00 0. -1.
     999901    1    3    3    0    0  0.75364115356E-01  0.79373071122E-01 -0.14990872087E-01  0.88690730099E+00  0.88000000000E+00 0.  1.
        -11    1    4    4    0    0 -0.38997912695E-01 -0.64420131298E-01  0.82664921317E-02  0.75758738929E-01  0.51100000000E-03 0. -1.
         11    1    4    4    0    0 -0.42367550573E-01 -0.37997940169E-01  0.76921989430E-02  0.57430687304E-01  0.51100000000E-03 0.  1.
</event>
<event>
 8    1  0.1129602E+005  0.1043930E+01  0.7957747E-01            NaN
         13   -1    0    0    0    0  0.00000000000E+00  0.00000000000E+00  0.74505805969E-08  0.10566000000E+00  0.10566000000E+00 0. -1.
     999900   -1    0    0    0    0 -0.00000000000E+00 -0.00000000000E+00 -0.74505805969E-08  0.93827000000E+00  0.93827000000E+00 0. -1.
     999902    2    1    2    0    0 -0.25363890119E-02 -0.13024214604E-01  0.20810673613E-01  0.10192490849E+01  0.10189502193E+01 0.  0.
     999903    2    3    3    0    0  0.77831394434E-01  0.85198213421E-01  0.54157330897E-01  0.12951956107E+00  0.22931172647E-01 0.  0.
         14    1    1    2    0    0  0.25363890119E-02  0.13024214604E-01 -0.20810673613E-01  0.24680915127E-01  0.00000000000E+00 0.  1.
     999901    1    3    3    0    0 -0.80367783446E-01 -0.98222428026E-01 -0.33346657284E-01  0.88972952381E+00  0.88000000000E+00 0.  1.
        -11    1    4    4    0    0  0.13863435002E-01  0.87851570087E-02  0.15649100444E-01  0.22683237852E-01  0.51100000000E-03 0.  1.
         11    1    4    4    0    0  0.63967959432E-01  0.76413056413E-01  0.38508230453E-01  0.10683632321E+00  0.51100000000E-03 0. -1.
</event>
<event>
 8    1  0.1129602E+005  0.1043930E+01  0.7957747E-01            NaN
         13   -1    0    0    0    0  0.00000000000E+00  0.00000000000E+00  0.74505805969E-08  0.10566000000E+00  0.10566000000E+00 0.  1.
     999900   -1    0    0    0    0 -0.00000000000E+00 -0.00000000000E+00 -0.74505805969E-08  0.93827000000E+00  0.93827000000E+00 0. -1.
     999902    2    1    2    0    0  0.13537249254E-01 -0.76146175133E-02  0.17799621062E-01  0.10203065788E+01  0.10200330626E+01 0.  0.
     999903    2    3    3    0    0  0.61416963632E-01  0.78722331434E-01 -0.79854920527E-01  0.12941772758E+00  0.20072144691E-01 0.  0.
         14    1    1    2    0    0 -0.13537249254E-01  0.76146175133E-02 -0.17799621062E-01  0.23623421158E-01  0.00000000000E+00 0.  1.
     999901    1    3    3    0    0 -0.47879714378E-01 -0.86336948948E-01  0.97654541589E-01  0.89088885126E+00  0.88000000000E+00 0.  1.
        -11    1    4    4    0    0  0.50142564588E-01  0.59453336228E-01 -0.51315210465E-01  0.93179868632E-01  0.51100000000E-03 0.  1.
         11    1    4    4    0    0  0.11274399044E-01  0.19268995206E-01 -0.28539710062E-01  0.36237858953E-01  0.51100000000E-03 0. -1.
</event>
<event>
 8    1  0.1129602E+005  0.1043930E+01  0.7957747E-01            NaN
         13   -1    0    0    0    0  0.00000000000E+00  0.00000000000E+00  0.74505805969E-08  0.10566000000E+00  0.10566000000E+00 0. -1.
     999900   -1    0    0    0    0 -0.00000000000E+00 -0.00000000000E+00 -0.74505805969E-08  0.93827000000E+00  0.93827000000E+00 0. -1.
     999902    2    1    2    0    0 -0.55275748622E-02  0.59174302848E-02  0.21615854133E-01  0.10208472096E+01  0.10205862090E+01 0.  0.
     999903    2    3    3    0    0 -0.65929607879E-02  0.46039485067E-01 -0.11867550216E+00  0.12883119009E+00  0.18721629458E-01 0.  0.
         14    1    1    2    0    0  0.55275748622E-02 -0.59174302848E-02 -0.21615854133E-01  0.23082790449E-01  0.00000000000E+00 0.  1.
     999901    1    3    3    0    0  0.10653859257E-02 -0.40122054782E-01  0.14029135629E+00  0.89201601946E+00  0.88000000000E+00 0.  1.
        -11    1    4    4    0    0 -0.29624490789E-02  0.33385939415E-01 -0.10320044055E+00  0.10850801401E+00  0.51100000000E-03 0. -1.
         11    1    4    4    0    0 -0.36305117090E-02  0.12653545652E-01 -0.15475061612E-01  0.20323176074E-01  0.51100000000E-03 0.  1.
</event>
<event>
 8    1  0.1129602E+005  0.1043930E+01  0.7957747E-01            NaN
         13   -1    0    0    0    0  0.00000000000E+00  0.00000000000E+00  0.74505805969E-08  0.10566000000E+00  0.10566000000E+00 0.  1.
     999900   -1    0    0    0    0 -0.00000000000E+00 -0.00000000000E+00 -0.74505805969E-08  0.93827000000E+00  0.93827000000E+00 0. -1.
     999902    2    1    2    0    0 -0.23409422716E-01  0.40063402354E-02 -0.14490360482E-02  0.10201360609E+01  0.10198585349E+01 0.  0.
     999903    2    3    3    0    0 -0.40395795522E-01 -0.88567646344E-01 -0.85690632336E-01  0.13111686738E+00  0.19305443930E-01 0.  0.
         14    1    1    2    0    0  0.23409422716E-01 -0.40063402354E-02  0.14490360482E-02  0.23793939132E-01  0.00000000000E+00 0. -1.
     999901    1    3    3    0    0  0.16986372807E-01  0.92573986580E-01  0.84241596288E-01  0.88901919349E+00  0.88000000000E+00 0.  1.
        -11    1    4    4    0    0 -0.27960784151E-01 -0.78072165619E-01 -0.70397562145E-01  0.10878026646E+00  0.51100000000E-03 0. -1.
         11    1    4    4    0    0 -0.12435011371E-01 -0.10495480725E-01 -0.15293070191E-01  0.22336600912E-01  0.51100000000E-03 0.  1.
</event>
<event>
 8    1  0.1129602E+005  0.1043930E+01  0.7957747E-01            NaN
         13   -1    0    0    0    0  0.00000000000E+00  0.00000000000E+00  0.74505805969E-08  0.10566000000E+00  0.10566000000E+00 0.  1.
     999900   -1    0    0    0    0 -0.00000000000E+00 -0.00000000000E+00 -0.74505805969E-08  0.93827000000E+00  0.93827000000E+00 0.  1.
     999902    2    1    2    0    0  0.52177167234E-02 -0.29421004946E-02  0.22870866252E-01  0.10202877276E+01  0.10200137695E+01 0.  0.
     999903    2    3    3    0    0  0.12881786192E+00 -0.10501884294E-01 -0.77442387911E-02  0.13109065667E+00  0.20505021516E-01 0.  0.
         14    1    1    2    0    0 -0.52177167234E-02  0.29421004946E-02 -0.22870866252E-01  0.23642272443E-01  0.00000000000E+00 0. -1.
     999901    1    3    3    0    0 -0.12360014520E+00  0.75597837992E-02  0.30615105043E-01  0.88919707089E+00  0.88000000000E+00 0.  1.
        -11    1    4    4    0    0  0.49864386350E-01  0.48879219995E-02  0.14424993043E-02  0.50126746681E-01  0.51100000000E-03 0.  1.
         11    1    4    4    0    0  0.78953475571E-01 -0.15389806293E-01 -0.91867380954E-02  0.80963909986E-01  0.51100000000E-03 0. -1.
</event>
<event>
 8    1  0.1129602E+005  0.1043930E+01  0.7957747E-01            NaN
         13   -1    0    0    0    0  0.00000000000E+00  0.00000000000E+00  0.74505805969E-08  0.10566000000E+00  0.10566000000E+00 0. -1.
     999900   -1    0    0    0    0 -0.00000000000E+00 -0.00000000000E+00 -0.74505805969E-08  0.93827000000E+00  0.93827000000E+00 0. -1.
     999902    2    1    2    0    0  0.15420164903E-01 -0.12859430230E-01  0.11579958761E-01  0.10207515213E+01  0.10204883274E+01 0.  0.
     999903    2    3    3    0    0 -0.12204024985E+00 -0.14328935458E-01  0.36549386760E-01  0.12972907632E+00  0.19865411989E-01 0.  0.
         14    1    1    2    0    0 -0.15420164903E-01  0.12859430230E-01 -0.11579958761E-01  0.23178478733E-01  0.00000000000E+00 0.  1.
     999901    1    3    3    0    0  0.13746041476E+00  0.14695052279E-02 -0.24969428000E-01  0.89102244495E+00  0.88000000000E+00 0.  1.
        -11    1    4    4    0    0 -0.74756510512E-01 -0.10791596820E-02  0.28249194811E-01  0.79924830798E-01  0.51100000000E-03 0. -1.
         11    1    4    4    0    0 -0.47283739343E-01 -0.13249775776E-01  0.83001919493E-02  0.49804245519E-01  0.51100000000E-03 0.  1.
</event>
<event>
 8    1  0.1129602E+005  0.1043930E+01  0.7957747E-01            NaN
         13   -1    0    0    0    0  0.00000000000E+00  0.00000000000E+00  0.74505805969E-08  0.10566000000E+00  0.10566000000E+00 0.  1.
     999900   -1    0    0    0    0 -0.00000000000E+00 -0.00000000000E+00 -0.74505805969E-08  0.93827000000E+00  0.93827000000E+00 0. -1.
     999902    2    1    2    0    0 -0.16869126190E-01  0.50644149566E-02  0.15559977532E-01  0.10204283273E+01  0.10201576558E+01 0.  0.
     999903    2    3    3    0    0 -0.79548367966E-03 -0.12866851653E+00 -0.87730866819E-02  0.12984708064E+00  0.15069086291E-01 0.  0.
         14    1    1    2    0    0  0.16869126190E-01 -0.50644149566E-02 -0.15559977532E-01  0.23501672665E-01  0.00000000000E+00 0.  1.
     999901    1    3    3    0    0 -0.16073642511E-01  0.13373293148E+00  0.24333064214E-01  0.89058124669E+00  0.88000000000E+00 0.  1.
        -11    1    4    4    0    0 -0.72392864013E-02 -0.60438986564E-01 -0.71629214818E-02  0.61293123021E-01  0.51100000000E-03 0. -1.
         11    1    4    4    0    0  0.64438027217E-02 -0.68229529964E-01 -0.16101652001E-02  0.68553957621E-01  0.51100000000E-03 0.  1.
</event>
<event>
 8    1  0.1129602E+005  0.1043930E+01  0.7957747E-01            NaN
         13   -1    0    0    0    0  0.00000000000E+00  0.00000000000E+00  0.74505805969E-08  0.10566000000E+00  0.10566000000E+00 0.  1.
     999900   -1    0    0    0    0 -0.00000000000E+00 -0.00000000000E+00 -0.74505805969E-08  0.93827000000E+00  0.93827000000E+00 0. -1.
     999902    2    1    2    0    0  0.20197486711E-01 -0.11379210605E-01 -0.54468245544E-02  0.10201162896E+01  0.10198382968E+01 0.  0.
     999903    2    3    3    0    0  0.15040940465E-01  0.25731360101E-01  0.12465537355E+00  0.12976222165E+00  0.20271636142E-01 0.  0.
         14    1    1    2    0    0 -0.20197486711E-01  0.11379210605E-01  0.54468245544E-02  0.23813710361E-01  0.00000000000E+00 0.  1.
     999901    1    3    3    0    0  0.51565462458E-02 -0.37110570706E-01 -0.13010219810E+00  0.89035406799E+00  0.88000000000E+00 0. -1.
        -11    1    4    4    0    0  0.89311708124E-02  0.26551994379E-01  0.81862730069E-01  0.86524805189E-01  0.51100000000E-03 0.  1.
         11    1    4    4    0    0  0.61097696526E-02 -0.82063427757E-03  0.42792643477E-01  0.43237416465E-01  0.51100000000E-03 0. -1.
</event>
<event>
 8    1  0.1129602E+005  0.1043930E+01  0.7957747E-01            NaN
         13   -1    0    0    0    0  0.00000000000E+00  0.00000000000E+00  0.74505805969E-08  0.10566000000E+00  0.10566000000E+00 0. -1.
     999900   -1    0    0    0    0 -0.00000000000E+00 -0.00000000000E+00 -0.74505805969E-08  0.93827000000E+00  0.93827000000E+00 0. -1.
     999902    2    1    2    0    0 -0.17414730687E-01 -0.79592250047E-02 -0.11829833592E-01  0.10214229551E+01  0.10211749537E+01 0.  0.
     999903    2    3    3    0    0 -0.87663076933E-01 -0.31360063428E-01  0.91639740360E-01  0.13227258417E+00  0.20734653915E-01 0.  0.
         14    1    1    2    0    0  0.17414730687E-01  0.79592250047E-02  0.11829833592E-01  0.22507044906E-01  0.00000000000E+00 0. -1.
     999901    1    3    3    0    0  0.70248346245E-01  0.23400838424E-01 -0.10346957395E+00  0.88915037093E+00  0.88000000000E+00 0. -1.
        -11    1    4    4    0    0 -0.29674324566E-01 -0.70570713965E-02  0.17920996073E-01  0.35380658789E-01  0.51100000000E-03 0. -1.
         11    1    4    4    0    0 -0.57988752367E-01 -0.24302992032E-01  0.73718744287E-01  0.96891925376E-01  0.51100000000E-03 0.  1.
</event>
<event>
 8    1  0.1129602E+005  0.1043930E+01  0.7957747E-01            NaN
         13   -1    0    0    0    0  0.00000000000E+00  0.00000000000E+00  0.74505805969E-08  0.10566000000E+00  0.10566000000E+00 0.  1.
     999900   -1    0    0    0    0 -0.00000000000E+00 -0.00000000000E+00 -0.74505805969E-08  0.93827000000E+00  0.93827000000E+00 0. -1.
     999902    2    1    2    0    0  0.72860534160E-02  0.38722597649E-04  0.30160216847E-01  0.10129021616E+01  0.10124268182E+01 0.  0.
     999903    2    3    3    0    0  0.11535232710E+00 -0.34966982259E-01  0.28953263759E-01  0.12559997206E+00  0.20204263944E-01 0.  0.
         14    1    1    2    0    0 -0.72860534160E-02 -0.38722597649E-04 -0.30160216847E-01  0.31027838373E-01  0.00000000000E+00 0. -1.
     999901    1    3    3    0    0 -0.10806627369E+00  0.35005704857E-01  0.12069530885E-02  0.88730218957E+00  0.88000000000E+00 0. -1.
        -11    1    4    4    0    0  0.88724640423E-01 -0.20331488982E-01  0.15373813991E-01  0.92314931295E-01  0.51100000000E-03 0. -1.
         11    1    4    4    0    0  0.26627686681E-01 -0.14635493277E-01  0.13579449768E-01  0.33285040761E-01  0.51100000000E-03 0.  1.
</event>
<event>
 8    1  0.1129602E+005  0.1043930E+01  0.7957747E-01            NaN
         13   -1    0    0    0    0  0.00000000000E+00  0.00000000000E+00  0.74505805969E-08  0.10566000000E+00  0.10566000000E+00 0. -1.
     999900   -1    0    0    0    0 -0.00000000000E+00 -0.00000000000E+00 -0.74505805969E-08  0.93827000000E+00  0.93827000000E+00 0.  1.
     999902    2    1    2    0    0 -0.19345379781E-01 -0.79690325200E-02  0.11304494420E-01  0.10201488984E+01  0.10198716753E+01 0.  0.
     999903    2    3    3    0    0  0.59853970519E-01 -0.76580675595E-01 -0.82344526051E-01  0.12899782611E+00  0.20315523823E-01 0.  0.
         14    1    1    2    0    0  0.19345379781E-01  0.79690325200E-02 -0.11304494420E-01  0.23781101578E-01  0.00000000000E+00 0.  1.
     999901    1    3    3    0    0 -0.79199350300E-01  0.68611643075E-01  0.93649020471E-01  0.89115107232E+00  0.88000000000E+00 0. -1.
        -11    1    4    4    0    0  0.42857370001E-01 -0.41221344022E-01 -0.42607984585E-01  0.73155005555E-01  0.51100000000E-03 0. -1.
         11    1    4    4    0    0  0.16996600518E-01 -0.35359331573E-01 -0.39736541466E-01  0.55842820552E-01  0.51100000000E-03 0.  1.
</event>
<event>
 8    1  0.1129602E+005  0.1043930E+01  0.7957747E-01            NaN
         13   -1    0    0    0    0  0.00000000000E+00  0.00000000000E+00  0.74505805969E-08  0.10566000000E+00  0.10566000000E+00 0.  1.
     999900   -1    0    0    0    0 -0.00000000000E+00 -0.00000000000E+00 -0.74505805969E-08  0.93827000000E+00  0.93827000000E+00 0. -1.
     999902    2    1    2    0    0 -0.16052043592E-01  0.11190843793E-01  0.13284912640E-01  0.10202785309E+01  0.10200043571E+01 0.  0.
     999903    2    3    3    0    0 -0.12876558058E+00 -0.20249733655E-01  0.14797956936E-01  0.13253130297E+00  0.18839858858E-01 0.  0.
         14    1    1    2    0    0  0.16052043592E-01 -0.11190843793E-01 -0.13284912640E-01  0.23651469133E-01  0.00000000000E+00 0.  1.
     999901    1    3    3    0    0  0.11271353699E+00  0.31440577448E-01 -0.15130442962E-02  0.88774722789E+00  0.88000000000E+00 0.  1.
        -11    1    4    4    0    0 -0.41630194551E-01 -0.32099109616E-02  0.12971230302E-01  0.43725170820E-01  0.51100000000E-03 0.  1.
         11    1    4    4    0    0 -0.87135386034E-01 -0.17039822693E-01  0.18267266343E-02  0.88806132152E-01  0.51100000000E-03 0. -1.
</event>
<event>
 8    1  0.1129602E+005  0.1043930E+01  0.7957747E-01            NaN
         13   -1    0    0    0    0  0.00000000000E+00  0.00000000000E+00  0.74505805969E-08  0.10566000000E+00  0.10566000000E+00 0.  1.
     999900   -1    0    0    0    0 -0.00000000000E+00 -0.00000000000E+00 -0.74505805969E-08  0.93827000000E+00  0.93827000000E+00 0.  1.
     999902    2    1    2    0    0  0.22130767581E-01 -0.69304706925E-02  0.60760778068E-02  0.10199566602E+01  0.10196748834E+01 0.  0.
     999903    2    3    3    0    0 -0.11819097326E+00  0.32081590143E-01 -0.30008448846E-01  0.12725613660E+00  0.17183792178E-01 0.  0.
         14    1    1    2    0    0 -0.22130767581E-01  0.69304706925E-02 -0.60760778068E-02  0.23973339760E-01  0.00000000000E+00 0. -1.
     999901    1    3    3    0    0  0.14032174084E+00 -0.39012060835E-01  0.36084526652E-01  0.89270052364E+00  0.88000000000E+00 0. -1.
        -11    1    4    4    0    0 -0.62480517555E-01  0.21273061545E-01 -0.84308382571E-02  0.66540952624E-01  0.51100000000E-03 0. -1.
         11    1    4    4    0    0 -0.55710455706E-01  0.10808528598E-01 -0.21577610588E-01  0.60715183975E-01  0.51100000000E-03 0.  1.
</event>
<event>
 8    1  0.1129602E+005  0.1043930E+01  0.7957747E-01            NaN
         13   -1    0    0    0    0  0.00000000000E+00  0.00000000000E+00  0.74505805969E-08  0.10566000000E+00  0.10566000000E+00 0. -1.
     999900   -1    0    0    0    0 -0.00000000000E+00 -0.00000000000E+00 -0.74505805969E-08  0.93827000000E+00  0.93827000000E+00 0.  1.
     999902    2    1    2    0    0  0.18119296176E-01  0.81299346736E-03 -0.16121234689E-01  0.10196634786E+01  0.10193746836E+01 0.  0.
     999903    2    3    3    0    0  0.63594657624E-01 -0.11133713859E+00 -0.20746365359E-01  0.13136901592E+00  0.19676578984E-01 0.  0.
         14    1    1    2    0    0 -0.18119296176E-01 -0.81299346736E-03  0.16121234689E-01  0.24266521386E-01  0.00000000000E+00 0.  1.
     999901    1    3    3    0    0 -0.45475361449E-01  0.11215013206E+00  0.46251306701E-02  0.88829446269E+00  0.88000000000E+00 0. -1.
        -11    1    4    4    0    0  0.44544190264E-01 -0.58371151250E-01 -0.12156465753E-01  0.74427259557E-01  0.51100000000E-03 0.  1.
         11    1    4    4    0    0  0.19050467361E-01 -0.52965987339E-01 -0.85898996059E-02  0.56941756363E-01  0.51100000000E-03 0. -1.
</event>
<event>
 8    1  0.1129602E+005  0.1043930E+01  0.7957747E-01            NaN
         13   -1    0    0    0    0  0.00000000000E+00  0.00000000000E+00  0.74505805969E-08  0.10566000000E+00  0.10566000000E+00 0.  1.
     999900   -1    0    0    0    0 -0.00000000000E+00 -0.00000000000E+00 -0.74505805969E-08  0.93827000000E+00  0.93827000000E+00 0.  1.
     999902    2    1    2    0    0 -0.22595184676E-02  0.64236118677E-02  0.15325602591E-01  0.10271597195E+01  0.10270228075E+01 0.  0.
     999903    2    3    3    0    0  0.37713138103E-01  0.74223564455E-01 -0.10514042955E+00  0.13547215553E+00  0.19151414922E-01 0.  0.
         14    1    1    2    0    0  0.22595184676E-02 -0.64236118677E-02 -0.15325602591E-01  0.16770280496E-01  0.00000000000E+00 0. -1.
     999901    1    3    3    0    0 -0.39972656571E-01 -0.67799952587E-01  0.12046603214E+00  0.89168756397E+00  0.88000000000E+00 0. -1.
        -11    1    4    4    0    0  0.11024409700E-01  0.27251338879E-01 -0.51727190243E-01  0.59499045466E-01  0.51100000000E-03 0. -1.
         11    1    4    4    0    0  0.26688728403E-01  0.46972225576E-01 -0.53413239302E-01  0.75973110066E-01  0.51100000000E-03 0.  1.
</event>
<event>
 8    1  0.1129602E+005  0.1043930E+01  0.7957747E-01            NaN
         13   -1    0    0    0    0  0.00000000000E+00  0.00000000000E+00  0.74505805969E-08  0.10566000000E+00  0.10566000000E+00 0. -1.
     999900   -1    0    0    0    0 -0.00000000000E+00 -0.00000000000E+00 -0.74505805969E-08  0.93827000000E+00  0.93827000000E+00 0.  1.
     999902    2    1    2    0    0  0.18596655627E-01  0.12648771287E-01  0.32554953745E-02  0.10212050079E+01  0.10209521257E+01 0.  0.
     999903    2    3    3    0    0 -0.48244892667E-01  0.87458224046E-01  0.83641360445E-01  0.13186472764E+00  0.20394082391E-01 0.  0.
         14    1    1    2    0    0 -0.18596655627E-01 -0.12648771287E-01 -0.32554953745E-02  0.22724992095E-01  0.00000000000E+00 0. -1.
     999901    1    3    3    0    0  0.66841548294E-01 -0.74809452758E-01 -0.80385865071E-01  0.88934028027E+00  0.88000000000E+00 0.  1.
        -11    1    4    4    0    0 -0.11637193335E-01  0.35772427885E-01  0.22532331508E-01  0.43852684635E-01  0.51100000000E-03 0.  1.
         11    1    4    4    0    0 -0.36607699332E-01  0.51685796161E-01  0.61109028937E-01  0.88012043004E-01  0.51100000000E-03 0. -1.
</event>
<event>
 8    1  0.1129602E+005  0.1043930E+01  0.7957747E-01            NaN
         13   -1    0    0    0    0  0.00000000000E+00  0.00000000000E+00  0.74505805969E-08  0.10566000000E+00  0.10566000000E+00 0. -1.
     999900   -1    0    0    0    0 -0.00000000000E+00 -0.00000000000E+00 -0.74505805969E-08  0.93827000000E+00  0.93827000000E+00 0. -1.
     999902    2    1    2    0    0  0.19765995249E-01 -0.62983489503E-02  0.10716049630E-01  0.10205805356E+01  0.10203133990E+01 0.  0.
     999903    2    3    3    0    0  0.34513966700E-01  0.11458154035E+00  0.50459021402E-01  0.13130613808E+00  0.19366098468E-01 0.  0.
         14    1    1    2    0    0 -0.19765995249E-01  0.62983489503E-02 -0.10716049630E-01  0.23349464391E-01  0.00000000000E+00 0.  1.
     999901    1    3    3    0    0 -0.14747971451E-01 -0.12087988930E+00 -0.39742971772E-01  0.88927439753E+00  0.88000000000E+00 0. -1.
        -11    1    4    4    0    0 -0.23404075218E-02  0.10158623078E-01  0.33086246264E-02  0.10949120884E-01  0.51100000000E-03 0.  1.
         11    1    4    4    0    0  0.36854374222E-01  0.10442291727E+00  0.47150396776E-01  0.12035701719E+00  0.51100000000E-03 0. -1.
</event>
<event>
 8    1  0.1129602E+005  0.1043930E+01  0.7957747E-01            NaN
         13   -1    0    0    0    0  0.00000000000E+00  0.00000000000E+00  0.74505805969E-08  0.10566000000E+00  0.10566000000E+00 0. -1.
     999900   -1    0    0    0    0 -0.00000000000E+00 -0.00000000000E+00 -0.74505805969E-08  0.93827000000E+00  0.93827000000E+00 0.  1.
     999902    2    1    2    0    0 -0.20676599580E-01 -0.17908081826E-02 -0.11492852305E-01  0.10202062900E+01  0.10199304190E+01 0.  0.
     999903    2    3    3    0    0  0.64805911404E-01 -0.97951749437E-01  0.48905015141E-01  0.12880173045E+00  0.20095618715E-01 0.  0.
         14    1    1    2    0    0  0.20676599580E-01  0.17908081826E-02  0.11492852305E-01  0.23723710044E-01  0.00000000000E+00 0.  1.
     999901    1    3    3    0    0 -0.85482510984E-01  0.96160941254E-01 -0.60397867447E-01  0.89140455950E+00  0.88000000000E+00 0.  1.
        -11    1    4    4    0    0  0.15855583920E-01 -0.28917969512E-01  0.46795690622E-02  0.33313780779E-01  0.51100000000E-03 0.  1.
         11    1    4    4    0    0  0.48950327484E-01 -0.69033779924E-01  0.44225446079E-01  0.95487949676E-01  0.51100000000E-03 0. -1.
</event>
<event>
 8    1  0.1129602E+005  0.1043930E+01  0.7957747E-01            NaN
         13   -1    0    0    0    0  0.00000000000E+00  0.00000000000E+00  0.74505805969E-08  0.10566000000E+00  0.10566000000E+00 0. -1.
     999900   -1    0    0    0    0 -0.00000000000E+00 -0.00000000000E+00 -0.74505805969E-08  0.93827000000E+00  0.93827000000E+00 0.  1.
     999902    2    1    2    0    0 -0.19163722974E-01  0.13892830002E-01 -0.19577991267E-02  0.10201793794E+01  0.10199028748E+01 0.  0.
     999903    2    3    3    0    0 -0.16900253827E-01 -0.12601607353E+00  0.10481763002E-01  0.12903720928E+00  0.19366586032E-01 0.  0.
         14    1    1    2    0    0  0.19163722974E-01 -0.13892830002E-01  0.19577991267E-02  0.23750620647E-01  0.00000000000E+00 0. -1.
     999901    1    3    3    0    0 -0.22634691470E-02  0.13990890353E+00 -0.12439562129E-01  0.89114217008E+00  0.88000000000E+00 0.  1.
        -11    1    4    4    0    0  0.28197182726E-02 -0.21115269716E-01 -0.27307327892E-02  0.21483096818E-01  0.51100000000E-03 0.  1.
         11    1    4    4    0    0 -0.19719972100E-01 -0.10490080382E+00  0.13212495791E-01  0.10755411246E+00  0.51100000000E-03 0. -1.
</event>
<event>
 8    1  0.1129602E+005  0.1043930E+01  0.7957747E-01            NaN
         13   -1    0    0    0    0  0.00000000000E+00  0.00000000000E+00  0.74505805969E-08  0.10566000000E+00  0.10566000000E+00 0.  1.
     999900   -1    0    0    0    0 -0.00000000000E+00 -0.00000000000E+00 -0.74505805969E-08  0.93827000000E+00  0.93827000000E+00 0.  1.
     999902    2    1    2    0    0  0.53579310956E-02  0.24318838202E-01 -0.32109910630E-02  0.10188217587E+01  0.10185123231E+01 0.  0.
     999903    2    3    3    0    0  0.44855705543E-01  0.77382433036E-01  0.93641476715E-01  0.13104013027E+00  0.20067743198E-01 0.  0.
         14    1    1    2    0    0 -0.53579310956E-02 -0.24318838202E-01  0.32109910630E-02  0.25108241291E-01  0.00000000000E+00 0.  1.
     999901    1    3    3    0    0 -0.39497774447E-01 -0.53063594834E-01 -0.96852467778E-01  0.88778162844E+00  0.88000000000E+00 0.  1.
        -11    1    4    4    0    0  0.55592122675E-03  0.98055884653E-03  0.77350199508E-02  0.78334027536E-02  0.51100000000E-03 0. -1.
         11    1    4    4    0    0  0.44299784316E-01  0.76401874189E-01  0.85906456764E-01  0.12320672751E+00  0.51100000000E-03 0.  1.
</event>
<event>
 8    1  0.1129602E+005  0.1043930E+01  0.7957747E-01            NaN
         13   -1    0    0    0    0  0.00000000000E+00  0.00000000000E+00  0.74505805969E-08  0.10566000000E+00  0.10566000000E+00 0.  1.
     999900   -1    0    0    0    0 -0.00000000000E+00 -0.00000000000E+00 -0.74505805969E-08  0.93827000000E+00  0.93827000000E+00 0. -1.
     999902    2    1    2    0    0  0.16219803485E-01 -0.54481635713E-02  0.16460112557E-01  0.10201876367E+01  0.10199113266E+01 0.  0.
     999903    2    3    3    0    0  0.11459050580E+00  0.59494320638E-01  0.20393219055E-01  0.13231952109E+00  0.20542981045E-01 0.  0.
         14    1    1    2    0    0 -0.16219803485E-01  0.54481635713E-02 -0.16460112557E-01  0.23742363336E-01  0.00000000000E+00 0.  1.
     999901    1    3    3    0    0 -0.98370702314E-01 -0.64942484209E-01 -0.39331064983E-02  0.88786811558E+00  0.88000000000E+00 0. -1.
        -11    1    4    4    0    0  0.39130548687E-01  0.25410723572E-01  0.16268696513E-01  0.49414940253E-01  0.51100000000E-03 0.  1.
         11    1    4    4    0    0  0.75459957112E-01  0.34083597066E-01  0.41245225426E-02  0.82904580835E-01  0.51100000000E-03 0. -1.
</event>
<event>
 8    1  0.1254579E+005  0.1043930E+01  0.7957747E-01            NaN
         13   -1    0    0    0    0  0.00000000000E+00  0.00000000000E+00  0.74505805969E-08  0.10566000000E+00  0.10566000000E+00 0.  1.
     999900   -1    0    0    0    0 -0.00000000000E+00 -0.00000000000E+00 -0.74505805969E-08  0.93827000000E+00  0.93827000000E+00 0. -1.
     999902    2    1    2    0    0  0.66659140316E-02 -0.18561974519E-01  0.12733380792E-01  0.10204540486E+01  0.10201839761E+01 0.  0.
     999903    2    3    3    0    0  0.74878844121E-01 -0.85962675455E-01  0.67358498208E-01  0.13356072820E+00  0.17460755055E-01 0.  0.
         14    1    1    2    0    0 -0.66659140316E-02  0.18561974519E-01 -0.12733380792E-01  0.23475951404E-01  0.00000000000E+00 0. -1.
     999901    1    3    3    0    0 -0.68212930089E-01  0.67400700936E-01 -0.54625117416E-01  0.88689332040E+00  0.88000000000E+00 0.  1.
        -11    1    4    4    0    0  0.45516535418E-01 -0.47024912537E-01  0.47662088613E-01  0.80963159570E-01  0.51100000000E-03 0.  1.
         11    1    4    4    0    0  0.29362308703E-01 -0.38937762918E-01  0.19696409595E-01  0.52597568626E-01  0.51100000000E-03 0. -1.
</event>
<event>
 8    1  0.1129602E+005  0.1043930E+01  0.7957747E-01            NaN
         13   -1    0    0    0    0  0.00000000000E+00  0.00000000000E+00  0.74505805969E-08  0.10566000000E+00  0.10566000000E+00 0. -1.
     999900   -1    0    0    0    0 -0.00000000000E+00 -0.00000000000E+00 -0.74505805969E-08  0.93827000000E+00  0.93827000000E+00 0. -1.
     999902    2    1    2    0    0  0.20647418850E-01 -0.11877855240E-01  0.14732372783E-02  0.10200643389E+01  0.10197851175E+01 0.  0.
     999903    2    3    3    0    0 -0.11695020524E+00 -0.80936109570E-02  0.47998229636E-01  0.12814954391E+00  0.19380880053E-01 0.  0.
         14    1    1    2    0    0 -0.20647418850E-01  0.11877855240E-01 -0.14732372783E-02  0.23865661071E-01  0.00000000000E+00 0.  1.
     999901    1    3    3    0    0  0.13759762409E+00 -0.37842442829E-02 -0.46524992358E-01  0.89191479502E+00  0.88000000000E+00 0. -1.
        -11    1    4    4    0    0 -0.42332873263E-01  0.37239090872E-02  0.24374877424E-01  0.48993218184E-01  0.51100000000E-03 0.  1.
         11    1    4    4    0    0 -0.74617331980E-01 -0.11817520044E-01  0.23623352212E-01  0.79156325726E-01  0.51100000000E-03 0. -1.
</event>
<event>
 8    1  0.1129602E+005  0.1043930E+01  0.7957747E-01            NaN
         13   -1    0    0    0    0  0.00000000000E+00  0.00000000000E+00  0.74505805969E-08  0.10566000000E+00  0.10566000000E+00 0.  1.
     999900   -1    0    0    0    0 -0.00000000000E+00 -0.00000000000E+00 -0.74505805969E-08  0.93827000000E+00  0.93827000000E+00 0.  1.
     999902    2    1    2    0    0  0.14108952259E-01 -0.12440903663E-01 -0.12228478803E-01  0.10214939952E+01  0.10212475742E+01 0.  0.
     999903    2    3    3    0    0  0.31101513895E-01  0.20542064532E-01  0.12328131873E+00  0.13034892924E+00  0.20081813320E-01 0.  0.
         14    1    1    2    0    0 -0.14108952259E-01  0.12440903663E-01  0.12228478803E-01  0.22436004805E-01  0.00000000000E+00 0.  1.
     999901    1    3    3    0    0 -0.16992561636E-01 -0.32982968195E-01 -0.13550979753E+00  0.89114506595E+00  0.88000000000E+00 0.  1.
        -11    1    4    4    0    0  0.15137502606E-01  0.10980510499E-01  0.92528749499E-01  0.94400986228E-01  0.51100000000E-03 0.  1.
         11    1    4    4    0    0  0.15964011289E-01  0.95615540333E-02  0.30752569228E-01  0.35947943016E-01  0.51100000000E-03 0. -1.
</event>
<event>
 8    1  0.1129602E+005  0.1043930E+01  0.7957747E-01            NaN
         13   -1    0    0    0    0  0.00000000000E+00  0.00000000000E+00  0.74505805969E-08  0.10566000000E+00  0.10566000000E+00 0.  1.
     999900   -1    0    0    0    0 -0.00000000000E+00 -0.00000000000E+00 -0.74505805969E-08  0.93827000000E+00  0.93827000000E+00 0. -1.
     999902    2    1    2    0    0 -0.19212149906E-01 -0.11536287812E-01  0.72339452915E-02  0.10203816963E+01  0.10201099370E+01 0.  0.
     999903    2    3    3    0    0  0.54638442302E-01  0.68460738486E-01 -0.91454043880E-01  0.12819743657E+00  0.19962677920E-01 0.  0.
         14    1    1    2    0    0  0.19212149906E-01  0.11536287812E-01 -0.72339452915E-02  0.23548303654E-01  0.00000000000E+00 0. -1.
     999901    1    3    3    0    0 -0.73850592209E-01 -0.79997026298E-01  0.98687989172E-01  0.89218425978E+00  0.88000000000E+00 0.  1.
        -11    1    4    4    0    0  0.26671359668E-01  0.43782796679E-01 -0.42143235996E-01  0.66367222127E-01  0.51100000000E-03 0. -1.
         11    1    4    4    0    0  0.27967082635E-01  0.24677941807E-01 -0.49310807884E-01  0.61830214443E-01  0.51100000000E-03 0.  1.
</event>
<event>
 8    1  0.1129602E+005  0.1043930E+01  0.7957747E-01            NaN
         13   -1    0    0    0    0  0.00000000000E+00  0.00000000000E+00  0.74505805969E-08  0.10566000000E+00  0.10566000000E+00 0.  1.
     999900   -1    0    0    0    0 -0.00000000000E+00 -0.00000000000E+00 -0.74505805969E-08  0.93827000000E+00  0.93827000000E+00 0. -1.
     999902    2    1    2    0    0 -0.20044915276E-01  0.27696644884E-02 -0.26683728241E-02  0.10235194664E+01  0.10233159376E+01 0.  0.
     999903    2    3    3    0    0  0.12367202549E-01  0.12844569498E+00 -0.28066143120E-01  0.13363741982E+00  0.20494080332E-01 0.  0.
         14    1    1    2    0    0  0.20044915276E-01 -0.27696644884E-02  0.26683728241E-02  0.20410533637E-01  0.00000000000E+00 0.  1.
     999901    1    3    3    0    0 -0.32412117826E-01 -0.12567603049E+00  0.25397770296E-01  0.88988204654E+00  0.88000000000E+00 0. -1.
        -11    1    4    4    0    0  0.42387421404E-02  0.38198973237E-01 -0.18075439041E-01  0.42474829121E-01  0.51100000000E-03 0. -1.
         11    1    4    4    0    0  0.81284604088E-02  0.90246721744E-01 -0.99907040787E-02  0.91162590700E-01  0.51100000000E-03 0.  1.
</event>
<event>
 8    1  0.1129602E+005  0.1043930E+01  0.7957747E-01            NaN
         13   -1    0    0    0    0  0.00000000000E+00  0.00000000000E+00  0.74505805969E-08  0.10566000000E+00  0.10566000000E+00 0.  1.
     999900   -1    0    0    0    0 -0.00000000000E+00 -0.00000000000E+00 -0.74505805969E-08  0.93827000000E+00  0.93827000000E+00 0.  1.
     999902    2    1    2    0    0  0.16358347303E-01  0.13945699374E-01 -0.36424187755E-02  0.10221275856E+01  0.10218950318E+01 0.  0.
     999903    2    3    3    0    0 -0.24493744838E-01 -0.12607929787E+00  0.61633535553E-02  0.13006702354E+00  0.19583431720E-01 0.  0.
         14    1    1    2    0    0 -0.16358347303E-01 -0.13945699374E-01  0.36424187755E-02  0.21802414363E-01  0.00000000000E+00 0. -1.
     999901    1    3    3    0    0  0.40852092141E-01  0.14002499724E+00 -0.98057723308E-02  0.89206056210E+00  0.88000000000E+00 0. -1.
        -11    1    4    4    0    0 -0.10353261283E-01 -0.19057861960E-01 -0.21144407708E-02  0.21797341638E-01  0.51100000000E-03 0.  1.
         11    1    4    4    0    0 -0.14140483554E-01 -0.10702143591E+00  0.82777943261E-02  0.10826968190E+00  0.51100000000E-03 0. -1.
</event>
<event>
 8    1  0.1129602E+005  0.1043930E+01  0.7957747E-01            NaN
         13   -1    0    0    0    0  0.00000000000E+00  0.00000000000E+00  0.74505805969E-08  0.10566000000E+00  0.10566000000E+00 0.  1.
     999900   -1    0    0    0    0 -0.00000000000E+00 -0.00000000000E+00 -0.74505805969E-08  0.93827000000E+00  0.93827000000E+00 0.  1.
     999902    2    1    2    0    0  0.19008438390E-01 -0.10841252665E-01 -0.98319410277E-02  0.10199399905E+01  0.10196578170E+01 0.  0.
     999903    2    3    3    0    0 -0.34208259539E-01 -0.55134240364E-02  0.12211281566E+00  0.12849743967E+00  0.19986229920E-01 0.  0.
         14    1    1    2    0    0 -0.19008438390E-01  0.10841252665E-01  0.98319410277E-02  0.23990009457E-01  0.00000000000E+00 0.  1.
     999901    1    3    3    0    0  0.53216697928E-01 -0.53278286285E-02 -0.13194475669E+00  0.89144255088E+00  0.88000000000E+00 0.  1.
        -11    1    4    4    0    0 -0.20063831294E-01 -0.12866609704E-01  0.79489162615E-01  0.82987318704E-01  0.51100000000E-03 0.  1.
         11    1    4    4    0    0 -0.14144428245E-01  0.73531856680E-02  0.42623653048E-01  0.45510120962E-01  0.51100000000E-03 0. -1.
</event>
<event>
 8    1  0.1129602E+005  0.1043930E+01  0.7957747E-01            NaN
         13   -1    0    0    0    0  0.00000000000E+00  0.00000000000E+00  0.74505805969E-08  0.10566000000E+00  0.10566000000E+00 0.  1.
     999900   -1    0    0    0    0 -0.00000000000E+00 -0.00000000000E+00 -0.74505805969E-08  0.93827000000E+00  0.93827000000E+00 0. -1.
     999902    2    1    2    0    0  0.98818535991E-03 -0.12315314041E-01 -0.19972661400E-01  0.10204448840E+01  0.10201745981E+01 0.  0.
     999903    2    3    3    0    0  0.23451994313E-01  0.84893532012E-02  0.12403967428E+00  0.12821340634E+00  0.20755038320E-01 0.  0.
         14    1    1    2    0    0 -0.98818535991E-03  0.12315314041E-01  0.19972661400E-01  0.23485116003E-01  0.00000000000E+00 0.  1.
     999901    1    3    3    0    0 -0.22463808953E-01 -0.20804667243E-01 -0.14401233568E+00  0.89223147766E+00  0.88000000000E+00 0. -1.
        -11    1    4    4    0    0  0.20393407370E-01  0.14842021083E-01  0.91454075556E-01  0.94869835621E-01  0.51100000000E-03 0.  1.
         11    1    4    4    0    0  0.30585869435E-02 -0.63526678822E-02  0.32585598723E-01  0.33343570721E-01  0.51100000000E-03 0. -1.
</event>
<event>
 8    1  0.1129602E+005  0.1043930E+01  0.7957747E-01            NaN
         13   -1    0    0    0    0  0.00000000000E+00  0.00000000000E+00  0.74505805969E-08  0.10566000000E+00  0.10566000000E+00 0.  1.
     999900   -1    0    0    0    0 -0.00000000000E+00 -0.00000000000E+00 -0.74505805969E-08  0.93827000000E+00  0.93827000000E+00 0.  1.
     999902    2    1    2    0    0 -0.87348189824E-03  0.22793533966E-01 -0.50243446868E-02  0.10205729411E+01  0.10203056287E+01 0.  0.
     999903    2    3    3    0    0  0.10395845446E+00 -0.73123868908E-01  0.90275770517E-02  0.12906447811E+00  0.20534894811E-01 0.  0.
         14    1    1    2    0    0  0.87348189824E-03 -0.22793533966E-01  0.50243446868E-02  0.23357058908E-01  0.00000000000E+00 0. -1.
     999901    1    3    3    0    0 -0.10483193636E+00  0.95917402875E-01 -0.14051921738E-01  0.89150846298E+00  0.88000000000E+00 0. -1.
        -11    1    4    4    0    0  0.55058569678E-01 -0.35900186866E-01 -0.53474075947E-02  0.65947899140E-01  0.51100000000E-03 0. -1.
         11    1    4    4    0    0  0.48899884786E-01 -0.37223682043E-01  0.14374984646E-01  0.63116578975E-01  0.51100000000E-03 0.  1.
</event>
<event>
 8    1  0.1129602E+005  0.1043930E+01  0.7957747E-01            NaN
         13   -1    0    0    0    0  0.00000000000E+00  0.00000000000E+00  0.74505805969E-08  0.10566000000E+00  0.10566000000E+00 0. -1.
     999900   -1    0    0    0    0 -0.00000000000E+00 -0.00000000000E+00 -0.74505805969E-08  0.93827000000E+00  0.93827000000E+00 0. -1.
     999902    2    1    2    0    0 -0.68394683158E-02  0.18341428548E-01  0.13750801797E-01  0.10200078162E+01  0.10197272548E+01 0.  0.
     999903    2    3    3    0    0  0.10510433940E+00  0.45138491670E-01  0.59161833477E-01  0.13135059292E+00  0.25854402515E-01 0.  0.
         14    1    1    2    0    0  0.68394683158E-02 -0.18341428548E-01 -0.13750801797E-01  0.23922183807E-01  0.00000000000E+00 0.  1.
     999901    1    3    3    0    0 -0.11194380771E+00 -0.26797063121E-01 -0.45411031680E-01  0.88865722327E+00  0.88000000000E+00 0. -1.
        -11    1    4    4    0    0  0.74683090941E-01  0.44174590187E-01  0.45635291988E-01  0.98039785223E-01  0.51100000000E-03 0. -1.
         11    1    4    4    0    0  0.30421248458E-01  0.96390148272E-03  0.13526541489E-01  0.33310807697E-01  0.51100000000E-03 0.  1.
</event>
<event>
 8    1  0.1129602E+005  0.1043930E+01  0.7957747E-01            NaN
         13   -1    0    0    0    0  0.00000000000E+00  0.00000000000E+00  0.74505805969E-08  0.10566000000E+00  0.10566000000E+00 0.  1.
     999900   -1    0    0    0    0 -0.00000000000E+00 -0.00000000000E+00 -0.74505805969E-08  0.93827000000E+00  0.93827000000E+00 0. -1.
     999902    2    1    2    0    0  0.17011090080E-01 -0.10293728084E-01  0.12516101303E-01  0.10204355152E+01  0.10201650111E+01 0.  0.
     999903    2    3    3    0    0  0.12633426870E+00 -0.20650513309E-01 -0.28388222136E-01  0.13266753648E+00  0.20198834938E-01 0.  0.
         14    1    1    2    0    0 -0.17011090080E-01  0.10293728084E-01 -0.12516101303E-01  0.23494484787E-01  0.00000000000E+00 0. -1.
     999901    1    3    3    0    0 -0.10932317862E+00  0.10356785225E-01  0.40904323439E-01  0.88776797873E+00  0.88000000000E+00 0.  1.
        -11    1    4    4    0    0  0.50446678548E-01 -0.10265229356E-02 -0.18109497610E-01  0.53610970431E-01  0.51100000000E-03 0.  1.
         11    1    4    4    0    0  0.75887590150E-01 -0.19623990374E-01 -0.10278724526E-01  0.79056566052E-01  0.51100000000E-03 0. -1.
</event>
<event>
 8    1  0.1129602E+005  0.1043930E+01  0.7957747E-01            NaN
         13   -1    0    0    0    0  0.00000000000E+00  0.00000000000E+00  0.74505805969E-08  0.10566000000E+00  0.10566000000E+00 0.  1.
     999900   -1    0    0    0    0 -0.00000000000E+00 -0.00000000000E+00 -0.74505805969E-08  0.93827000000E+00  0.93827000000E+00 0.  1.
     999902    2    1    2    0    0 -0.22287079491E-01 -0.35375315774E-02 -0.92150641443E-02  0.10195549010E+01  0.10192634845E+01 0.  0.
     999903    2    3    3    0    0  0.18842042882E-01 -0.10707296293E+00 -0.69263890875E-01  0.13050088028E+00  0.20331040392E-01 0.  0.
         14    1    1    2    0    0  0.22287079491E-01  0.35375315774E-02  0.92150641443E-02  0.24375098955E-01  0.00000000000E+00 0.  1.
     999901    1    3    3    0    0 -0.41129122373E-01  0.10353543135E+00  0.60048826731E-01  0.88905402077E+00  0.88000000000E+00 0.  1.
        -11    1    4    4    0    0  0.18691322015E-01 -0.48354287377E-01 -0.30769486475E-01  0.60287022196E-01  0.51100000000E-03 0. -1.
         11    1    4    4    0    0  0.15072086783E-03 -0.58718675552E-01 -0.38494404401E-01  0.70213858081E-01  0.51100000000E-03 0.  1.
</event>
<event>
 8    1  0.1129602E+005  0.1043930E+01  0.7957747E-01            NaN
         13   -1    0    0    0    0  0.00000000000E+00  0.00000000000E+00  0.74505805969E-08  0.10566000000E+00  0.10566000000E+00 0.  1.
     999900   -1    0    0    0    0 -0.00000000000E+00 -0.00000000000E+00 -0.74505805969E-08  0.93827000000E+00  0.93827000000E+00 0.  1.
     999902    2    1    2    0    0 -0.52544576792E-02 -0.54246873762E-02  0.23492532559E-01  0.10192533786E+01  0.10189546183E+01 0.  0.
     999903    2    3    3    0    0  0.24944896133E-01 -0.67081969930E-01 -0.10267112461E+00  0.12760833157E+00  0.24905580215E-01 0.  0.
         14    1    1    2    0    0  0.52544576792E-02  0.54246873762E-02 -0.23492532559E-01  0.24676621419E-01  0.00000000000E+00 0. -1.
     999901    1    3    3    0    0 -0.30199353812E-01  0.61657282554E-01  0.12616365717E+00  0.89164504701E+00  0.88000000000E+00 0. -1.
        -11    1    4    4    0    0  0.57168610951E-02  0.73572021642E-04 -0.56414420519E-02  0.80482857211E-02  0.51100000000E-03 0.  1.
         11    1    4    4    0    0  0.19228035038E-01 -0.67155541952E-01 -0.97029682557E-01  0.11956004585E+00  0.51100000000E-03 0. -1.
</event>
<event>
 8    1  0.1129602E+005  0.1043930E+01  0.7957747E-01            NaN
         13   -1    0    0    0    0  0.00000000000E+00  0.00000000000E+00  0.74505805969E-08  0.10566000000E+00  0.10566000000E+00 0. -1.
     999900   -1    0    0    0    0 -0.00000000000E+00 -0.00000000000E+00 -0.74505805969E-08  0.93827000000E+00  0.93827000000E+00 0. -1.
     999902    2    1    2    0    0  0.29546411612E-03  0.31115281782E-02  0.23901183599E-01  0.10198253224E+01  0.10195404125E+01 0.  0.
     999903    2    3    3    0    0  0.12546593947E+00 -0.14479001283E-02  0.31657386619E-01  0.13092229336E+00  0.19866010911E-01 0.  0.
         14    1    1    2    0    0 -0.29546411612E-03 -0.31115281782E-02 -0.23901183599E-01  0.24104677639E-01  0.00000000000E+00 0.  1.
     999901    1    3    3    0    0 -0.12517047535E+00  0.45594283066E-02 -0.77562030201E-02  0.88890302900E+00  0.88000000000E+00 0. -1.
        -11    1    4    4    0    0  0.30461592592E-01  0.31292727371E-02 -0.15761136149E-03  0.30626572342E-01  0.51100000000E-03 0. -1.
         11    1    4    4    0    0  0.95004346874E-01 -0.45771728654E-02  0.31814997981E-01  0.10029572102E+00  0.51100000000E-03 0.  1.
</event>
<event>
 8    1  0.1129602E+005  0.1043930E+01  0.7957747E-01            NaN
         13   -1    0    0    0    0  0.00000000000E+00  0.00000000000E+00  0.74505805969E-08  0.10566000000E+00  0.10566000000E+00 0.  1.
     999900   -1    0    0    0    0 -0.00000000000E+00 -0.00000000000E+00 -0.74505805969E-08  0.93827000000E+00  0.93827000000E+00 0.  1.
     999902    2    1    2    0    0  0.68208641040E-04 -0.59223904832E-02  0.22889224974E-01  0.10202869042E+01  0.10200129268E+01 0.  0.
     999903    2    3    3    0    0  0.54692537752E-01 -0.10918645637E+00 -0.40550997560E-01  0.13030266470E+00  0.20529127718E-01 0.  0.
         14    1    1    2    0    0 -0.68208641040E-04  0.59223904832E-02 -0.22889224974E-01  0.23643095849E-01  0.00000000000E+00 0. -1.
     999901    1    3    3    0    0 -0.54624329111E-01  0.10326406589E+00  0.63440222534E-01  0.88998423945E+00  0.88000000000E+00 0. -1.
        -11    1    4    4    0    0  0.34722859955E-02 -0.25069939323E-01 -0.95000481916E-02  0.27038318445E-01  0.51100000000E-03 0.  1.
         11    1    4    4    0    0  0.51220251756E-01 -0.84116517045E-01 -0.31050949369E-01  0.10326434626E+00  0.51100000000E-03 0. -1.
</event>
<event>
 8    1  0.1129602E+005  0.1043930E+01  0.7957747E-01            NaN
         13   -1    0    0    0    0  0.00000000000E+00  0.00000000000E+00  0.74505805969E-08  0.10566000000E+00  0.10566000000E+00 0. -1.
     999900   -1    0    0    0    0 -0.00000000000E+00 -0.00000000000E+00 -0.74505805969E-08  0.93827000000E+00  0.93827000000E+00 0.  1.
     999902    2    1    2    0    0  0.12948478434E-01  0.12027190010E-02 -0.20741269720E-01  0.10194491933E+01  0.10191552128E+01 0.  0.
     999903    2    3    3    0    0 -0.21971469100E-01  0.11424699110E+00 -0.56423167904E-01  0.13081450568E+00  0.19842897727E-01 0.  0.
         14    1    1    2    0    0 -0.12948478434E-01 -0.12027190010E-02  0.20741269720E-01  0.24480806693E-01  0.00000000000E+00 0. -1.
     999901    1    3    3    0    0  0.34919947534E-01 -0.11304427210E+00  0.35681898184E-01  0.88863468762E+00  0.88000000000E+00 0.  1.
        -11    1    4    4    0    0 -0.15736656911E-01  0.10368866291E+00 -0.55101373815E-01  0.11847110916E+00  0.51100000000E-03 0.  1.
         11    1    4    4    0    0 -0.62348121887E-02  0.10558328191E-01 -0.13217940890E-02  0.12343396527E-01  0.51100000000E-03 0. -1.
</event>
<event>
 8    1  0.1129602E+005  0.1043930E+01  0.7957747E-01            NaN
         13   -1    0    0    0    0  0.00000000000E+00  0.00000000000E+00  0.74505805969E-08  0.10566000000E+00  0.10566000000E+00 0. -1.
     999900   -1    0    0    0    0 -0.00000000000E+00 -0.00000000000E+00 -0.74505805969E-08  0.93827000000E+00  0.93827000000E+00 0.  1.
     999902    2    1    2    0    0 -0.30082815038E-01  0.16535153744E-02  0.17049552552E-01  0.10093121272E+01  0.10087182823E+01 0.  0.
     999903    2    3    3    0    0  0.32737809254E-01 -0.77068636236E-01 -0.80714414242E-01  0.11818845387E+00  0.21032239937E-01 0.  0.
         14    1    1    2    0    0  0.30082815038E-01 -0.16535153744E-02 -0.17049552552E-01  0.34617872782E-01  0.00000000000E+00 0.  1.
     999901    1    3    3    0    0 -0.62820624292E-01  0.78722151610E-01  0.97763966794E-01  0.89112367334E+00  0.88000000000E+00 0. -1.
        -11    1    4    4    0    0  0.27177606011E-01 -0.73162700845E-01 -0.79226359717E-01  0.11121366939E+00  0.51100000000E-03 0.  1.
         11    1    4    4    0    0  0.55602032430E-02 -0.39059353907E-02 -0.14880545250E-02  0.69747844876E-02  0.51100000000E-03 0. -1.
</event>
<event>
 8    1  0.1129602E+005  0.1043930E+01  0.7957747E-01            NaN
         13   -1    0    0    0    0  0.00000000000E+00  0.00000000000E+00  0.74505805969E-08  0.10566000000E+00  0.10566000000E+00 0.  1.
     999900   -1    0    0    0    0 -0.00000000000E+00 -0.00000000000E+00 -0.74505805969E-08  0.93827000000E+00  0.93827000000E+00 0.  1.
     999902    2    1    2    0    0  0.71196353929E-02 -0.19135544000E-01 -0.13862105656E-01  0.10192517459E+01  0.10189529456E+01 0.  0.
     999903    2    3    3    0    0 -0.32977147027E-01 -0.12518345388E+00 -0.15766713354E-01  0.13197640043E+00  0.20267996123E-01 0.  0.
         14    1    1    2    0    0 -0.71196353929E-02  0.19135544000E-01  0.13862105656E-01  0.24678254102E-01  0.00000000000E+00 0.  1.
     999901    1    3    3    0    0  0.40096782420E-01  0.10604790989E+00  0.19046076979E-02  0.88727534547E+00  0.88000000000E+00 0.  1.
        -11    1    4    4    0    0 -0.63981477823E-02 -0.51612459719E-01  0.79394816199E-03  0.52016091433E-01  0.51100000000E-03 0.  1.
         11    1    4    4    0    0 -0.26578999245E-01 -0.73570994166E-01 -0.16560661516E-01  0.79960308993E-01  0.51100000000E-03 0. -1.
</event>
<event>
 8    1  0.1129602E+005  0.1043930E+01  0.7957747E-01            NaN
         13   -1    0    0    0    0  0.00000000000E+00  0.00000000000E+00  0.74505805969E-08  0.10566000000E+00  0.10566000000E+00 0.  1.
     999900   -1    0    0    0    0 -0.00000000000E+00 -0.00000000000E+00 -0.74505805969E-08  0.93827000000E+00  0.93827000000E+00 0.  1.
     999902    2    1    2    0    0  0.12493816060E-01 -0.20160808001E-01 -0.43840281637E-02  0.10198100223E+01  0.10195247463E+01 0.  0.
     999903    2    3    3    0    0 -0.10713873148E+00  0.61450976876E-01 -0.25760036175E-01  0.12771733457E+00  0.19829466549E-01 0.  0.
         14    1    1    2    0    0 -0.12493816060E-01  0.20160808001E-01  0.43840281637E-02  0.24119977652E-01  0.00000000000E+00 0.  1.
     999901    1    3    3    0    0  0.11963254754E+00 -0.81611784878E-01  0.21376008011E-01  0.89209268777E+00  0.88000000000E+00 0. -1.
        -11    1    4    4    0    0 -0.28553427845E-01  0.26098932371E-01 -0.11602209484E-01  0.40389663263E-01  0.51100000000E-03 0.  1.
         11    1    4    4    0    0 -0.78585303639E-01  0.35352044505E-01 -0.14157826691E-01  0.87327671310E-01  0.51100000000E-03 0. -1.
</event>
<event>
 8    1  0.1129602E+005  0.1043930E+01  0.7957747E-01            NaN
         13   -1    0    0    0    0  0.00000000000E+00  0.00000000000E+00  0.74505805969E-08  0.10566000000E+00  0.10566000000E+00 0. -1.
     999900   -1    0    0    0    0 -0.00000000000E+00 -0.00000000000E+00 -0.74505805969E-08  0.93827000000E+00  0.93827000000E+00 0. -1.
     999902    2    1    2    0    0 -0.39848718899E-02  0.51378211164E-02 -0.22853258695E-01  0.10201697845E+01  0.10198930538E+01 0.  0.
     999903    2    3    3    0    0 -0.11228609757E+00  0.35409264002E-01  0.51322707571E-01  0.12991836507E+00  0.19564702532E-01 0.  0.
         14    1    1    2    0    0  0.39848718899E-02 -0.51378211164E-02  0.22853258695E-01  0.23760215545E-01  0.00000000000E+00 0. -1.
     999901    1    3    3    0    0  0.10830122568E+00 -0.30271442886E-01 -0.74175966265E-01  0.89025141938E+00  0.88000000000E+00 0. -1.
        -11    1    4    4    0    0 -0.25347827078E-01  0.15340598223E-01  0.77932702597E-02  0.30640536447E-01  0.51100000000E-03 0.  1.
         11    1    4    4    0    0 -0.86938270497E-01  0.20068665779E-01  0.43529437311E-01  0.99277828626E-01  0.51100000000E-03 0. -1.
</event>
<event>
 8    1  0.1129602E+005  0.1043930E+01  0.7957747E-01            NaN
         13   -1    0    0    0    0  0.00000000000E+00  0.00000000000E+00  0.74505805969E-08  0.10566000000E+00  0.10566000000E+00 0. -1.
     999900   -1    0    0    0    0 -0.00000000000E+00 -0.00000000000E+00 -0.74505805969E-08  0.93827000000E+00  0.93827000000E+00 0. -1.
     999902    2    1    2    0    0  0.96864076582E-02 -0.23573078285E-01  0.11555816850E-01  0.10159469084E+01  0.10155614542E+01 0.  0.
     999903    2    3    3    0    0  0.12394004867E+00  0.54130766525E-03  0.25496858945E-01  0.12812386817E+00  0.20104902393E-01 0.  0.
         14    1    1    2    0    0 -0.96864076582E-02  0.23573078285E-01 -0.11555816850E-01  0.27983091613E-01  0.00000000000E+00 0.  1.
     999901    1    3    3    0    0 -0.11425364101E+00 -0.24114385950E-01 -0.13941042095E-01  0.88782304022E+00  0.88000000000E+00 0.  1.
        -11    1    4    4    0    0  0.69399135175E-01 -0.77248881148E-02  0.20262307794E-01  0.72709944970E-01  0.51100000000E-03 0.  1.
         11    1    4    4    0    0  0.54540913492E-01  0.82661957801E-02  0.52345511504E-02  0.55413923196E-01  0.51100000000E-03 0. -1.
</event>
<event>
 8    1  0.1129602E+005  0.1043930E+01  0.7957747E-01            NaN
         13   -1    0    0    0    0  0.00000000000E+00  0.00000000000E+00  0.74505805969E-08  0.10566000000E+00  0.10566000000E+00 0. -1.
     999900   -1    0    0    0    0 -0.00000000000E+00 -0.00000000000E+00 -0.74505805969E-08  0.93827000000E+00  0.93827000000E+00 0. -1.
     999902    2    1    2    0    0  0.16761835261E-01 -0.90674847088E-02 -0.15060413451E-01  0.10196401986E+01  0.10193508425E+01 0.  0.
     999903    2    3    3    0    0  0.82824047488E-01 -0.85449176371E-01  0.51550691895E-01  0.13136354231E+00  0.20917022439E-01 0.  0.
         14    1    1    2    0    0 -0.16761835261E-01  0.90674847088E-02  0.15060413451E-01  0.24289801431E-01  0.00000000000E+00 0. -1.
     999901    1    3    3    0    0 -0.66062212227E-01  0.76381691662E-01 -0.66611105345E-01  0.88827665626E+00  0.88000000000E+00 0. -1.
        -11    1    4    4    0    0  0.25911113961E-01 -0.36999716520E-01  0.11719770895E-01  0.46668822570E-01  0.51100000000E-03 0. -1.
         11    1    4    4    0    0  0.56912933527E-01 -0.48449459851E-01  0.39830921000E-01  0.84694719736E-01  0.51100000000E-03 0.  1.
</event>
<event>
 8    1  0.1129602E+005  0.1043930E+01  0.7957747E-01            NaN
         13   -1    0    0    0    0  0.00000000000E+00  0.00000000000E+00  0.74505805969E-08  0.10566000000E+00  0.10566000000E+00 0.  1.
     999900   -1    0    0    0    0 -0.00000000000E+00 -0.00000000000E+00 -0.74505805969E-08  0.93827000000E+00  0.93827000000E+00 0. -1.
     999902    2    1    2    0    0  0.51785094656E-03  0.20888834937E-01  0.97562936387E-02  0.10208692788E+01  0.10206087828E+01 0.  0.
     999903    2    3    3    0    0  0.60310122974E-01  0.11580918437E+00  0.18834279304E-01  0.13370108828E+00  0.21729537781E-01 0.  0.
         14    1    1    2    0    0 -0.51785094656E-03 -0.20888834937E-01 -0.97562936387E-02  0.23060721155E-01  0.00000000000E+00 0. -1.
     999901    1    3    3    0    0 -0.59792272028E-01 -0.94920349432E-01 -0.90779856649E-02  0.88716819057E+00  0.88000000000E+00 0. -1.
        -11    1    4    4    0    0  0.42638192994E-01  0.72883562718E-01  0.24687317507E-02  0.84477126926E-01  0.51100000000E-03 0.  1.
         11    1    4    4    0    0  0.17671929980E-01  0.42925621652E-01  0.16365547553E-01  0.49223961351E-01  0.51100000000E-03 0. -1.
</event>
<event>
 8    1  0.1129602E+005  0.1043930E+01  0.7957747E-01            NaN
         13   -1    0    0    0    0  0.00000000000E+00  0.00000000000E+00  0.74505805969E-08  0.10566000000E+00  0.10566000000E+00 0. -1.
     999900   -1    0    0    0    0 -0.00000000000E+00 -0.00000000000E+00 -0.74505805969E-08  0.93827000000E+00  0.93827000000E+00 0. -1.
     999902    2    1    2    0    0 -0.62495223701E-02  0.14237453350E-01  0.18465811231E-01  0.10197898303E+01  0.10195040707E+01 0.  0.
     999903    2    3    3    0    0  0.12446594332E+00  0.30357943983E-01  0.69411298791E-02  0.12991387185E+00  0.20397524506E-01 0.  0.
         14    1    1    2    0    0  0.62495223701E-02 -0.14237453350E-01 -0.18465811231E-01  0.24140169680E-01  0.00000000000E+00 0.  1.
     999901    1    3    3    0    0 -0.13071546569E+00 -0.16120490632E-01  0.11524681352E-01  0.88987595847E+00  0.88000000000E+00 0. -1.
        -11    1    4    4    0    0  0.10114569818E+00  0.17764535901E-01  0.77583439103E-03  0.10269807221E+00  0.51100000000E-03 0. -1.
         11    1    4    4    0    0  0.23320245135E-01  0.12593408082E-01  0.61652954881E-02  0.27215799634E-01  0.51100000000E-03 0.  1.
</event>
<event>
 8    1  0.1129602E+005  0.1043930E+01  0.7957747E-01            NaN
         13   -1    0    0    0    0  0.00000000000E+00  0.00000000000E+00  0.74505805969E-08  0.10566000000E+00  0.10566000000E+00 0.  1.
     999900   -1    0    0    0    0 -0.00000000000E+00 -0.00000000000E+00 -0.74505805969E-08  0.93827000000E+00  0.93827000000E+00 0. -1.
     999902    2    1    2    0    0  0.96775502004E-02  0.18159576991E-01 -0.11130917054E-01  0.10205350747E+01  0.10202668848E+01 0.  0.
     999903    2    3    3    0    0  0.67816599345E-01  0.56367974939E-01  0.95435124180E-01  0.13138022215E+00  0.19402579695E-01 0.  0.
         14    1    1    2    0    0 -0.96775502004E-02 -0.18159576991E-01  0.11130917054E-01  0.23394925279E-01  0.00000000000E+00 0.  1.
     999901    1    3    3    0    0 -0.58139049145E-01 -0.38208397948E-01 -0.10656604123E+00  0.88915485257E+00  0.88000000000E+00 0. -1.
        -11    1    4    4    0    0  0.51902454195E-01  0.46806677974E-01  0.63468828651E-01  0.94410185816E-01  0.51100000000E-03 0. -1.
         11    1    4    4    0    0  0.15914145150E-01  0.95612969648E-02  0.31966295530E-01  0.36970036332E-01  0.51100000000E-03 0.  1.
</event>
<event>
 8    1  0.1129602E+005  0.1043930E+01  0.7957747E-01            NaN
         13   -1    0    0    0    0  0.00000000000E+00  0.00000000000E+00  0.74505805969E-08  0.10566000000E+00  0.10566000000E+00 0. -1.
     999900   -1    0    0    0    0 -0.00000000000E+00 -0.00000000000E+00 -0.74505805969E-08  0.93827000000E+00  0.93827000000E+00 0. -1.
     999902    2    1    2    0    0 -0.20212892679E-01 -0.13154209319E-01 -0.15428147127E-01  0.10153009592E+01  0.10148972440E+01 0.  0.
     999903    2    3    3    0    0 -0.30112288031E-02  0.12303559831E+00 -0.35724498623E-02  0.12457983646E+00  0.18988083201E-01 0.  0.
         14    1    1    2    0    0  0.20212892679E-01  0.13154209319E-01  0.15428147127E-01  0.28629040798E-01  0.00000000000E+00 0. -1.
     999901    1    3    3    0    0 -0.17201663876E-01 -0.13618980763E+00 -0.11855697264E-01  0.89072112274E+00  0.88000000000E+00 0.  1.
        -11    1    4    4    0    0 -0.10702182259E-01  0.55343520757E-01 -0.30309857630E-03  0.56371934370E-01  0.51100000000E-03 0.  1.
         11    1    4    4    0    0  0.76909534557E-02  0.67692077554E-01 -0.32693512860E-02  0.68207902089E-01  0.51100000000E-03 0. -1.
</event>
<event>
 7    1  0.1129602E+005  0.1043930E+01  0.7957747E-01            NaN
         13   -1    0    0    0    0  0.00000000000E+00  0.00000000000E+00  0.74505805969E-08  0.10566000000E+00  0.10566000000E+00 0. -1.
     999900   -1    0    0    0    0 -0.00000000000E+00 -0.00000000000E+00 -0.74505805969E-08  0.93827000000E+00  0.93827000000E+00 0. -1.
     999903    2    1    2    0    0  0.17097962138E-02  0.75224966631E-01 -0.36593384466E-01  0.85941437199E-01  0.19624877920E-01 0.  0.
         14    1    1    2    0    0 -0.47827003011E-01 -0.69914334808E-02  0.55942429163E-01  0.73931439454E-01  0.00000000000E+00 0.  1.
     999901    1    1    2    0    0  0.46117206798E-01 -0.68233533151E-01 -0.19349044697E-01  0.88405712335E+00  0.88000000000E+00 0.  1.
        -11    1    3    3    0    0 -0.57776556247E-02  0.46628180192E-01 -0.29687717603E-01  0.55580483895E-01  0.51100000000E-03 0. -1.
         11    1    3    3    0    0  0.74874518384E-02  0.28596786439E-01 -0.69056668629E-02  0.30360953304E-01  0.51100000000E-03 0.  1.
</event>
<event>
 8    1  0.1129602E+005  0.1043930E+01  0.7957747E-01            NaN
         13   -1    0    0    0    0  0.00000000000E+00  0.00000000000E+00  0.74505805969E-08  0.10566000000E+00  0.10566000000E+00 0. -1.
     999900   -1    0    0    0    0 -0.00000000000E+00 -0.00000000000E+00 -0.74505805969E-08  0.93827000000E+00  0.93827000000E+00 0. -1.
     999902    2    1    2    0    0  0.19748595744E-01  0.93460522457E-02 -0.41365359528E-02  0.10216933938E+01  0.10214513812E+01 0.  0.
     999903    2    3    3    0    0  0.11447582162E+00  0.68130657113E-01 -0.95935877012E-03  0.13465395185E+00  0.19602709086E-01 0.  0.
         14    1    1    2    0    0 -0.19748595744E-01 -0.93460522457E-02  0.41365359528E-02  0.22236606218E-01  0.00000000000E+00 0.  1.
     999901    1    3    3    0    0 -0.94727225881E-01 -0.58784604868E-01 -0.31771771826E-02  0.88703944193E+00  0.88000000000E+00 0. -1.
        -11    1    4    4    0    0  0.60293174962E-01  0.31218082242E-01 -0.94157603385E-02  0.68547452686E-01  0.51100000000E-03 0. -1.
         11    1    4    4    0    0  0.54182646662E-01  0.36912574871E-01  0.84564015684E-02  0.66106499161E-01  0.51100000000E-03 0.  1.
</event>
<event>
 8    1  0.1129602E+005  0.1043930E+01  0.7957747E-01            NaN
         13   -1    0    0    0    0  0.00000000000E+00  0.00000000000E+00  0.74505805969E-08  0.10566000000E+00  0.10566000000E+00 0.  1.
     999900   -1    0    0    0    0 -0.00000000000E+00 -0.00000000000E+00 -0.74505805969E-08  0.93827000000E+00  0.93827000000E+00 0. -1.
     999902    2    1    2    0    0 -0.15581815568E-01  0.13452734810E-01  0.10654242429E-01  0.10207506572E+01  0.10204874435E+01 0.  0.
     999903    2    3    3    0    0 -0.12513826078E-01  0.22924739756E-01  0.12874968892E+00  0.13280602723E+00  0.19463271432E-01 0.  0.
         14    1    1    2    0    0  0.15581815568E-01 -0.13452734810E-01 -0.10654242429E-01  0.23179342786E-01  0.00000000000E+00 0. -1.
     999901    1    3    3    0    0 -0.30679894891E-02 -0.94720049464E-02 -0.11809544649E+00  0.88794462999E+00  0.88000000000E+00 0. -1.
        -11    1    4    4    0    0  0.36115884286E-02  0.12018033416E-01  0.39181542904E-01  0.41145244239E-01  0.51100000000E-03 0.  1.
         11    1    4    4    0    0 -0.16125414507E-01  0.10906706340E-01  0.89568146018E-01  0.91660782990E-01  0.51100000000E-03 0. -1.
</event>
<event>
 8    1  0.1129602E+005  0.1043930E+01  0.7957747E-01            NaN
         13   -1    0    0    0    0  0.00000000000E+00  0.00000000000E+00  0.74505805969E-08  0.10566000000E+00  0.10566000000E+00 0. -1.
     999900   -1    0    0    0    0 -0.00000000000E+00 -0.00000000000E+00 -0.74505805969E-08  0.93827000000E+00  0.93827000000E+00 0.  1.
     999902    2    1    2    0    0 -0.14869286207E-01  0.14601232927E-01  0.11472718659E-01  0.10201410330E+01  0.10198636244E+01 0.  0.
     999903    2    3    3    0    0  0.35732516423E-01  0.24331067407E-01  0.12268919660E+00  0.13164549728E+00  0.20225835481E-01 0.  0.
         14    1    1    2    0    0  0.14869286207E-01 -0.14601232927E-01 -0.11472718659E-01  0.23788966953E-01  0.00000000000E+00 0. -1.
     999901    1    3    3    0    0 -0.50601802630E-01 -0.97298344805E-02 -0.11121647794E+00  0.88849553576E+00  0.88000000000E+00 0.  1.
        -11    1    4    4    0    0  0.39031174554E-02  0.96291921435E-02  0.48284110486E-01  0.49392024798E-01  0.51100000000E-03 0. -1.
         11    1    4    4    0    0  0.31829398967E-01  0.14701875263E-01  0.74405086115E-01  0.82253472484E-01  0.51100000000E-03 0.  1.
</event>
<event>
 8    1  0.1129602E+005  0.1043930E+01  0.7957747E-01            NaN
         13   -1    0    0    0    0  0.00000000000E+00  0.00000000000E+00  0.74505805969E-08  0.10566000000E+00  0.10566000000E+00 0.  1.
     999900   -1    0    0    0    0 -0.00000000000E+00 -0.00000000000E+00 -0.74505805969E-08  0.93827000000E+00  0.93827000000E+00 0.  1.
     999902    2    1    2    0    0 -0.66037129596E-02 -0.15164094428E-01 -0.16837314210E-01  0.10203280099E+01  0.10200549956E+01 0.  0.
     999903    2    3    3    0    0 -0.39307311443E-01  0.12113877121E+00 -0.88626380369E-02  0.12919861867E+00  0.19851198738E-01 0.  0.
         14    1    1    2    0    0  0.66037129596E-02  0.15164094428E-01  0.16837314210E-01  0.23601990053E-01  0.00000000000E+00 0.  1.
     999901    1    3    3    0    0  0.32703598484E-01 -0.13630286563E+00 -0.79746761735E-02  0.89112939127E+00  0.88000000000E+00 0. -1.
        -11    1    4    4    0    0 -0.73382499525E-02  0.51763128284E-01 -0.73286450108E-02  0.52794332279E-01  0.51100000000E-03 0.  1.
         11    1    4    4    0    0 -0.31969061491E-01  0.69375642923E-01 -0.15339930262E-02  0.76404286393E-01  0.51100000000E-03 0. -1.
</event>
<event>
 8    1  0.1129602E+005  0.1043930E+01  0.7957747E-01            NaN
         13   -1    0    0    0    0  0.00000000000E+00  0.00000000000E+00  0.74505805969E-08  0.10566000000E+00  0.10566000000E+00 0. -1.
     999900   -1    0    0    0    0 -0.00000000000E+00 -0.00000000000E+00 -0.74505805969E-08  0.93827000000E+00  0.93827000000E+00 0. -1.
     999902    2    1    2    0    0 -0.50633008010E-02 -0.75868373264E-02 -0.21541454373E-01  0.10205370230E+01  0.10202688783E+01 0.  0.
     999903    2    3    3    0    0 -0.14202174977E-01  0.30168913094E-01  0.12207413210E+00  0.12804923465E+00  0.19561382243E-01 0.  0.
         14    1    1    2    0    0  0.50633008010E-02  0.75868373264E-02  0.21541454373E-01  0.23392976983E-01  0.00000000000E+00 0.  1.
     999901    1    3    3    0    0  0.91388741763E-02 -0.37755750421E-01 -0.14361558647E+00  0.89248778837E+00  0.88000000000E+00 0. -1.
        -11    1    4    4    0    0 -0.16212596610E-01  0.12288088284E-01  0.56657625408E-01  0.60201271086E-01  0.51100000000E-03 0.  1.
         11    1    4    4    0    0  0.20104216332E-02  0.17880824810E-01  0.65416506690E-01  0.67847963562E-01  0.51100000000E-03 0. -1.
</event>
<event>
 8    1  0.1129602E+005  0.1043930E+01  0.7957747E-01            NaN
         13   -1    0    0    0    0  0.00000000000E+00  0.00000000000E+00  0.74505805969E-08  0.10566000000E+00  0.10566000000E+00 0.  1.
     999900   -1    0    0    0    0 -0.00000000000E+00 -0.00000000000E+00 -0.74505805969E-08  0.93827000000E+00  0.93827000000E+00 0. -1.
     999902    2    1    2    0    0  0.94804041141E-02  0.21880104651E-01  0.22228929191E-01  0.10113302709E+01  0.10108047163E+01 0.  0.
     999903    2    3    3    0    0  0.64074301840E-01  0.82978849461E-01 -0.62326618930E-01  0.12348839819E+00  0.19333169604E-01 0.  0.
         14    1    1    2    0    0 -0.94804041141E-02 -0.21880104651E-01 -0.22228929191E-01  0.32599729059E-01  0.00000000000E+00 0.  1.
     999901    1    3    3    0    0 -0.54593897726E-01 -0.61098744810E-01  0.84555548121E-01  0.88784187275E+00  0.88000000000E+00 0.  1.
        -11    1    4    4    0    0  0.48728735888E-01  0.74622260445E-01 -0.52148218457E-01  0.10326020174E+00  0.51100000000E-03 0.  1.
         11    1    4    4    0    0  0.15345565952E-01  0.83565890167E-02 -0.10178400473E-01  0.20228196449E-01  0.51100000000E-03 0. -1.
</event>
<event>
 8    1  0.1129602E+005  0.1043930E+01  0.7957747E-01            NaN
         13   -1    0    0    0    0  0.00000000000E+00  0.00000000000E+00  0.74505805969E-08  0.10566000000E+00  0.10566000000E+00 0. -1.
     999900   -1    0    0    0    0 -0.00000000000E+00 -0.00000000000E+00 -0.74505805969E-08  0.93827000000E+00  0.93827000000E+00 0. -1.
     999902    2    1    2    0    0 -0.93161369057E-02  0.10017997273E-02 -0.20984414723E-01  0.10209487104E+01  0.10206900262E+01 0.  0.
     999903    2    3    3    0    0  0.11816647186E+00  0.22146359891E-01 -0.47649581731E-01  0.13111168090E+00  0.21587355120E-01 0.  0.
         14    1    1    2    0    0  0.93161369057E-02 -0.10017997273E-02  0.20984414723E-01  0.22981289581E-01  0.00000000000E+00 0. -1.
     999901    1    3    3    0    0 -0.12748260877E+00 -0.21144560163E-01  0.26665167008E-01  0.88983702951E+00  0.88000000000E+00 0.  1.
        -11    1    4    4    0    0  0.61324620969E-01  0.20572009264E-01 -0.31794274800E-01  0.72076721160E-01  0.51100000000E-03 0.  1.
         11    1    4    4    0    0  0.56841850896E-01  0.15743506272E-02 -0.15855306932E-01  0.59034959745E-01  0.51100000000E-03 0. -1.
</event>
<event>
 8    1  0.1129602E+005  0.1043930E+01  0.7957747E-01            NaN
         13   -1    0    0    0    0  0.00000000000E+00  0.00000000000E+00  0.74505805969E-08  0.10566000000E+00  0.10566000000E+00 0. -1.
     999900   -1    0    0    0    0 -0.00000000000E+00 -0.00000000000E+00 -0.74505805969E-08  0.93827000000E+00  0.93827000000E+00 0. -1.
     999902    2    1    2    0    0 -0.74293512481E-04  0.13141753055E-02  0.25698173271E-01  0.10181981387E+01  0.10178729395E+01 0.  0.
     999903    2    3    3    0    0 -0.19951330060E-01 -0.32192885729E-01  0.12473968596E+00  0.13178568338E+00  0.19314233793E-01 0.  0.
         14    1    1    2    0    0  0.74293512481E-04 -0.13141753055E-02 -0.25698173271E-01  0.25731861296E-01  0.00000000000E+00 0.  1.
     999901    1    3    3    0    0  0.19877036547E-01  0.33507061035E-01 -0.99041512690E-01  0.88641245533E+00  0.88000000000E+00 0. -1.
        -11    1    4    4    0    0 -0.18569612593E-01 -0.24850881676E-01  0.70418535881E-01  0.76950816425E-01  0.51100000000E-03 0.  1.
         11    1    4    4    0    0 -0.13817174671E-02 -0.73420040535E-02  0.54321150081E-01  0.54834866953E-01  0.51100000000E-03 0. -1.
</event>
<event>
 8    1  0.1129602E+005  0.1043930E+01  0.7957747E-01            NaN
         13   -1    0    0    0    0  0.00000000000E+00  0.00000000000E+00  0.74505805969E-08  0.10566000000E+00  0.10566000000E+00 0. -1.
     999900   -1    0    0    0    0 -0.00000000000E+00 -0.00000000000E+00 -0.74505805969E-08  0.93827000000E+00  0.93827000000E+00 0.  1.
     999902    2    1    2    0    0 -0.17975408863E-01  0.83908894647E-02 -0.13597398128E-01  0.10198798111E+01  0.10195962032E+01 0.  0.
     999903    2    3    3    0    0 -0.94605330016E-01  0.80808908995E-03 -0.91525004271E-01  0.13308651193E+00  0.19605401668E-01 0.  0.
         14    1    1    2    0    0  0.17975408863E-01 -0.83908894647E-02  0.13597398128E-01  0.24050188890E-01  0.00000000000E+00 0. -1.
     999901    1    3    3    0    0  0.76629921153E-01  0.75828003748E-02  0.77927606143E-01  0.88679329918E+00  0.88000000000E+00 0. -1.
        -11    1    4    4    0    0 -0.30511282618E-01 -0.17046889104E-02 -0.17825069768E-01  0.35381330735E-01  0.51100000000E-03 0.  1.
         11    1    4    4    0    0 -0.64094047397E-01  0.25127780004E-02 -0.73699934503E-01  0.97705181192E-01  0.51100000000E-03 0. -1.
</event>
<event>
 8    1  0.1129602E+005  0.1043930E+01  0.7957747E-01            NaN
         13   -1    0    0    0    0  0.00000000000E+00  0.00000000000E+00  0.74505805969E-08  0.10566000000E+00  0.10566000000E+00 0. -1.
     999900   -1    0    0    0    0 -0.00000000000E+00 -0.00000000000E+00 -0.74505805969E-08  0.93827000000E+00  0.93827000000E+00 0.  1.
     999902    2    1    2    0    0  0.17485880948E-01 -0.15038055942E-01 -0.44261804778E-02  0.10204461708E+01  0.10201759149E+01 0.  0.
     999903    2    3    3    0    0 -0.11656486590E+00 -0.19662402701E-01  0.46860055133E-01  0.12880652092E+00  0.20525034070E-01 0.  0.
         14    1    1    2    0    0 -0.17485880948E-01  0.15038055942E-01  0.44261804778E-02  0.23483829174E-01  0.00000000000E+00 0. -1.
     999901    1    3    3    0    0  0.13405074685E+00  0.46243467589E-02 -0.51286235611E-01  0.89163964990E+00  0.88000000000E+00 0.  1.
        -11    1    4    4    0    0 -0.95876036605E-01 -0.16078267750E-01  0.46585191044E-01  0.10780151314E+00  0.51100000000E-03 0. -1.
         11    1    4    4    0    0 -0.20688829293E-01 -0.35841349510E-02  0.27486408908E-03  0.21005007787E-01  0.51100000000E-03 0.  1.
</event>
<event>
 8    1  0.1129602E+005  0.1043930E+01  0.7957747E-01            NaN
         13   -1    0    0    0    0  0.00000000000E+00  0.00000000000E+00  0.74505805969E-08  0.10566000000E+00  0.10566000000E+00 0. -1.
     999900   -1    0    0    0    0 -0.00000000000E+00 -0.00000000000E+00 -0.74505805969E-08  0.93827000000E+00  0.93827000000E+00 0. -1.
     999902    2    1    2    0    0 -0.65677111261E-02 -0.18878537602E-01 -0.13317469036E-01  0.10199114865E+01  0.10196286340E+01 0.  0.
     999903    2    3    3    0    0 -0.34309425483E-01  0.90049145092E-02 -0.12309184479E+00  0.13221925196E+00  0.32742986604E-01 0.  0.
         14    1    1    2    0    0  0.65677111261E-02  0.18878537602E-01  0.13317469036E-01  0.24018513546E-01  0.00000000000E+00 0. -1.
     999901    1    3    3    0    0  0.27741714357E-01 -0.27883452111E-01  0.10977437575E+00  0.88769223450E+00  0.88000000000E+00 0.  1.
        -11    1    4    4    0    0 -0.12662362484E-01 -0.11137474670E-01 -0.28575173218E-01  0.33184038500E-01  0.51100000000E-03 0. -1.
         11    1    4    4    0    0 -0.21647062999E-01  0.20142389179E-01 -0.94516671571E-01  0.99035213455E-01  0.51100000000E-03 0.  1.
</event>
<event>
 8    1  0.1129602E+005  0.1043930E+01  0.7957747E-01            NaN
         13   -1    0    0    0    0  0.00000000000E+00  0.00000000000E+00  0.74505805969E-08  0.10566000000E+00  0.10566000000E+00 0.  1.
     999900   -1    0    0    0    0 -0.00000000000E+00 -0.00000000000E+00 -0.74505805969E-08  0.93827000000E+00  0.93827000000E+00 0. -1.
     999902    2    1    2    0    0 -0.19650418635E-01 -0.83208624637E-02 -0.11180416283E-01  0.10198389765E+01  0.10195543931E+01 0.  0.
     999903    2    3    3    0    0  0.59722272763E-01 -0.75371759000E-01 -0.86052391855E-01  0.13056868037E+00  0.19887539591E-01 0.  0.
         14    1    1    2    0    0  0.19650418635E-01  0.83208624637E-02  0.11180416283E-01  0.24091023493E-01  0.00000000000E+00 0.  1.
     999901    1    3    3    0    0 -0.79372691398E-01  0.67050896536E-01  0.74871975571E-01  0.88927029614E+00  0.88000000000E+00 0.  1.
        -11    1    4    4    0    0  0.14779821208E-02 -0.64527909906E-03 -0.69200124482E-02  0.71237988144E-02  0.51100000000E-03 0.  1.
         11    1    4    4    0    0  0.58244290642E-01 -0.74726479901E-01 -0.79132379406E-01  0.12344488156E+00  0.51100000000E-03 0. -1.
</event>
<event>
 8    1  0.1129602E+005  0.1043930E+01  0.7957747E-01            NaN
         13   -1    0    0    0    0  0.00000000000E+00  0.00000000000E+00  0.74505805969E-08  0.10566000000E+00  0.10566000000E+00 0.  1.
     999900   -1    0    0    0    0 -0.00000000000E+00 -0.00000000000E+00 -0.74505805969E-08  0.93827000000E+00  0.93827000000E+00 0. -1.
     999902    2    1    2    0    0  0.14943384635E-01  0.15795221038E-01 -0.10403656670E-01  0.10198254398E+01  0.10195405327E+01 0.  0.
     999903    2    3    3    0    0  0.12126896935E+00  0.39497796119E-01  0.28440306589E-01  0.13225809274E+00  0.20423350130E-01 0.  0.
         14    1    1    2    0    0 -0.14943384635E-01 -0.15795221038E-01  0.10403656670E-01  0.24104560234E-01  0.00000000000E+00 0.  1.
     999901    1    3    3    0    0 -0.10632558471E+00 -0.23702575081E-01 -0.38843963259E-01  0.88756734703E+00  0.88000000000E+00 0. -1.
        -11    1    4    4    0    0  0.10373855197E+00  0.26382823361E-01  0.26496557381E-01  0.11027270382E+00  0.51100000000E-03 0.  1.
         11    1    4    4    0    0  0.17530417373E-01  0.13114972758E-01  0.19437492083E-02  0.21985388914E-01  0.51100000000E-03 0. -1.
</event>
<event>
 8    1  0.1129602E+005  0.1043930E+01  0.7957747E-01            NaN
         13   -1    0    0    0    0  0.00000000000E+00  0.00000000000E+00  0.74505805969E-08  0.10566000000E+00  0.10566000000E+00 0.  1.
     999900   -1    0    0    0    0 -0.00000000000E+00 -0.00000000000E+00 -0.74505805969E-08  0.93827000000E+00  0.93827000000E+00 0. -1.
     999902    2    1    2    0    0 -0.19261294651E-01  0.38652865828E-02 -0.13490581867E-01  0.10200986402E+01  0.10198202302E+01 0.  0.
     999903    2    3    3    0    0 -0.11003584609E+00 -0.70704733220E-01  0.38533673649E-02  0.13212255963E+00  0.18288674096E-01 0.  0.
         14    1    1    2    0    0  0.19261294651E-01 -0.38652865828E-02  0.13490581867E-01  0.23831359825E-01  0.00000000000E+00 0. -1.
     999901    1    3    3    0    0  0.90774551435E-01  0.74570019803E-01 -0.17343949232E-01  0.88797608054E+00  0.88000000000E+00 0. -1.
        -11    1    4    4    0    0 -0.20531730315E-02  0.62483649952E-03 -0.13780259487E-02  0.26011567934E-02  0.51100000000E-03 0. -1.
         11    1    4    4    0    0 -0.10798267305E+00 -0.71329569719E-01  0.52313933136E-02  0.12952140284E+00  0.51100000000E-03 0.  1.
</event>
<event>
 8    1  0.1129602E+005  0.1043930E+01  0.7957747E-01            NaN
         13   -1    0    0    0    0  0.00000000000E+00  0.00000000000E+00  0.74505805969E-08  0.10566000000E+00  0.10566000000E+00 0.  1.
     999900   -1    0    0    0    0 -0.00000000000E+00 -0.00000000000E+00 -0.74505805969E-08  0.93827000000E+00  0.93827000000E+00 0.  1.
     999902    2    1    2    0    0 -0.15009506895E-01 -0.77420433643E-02 -0.14472939001E-01  0.10216883612E+01  0.10214462379E+01 0.  0.
     999903    2    3    3    0    0 -0.11909636960E+00 -0.36770252043E-01 -0.46193201933E-01  0.13451144144E+00  0.20579584213E-01 0.  0.
         14    1    1    2    0    0  0.15009506895E-01  0.77420433643E-02  0.14472939001E-01  0.22241638789E-01  0.00000000000E+00 0.  1.
     999901    1    3    3    0    0  0.10408686271E+00  0.29028208678E-01  0.31720262932E-01  0.88717691977E+00  0.88000000000E+00 0. -1.
        -11    1    4    4    0    0 -0.64541738284E-01 -0.17314909627E-01 -0.14117183762E-01  0.68300791170E-01  0.51100000000E-03 0.  1.
         11    1    4    4    0    0 -0.54554631320E-01 -0.19455342416E-01 -0.32076018171E-01  0.66210650274E-01  0.51100000000E-03 0. -1.
</event>
<event>
 8    1  0.1129602E+005  0.1043930E+01  0.7957747E-01            NaN
         13   -1    0    0    0    0  0.00000000000E+00  0.00000000000E+00  0.74505805969E-08  0.10566000000E+00  0.10566000000E+00 0. -1.
     999900   -1    0    0    0    0 -0.00000000000E+00 -0.00000000000E+00 -0.74505805969E-08  0.93827000000E+00  0.93827000000E+00 0.  1.
     999902    2    1    2    0    0  0.25789531536E-02  0.21882019188E-01  0.32530976263E-02  0.10216576762E+01  0.10214148770E+01 0.  0.
     999903    2    3    3    0    0 -0.25707701460E-02  0.10880553408E+00 -0.75514716607E-01  0.13385894583E+00  0.19248164845E-01 0.  0.
         14    1    1    2    0    0 -0.25789531536E-02 -0.21882019188E-01 -0.32530976263E-02  0.22272323796E-01  0.00000000000E+00 0. -1.
     999901    1    3    3    0    0  0.51497232996E-02 -0.86923514891E-01  0.78767814233E-01  0.88779873037E+00  0.88000000000E+00 0.  1.
        -11    1    4    4    0    0  0.10967062135E-02  0.69752202497E-01 -0.58722358283E-01  0.91187438833E-01  0.51100000000E-03 0. -1.
         11    1    4    4    0    0 -0.36674763596E-02  0.39053331582E-01 -0.16792358323E-01  0.42671506999E-01  0.51100000000E-03 0.  1.
</event>
<event>
 8    1  0.1129602E+005  0.1043930E+01  0.7957747E-01            NaN
         13   -1    0    0    0    0  0.00000000000E+00  0.00000000000E+00  0.74505805969E-08  0.10566000000E+00  0.10566000000E+00 0.  1.
     999900   -1    0    0    0    0 -0.00000000000E+00 -0.00000000000E+00 -0.74505805969E-08  0.93827000000E+00  0.93827000000E+00 0.  1.
     999902    2    1    2    0    0  0.14158667677E-01 -0.12852212421E-01  0.16565316322E-01  0.10186306534E+01  0.10183164297E+01 0.  0.
     999903    2    3    3    0    0  0.93119791652E-01  0.44257073655E-01  0.78422048320E-01  0.13109328237E+00  0.20135710886E-01 0.  0.
         14    1    1    2    0    0 -0.14158667677E-01  0.12852212421E-01 -0.16565316322E-01  0.25299346619E-01  0.00000000000E+00 0. -1.
     999901    1    3    3    0    0 -0.78961123974E-01 -0.57109286076E-01 -0.61856731997E-01  0.88753737102E+00  0.88000000000E+00 0.  1.
        -11    1    4    4    0    0  0.54340611208E-01  0.25996890617E-01  0.57949383762E-01  0.83589069547E-01  0.51100000000E-03 0.  1.
         11    1    4    4    0    0  0.38779180443E-01  0.18260183038E-01  0.20472664557E-01  0.47504212819E-01  0.51100000000E-03 0. -1.
</event>
<event>
 8    1  0.1129602E+005  0.1043930E+01  0.7957747E-01            NaN
         13   -1    0    0    0    0  0.00000000000E+00  0.00000000000E+00  0.74505805969E-08  0.10566000000E+00  0.10566000000E+00 0. -1.
     999900   -1    0    0    0    0 -0.00000000000E+00 -0.00000000000E+00 -0.74505805969E-08  0.93827000000E+00  0.93827000000E+00 0. -1.
     999902    2    1    2    0    0 -0.16925273947E-01  0.14803212891E-01 -0.70514351008E-02  0.10203647131E+01  0.10200925571E+01 0.  0.
     999903    2    3    3    0    0  0.36938816580E-01 -0.51239062907E-01  0.11000360560E+00  0.12853243907E+00  0.20733473177E-01 0.  0.
         14    1    1    2    0    0  0.16925273947E-01 -0.14803212891E-01  0.70514351008E-02  0.23565286908E-01  0.00000000000E+00 0. -1.
     999901    1    3    3    0    0 -0.53864090527E-01  0.66042275798E-01 -0.11705504070E+00  0.89183227403E+00  0.88000000000E+00 0. -1.
        -11    1    4    4    0    0  0.30373696428E-01 -0.25847863021E-01  0.72808538600E-01  0.83018177958E-01  0.51100000000E-03 0.  1.
         11    1    4    4    0    0  0.65651201523E-02 -0.25391199886E-01  0.37195066998E-01  0.45514261108E-01  0.51100000000E-03 0. -1.
</event>
<event>
 8    1  0.1129602E+005  0.1043930E+01  0.7957747E-01            NaN
         13   -1    0    0    0    0  0.00000000000E+00  0.00000000000E+00  0.74505805969E-08  0.10566000000E+00  0.10566000000E+00 0. -1.
     999900   -1    0    0    0    0 -0.00000000000E+00 -0.00000000000E+00 -0.74505805969E-08  0.93827000000E+00  0.93827000000E+00 0.  1.
     999902    2    1    2    0    0 -0.19345057781E-01  0.17513289571E-02  0.12016951353E-01  0.10210891258E+01  0.10208336286E+01 0.  0.
     999903    2    3    3    0    0  0.25681533452E-01  0.10641302278E+00  0.70620682297E-01  0.13181084465E+00  0.20088440006E-01 0.  0.
         14    1    1    2    0    0  0.19345057781E-01 -0.17513289571E-02 -0.12016951353E-01  0.22840874184E-01  0.00000000000E+00 0.  1.
     999901    1    3    3    0    0 -0.45026591233E-01 -0.10466169382E+00 -0.58603730944E-01  0.88927828117E+00  0.88000000000E+00 0.  1.
        -11    1    4    4    0    0  0.13687798154E-01  0.80149438483E-01  0.59961182449E-01  0.10102916821E+00  0.51100000000E-03 0. -1.
         11    1    4    4    0    0  0.11993735299E-01  0.26263584296E-01  0.10659499848E-01  0.30781676441E-01  0.51100000000E-03 0.  1.
</event>
<event>
 8    1  0.1129602E+005  0.1043930E+01  0.7957747E-01            NaN
         13   -1    0    0    0    0  0.00000000000E+00  0.00000000000E+00  0.74505805969E-08  0.10566000000E+00  0.10566000000E+00 0.  1.
     999900   -1    0    0    0    0 -0.00000000000E+00 -0.00000000000E+00 -0.74505805969E-08  0.93827000000E+00  0.93827000000E+00 0.  1.
     999902    2    1    2    0    0 -0.12179749038E-01 -0.17920512268E-01 -0.10454134578E-01  0.10198721535E+01  0.10195883628E+01 0.  0.
     999903    2    3    3    0    0 -0.68140410113E-01 -0.10719907279E+00 -0.34753123013E-01  0.13325346560E+00  0.20345757237E-01 0.  0.
         14    1    1    2    0    0  0.12179749038E-01  0.17920512268E-01  0.10454134578E-01  0.24057846462E-01  0.00000000000E+00 0.  1.
     999901    1    3    3    0    0  0.55960661075E-01  0.89278560526E-01  0.24298988435E-01  0.88661868794E+00  0.88000000000E+00 0. -1.
        -11    1    4    4    0    0 -0.21328005089E-01 -0.50622896744E-01 -0.10587910411E-01  0.55945745537E-01  0.51100000000E-03 0.  1.
         11    1    4    4    0    0 -0.46812405024E-01 -0.56576176051E-01 -0.24165212602E-01  0.77307720066E-01  0.51100000000E-03 0. -1.
</event>
<event>
 8    1  0.1129602E+005  0.1043930E+01  0.7957747E-01            NaN
         13   -1    0    0    0    0  0.00000000000E+00  0.00000000000E+00  0.74505805969E-08  0.10566000000E+00  0.10566000000E+00 0.  1.
     999900   -1    0    0    0    0 -0.00000000000E+00 -0.00000000000E+00 -0.74505805969E-08  0.93827000000E+00  0.93827000000E+00 0.  1.
     999902    2    1    2    0    0 -0.20719899370E-02  0.18875731534E-01 -0.14304480405E-01  0.10201559691E+01  0.10198789128E+01 0.  0.
     999903    2    3    3    0    0 -0.97594348775E-02 -0.65213397809E-01  0.10766085392E+00  0.12774035899E+00  0.19460370588E-01 0.  0.
         14    1    1    2    0    0  0.20719899370E-02 -0.18875731534E-01  0.14304480405E-01  0.23774030851E-01  0.00000000000E+00 0.  1.
     999901    1    3    3    0    0  0.76874449404E-02  0.84089129342E-01 -0.12196533433E+00  0.89241561016E+00  0.88000000000E+00 0.  1.
        -11    1    4    4    0    0 -0.12124307623E-01 -0.57498982845E-01  0.82336726071E-01  0.10115695450E+00  0.51100000000E-03 0.  1.
         11    1    4    4    0    0  0.23648727452E-02 -0.77144149643E-02  0.25324127853E-01  0.26583404482E-01  0.51100000000E-03 0. -1.
</event>
<event>
 8    1  0.1129602E+005  0.1043930E+01  0.7957747E-01            NaN
         13   -1    0    0    0    0  0.00000000000E+00  0.00000000000E+00  0.74505805969E-08  0.10566000000E+00  0.10566000000E+00 0. -1.
     999900   -1    0    0    0    0 -0.00000000000E+00 -0.00000000000E+00 -0.74505805969E-08  0.93827000000E+00  0.93827000000E+00 0. -1.
     999902    2    1    2    0    0 -0.14115675206E-01  0.16483732292E-01 -0.90357092668E-02  0.10204223468E+01  0.10201515359E+01 0.  0.
     999903    2    3    3    0    0 -0.23675924320E-01 -0.57884668533E-01  0.11093050001E+00  0.12912332360E+00  0.21355856793E-01 0.  0.
         14    1    1    2    0    0  0.14115675206E-01 -0.16483732292E-01  0.90357092668E-02  0.23507653195E-01  0.00000000000E+00 0. -1.
     999901    1    3    3    0    0  0.95602491141E-02  0.74368400824E-01 -0.11996620928E+00  0.89129902321E+00  0.88000000000E+00 0. -1.
        -11    1    4    4    0    0 -0.95111877323E-02 -0.16133620743E-01  0.53723344774E-01  0.56896531573E-01  0.51100000000E-03 0. -1.
         11    1    4    4    0    0 -0.14164736588E-01 -0.41751047790E-01  0.57207155241E-01  0.72226792023E-01  0.51100000000E-03 0.  1.
</event>
<event>
 8    1  0.1129602E+005  0.1043930E+01  0.7957747E-01            NaN
         13   -1    0    0    0    0  0.00000000000E+00  0.00000000000E+00  0.74505805969E-08  0.10566000000E+00  0.10566000000E+00 0.  1.
     999900   -1    0    0    0    0 -0.00000000000E+00 -0.00000000000E+00 -0.74505805969E-08  0.93827000000E+00  0.93827000000E+00 0.  1.
     999902    2    1    2    0    0  0.18472651735E-01 -0.24402662137E-02  0.14654802349E-01  0.10202243679E+01  0.10199489222E+01 0.  0.
     999903    2    3    3    0    0 -0.98569463087E-01 -0.77518265620E-01 -0.20466613299E-01  0.12861398412E+00  0.19941266067E-01 0.  0.
         14    1    1    2    0    0 -0.18472651735E-01  0.24402662137E-02 -0.14654802349E-01  0.23705632098E-01  0.00000000000E+00 0.  1.
     999901    1    3    3    0    0  0.11704211482E+00  0.75077999407E-01  0.35121415648E-01  0.89161038379E+00  0.88000000000E+00 0.  1.
        -11    1    4    4    0    0 -0.16936012404E-01 -0.87078690677E-02  0.30364866952E-02  0.19290849444E-01  0.51100000000E-03 0.  1.
         11    1    4    4    0    0 -0.81633450683E-01 -0.68810396553E-01 -0.23503099994E-01  0.10932313467E+00  0.51100000000E-03 0. -1.
</event>
<event>
 8    1  0.1129602E+005  0.1043930E+01  0.7957747E-01            NaN
         13   -1    0    0    0    0  0.00000000000E+00  0.00000000000E+00  0.74505805969E-08  0.10566000000E+00  0.10566000000E+00 0. -1.
     999900   -1    0    0    0    0 -0.00000000000E+00 -0.00000000000E+00 -0.74505805969E-08  0.93827000000E+00  0.93827000000E+00 0. -1.
     999902    2    1    2    0    0  0.23292510550E-01  0.40470131254E-02  0.64484367218E-02  0.10194248638E+01  0.10191302916E+01 0.  0.
     999903    2    3    3    0    0  0.79308605532E-01  0.84527633284E-01 -0.59040348698E-01  0.13156017023E+00  0.19686033515E-01 0.  0.
         14    1    1    2    0    0 -0.23292510550E-01 -0.40470131254E-02 -0.64484367218E-02  0.24505136178E-01  0.00000000000E+00 0.  1.
     999901    1    3    3    0    0 -0.56016094982E-01 -0.80480620159E-01  0.65488785419E-01  0.88786469360E+00  0.88000000000E+00 0. -1.
        -11    1    4    4    0    0  0.27394889196E-01  0.18232374976E-01 -0.11501531019E-01  0.34863244085E-01  0.51100000000E-03 0. -1.
         11    1    4    4    0    0  0.51913716336E-01  0.66295258308E-01 -0.47538817678E-01  0.96696926142E-01  0.51100000000E-03 0.  1.
</event>
<event>
 8    1  0.1129602E+005  0.1043930E+01  0.7957747E-01            NaN
         13   -1    0    0    0    0  0.00000000000E+00  0.00000000000E+00  0.74505805969E-08  0.10566000000E+00  0.10566000000E+00 0.  1.
     999900   -1    0    0    0    0 -0.00000000000E+00 -0.00000000000E+00 -0.74505805969E-08  0.93827000000E+00  0.93827000000E+00 0. -1.
     999902    2    1    2    0    0  0.19960564503E-01 -0.63219431514E-02 -0.93180271284E-02  0.10210123926E+01  0.10207551563E+01 0.  0.
     999903    2    3    3    0    0 -0.12782943352E+00 -0.46961713127E-02 -0.44329223926E-02  0.12867367275E+00  0.13222902862E-01 0.  0.
         14    1    1    2    0    0 -0.19960564503E-01  0.63219431514E-02  0.93180271284E-02  0.22917607424E-01  0.00000000000E+00 0. -1.
     999901    1    3    3    0    0  0.14778999802E+00 -0.16257718387E-02 -0.48851047357E-02  0.89233871982E+00  0.88000000000E+00 0.  1.
        -11    1    4    4    0    0 -0.32646207909E-01  0.55270743391E-03 -0.66210175810E-02  0.33319354303E-01  0.51100000000E-03 0.  1.
         11    1    4    4    0    0 -0.95183225608E-01 -0.52488787467E-02  0.21880951884E-02  0.95354318449E-01  0.51100000000E-03 0. -1.
</event>
<event>
 8    1  0.1129602E+005  0.1043930E+01  0.7957747E-01            NaN
         13   -1    0    0    0    0  0.00000000000E+00  0.00000000000E+00  0.74505805969E-08  0.10566000000E+00  0.10566000000E+00 0. -1.
     999900   -1    0    0    0    0 -0.00000000000E+00 -0.00000000000E+00 -0.74505805969E-08  0.93827000000E+00  0.93827000000E+00 0. -1.
     999902    2    1    2    0    0  0.16695486904E-01  0.11863215524E-02  0.16535514508E-01  0.10204019342E+01  0.10201306472E+01 0.  0.
     999903    2    3    3    0    0 -0.12383983156E+00 -0.17225780752E-02 -0.26462441572E-01  0.12820943159E+00  0.19953104442E-01 0.  0.
         14    1    1    2    0    0 -0.16695486904E-01 -0.11863215524E-02 -0.16535514508E-01  0.23528065833E-01  0.00000000000E+00 0.  1.
     999901    1    3    3    0    0  0.14053531847E+00  0.29088996276E-02  0.42997956081E-01  0.89219250258E+00  0.88000000000E+00 0. -1.
        -11    1    4    4    0    0 -0.83578753200E-01  0.61073041903E-02 -0.11703451646E-01  0.84616423065E-01  0.51100000000E-03 0.  1.
         11    1    4    4    0    0 -0.40261078363E-01 -0.78298822655E-02 -0.14758989926E-01  0.43593008521E-01  0.51100000000E-03 0. -1.
</event>
<event>
 8    1  0.1129602E+005  0.1043930E+01  0.7957747E-01            NaN
         13   -1    0    0    0    0  0.00000000000E+00  0.00000000000E+00  0.74505805969E-08  0.10566000000E+00  0.10566000000E+00 0. -1.
     999900   -1    0    0    0    0 -0.00000000000E+00 -0.00000000000E+00 -0.74505805969E-08  0.93827000000E+00  0.93827000000E+00 0. -1.
     999902    2    1    2    0    0 -0.11972958691E-01 -0.13009445493E-01  0.16677497468E-01  0.10196249319E+01  0.10193352076E+01 0.  0.
     999903    2    3    3    0    0  0.90172810840E-01  0.13830995429E-02  0.92018964778E-01  0.13040210256E+00  0.20103972101E-01 0.  0.
         14    1    1    2    0    0  0.11972958691E-01  0.13009445493E-01 -0.16677497468E-01  0.24305068065E-01  0.00000000000E+00 0.  1.
     999901    1    3    3    0    0 -0.10214576953E+00 -0.14392545035E-01 -0.75341467310E-01  0.88922282938E+00  0.88000000000E+00 0. -1.
        -11    1    4    4    0    0  0.70693421405E-01  0.33363612954E-02  0.82278555146E-01  0.10852977884E+00  0.51100000000E-03 0.  1.
         11    1    4    4    0    0  0.19479389434E-01 -0.19532617524E-02  0.97404096314E-02  0.21872323722E-01  0.51100000000E-03 0. -1.
</event>
<event>
 8    1  0.1129602E+005  0.1043930E+01  0.7957747E-01            NaN
         13   -1    0    0    0    0  0.00000000000E+00  0.00000000000E+00  0.74505805969E-08  0.10566000000E+00  0.10566000000E+00 0.  1.
     999900   -1    0    0    0    0 -0.00000000000E+00 -0.00000000000E+00 -0.74505805969E-08  0.93827000000E+00  0.93827000000E+00 0. -1.
     999902    2    1    2    0    0 -0.18856767585E-01  0.42790890106E-03  0.13976545333E-01  0.10204543827E+01  0.10201843179E+01 0.  0.
     999903    2    3    3    0    0  0.51395384137E-01  0.10748536025E+00 -0.46145727393E-01  0.12915681710E+00  0.18906799494E-01 0.  0.
         14    1    1    2    0    0  0.18856767585E-01 -0.42790890106E-03 -0.13976545333E-01  0.23475617334E-01  0.00000000000E+00 0.  1.
     999901    1    3    3    0    0 -0.70252151722E-01 -0.10705745135E+00  0.60122272725E-01  0.89129756557E+00  0.88000000000E+00 0.  1.
        -11    1    4    4    0    0  0.17915629855E-01  0.34178884817E-01 -0.24485713177E-01  0.45705330446E-01  0.51100000000E-03 0.  1.
         11    1    4    4    0    0  0.33479754282E-01  0.73306475434E-01 -0.21660014216E-01  0.83451486650E-01  0.51100000000E-03 0. -1.
</event>
<event>
 8    1  0.1129602E+005  0.1043930E+01  0.7957747E-01            NaN
         13   -1    0    0    0    0  0.00000000000E+00  0.00000000000E+00  0.74505805969E-08  0.10566000000E+00  0.10566000000E+00 0.  1.
     999900   -1    0    0    0    0 -0.00000000000E+00 -0.00000000000E+00 -0.74505805969E-08  0.93827000000E+00  0.93827000000E+00 0. -1.
     999902    2    1    2    0    0  0.36344698111E-02 -0.10267837179E-01  0.14242436515E-01  0.10260000014E+01  0.10258433204E+01 0.  0.
     999903    2    3    3    0    0  0.41404794679E-01  0.18481898842E-01  0.12815728083E+00  0.13738887358E+00  0.19886587142E-01 0.  0.
         14    1    1    2    0    0 -0.36344698111E-02  0.10267837179E-01 -0.14242436515E-01  0.17929998579E-01  0.00000000000E+00 0. -1.
     999901    1    3    3    0    0 -0.37770324868E-01 -0.28749736022E-01 -0.11391484431E+00  0.88861112784E+00  0.88000000000E+00 0. -1.
        -11    1    4    4    0    0 -0.15627068896E-02  0.32858808910E-02  0.63911544267E-02  0.73720446254E-02  0.51100000000E-03 0. -1.
         11    1    4    4    0    0  0.42967501569E-01  0.15196017951E-01  0.12176612640E+00  0.13001682896E+00  0.51100000000E-03 0.  1.
</event>
<event>
 7    1  0.1129602E+005  0.1043930E+01  0.7957747E-01            NaN
         13   -1    0    0    0    0  0.00000000000E+00  0.00000000000E+00  0.74505805969E-08  0.10566000000E+00  0.10566000000E+00 0. -1.
     999900   -1    0    0    0    0 -0.00000000000E+00 -0.00000000000E+00 -0.74505805969E-08  0.93827000000E+00  0.93827000000E+00 0. -1.
     999903    2    1    2    0    0  0.21444359204E-02  0.61978352275E-02  0.91842431109E-01  0.94171613803E-01  0.19754719116E-01 0.  0.
         14    1    1    2    0    0 -0.15767379263E-01 -0.22746765002E-01  0.50958500817E-01  0.57989605727E-01  0.00000000000E+00 0. -1.
     999901    1    1    2    0    0  0.13622943342E-01  0.16548929774E-01 -0.14280093193E+00  0.89176878047E+00  0.88000000000E+00 0.  1.
        -11    1    3    3    0    0 -0.74290085203E-02  0.14718814546E-03  0.18253254256E-01  0.19714315709E-01  0.51100000000E-03 0. -1.
         11    1    3    3    0    0  0.95734444407E-02  0.60506470821E-02  0.73589176853E-01  0.74457298094E-01  0.51100000000E-03 0.  1.
</event>
<event>
 8    1  0.1129602E+005  0.1043930E+01  0.7957747E-01            NaN
         13   -1    0    0    0    0  0.00000000000E+00  0.00000000000E+00  0.74505805969E-08  0.10566000000E+00  0.10566000000E+00 0. -1.
     999900   -1    0    0    0    0 -0.00000000000E+00 -0.00000000000E+00 -0.74505805969E-08  0.93827000000E+00  0.93827000000E+00 0.  1.
     999902    2    1    2    0    0 -0.34618398519E-02  0.16635314514E-01  0.10157377209E-01  0.10241337798E+01  0.10239424342E+01 0.  0.
     999903    2    3    3    0    0  0.29951208633E-01  0.10366508324E+00 -0.78195935053E-01  0.13480992410E+00  0.20385950917E-01 0.  0.
         14    1    1    2    0    0  0.34618398519E-02 -0.16635314514E-01 -0.10157377209E-01  0.19796220242E-01  0.00000000000E+00 0.  1.
     999901    1    3    3    0    0 -0.33413048485E-01 -0.87029768729E-01  0.88353312262E-01  0.88932385566E+00  0.88000000000E+00 0. -1.
        -11    1    4    4    0    0  0.87299772228E-02  0.35847145268E-01 -0.15420670303E-01  0.39991105508E-01  0.51100000000E-03 0.  1.
         11    1    4    4    0    0  0.21221231410E-01  0.67817937974E-01 -0.62775264750E-01  0.94818818592E-01  0.51100000000E-03 0. -1.
</event>
<event>
 8    1  0.1129602E+005  0.1043930E+01  0.7957747E-01            NaN
         13   -1    0    0    0    0  0.00000000000E+00  0.00000000000E+00  0.74505805969E-08  0.10566000000E+00  0.10566000000E+00 0.  1.
     999900   -1    0    0    0    0 -0.00000000000E+00 -0.00000000000E+00 -0.74505805969E-08  0.93827000000E+00  0.93827000000E+00 0.  1.
     999902    2    1    2    0    0 -0.16750401702E-01 -0.16474289307E-01  0.10909740180E-01  0.10180263208E+01  0.10176967079E+01 0.  0.
     999903    2    3    3    0    0  0.35833581434E-01 -0.87964054555E-01 -0.84305135410E-01  0.12845241473E+00  0.19259972549E-01 0.  0.
         14    1    1    2    0    0  0.16750401702E-01  0.16474289307E-01 -0.10909740180E-01  0.25903679201E-01  0.00000000000E+00 0. -1.
     999901    1    3    3    0    0 -0.52583983136E-01  0.71489765248E-01  0.95214875590E-01  0.88957390606E+00  0.88000000000E+00 0. -1.
        -11    1    4    4    0    0  0.30021347033E-01 -0.61553671163E-01 -0.69689309520E-01  0.97708733968E-01  0.51100000000E-03 0.  1.
         11    1    4    4    0    0  0.58122344013E-02 -0.26410383391E-01 -0.14615825890E-01  0.30743680767E-01  0.51100000000E-03 0. -1.
</event>
<event>
 8    1  0.1129602E+005  0.1043930E+01  0.7957747E-01            NaN
         13   -1    0    0    0    0  0.00000000000E+00  0.00000000000E+00  0.74505805969E-08  0.10566000000E+00  0.10566000000E+00 0.  1.
     999900   -1    0    0    0    0 -0.00000000000E+00 -0.00000000000E+00 -0.74505805969E-08  0.93827000000E+00  0.93827000000E+00 0. -1.
     999902    2    1    2    0    0 -0.15759976749E-01 -0.21903116168E-02 -0.17152254006E-01  0.10205339715E+01  0.10202657560E+01 0.  0.
     999903    2    3    3    0    0  0.73885643242E-01  0.10418475084E+00 -0.79608724595E-02  0.12955895917E+00  0.20213802862E-01 0.  0.
         14    1    1    2    0    0  0.15759976749E-01  0.21903116168E-02  0.17152254006E-01  0.23396028500E-01  0.00000000000E+00 0.  1.
     999901    1    3    3    0    0 -0.89645619991E-01 -0.10637506246E+00 -0.91913815462E-02  0.89097501233E+00  0.88000000000E+00 0.  1.
        -11    1    4    4    0    0  0.34376308566E-01  0.65502459190E-01 -0.29200833214E-02  0.74034389024E-01  0.51100000000E-03 0.  1.
         11    1    4    4    0    0  0.39509334676E-01  0.38682291652E-01 -0.50407891381E-02  0.55524570148E-01  0.51100000000E-03 0. -1.
</event>
<event>
 8    1  0.1129602E+005  0.1043930E+01  0.7957747E-01            NaN
         13   -1    0    0    0    0  0.00000000000E+00  0.00000000000E+00  0.74505805969E-08  0.10566000000E+00  0.10566000000E+00 0. -1.
     999900   -1    0    0    0    0 -0.00000000000E+00 -0.00000000000E+00 -0.74505805969E-08  0.93827000000E+00  0.93827000000E+00 0. -1.
     999902    2    1    2    0    0 -0.16548075849E-01 -0.12234246212E-01  0.90638530559E-02  0.10214429142E+01  0.10211953574E+01 0.  0.
     999903    2    3    3    0    0  0.10791154702E-01 -0.87540724009E-01  0.97875374660E-01  0.13335171085E+00  0.20573343022E-01 0.  0.
         14    1    1    2    0    0  0.16548075849E-01  0.12234246212E-01 -0.90638530559E-02  0.22487085780E-01  0.00000000000E+00 0. -1.
     999901    1    3    3    0    0 -0.27339230551E-01  0.75306477797E-01 -0.88811521605E-01  0.88809120337E+00  0.88000000000E+00 0. -1.
        -11    1    4    4    0    0  0.16072771814E-01 -0.65578687145E-01  0.78889409067E-01  0.10383977169E+00  0.51100000000E-03 0. -1.
         11    1    4    4    0    0 -0.52816171118E-02 -0.21962036863E-01  0.18985965594E-01  0.29511939161E-01  0.51100000000E-03 0.  1.
</event>
<event>
 8    1  0.1129602E+005  0.1043930E+01  0.7957747E-01            NaN
         13   -1    0    0    0    0  0.00000000000E+00  0.00000000000E+00  0.74505805969E-08  0.10566000000E+00  0.10566000000E+00 0.  1.
     999900   -1    0    0    0    0 -0.00000000000E+00 -0.00000000000E+00 -0.74505805969E-08  0.93827000000E+00  0.93827000000E+00 0.  1.
     999902    2    1    2    0    0 -0.99814331519E-02 -0.15118329162E-01 -0.15246088409E-01  0.10202522447E+01  0.10199774540E+01 0.  0.
     999903    2    3    3    0    0 -0.19665757963E-01  0.11732985706E+00 -0.47528695572E-01  0.12970270935E+00  0.20267671684E-01 0.  0.
         14    1    1    2    0    0  0.99814331519E-02  0.15118329162E-01  0.15246088409E-01  0.23677755303E-01  0.00000000000E+00 0.  1.
     999901    1    3    3    0    0  0.96843248110E-02 -0.13244818622E+00  0.32282607163E-01  0.89054953535E+00  0.88000000000E+00 0.  1.
        -11    1    4    4    0    0 -0.13852486615E-01  0.54240088576E-01 -0.31940820895E-01  0.64454291979E-01  0.51100000000E-03 0. -1.
         11    1    4    4    0    0 -0.58132713478E-02  0.63089768487E-01 -0.15587874677E-01  0.65248417371E-01  0.51100000000E-03 0.  1.
</event>
<event>
 8    1  0.1129602E+005  0.1043930E+01  0.7957747E-01            NaN
         13   -1    0    0    0    0  0.00000000000E+00  0.00000000000E+00  0.74505805969E-08  0.10566000000E+00  0.10566000000E+00 0.  1.
     999900   -1    0    0    0    0 -0.00000000000E+00 -0.00000000000E+00 -0.74505805969E-08  0.93827000000E+00  0.93827000000E+00 0.  1.
     999902    2    1    2    0    0 -0.23683768506E-01 -0.47686164008E-04 -0.30017179624E-02  0.10200567205E+01  0.10197773186E+01 0.  0.
     999903    2    3    3    0    0  0.12049680918E+00  0.32462885566E-01 -0.16819102180E-01  0.12762414803E+00  0.20777896901E-01 0.  0.
         14    1    1    2    0    0  0.23683768506E-01  0.47686164008E-04  0.30017179624E-02  0.23873279526E-01  0.00000000000E+00 0. -1.
     999901    1    3    3    0    0 -0.14418057769E+00 -0.32510571730E-01  0.13817384217E-01  0.89243257245E+00  0.88000000000E+00 0. -1.
        -11    1    4    4    0    0  0.65411984764E-01  0.18061767112E-01 -0.19545533332E-01  0.70620423223E-01  0.51100000000E-03 0.  1.
         11    1    4    4    0    0  0.55084824417E-01  0.14401118454E-01  0.27264311528E-02  0.57003724805E-01  0.51100000000E-03 0. -1.
</event>
<event>
 8    1  0.1129602E+005  0.1043930E+01  0.7957747E-01            NaN
         13   -1    0    0    0    0  0.00000000000E+00  0.00000000000E+00  0.74505805969E-08  0.10566000000E+00  0.10566000000E+00 0.  1.
     999900   -1    0    0    0    0 -0.00000000000E+00 -0.00000000000E+00 -0.74505805969E-08  0.93827000000E+00  0.93827000000E+00 0. -1.
     999902    2    1    2    0    0  0.17666756724E-01 -0.11711042347E-01  0.12350736272E-01  0.10193983166E+01  0.10191030980E+01 0.  0.
     999903    2    3    3    0    0  0.12047775521E-01 -0.10113219927E+00  0.81793239006E-01  0.13212723203E+00  0.19864563251E-01 0.  0.
         14    1    1    2    0    0 -0.17666756724E-01  0.11711042347E-01 -0.12350736272E-01  0.24531683441E-01  0.00000000000E+00 0. -1.
     999901    1    3    3    0    0  0.56189812033E-02  0.89421156920E-01 -0.69442502735E-01  0.88727108453E+00  0.88000000000E+00 0. -1.
        -11    1    4    4    0    0 -0.11622742036E-02 -0.64143972473E-01  0.55782349519E-01  0.85016067450E-01  0.51100000000E-03 0.  1.
         11    1    4    4    0    0  0.13210049724E-01 -0.36988226794E-01  0.26010889488E-01  0.47111164580E-01  0.51100000000E-03 0. -1.
</event>
<event>
 8    1  0.1129602E+005  0.1043930E+01  0.7957747E-01            NaN
         13   -1    0    0    0    0  0.00000000000E+00  0.00000000000E+00  0.74505805969E-08  0.10566000000E+00  0.10566000000E+00 0. -1.
     999900   -1    0    0    0    0 -0.00000000000E+00 -0.00000000000E+00 -0.74505805969E-08  0.93827000000E+00  0.93827000000E+00 0.  1.
     999902    2    1    2    0    0 -0.57753807334E-02  0.14846880155E-01  0.16521265763E-01  0.10209792463E+01  0.10207212569E+01 0.  0.
     999903    2    3    3    0    0 -0.56990387405E-01  0.82707875824E-01 -0.82415974310E-01  0.13136322289E+00  0.19375410340E-01 0.  0.
         14    1    1    2    0    0  0.57753807334E-02 -0.14846880155E-01 -0.16521265763E-01  0.22950753699E-01  0.00000000000E+00 0.  1.
     999901    1    3    3    0    0  0.51215006672E-01 -0.67860995669E-01  0.98937240073E-01  0.88961602341E+00  0.88000000000E+00 0. -1.
        -11    1    4    4    0    0 -0.20042610412E-01  0.44603732701E-01 -0.34407624546E-01  0.59794188270E-01  0.51100000000E-03 0. -1.
         11    1    4    4    0    0 -0.36947776993E-01  0.38104143122E-01 -0.48008349765E-01  0.71569034616E-01  0.51100000000E-03 0.  1.
</event>
<event>
 8    1  0.1129602E+005  0.1043930E+01  0.7957747E-01            NaN
         13   -1    0    0    0    0  0.00000000000E+00  0.00000000000E+00  0.74505805969E-08  0.10566000000E+00  0.10566000000E+00 0. -1.
     999900   -1    0    0    0    0 -0.00000000000E+00 -0.00000000000E+00 -0.74505805969E-08  0.93827000000E+00  0.93827000000E+00 0.  1.
     999902    2    1    2    0    0  0.17651315691E-01  0.12288643679E-01 -0.10744532721E-01  0.10198878559E+01  0.10196044399E+01 0.  0.
     999903    2    3    3    0    0 -0.76288115371E-01 -0.51663086112E-01  0.85525994550E-01  0.12737317543E+00  0.20500708805E-01 0.  0.
         14    1    1    2    0    0 -0.17651315691E-01 -0.12288643679E-01  0.10744532721E-01  0.24042144091E-01  0.00000000000E+00 0. -1.
     999901    1    3    3    0    0  0.93939431062E-01  0.63951729791E-01 -0.96270527272E-01  0.89251468048E+00  0.88000000000E+00 0.  1.
        -11    1    4    4    0    0 -0.36393410965E-01 -0.15921402570E-01  0.26994614286E-01  0.48030633380E-01  0.51100000000E-03 0.  1.
         11    1    4    4    0    0 -0.39894704407E-01 -0.35741683542E-01  0.58531380265E-01  0.79342542049E-01  0.51100000000E-03 0. -1.
</event>
<event>
 8    1  0.1129602E+005  0.1043930E+01  0.7957747E-01            NaN
         13   -1    0    0    0    0  0.00000000000E+00  0.00000000000E+00  0.74505805969E-08  0.10566000000E+00  0.10566000000E+00 0. -1.
     999900   -1    0    0    0    0 -0.00000000000E+00 -0.00000000000E+00 -0.74505805969E-08  0.93827000000E+00  0.93827000000E+00 0.  1.
     999902    2    1    2    0    0  0.18056115767E-01 -0.15204258415E-01  0.50011021037E-02  0.10198011000E+01  0.10195156104E+01 0.  0.
     999903    2    3    3    0    0  0.71587739988E-01  0.13298865255E-02 -0.10760425987E+00  0.13085848082E+00  0.20461968270E-01 0.  0.
         14    1    1    2    0    0 -0.18056115767E-01  0.15204258415E-01 -0.50011021037E-02  0.24128899950E-01  0.00000000000E+00 0.  1.
     999901    1    3    3    0    0 -0.53531624220E-01 -0.16534144940E-01  0.11260536197E+00  0.88894261923E+00  0.88000000000E+00 0. -1.
        -11    1    4    4    0    0  0.37645730874E-01  0.20268584715E-03 -0.38449746473E-01  0.53813439394E-01  0.51100000000E-03 0.  1.
         11    1    4    4    0    0  0.33942009113E-01  0.11272006784E-02 -0.69154513396E-01  0.77045041424E-01  0.51100000000E-03 0. -1.
</event>
<event>
 8    1  0.1129602E+005  0.1043930E+01  0.7957747E-01            NaN
         13   -1    0    0    0    0  0.00000000000E+00  0.00000000000E+00  0.74505805969E-08  0.10566000000E+00  0.10566000000E+00 0. -1.
     999900   -1    0    0    0    0 -0.00000000000E+00 -0.00000000000E+00 -0.74505805969E-08  0.93827000000E+00  0.93827000000E+00 0.  1.
     999902    2    1    2    0    0  0.31674858909E-02 -0.77153869908E-02  0.22084357385E-01  0.10203232424E+01  0.10200501164E+01 0.  0.
     999903    2    3    3    0    0 -0.63211316509E-01 -0.11321143887E+00  0.41899829727E-02  0.13135992988E+00  0.20624616264E-01 0.  0.
         14    1    1    2    0    0 -0.31674858909E-02  0.77153869908E-02 -0.22084357385E-01  0.23606757600E-01  0.00000000000E+00 0.  1.
     999901    1    3    3    0    0  0.66378802400E-01  0.10549605188E+00  0.17894374412E-01  0.88896331252E+00  0.88000000000E+00 0. -1.
        -11    1    4    4    0    0 -0.21773752168E-01 -0.21361706915E-01 -0.49843311307E-05  0.30507047574E-01  0.51100000000E-03 0.  1.
         11    1    4    4    0    0 -0.41437564341E-01 -0.91849731951E-01  0.41949673038E-02  0.10085288231E+00  0.51100000000E-03 0. -1.
</event>
<event>
 8    1  0.1129602E+005  0.1043930E+01  0.7957747E-01            NaN
         13   -1    0    0    0    0  0.00000000000E+00  0.00000000000E+00  0.74505805969E-08  0.10566000000E+00  0.10566000000E+00 0. -1.
     999900   -1    0    0    0    0 -0.00000000000E+00 -0.00000000000E+00 -0.74505805969E-08  0.93827000000E+00  0.93827000000E+00 0. -1.
     999902    2    1    2    0    0  0.91126098062E-02 -0.18894271649E-01 -0.10804384714E-01  0.10203340705E+01  0.10200611980E+01 0.  0.
     999903    2    3    3    0    0  0.81675517120E-01  0.98778924372E-01  0.75214891008E-02  0.12935248024E+00  0.15726580975E-01 0.  0.
         14    1    1    2    0    0 -0.91126098062E-02  0.18894271649E-01  0.10804384714E-01  0.23595929472E-01  0.00000000000E+00 0. -1.
     999901    1    3    3    0    0 -0.72562907314E-01 -0.11767319602E+00 -0.18325873815E-01  0.89098159029E+00  0.88000000000E+00 0. -1.
        -11    1    4    4    0    0  0.22989841769E-01  0.23364730516E-01  0.81925926226E-02  0.33790873790E-01  0.51100000000E-03 0. -1.
         11    1    4    4    0    0  0.58685675351E-01  0.75414193856E-01 -0.67110352184E-03  0.95561606450E-01  0.51100000000E-03 0.  1.
</event>
<event>
 8    1  0.1129602E+005  0.1043930E+01  0.7957747E-01            NaN
         13   -1    0    0    0    0  0.00000000000E+00  0.00000000000E+00  0.74505805969E-08  0.10566000000E+00  0.10566000000E+00 0. -1.
     999900   -1    0    0    0    0 -0.00000000000E+00 -0.00000000000E+00 -0.74505805969E-08  0.93827000000E+00  0.93827000000E+00 0.  1.
     999902    2    1    2    0    0  0.24263332647E-02  0.12004195924E-01 -0.25936470045E-01  0.10152474567E+01  0.10148422094E+01 0.  0.
     999903    2    3    3    0    0 -0.10326045186E+00  0.61692184594E-01  0.29995217931E-01  0.12577179850E+00  0.21217578586E-01 0.  0.
         14    1    1    2    0    0 -0.24263332647E-02 -0.12004195924E-01  0.25936470045E-01  0.28682543320E-01  0.00000000000E+00 0. -1.
     999901    1    3    3    0    0  0.10568678513E+00 -0.49687988670E-01 -0.55931687975E-01  0.88947565818E+00  0.88000000000E+00 0.  1.
        -11    1    4    4    0    0 -0.62703038912E-01  0.26528186888E-01  0.11866942759E-01  0.69112236542E-01  0.51100000000E-03 0. -1.
         11    1    4    4    0    0 -0.40557412952E-01  0.35163997706E-01  0.18128275172E-01  0.56659561962E-01  0.51100000000E-03 0.  1.
</event>
<event>
 8    1  0.1129602E+005  0.1043930E+01  0.7957747E-01            NaN
         13   -1    0    0    0    0  0.00000000000E+00  0.00000000000E+00  0.74505805969E-08  0.10566000000E+00  0.10566000000E+00 0.  1.
     999900   -1    0    0    0    0 -0.00000000000E+00 -0.00000000000E+00 -0.74505805969E-08  0.93827000000E+00  0.93827000000E+00 0.  1.
     999902    2    1    2    0    0  0.19503384024E-01 -0.11834210303E-01 -0.44779009326E-02  0.10206817287E+01  0.10204169291E+01 0.  0.
     999903    2    3    3    0    0 -0.14564661051E-01 -0.32016284744E-01 -0.12562549637E+00  0.13149969576E+00  0.16529755180E-01 0.  0.
         14    1    1    2    0    0 -0.19503384024E-01  0.11834210303E-01  0.44779009326E-02  0.23248271304E-01  0.00000000000E+00 0.  1.
     999901    1    3    3    0    0  0.34068045075E-01  0.20182074440E-01  0.12114759543E+00  0.88918203294E+00  0.88000000000E+00 0. -1.
        -11    1    4    4    0    0 -0.78951359268E-02 -0.31001239293E-01 -0.99834227536E-01  0.10483579597E+00  0.51100000000E-03 0. -1.
         11    1    4    4    0    0 -0.66695251242E-02 -0.10150454506E-02 -0.25791268830E-01  0.26663899781E-01  0.51100000000E-03 0.  1.
</event>
<event>
 8    1  0.1129602E+005  0.1043930E+01  0.7957747E-01            NaN
         13   -1    0    0    0    0  0.00000000000E+00  0.00000000000E+00  0.74505805969E-08  0.10566000000E+00  0.10566000000E+00 0.  1.
     999900   -1    0    0    0    0 -0.00000000000E+00 -0.00000000000E+00 -0.74505805969E-08  0.93827000000E+00  0.93827000000E+00 0.  1.
     999902    2    1    2    0    0 -0.12380658222E-01  0.11345275420E-01 -0.14302854391E-01  0.10218717223E+01  0.10216336179E+01 0.  0.
     999903    2    3    3    0    0  0.73308224236E-01  0.65143877612E-01 -0.87670953941E-01  0.13304116913E+00  0.19898140309E-01 0.  0.
         14    1    1    2    0    0  0.12380658222E-01 -0.11345275420E-01  0.14302854391E-01  0.22058277723E-01  0.00000000000E+00 0.  1.
     999901    1    3    3    0    0 -0.85688882458E-01 -0.53798602192E-01  0.73368099550E-01  0.88883055315E+00  0.88000000000E+00 0.  1.
        -11    1    4    4    0    0  0.31826328308E-01  0.20126869232E-01 -0.43586925810E-01  0.57602840739E-01  0.51100000000E-03 0. -1.
         11    1    4    4    0    0  0.41481895928E-01  0.45017008380E-01 -0.44084028131E-01  0.75438328392E-01  0.51100000000E-03 0.  1.
</event>
<event>
 8    1  0.1129602E+005  0.1043930E+01  0.7957747E-01            NaN
         13   -1    0    0    0    0  0.00000000000E+00  0.00000000000E+00  0.74505805969E-08  0.10566000000E+00  0.10566000000E+00 0.  1.
     999900   -1    0    0    0    0 -0.00000000000E+00 -0.00000000000E+00 -0.74505805969E-08  0.93827000000E+00  0.93827000000E+00 0. -1.
     999902    2    1    2    0    0  0.18667418348E-01  0.76395705687E-02  0.94362324121E-02  0.10216616811E+01  0.10214189701E+01 0.  0.
     999903    2    3    3    0    0  0.26446278997E-01  0.12560180217E+00  0.30809299746E-01  0.13349930471E+00  0.19940737877E-01 0.  0.
         14    1    1    2    0    0 -0.18667418348E-01 -0.76395705687E-02 -0.94362324121E-02  0.22268318939E-01  0.00000000000E+00 0. -1.
     999901    1    3    3    0    0 -0.77788606491E-02 -0.11796223160E+00 -0.21373067334E-01  0.88816237635E+00  0.88000000000E+00 0.  1.
        -11    1    4    4    0    0  0.77405640360E-02  0.65482302027E-01  0.23981866443E-01  0.70165798288E-01  0.51100000000E-03 0. -1.
         11    1    4    4    0    0  0.18705714961E-01  0.60119500140E-01  0.68274333033E-02  0.63333506422E-01  0.51100000000E-03 0.  1.
</event>
<event>
 8    1  0.1129602E+005  0.1043930E+01  0.7957747E-01            NaN
         13   -1    0    0    0    0  0.00000000000E+00  0.00000000000E+00  0.74505805969E-08  0.10566000000E+00  0.10566000000E+00 0. -1.
     999900   -1    0    0    0    0 -0.00000000000E+00 -0.00000000000E+00 -0.74505805969E-08  0.93827000000E+00  0.93827000000E+00 0. -1.
     999902    2    1    2    0    0  0.28689673450E-02  0.22092217255E-01 -0.76535826153E-02  0.10203742287E+01  0.10201022949E+01 0.  0.
     999903    2    3    3    0    0  0.10461540253E+00  0.79031886298E-01  0.24329548445E-02  0.13262640341E+00  0.19834871191E-01 0.  0.
         14    1    1    2    0    0 -0.28689673450E-02 -0.22092217255E-01  0.76535826153E-02  0.23555771346E-01  0.00000000000E+00 0.  1.
     999901    1    3    3    0    0 -0.10174643518E+00 -0.56939669044E-01 -0.10086537460E-01  0.88774782524E+00  0.88000000000E+00 0.  1.
        -11    1    4    4    0    0  0.63442239273E-01  0.42636287096E-01 -0.74031540824E-02  0.76797386105E-01  0.51100000000E-03 0. -1.
         11    1    4    4    0    0  0.41173163254E-01  0.36395599202E-01  0.98361089269E-02  0.55829017307E-01  0.51100000000E-03 0.  1.
</event>
<event>
 8    1  0.1129602E+005  0.1043930E+01  0.7957747E-01            NaN
         13   -1    0    0    0    0  0.00000000000E+00  0.00000000000E+00  0.74505805969E-08  0.10566000000E+00  0.10566000000E+00 0.  1.
     999900   -1    0    0    0    0 -0.00000000000E+00 -0.00000000000E+00 -0.74505805969E-08  0.93827000000E+00  0.93827000000E+00 0.  1.
     999902    2    1    2    0    0  0.17255509703E-01 -0.13908325654E-01  0.72948855011E-02  0.10205974157E+01  0.10203306696E+01 0.  0.
     999903    2    3    3    0    0  0.12854067756E+00  0.46283881763E-02 -0.23602788607E-01  0.13285721458E+00  0.23448242371E-01 0.  0.
         14    1    1    2    0    0 -0.17255509703E-01  0.13908325654E-01 -0.72948855011E-02  0.23332584343E-01  0.00000000000E+00 0.  1.
     999901    1    3    3    0    0 -0.11128516786E+00 -0.18536713831E-01  0.30897674108E-01  0.88774020108E+00  0.88000000000E+00 0. -1.
        -11    1    4    4    0    0  0.67699330101E-01  0.10948230585E-01 -0.20620391387E-01  0.71613718735E-01  0.51100000000E-03 0. -1.
         11    1    4    4    0    0  0.60841347462E-01 -0.63198424091E-02 -0.29823972194E-02  0.61243495844E-01  0.51100000000E-03 0.  1.
</event>
<event>
 8    1  0.1129602E+005  0.1043930E+01  0.7957747E-01            NaN
         13   -1    0    0    0    0  0.00000000000E+00  0.00000000000E+00  0.74505805969E-08  0.10566000000E+00  0.10566000000E+00 0.  1.
     999900   -1    0    0    0    0 -0.00000000000E+00 -0.00000000000E+00 -0.74505805969E-08  0.93827000000E+00  0.93827000000E+00 0.  1.
     999902    2    1    2    0    0  0.17240504169E-01 -0.55323721818E-02  0.11819609424E-01  0.10223072043E+01  0.10220785071E+01 0.  0.
     999903    2    3    3    0    0  0.16845461504E-01  0.25937334662E-01 -0.12625468488E+00  0.13098514735E+00  0.16135317459E-01 0.  0.
         14    1    1    2    0    0 -0.17240504169E-01  0.55323721818E-02 -0.11819609424E-01  0.21622795677E-01  0.00000000000E+00 0.  1.
     999901    1    3    3    0    0  0.39504266463E-03 -0.31469706844E-01  0.13807429430E+00  0.89132205698E+00  0.88000000000E+00 0. -1.
        -11    1    4    4    0    0  0.24342774126E-03  0.58416022915E-02 -0.81878584657E-02  0.10074012192E-01  0.51100000000E-03 0. -1.
         11    1    4    4    0    0  0.16602033763E-01  0.20095732370E-01 -0.11806682641E+00  0.12091113515E+00  0.51100000000E-03 0.  1.
</event>
<event>
 8    1  0.1129602E+005  0.1043930E+01  0.7957747E-01            NaN
         13   -1    0    0    0    0  0.00000000000E+00  0.00000000000E+00  0.74505805969E-08  0.10566000000E+00  0.10566000000E+00 0.  1.
     999900   -1    0    0    0    0 -0.00000000000E+00 -0.00000000000E+00 -0.74505805969E-08  0.93827000000E+00  0.93827000000E+00 0. -1.
     999902    2    1    2    0    0  0.24136649304E-01  0.95922483293E-02 -0.40725985464E-02  0.10176397903E+01  0.10173001365E+01 0.  0.
     999903    2    3    3    0    0 -0.70860962632E-01  0.94331872735E-01 -0.44027383539E-01  0.12758263760E+00  0.20472925436E-01 0.  0.
         14    1    1    2    0    0 -0.24136649304E-01 -0.95922483293E-02  0.40725985464E-02  0.26290209709E-01  0.00000000000E+00 0.  1.
     999901    1    3    3    0    0  0.94997611936E-01 -0.84739624406E-01  0.39954784993E-01  0.89005715269E+00  0.88000000000E+00 0.  1.
        -11    1    4    4    0    0 -0.70880492895E-01  0.86242599387E-01 -0.40722464307E-01  0.11882933326E+00  0.51100000000E-03 0. -1.
         11    1    4    4    0    0  0.19530262562E-04  0.80892733483E-02 -0.33049192320E-02  0.87533043398E-02  0.51100000000E-03 0.  1.
</event>
<event>
 8    1  0.1129602E+005  0.1043930E+01  0.7957747E-01            NaN
         13   -1    0    0    0    0  0.00000000000E+00  0.00000000000E+00  0.74505805969E-08  0.10566000000E+00  0.10566000000E+00 0.  1.
     999900   -1    0    0    0    0 -0.00000000000E+00 -0.00000000000E+00 -0.74505805969E-08  0.93827000000E+00  0.93827000000E+00 0. -1.
     999902    2    1    2    0    0 -0.76856498665E-02 -0.20611940092E-01  0.11048716591E-01  0.10193130256E+01  0.10190157255E+01 0.  0.
     999903    2    3    3    0    0  0.71339516453E-02 -0.11582047788E+00  0.61208287887E-01  0.13263367613E+00  0.19492592850E-01 0.  0.
         14    1    1    2    0    0  0.76856498665E-02  0.20611940092E-01 -0.11048716591E-01  0.24616974357E-01  0.00000000000E+00 0.  1.
     999901    1    3    3    0    0 -0.14819601512E-01  0.95208537787E-01 -0.50159571296E-01  0.88667934951E+00  0.88000000000E+00 0. -1.
        -11    1    4    4    0    0 -0.30346585112E-02 -0.42136997751E-01  0.30754356322E-01  0.52257318010E-01  0.51100000000E-03 0. -1.
         11    1    4    4    0    0  0.10168610157E-01 -0.73683480127E-01  0.30453931565E-01  0.80376358122E-01  0.51100000000E-03 0.  1.
</event>
<event>
 8    1  0.1129602E+005  0.1043930E+01  0.7957747E-01            NaN
         13   -1    0    0    0    0  0.00000000000E+00  0.00000000000E+00  0.74505805969E-08  0.10566000000E+00  0.10566000000E+00 0. -1.
     999900   -1    0    0    0    0 -0.00000000000E+00 -0.00000000000E+00 -0.74505805969E-08  0.93827000000E+00  0.93827000000E+00 0. -1.
     999902    2    1    2    0    0  0.23802921247E-01 -0.16569165122E-02 -0.63877538600E-02  0.10192292342E+01  0.10189298818E+01 0.  0.
     999903    2    3    3    0    0  0.38419356267E-01  0.81572023560E-01  0.91763035381E-01  0.12974945698E+00  0.16864903216E-01 0.  0.
         14    1    1    2    0    0 -0.23802921247E-01  0.16569165122E-02  0.63877538600E-02  0.24700765810E-01  0.00000000000E+00 0. -1.
     999901    1    3    3    0    0 -0.14616435020E-01 -0.83228940073E-01 -0.98150789241E-01  0.88947977721E+00  0.88000000000E+00 0. -1.
        -11    1    4    4    0    0  0.10067010635E-01  0.12750393221E-01  0.95725274884E-02  0.18862969912E-01  0.51100000000E-03 0.  1.
         11    1    4    4    0    0  0.28352345632E-01  0.68821630340E-01  0.82190507892E-01  0.11088648707E+00  0.51100000000E-03 0. -1.
</event>
<event>
 8    1  0.1129602E+005  0.1043930E+01  0.7957747E-01            NaN
         13   -1    0    0    0    0  0.00000000000E+00  0.00000000000E+00  0.74505805969E-08  0.10566000000E+00  0.10566000000E+00 0. -1.
     999900   -1    0    0    0    0 -0.00000000000E+00 -0.00000000000E+00 -0.74505805969E-08  0.93827000000E+00  0.93827000000E+00 0.  1.
     999902    2    1    2    0    0 -0.70698921691E-02 -0.19782059642E-01 -0.18688157514E-01  0.10158130924E+01  0.10154238909E+01 0.  0.
     999903    2    3    3    0    0  0.50971959863E-01 -0.89892807275E-01  0.70439115791E-01  0.12664041835E+00  0.19931608915E-01 0.  0.
         14    1    1    2    0    0  0.70698921691E-02  0.19782059642E-01  0.18688157514E-01  0.28116907551E-01  0.00000000000E+00 0.  1.
     999901    1    3    3    0    0 -0.58041852032E-01  0.70110747633E-01 -0.89127273304E-01  0.88917267410E+00  0.88000000000E+00 0.  1.
        -11    1    4    4    0    0  0.19025690752E-01 -0.20265606135E-01  0.26062784969E-01  0.38107762752E-01  0.51100000000E-03 0.  1.
         11    1    4    4    0    0  0.31946269111E-01 -0.69627201141E-01  0.44376330821E-01  0.88532655596E-01  0.51100000000E-03 0. -1.
</event>
<event>
 8    1  0.1129602E+005  0.1043930E+01  0.7957747E-01            NaN
         13   -1    0    0    0    0  0.00000000000E+00  0.00000000000E+00  0.74505805969E-08  0.10566000000E+00  0.10566000000E+00 0.  1.
     999900   -1    0    0    0    0 -0.00000000000E+00 -0.00000000000E+00 -0.74505805969E-08  0.93827000000E+00  0.93827000000E+00 0.  1.
     999902    2    1    2    0    0 -0.29341465504E-02 -0.74001042247E-02 -0.21512380381E-01  0.10209919690E+01  0.10207342688E+01 0.  0.
     999903    2    3    3    0    0 -0.30948918464E-01  0.11231043437E+00 -0.58160502347E-01  0.13168970013E+00  0.19699336627E-01 0.  0.
         14    1    1    2    0    0  0.29341465504E-02  0.74001042247E-02  0.21512380381E-01  0.22938031044E-01  0.00000000000E+00 0.  1.
     999901    1    3    3    0    0  0.28014771913E-01 -0.11971053860E+00  0.36648121966E-01  0.88930226883E+00  0.88000000000E+00 0. -1.
        -11    1    4    4    0    0 -0.11261089992E-02  0.29202976212E-01 -0.87678665112E-02  0.30515873661E-01  0.51100000000E-03 0. -1.
         11    1    4    4    0    0 -0.29822809465E-01  0.83107458162E-01 -0.49392635836E-01  0.10117382647E+00  0.51100000000E-03 0.  1.
</event>
<event>
 8    1  0.1129602E+005  0.1043930E+01  0.7957747E-01            NaN
         13   -1    0    0    0    0  0.00000000000E+00  0.00000000000E+00  0.74505805969E-08  0.10566000000E+00  0.10566000000E+00 0. -1.
     999900   -1    0    0    0    0 -0.00000000000E+00 -0.00000000000E+00 -0.74505805969E-08  0.93827000000E+00  0.93827000000E+00 0.  1.
     999902    2    1    2    0    0 -0.71043906999E-02  0.20113374583E-01  0.10180155083E-01  0.10202941001E+01  0.10200202915E+01 0.  0.
     999903    2    3    3    0    0 -0.12447844806E+00  0.23888123718E-01 -0.29217586031E-01  0.13161918766E+00  0.20110115372E-01 0.  0.
         14    1    1    2    0    0  0.71043906999E-02 -0.20113374583E-01 -0.10180155083E-01  0.23635899852E-01  0.00000000000E+00 0.  1.
     999901    1    3    3    0    0  0.11737405736E+00 -0.37747491359E-02  0.39397741115E-01  0.88867491248E+00  0.88000000000E+00 0.  1.
        -11    1    4    4    0    0 -0.97204392880E-01  0.26408764861E-01 -0.26038539950E-01  0.10404029768E+00  0.51100000000E-03 0.  1.
         11    1    4    4    0    0 -0.27274055185E-01 -0.25206411424E-02 -0.31790460813E-02  0.27578889988E-01  0.51100000000E-03 0. -1.
</event>
<event>
 8    1  0.1129602E+005  0.1043930E+01  0.7957747E-01            NaN
         13   -1    0    0    0    0  0.00000000000E+00  0.00000000000E+00  0.74505805969E-08  0.10566000000E+00  0.10566000000E+00 0.  1.
     999900   -1    0    0    0    0 -0.00000000000E+00 -0.00000000000E+00 -0.74505805969E-08  0.93827000000E+00  0.93827000000E+00 0. -1.
     999902    2    1    2    0    0 -0.91971361258E-02  0.10959450489E-01 -0.19479303070E-01  0.10197610092E+01  0.10194745587E+01 0.  0.
     999903    2    3    3    0    0 -0.78956410239E-01  0.51688797901E-01  0.87058560601E-01  0.12966238969E+00  0.18091317813E-01 0.  0.
         14    1    1    2    0    0  0.91971361258E-02 -0.10959450489E-01  0.19479303070E-01  0.24168990794E-01  0.00000000000E+00 0.  1.
     999901    1    3    3    0    0  0.69759274113E-01 -0.40729347411E-01 -0.10653786367E+00  0.89009861951E+00  0.88000000000E+00 0. -1.
        -11    1    4    4    0    0 -0.14054537583E-01  0.18320305358E-01  0.19989005734E-01  0.30544804572E-01  0.51100000000E-03 0.  1.
         11    1    4    4    0    0 -0.64901872656E-01  0.33368492542E-01  0.67069554868E-01  0.99117585120E-01  0.51100000000E-03 0. -1.
</event>
<event>
 8    1  0.1129602E+005  0.1043930E+01  0.7957747E-01            NaN
         13   -1    0    0    0    0  0.00000000000E+00  0.00000000000E+00  0.74505805969E-08  0.10566000000E+00  0.10566000000E+00 0.  1.
     999900   -1    0    0    0    0 -0.00000000000E+00 -0.00000000000E+00 -0.74505805969E-08  0.93827000000E+00  0.93827000000E+00 0.  1.
     999902    2    1    2    0    0 -0.96963627347E-02 -0.11450225903E-01 -0.18733498631E-01  0.10199285189E+01  0.10196460722E+01 0.  0.
     999903    2    3    3    0    0 -0.15255515446E-01  0.63540822267E-01  0.10774327781E+00  0.12771165264E+00  0.20772228108E-01 0.  0.
         14    1    1    2    0    0  0.96963627347E-02  0.11450225903E-01  0.18733498631E-01  0.24001481089E-01  0.00000000000E+00 0.  1.
     999901    1    3    3    0    0  0.55591527117E-02 -0.74991048170E-01 -0.12647677644E+00  0.89221686627E+00  0.88000000000E+00 0.  1.
        -11    1    4    4    0    0  0.18869437296E-02  0.18630283448E-01  0.44412710691E-01  0.48201639079E-01  0.51100000000E-03 0.  1.
         11    1    4    4    0    0 -0.17142459176E-01  0.44910538819E-01  0.63330567118E-01  0.79510013558E-01  0.51100000000E-03 0. -1.
</event>
<event>
 8    1  0.1129602E+005  0.1043930E+01  0.7957747E-01            NaN
         13   -1    0    0    0    0  0.00000000000E+00  0.00000000000E+00  0.74505805969E-08  0.10566000000E+00  0.10566000000E+00 0. -1.
     999900   -1    0    0    0    0 -0.00000000000E+00 -0.00000000000E+00 -0.74505805969E-08  0.93827000000E+00  0.93827000000E+00 0. -1.
     999902    2    1    2    0    0  0.14268890935E-01 -0.17636222952E-01  0.64608342457E-02  0.10203422916E+01  0.10200696114E+01 0.  0.
     999903    2    3    3    0    0  0.74801768398E-01 -0.75762355107E-01 -0.76579414144E-01  0.13245797518E+00  0.18586810122E-01 0.  0.
         14    1    1    2    0    0 -0.14268890935E-01  0.17636222952E-01 -0.64608342457E-02  0.23587708402E-01  0.00000000000E+00 0. -1.
     999901    1    3    3    0    0 -0.60532877464E-01  0.58126132156E-01  0.83040248390E-01  0.88788431642E+00  0.88000000000E+00 0. -1.
        -11    1    4    4    0    0  0.49390193675E-01 -0.57410424187E-01 -0.62039980974E-01  0.97900808970E-01  0.51100000000E-03 0. -1.
         11    1    4    4    0    0  0.25411574723E-01 -0.18351930920E-01 -0.14539433170E-01  0.34557166208E-01  0.51100000000E-03 0.  1.
</event>
<event>
 8    1  0.1129602E+005  0.1043930E+01  0.7957747E-01            NaN
         13   -1    0    0    0    0  0.00000000000E+00  0.00000000000E+00  0.74505805969E-08  0.10566000000E+00  0.10566000000E+00 0.  1.
     999900   -1    0    0    0    0 -0.00000000000E+00 -0.00000000000E+00 -0.74505805969E-08  0.93827000000E+00  0.93827000000E+00 0. -1.
     999902    2    1    2    0    0 -0.34058908790E-02  0.43122454176E-02 -0.23334849734E-01  0.10199568741E+01  0.10196751023E+01 0.  0.
     999903    2    3    3    0    0  0.46472607721E-01  0.20640818117E-01  0.11517785775E+00  0.12757788676E+00  0.20601738647E-01 0.  0.
         14    1    1    2    0    0  0.34058908790E-02 -0.43122454176E-02  0.23334849734E-01  0.23973125898E-01  0.00000000000E+00 0.  1.
     999901    1    3    3    0    0 -0.49878498600E-01 -0.16328572699E-01 -0.13851270748E+00  0.89237898734E+00  0.88000000000E+00 0. -1.
        -11    1    4    4    0    0  0.28004807229E-01  0.21687298404E-01  0.63881977134E-01  0.73046398019E-01  0.51100000000E-03 0. -1.
         11    1    4    4    0    0  0.18467800492E-01 -0.10464802867E-02  0.51295880612E-01  0.54531488745E-01  0.51100000000E-03 0.  1.
</event>
<event>
 8    1  0.1129602E+005  0.1043930E+01  0.7957747E-01            NaN
         13   -1    0    0    0    0  0.00000000000E+00  0.00000000000E+00  0.74505805969E-08  0.10566000000E+00  0.10566000000E+00 0. -1.
     999900   -1    0    0    0    0 -0.00000000000E+00 -0.00000000000E+00 -0.74505805969E-08  0.93827000000E+00  0.93827000000E+00 0.  1.
     999902    2    1    2    0    0  0.11231352732E-01 -0.58647191881E-02  0.18091536129E-01  0.10218428568E+01  0.10216041220E+01 0.  0.
     999903    2    3    3    0    0 -0.45834803532E-01 -0.97275647514E-01  0.76223380046E-01  0.13336561157E+00  0.20322447442E-01 0.  0.
         14    1    1    2    0    0 -0.11231352732E-01  0.58647191881E-02 -0.18091536129E-01  0.22087143203E-01  0.00000000000E+00 0.  1.
     999901    1    3    3    0    0  0.57066156263E-01  0.91410928326E-01 -0.58131843916E-01  0.88847724523E+00  0.88000000000E+00 0.  1.
        -11    1    4    4    0    0 -0.19944026313E-01 -0.21382307265E-01  0.19959937401E-01  0.35406602091E-01  0.51100000000E-03 0.  1.
         11    1    4    4    0    0 -0.25890777219E-01 -0.75893340248E-01  0.56263442645E-01  0.97959009480E-01  0.51100000000E-03 0. -1.
</event>
<event>
 8    1  0.1129602E+005  0.1043930E+01  0.7957747E-01            NaN
         13   -1    0    0    0    0  0.00000000000E+00  0.00000000000E+00  0.74505805969E-08  0.10566000000E+00  0.10566000000E+00 0. -1.
     999900   -1    0    0    0    0 -0.00000000000E+00 -0.00000000000E+00 -0.74505805969E-08  0.93827000000E+00  0.93827000000E+00 0. -1.
     999902    2    1    2    0    0 -0.72270362065E-02 -0.17967367864E-01  0.14697685694E-01  0.10196178976E+01  0.10193280035E+01 0.  0.
     999903    2    3    3    0    0 -0.13577019971E-01  0.49852765359E-01 -0.11511297808E+00  0.12749083195E+00  0.18255980526E-01 0.  0.
         14    1    1    2    0    0  0.72270362065E-02  0.17967367864E-01 -0.14697685694E-01  0.24312102440E-01  0.00000000000E+00 0.  1.
     999901    1    3    3    0    0  0.63499837644E-02 -0.67820133223E-01  0.12981066377E+00  0.89212706561E+00  0.88000000000E+00 0. -1.
        -11    1    4    4    0    0 -0.20664548267E-02  0.17904972250E-01 -0.60947073885E-01  0.63558360606E-01  0.51100000000E-03 0. -1.
         11    1    4    4    0    0 -0.11510565144E-01  0.31947793110E-01 -0.54165904190E-01  0.63932471345E-01  0.51100000000E-03 0.  1.
</event>
<event>
 8    1  0.1129602E+005  0.1043930E+01  0.7957747E-01            NaN
         13   -1    0    0    0    0  0.00000000000E+00  0.00000000000E+00  0.74505805969E-08  0.10566000000E+00  0.10566000000E+00 0. -1.
     999900   -1    0    0    0    0 -0.00000000000E+00 -0.00000000000E+00 -0.74505805969E-08  0.93827000000E+00  0.93827000000E+00 0.  1.
     999902    2    1    2    0    0  0.12672872022E-01 -0.18972290044E-01 -0.38707297488E-02  0.10207884352E+01  0.10205260885E+01 0.  0.
     999903    2    3    3    0    0 -0.41971019533E-01 -0.96063982466E-01  0.77626386351E-01  0.13198538393E+00  0.20110457632E-01 0.  0.
         14    1    1    2    0    0 -0.12672872022E-01  0.18972290044E-01  0.38707297488E-02  0.23141564848E-01  0.00000000000E+00 0.  1.
     999901    1    3    3    0    0  0.54643891555E-01  0.77091692421E-01 -0.81497116100E-01  0.88880305122E+00  0.88000000000E+00 0.  1.
        -11    1    4    4    0    0 -0.19583380774E-01 -0.45295973479E-01  0.49015739252E-01  0.69556004999E-01  0.51100000000E-03 0. -1.
         11    1    4    4    0    0 -0.22387638760E-01 -0.50768008987E-01  0.28610647099E-01  0.62429378934E-01  0.51100000000E-03 0.  1.
</event>
<event>
 8    1  0.1129602E+005  0.1043930E+01  0.7957747E-01            NaN
         13   -1    0    0    0    0  0.00000000000E+00  0.00000000000E+00  0.74505805969E-08  0.10566000000E+00  0.10566000000E+00 0.  1.
     999900   -1    0    0    0    0 -0.00000000000E+00 -0.00000000000E+00 -0.74505805969E-08  0.93827000000E+00  0.93827000000E+00 0. -1.
     999902    2    1    2    0    0  0.23795686020E-01 -0.92136253843E-02 -0.35067503052E-02  0.10181730036E+01  0.10178471606E+01 0.  0.
     999903    2    3    3    0    0 -0.37585250105E-01  0.79558349657E-01 -0.89772661237E-01  0.12739250861E+00  0.20677004563E-01 0.  0.
         14    1    1    2    0    0 -0.23795686020E-01  0.92136253843E-02  0.35067503052E-02  0.25756996401E-01  0.00000000000E+00 0. -1.
     999901    1    3    3    0    0  0.61380936126E-01 -0.88771975041E-01  0.86265910931E-01  0.89078049499E+00  0.88000000000E+00 0.  1.
        -11    1    4    4    0    0 -0.11967401395E-01  0.49310813822E-01 -0.50270769639E-01  0.71429590906E-01  0.51100000000E-03 0.  1.
         11    1    4    4    0    0 -0.25617848710E-01  0.30247535835E-01 -0.39501891598E-01  0.55962917699E-01  0.51100000000E-03 0. -1.
</event>
<event>
 8    1  0.1129602E+005  0.1043930E+01  0.7957747E-01            NaN
         13   -1    0    0    0    0  0.00000000000E+00  0.00000000000E+00  0.74505805969E-08  0.10566000000E+00  0.10566000000E+00 0. -1.
     999900   -1    0    0    0    0 -0.00000000000E+00 -0.00000000000E+00 -0.74505805969E-08  0.93827000000E+00  0.93827000000E+00 0.  1.
     999902    2    1    2    0    0  0.10692465840E-01  0.32784259725E-02  0.14469025897E-01  0.10256425832E+01  0.10254795361E+01 0.  0.
     999903    2    3    3    0    0 -0.57761038080E-01 -0.43799899507E-01  0.11357911172E+00  0.13619047093E+00  0.19820722361E-01 0.  0.
         14    1    1    2    0    0 -0.10692465840E-01 -0.32784259725E-02 -0.14469025897E-01  0.18287416794E-01  0.00000000000E+00 0.  1.
     999901    1    3    3    0    0  0.68453503920E-01  0.47078325479E-01 -0.99110085823E-01  0.88945211228E+00  0.88000000000E+00 0.  1.
        -11    1    4    4    0    0 -0.25542105267E-01 -0.26877769190E-01  0.71582260515E-01  0.80616963225E-01  0.51100000000E-03 0. -1.
         11    1    4    4    0    0 -0.32218932812E-01 -0.16922130317E-01  0.41996851205E-01  0.55573507701E-01  0.51100000000E-03 0.  1.
</event>
<event>
 8    1  0.1129602E+005  0.1043930E+01  0.7957747E-01            NaN
         13   -1    0    0    0    0  0.00000000000E+00  0.00000000000E+00  0.74505805969E-08  0.10566000000E+00  0.10566000000E+00 0.  1.
     999900   -1    0    0    0    0 -0.00000000000E+00 -0.00000000000E+00 -0.74505805969E-08  0.93827000000E+00  0.93827000000E+00 0. -1.
     999902    2    1    2    0    0  0.51756912909E-02  0.24427232471E-01 -0.12509521842E-01  0.10160021357E+01  0.10156182227E+01 0.  0.
     999903    2    3    3    0    0  0.40654774531E-01  0.12157883013E+00 -0.79433416951E-02  0.12993326239E+00  0.19629910096E-01 0.  0.
         14    1    1    2    0    0 -0.51756912909E-02 -0.24427232471E-01  0.12509521842E-01  0.27927864280E-01  0.00000000000E+00 0.  1.
     999901    1    3    3    0    0 -0.35479083240E-01 -0.97151597663E-01 -0.45661801471E-02  0.88606887333E+00  0.88000000000E+00 0. -1.
        -11    1    4    4    0    0  0.38947872655E-01  0.11783660324E+00 -0.11270680794E-01  0.12461818172E+00  0.51100000000E-03 0. -1.
         11    1    4    4    0    0  0.17069018759E-02  0.37422268910E-02  0.33273390992E-02  0.53150806766E-02  0.51100000000E-03 0.  1.
</event>
<event>
 8    1  0.1129602E+005  0.1043930E+01  0.7957747E-01            NaN
         13   -1    0    0    0    0  0.00000000000E+00  0.00000000000E+00  0.74505805969E-08  0.10566000000E+00  0.10566000000E+00 0.  1.
     999900   -1    0    0    0    0 -0.00000000000E+00 -0.00000000000E+00 -0.74505805969E-08  0.93827000000E+00  0.93827000000E+00 0. -1.
     999902    2    1    2    0    0 -0.17778798015E-01 -0.12515724726E-01 -0.25676176708E-01  0.10102848655E+01  0.10097244745E+01 0.  0.
     999903    2    3    3    0    0  0.10377022818E+00  0.21132331059E-01 -0.54596484880E-01  0.12082281368E+00  0.20063411298E-01 0.  0.
         14    1    1    2    0    0  0.17778798015E-01  0.12515724726E-01  0.25676176708E-01  0.33645134486E-01  0.00000000000E+00 0.  1.
     999901    1    3    3    0    0 -0.12154902619E+00 -0.33648055785E-01  0.28920308172E-01  0.88946205183E+00  0.88000000000E+00 0.  1.
        -11    1    4    4    0    0  0.49382042014E-01  0.16826470606E-01 -0.18287107179E-01  0.55284677773E-01  0.51100000000E-03 0. -1.
         11    1    4    4    0    0  0.54388186162E-01  0.43058604528E-02 -0.36309377701E-01  0.65538135908E-01  0.51100000000E-03 0.  1.
</event>
<event>
 8    1  0.1129602E+005  0.1043930E+01  0.7957747E-01            NaN
         13   -1    0    0    0    0  0.00000000000E+00  0.00000000000E+00  0.74505805969E-08  0.10566000000E+00  0.10566000000E+00 0. -1.
     999900   -1    0    0    0    0 -0.00000000000E+00 -0.00000000000E+00 -0.74505805969E-08  0.93827000000E+00  0.93827000000E+00 0.  1.
     999902    2    1    2    0    0  0.16409414740E-01 -0.81071253561E-02 -0.28180193035E-01  0.10103276541E+01  0.10097687116E+01 0.  0.
     999903    2    3    3    0    0  0.81070286386E-01 -0.81314442359E-01 -0.44591560963E-01  0.12477151660E+00  0.19876975992E-01 0.  0.
         14    1    1    2    0    0 -0.16409414740E-01  0.81071253561E-02  0.28180193035E-01  0.33602345947E-01  0.00000000000E+00 0. -1.
     999901    1    3    3    0    0 -0.64660871646E-01  0.73207317002E-01  0.16411367928E-01  0.88555613745E+00  0.88000000000E+00 0.  1.
        -11    1    4    4    0    0  0.72757269956E-01 -0.62519870264E-01 -0.35409507518E-01  0.10225677901E+00  0.51100000000E-03 0. -1.
         11    1    4    4    0    0  0.83130164309E-02 -0.18794572095E-01 -0.91820534443E-02  0.22514737593E-01  0.51100000000E-03 0.  1.
</event>
<event>
 8    1  0.1129602E+005  0.1043930E+01  0.7957747E-01            NaN
         13   -1    0    0    0    0  0.00000000000E+00  0.00000000000E+00  0.74505805969E-08  0.10566000000E+00  0.10566000000E+00 0. -1.
     999900   -1    0    0    0    0 -0.00000000000E+00 -0.00000000000E+00 -0.74505805969E-08  0.93827000000E+00  0.93827000000E+00 0.  1.
     999902    2    1    2    0    0 -0.87537567796E-02  0.13280256531E-01  0.18190279747E-01  0.10197663962E+01  0.10194800749E+01 0.  0.
     999903    2    3    3    0    0 -0.72722335123E-01 -0.98656657050E-01  0.38913946557E-01  0.13013089668E+00  0.19951968041E-01 0.  0.
         14    1    1    2    0    0  0.87537567796E-02 -0.13280256531E-01 -0.18190279747E-01  0.24163603799E-01  0.00000000000E+00 0.  1.
     999901    1    3    3    0    0  0.63968578343E-01  0.11193691358E+00 -0.20723666810E-01  0.88963549952E+00  0.88000000000E+00 0.  1.
        -11    1    4    4    0    0 -0.40472638292E-01 -0.47206900341E-01  0.28960918509E-01  0.68596806135E-01  0.51100000000E-03 0. -1.
         11    1    4    4    0    0 -0.32249696831E-01 -0.51449756710E-01  0.99530280487E-02  0.61534090547E-01  0.51100000000E-03 0.  1.
</event>
<event>
 8    1  0.1129602E+005  0.1043930E+01  0.7957747E-01            NaN
         13   -1    0    0    0    0  0.00000000000E+00  0.00000000000E+00  0.74505805969E-08  0.10566000000E+00  0.10566000000E+00 0.  1.
     999900   -1    0    0    0    0 -0.00000000000E+00 -0.00000000000E+00 -0.74505805969E-08  0.93827000000E+00  0.93827000000E+00 0. -1.
     999902    2    1    2    0    0  0.19205282642E-01  0.13757127728E-01  0.92207429831E-02  0.10185701194E+01  0.10182543712E+01 0.  0.
     999903    2    3    3    0    0 -0.60204978424E-01  0.81088994363E-01 -0.76405659237E-01  0.12830529888E+00  0.20600012734E-01 0.  0.
         14    1    1    2    0    0 -0.19205282642E-01 -0.13757127728E-01 -0.92207429831E-02  0.25359880635E-01  0.00000000000E+00 0. -1.
     999901    1    3    3    0    0  0.79410261065E-01 -0.67331866635E-01  0.85626402221E-01  0.89026482048E+00  0.88000000000E+00 0.  1.
        -11    1    4    4    0    0 -0.37673071719E-01  0.37203163385E-01 -0.31603888469E-01  0.61663624496E-01  0.51100000000E-03 0.  1.
         11    1    4    4    0    0 -0.22531906704E-01  0.43885830979E-01 -0.44801770768E-01  0.66641674389E-01  0.51100000000E-03 0. -1.
</event>
<event>
 8    1  0.1129602E+005  0.1043930E+01  0.7957747E-01            NaN
         13   -1    0    0    0    0  0.00000000000E+00  0.00000000000E+00  0.74505805969E-08  0.10566000000E+00  0.10566000000E+00 0. -1.
     999900   -1    0    0    0    0 -0.00000000000E+00 -0.00000000000E+00 -0.74505805969E-08  0.93827000000E+00  0.93827000000E+00 0. -1.
     999902    2    1    2    0    0 -0.23419581440E-01 -0.42021120646E-02 -0.29558123343E-02  0.10199535247E+01  0.10196716732E+01 0.  0.
     999903    2    3    3    0    0 -0.68373099309E-01  0.10625930548E+00  0.31136363744E-01  0.13125513943E+00  0.17103150861E-01 0.  0.
         14    1    1    2    0    0  0.23419581440E-01  0.42021120646E-02  0.29558123343E-02  0.23976475287E-01  0.00000000000E+00 0.  1.
     999901    1    3    3    0    0  0.44953517870E-01 -0.11046141754E+00 -0.34092176078E-01  0.88869838528E+00  0.88000000000E+00 0. -1.
        -11    1    4    4    0    0 -0.31960918857E-01  0.52243300886E-01  0.64310756030E-02  0.61583136296E-01  0.51100000000E-03 0.  1.
         11    1    4    4    0    0 -0.36412180452E-01  0.54016004594E-01  0.24705288141E-01  0.69672003134E-01  0.51100000000E-03 0. -1.
</event>
<event>
 8    1  0.1129602E+005  0.1043930E+01  0.7957747E-01            NaN
         13   -1    0    0    0    0  0.00000000000E+00  0.00000000000E+00  0.74505805969E-08  0.10566000000E+00  0.10566000000E+00 0. -1.
     999900   -1    0    0    0    0 -0.00000000000E+00 -0.00000000000E+00 -0.74505805969E-08  0.93827000000E+00  0.93827000000E+00 0. -1.
     999902    2    1    2    0    0  0.97535659939E-03 -0.21603161594E-01 -0.88838924430E-02  0.10205511323E+01  0.10202833146E+01 0.  0.
     999903    2    3    3    0    0 -0.68450523066E-01 -0.64982727819E-01 -0.91428921591E-01  0.13290513224E+00  0.19907221045E-01 0.  0.
         14    1    1    2    0    0 -0.97535659939E-03  0.21603161594E-01  0.88838924430E-02  0.23378867729E-01  0.00000000000E+00 0. -1.
     999901    1    3    3    0    0  0.69425879665E-01  0.43379566225E-01  0.82545029148E-01  0.88764600003E+00  0.88000000000E+00 0.  1.
        -11    1    4    4    0    0 -0.11375207280E-01 -0.13583074063E-01 -0.78287182540E-02  0.19376408134E-01  0.51100000000E-03 0.  1.
         11    1    4    4    0    0 -0.57075315786E-01 -0.51399653756E-01 -0.83600203338E-01  0.11352872411E+00  0.51100000000E-03 0. -1.
</event>
<event>
 7    1  0.1342779E+005  0.1043930E+01  0.7957747E-01            NaN
         13   -1    0    0    0    0  0.00000000000E+00  0.00000000000E+00  0.74505805969E-08  0.10566000000E+00  0.10566000000E+00 0.  1.
     999900   -1    0    0    0    0 -0.00000000000E+00 -0.00000000000E+00 -0.74505805969E-08  0.93827000000E+00  0.93827000000E+00 0.  1.
     999902    2    1    2    0    0 -0.95279426292E-02 -0.14223103852E-01 -0.17184816618E-01  0.10196731186E+01  0.10193845557E+01 0.  0.
         14    1    1    2    0    0  0.95279426292E-02  0.14223103852E-01  0.17184816618E-01  0.24256881418E-01  0.00000000000E+00 0.  1.
     999901    1    3    3    0    0 -0.86628567802E-01 -0.37296905889E-01 -0.10526668075E+00  0.89127809466E+00  0.88000000000E+00 0.  1.
        -11    1    3    3    0    0  0.34636735866E-01 -0.88228869795E-02  0.55720196650E-01  0.66200817531E-01  0.51100000000E-03 0.  1.
         11    1    3    3    0    0  0.42463889307E-01  0.31896689017E-01  0.32361667480E-01  0.62194206390E-01  0.51100000000E-03 0. -1.
</event>
<event>
 8    1  0.1129602E+005  0.1043930E+01  0.7957747E-01            NaN
         13   -1    0    0    0    0  0.00000000000E+00  0.00000000000E+00  0.74505805969E-08  0.10566000000E+00  0.10566000000E+00 0. -1.
     999900   -1    0    0    0    0 -0.00000000000E+00 -0.00000000000E+00 -0.74505805969E-08  0.93827000000E+00  0.93827000000E+00 0. -1.
     999902    2    1    2    0    0  0.16985568328E-01  0.15390368681E-01 -0.64330726481E-02  0.10201233328E+01  0.10198455063E+01 0.  0.
     999903    2    3    3    0    0  0.79205079038E-01 -0.23767827196E-01 -0.10055431959E+00  0.13205608256E+00  0.22119755857E-01 0.  0.
         14    1    1    2    0    0 -0.16985568328E-01 -0.15390368681E-01  0.64330726481E-02  0.23806667202E-01  0.00000000000E+00 0. -1.
     999901    1    3    3    0    0 -0.62219510710E-01  0.39158195876E-01  0.94121246938E-01  0.88806725024E+00  0.88000000000E+00 0.  1.
        -11    1    4    4    0    0  0.11270186465E-01 -0.59225775458E-02 -0.55330804595E-02  0.13891368835E-01  0.51100000000E-03 0. -1.
         11    1    4    4    0    0  0.67934892572E-01 -0.17845249650E-01 -0.95021239127E-01  0.11816471373E+00  0.51100000000E-03 0.  1.
</event>
<event>
 8    1  0.1129602E+005  0.1043930E+01  0.7957747E-01            NaN
         13   -1    0    0    0    0  0.00000000000E+00  0.00000000000E+00  0.74505805969E-08  0.10566000000E+00  0.10566000000E+00 0. -1.
     999900   -1    0    0    0    0 -0.00000000000E+00 -0.00000000000E+00 -0.74505805969E-08  0.93827000000E+00  0.93827000000E+00 0. -1.
     999902    2    1    2    0    0  0.17817907495E-01 -0.83634353734E-02 -0.13171737479E-01  0.10202462599E+01  0.10199713286E+01 0.  0.
     999903    2    3    3    0    0 -0.50429291729E-02  0.70104785067E-01  0.10596608671E+00  0.12846506437E+00  0.18285218310E-01 0.  0.
         14    1    1    2    0    0 -0.17817907495E-01  0.83634353734E-02  0.13171737479E-01  0.23683740139E-01  0.00000000000E+00 0. -1.
     999901    1    3    3    0    0  0.22860836668E-01 -0.78468220441E-01 -0.11913782419E+00  0.89178119549E+00  0.88000000000E+00 0. -1.
        -11    1    4    4    0    0 -0.96424782658E-02  0.31838161706E-01  0.58717705120E-01  0.67488339315E-01  0.51100000000E-03 0. -1.
         11    1    4    4    0    0  0.45995490929E-02  0.38266623362E-01  0.47248381587E-01  0.60976725060E-01  0.51100000000E-03 0.  1.
</event>
<event>
 8    1  0.1253969E+005  0.1043930E+01  0.7957747E-01            NaN
         13   -1    0    0    0    0  0.00000000000E+00  0.00000000000E+00  0.74505805969E-08  0.10566000000E+00  0.10566000000E+00 0.  1.
     999900   -1    0    0    0    0 -0.00000000000E+00 -0.00000000000E+00 -0.74505805969E-08  0.93827000000E+00  0.93827000000E+00 0.  1.
     999902    2    1    2    0    0 -0.15448040222E-01  0.14785698892E-01  0.10280135259E-01  0.10202036429E+01  0.10199277097E+01 0.  0.
     999903    2    3    3    0    0 -0.10270230925E-01 -0.10170502347E+00  0.77993822629E-01  0.12993287426E+00  0.18711654201E-01 0.  0.
         14    1    1    2    0    0  0.15448040222E-01 -0.14785698892E-01 -0.10280135259E-01  0.23726357060E-01  0.00000000000E+00 0.  1.
     999901    1    3    3    0    0 -0.51778092968E-02  0.11649072236E+00 -0.67713687370E-01  0.89027076868E+00  0.88000000000E+00 0.  1.
        -11    1    4    4    0    0 -0.61108285166E-03 -0.50720325771E-01  0.48807510312E-01  0.70394311222E-01  0.51100000000E-03 0. -1.
         11    1    4    4    0    0 -0.96591480731E-02 -0.50984697701E-01  0.29186312317E-01  0.59538563039E-01  0.51100000000E-03 0.  1.
</event>
<event>
 8    1  0.1129602E+005  0.1043930E+01  0.7957747E-01            NaN
         13   -1    0    0    0    0  0.00000000000E+00  0.00000000000E+00  0.74505805969E-08  0.10566000000E+00  0.10566000000E+00 0.  1.
     999900   -1    0    0    0    0 -0.00000000000E+00 -0.00000000000E+00 -0.74505805969E-08  0.93827000000E+00  0.93827000000E+00 0.  1.
     999902    2    1    2    0    0  0.22950874818E-01  0.61421144024E-02 -0.33229556567E-02  0.10199402051E+01  0.10196580367E+01 0.  0.
     999903    2    3    3    0    0  0.68307616158E-01  0.71492161527E-01  0.85014587926E-01  0.13194730861E+00  0.20138334178E-01 0.  0.
         14    1    1    2    0    0 -0.22950874818E-01 -0.61421144024E-02  0.33229556567E-02  0.23989794884E-01  0.00000000000E+00 0.  1.
     999901    1    3    3    0    0 -0.45356741340E-01 -0.65350047125E-01 -0.88337543583E-01  0.88799289651E+00  0.88000000000E+00 0.  1.
        -11    1    4    4    0    0  0.17418662575E-01  0.27427790807E-01  0.37100445759E-01  0.49319344186E-01  0.51100000000E-03 0. -1.
         11    1    4    4    0    0  0.50888953583E-01  0.44064370721E-01  0.47914142167E-01  0.82627964421E-01  0.51100000000E-03 0.  1.
</event>
<event>
 8    1  0.1129602E+005  0.1043930E+01  0.7957747E-01            NaN
         13   -1    0    0    0    0  0.00000000000E+00  0.00000000000E+00  0.74505805969E-08  0.10566000000E+00  0.10566000000E+00 0. -1.
     999900   -1    0    0    0    0 -0.00000000000E+00 -0.00000000000E+00 -0.74505805969E-08  0.93827000000E+00  0.93827000000E+00 0.  1.
     999902    2    1    2    0    0  0.17731874042E-01 -0.56469842361E-02 -0.14873615972E-01  0.10201070648E+01  0.10198288540E+01 0.  0.
     999903    2    3    3    0    0 -0.40168391941E-01 -0.62209630146E-01  0.10364598049E+00  0.12848008652E+00  0.16766203060E-01 0.  0.
         14    1    1    2    0    0 -0.17731874042E-01  0.56469842361E-02  0.14873615972E-01  0.23822935169E-01  0.00000000000E+00 0. -1.
     999901    1    3    3    0    0  0.57900265983E-01  0.56562645910E-01 -0.11851959646E+00  0.89162697831E+00  0.88000000000E+00 0.  1.
        -11    1    4    4    0    0 -0.22321283554E-01 -0.47460299666E-01  0.66323827983E-01  0.84556673440E-01  0.51100000000E-03 0. -1.
         11    1    4    4    0    0 -0.17847108386E-01 -0.14749330480E-01  0.37322152508E-01  0.43923413075E-01  0.51100000000E-03 0.  1.
</event>
<event>
 8    1  0.1129602E+005  0.1043930E+01  0.7957747E-01            NaN
         13   -1    0    0    0    0  0.00000000000E+00  0.00000000000E+00  0.74505805969E-08  0.10566000000E+00  0.10566000000E+00 0. -1.
     999900   -1    0    0    0    0 -0.00000000000E+00 -0.00000000000E+00 -0.74505805969E-08  0.93827000000E+00  0.93827000000E+00 0. -1.
     999902    2    1    2    0    0  0.23259868652E-01 -0.89439197863E-02 -0.82371232078E-02  0.10176837548E+01  0.10173452508E+01 0.  0.
     999903    2    3    3    0    0 -0.68122556454E-01 -0.54764854844E-01 -0.91116095766E-01  0.12789769631E+00  0.20391316521E-01 0.  0.
         14    1    1    2    0    0 -0.23259868652E-01  0.89439197863E-02  0.82371232078E-02  0.26246245248E-01  0.00000000000E+00 0. -1.
     999901    1    3    3    0    0  0.91382425107E-01  0.45820935058E-01  0.82878972558E-01  0.88978605844E+00  0.88000000000E+00 0.  1.
        -11    1    4    4    0    0 -0.46375150858E-01 -0.47624646965E-01 -0.72740071866E-01  0.98540046639E-01  0.51100000000E-03 0. -1.
         11    1    4    4    0    0 -0.21747405596E-01 -0.71402078793E-02 -0.18376023900E-01  0.29357649669E-01  0.51100000000E-03 0.  1.
</event>
<event>
 8    1  0.1129602E+005  0.1043930E+01  0.7957747E-01            NaN
         13   -1    0    0    0    0  0.00000000000E+00  0.00000000000E+00  0.74505805969E-08  0.10566000000E+00  0.10566000000E+00 0. -1.
     999900   -1    0    0    0    0 -0.00000000000E+00 -0.00000000000E+00 -0.74505805969E-08  0.93827000000E+00  0.93827000000E+00 0.  1.
     999902    2    1    2    0    0  0.31012985729E-02  0.19680670383E-01 -0.13361381245E-01  0.10199409744E+01  0.10196588243E+01 0.  0.
     999903    2    3    3    0    0 -0.86862026687E-01  0.88798173406E-01  0.37639893488E-01  0.13119367673E+00  0.19102145246E-01 0.  0.
         14    1    1    2    0    0 -0.31012985729E-02 -0.19680670383E-01  0.13361381245E-01  0.23989025581E-01  0.00000000000E+00 0.  1.
     999901    1    3    3    0    0  0.89963325260E-01 -0.69117503024E-01 -0.51001274734E-01  0.88874729768E+00  0.88000000000E+00 0. -1.
        -11    1    4    4    0    0 -0.38121956613E-01  0.26490562339E-01  0.16972844147E-01  0.49430476717E-01  0.51100000000E-03 0. -1.
         11    1    4    4    0    0 -0.48740070074E-01  0.62307611067E-01  0.20667049342E-01  0.81763200018E-01  0.51100000000E-03 0.  1.
</event>
<event>
 8    1  0.1129602E+005  0.1043930E+01  0.7957747E-01            NaN
         13   -1    0    0    0    0  0.00000000000E+00  0.00000000000E+00  0.74505805969E-08  0.10566000000E+00  0.10566000000E+00 0.  1.
     999900   -1    0    0    0    0 -0.00000000000E+00 -0.00000000000E+00 -0.74505805969E-08  0.93827000000E+00  0.93827000000E+00 0. -1.
     999902    2    1    2    0    0  0.19202314357E-02 -0.80271631479E-02 -0.20176487486E-01  0.10221306128E+01  0.10218981242E+01 0.  0.
     999903    2    3    3    0    0 -0.16148318016E-01  0.49111396023E-01 -0.12219809580E+00  0.13421186873E+00  0.20192912086E-01 0.  0.
         14    1    1    2    0    0 -0.19202314357E-02  0.80271631479E-02  0.20176487486E-01  0.21799387245E-01  0.00000000000E+00 0.  1.
     999901    1    3    3    0    0  0.18068549452E-01 -0.57138559171E-01  0.10202160831E+00  0.88791874402E+00  0.88000000000E+00 0.  1.
        -11    1    4    4    0    0 -0.18092208003E-01  0.36604303006E-01 -0.75608496700E-01  0.85930837789E-01  0.51100000000E-03 0.  1.
         11    1    4    4    0    0  0.19438899866E-02  0.12507093016E-01 -0.46589599097E-01  0.48281030944E-01  0.51100000000E-03 0. -1.
</event>
<event>
 8    1  0.1129602E+005  0.1043930E+01  0.7957747E-01            NaN
         13   -1    0    0    0    0  0.00000000000E+00  0.00000000000E+00  0.74505805969E-08  0.10566000000E+00  0.10566000000E+00 0. -1.
     999900   -1    0    0    0    0 -0.00000000000E+00 -0.00000000000E+00 -0.74505805969E-08  0.93827000000E+00  0.93827000000E+00 0. -1.
     999902    2    1    2    0    0 -0.43656000678E-02 -0.13146415983E-01 -0.21850105831E-01  0.10180588995E+01  0.10177301258E+01 0.  0.
     999903    2    3    3    0    0  0.16585576014E-02  0.71419925985E-01  0.10135055730E+00  0.12544131055E+00  0.18974464110E-01 0.  0.
         14    1    1    2    0    0  0.43656000678E-02  0.13146415983E-01  0.21850105831E-01  0.25871100517E-01  0.00000000000E+00 0. -1.
     999901    1    3    3    0    0 -0.60241576691E-02 -0.84566341968E-01 -0.12320066313E+00  0.89261758893E+00  0.88000000000E+00 0. -1.
        -11    1    4    4    0    0 -0.70276528869E-02  0.49540434878E-01  0.74290823297E-01  0.89571368976E-01  0.51100000000E-03 0. -1.
         11    1    4    4    0    0  0.86862104882E-02  0.21879491107E-01  0.27059733999E-01  0.35869941578E-01  0.51100000000E-03 0.  1.
</event>
<event>
 8    1  0.1129602E+005  0.1043930E+01  0.7957747E-01            NaN
         13   -1    0    0    0    0  0.00000000000E+00  0.00000000000E+00  0.74505805969E-08  0.10566000000E+00  0.10566000000E+00 0.  1.
     999900   -1    0    0    0    0 -0.00000000000E+00 -0.00000000000E+00 -0.74505805969E-08  0.93827000000E+00  0.93827000000E+00 0.  1.
     999902    2    1    2    0    0 -0.63037679517E-02 -0.14060644540E-01  0.10103375238E-01  0.10255040019E+01  0.10253384517E+01 0.  0.
     999903    2    3    3    0    0  0.28469663102E-01  0.25597115926E-02  0.13207944550E+00  0.13625511127E+00  0.17418426529E-01 0.  0.
         14    1    1    2    0    0  0.63037679517E-02  0.14060644540E-01 -0.10103375238E-01  0.18425998114E-01  0.00000000000E+00 0.  1.
     999901    1    3    3    0    0 -0.34773431053E-01 -0.16620356133E-01 -0.12197607026E+00  0.88924889062E+00  0.88000000000E+00 0.  1.
        -11    1    4    4    0    0  0.57266068325E-02  0.75017097787E-02  0.26367927128E-01  0.28010683274E-01  0.51100000000E-03 0. -1.
         11    1    4    4    0    0  0.22743056269E-01 -0.49419981861E-02  0.10571151837E+00  0.10824442800E+00  0.51100000000E-03 0.  1.
</event>
<event>
 8    1  0.1129602E+005  0.1043930E+01  0.7957747E-01            NaN
         13   -1    0    0    0    0  0.00000000000E+00  0.00000000000E+00  0.74505805969E-08  0.10566000000E+00  0.10566000000E+00 0.  1.
     999900   -1    0    0    0    0 -0.00000000000E+00 -0.00000000000E+00 -0.74505805969E-08  0.93827000000E+00  0.93827000000E+00 0.  1.
     999902    2    1    2    0    0 -0.83785966526E-02  0.18966596469E-01  0.11560485122E-01  0.10201902131E+01  0.10199139638E+01 0.  0.
     999903    2    3    3    0    0 -0.53641016470E-01  0.11318189925E+00  0.41690820441E-01  0.13349238016E+00  0.19864291692E-01 0.  0.
         14    1    1    2    0    0  0.83785966526E-02 -0.18966596469E-01 -0.11560485122E-01  0.23739786852E-01  0.00000000000E+00 0.  1.
     999901    1    3    3    0    0  0.45262419817E-01 -0.94215302783E-01 -0.30130335319E-01  0.88669783299E+00  0.88000000000E+00 0.  1.
        -11    1    4    4    0    0 -0.20522749538E-01  0.41054209424E-01  0.25429820141E-01  0.52474453151E-01  0.51100000000E-03 0. -1.
         11    1    4    4    0    0 -0.33118266931E-01  0.72127689829E-01  0.16261000300E-01  0.81017927006E-01  0.51100000000E-03 0.  1.
</event>
<event>
 8    1  0.1129602E+005  0.1043930E+01  0.7957747E-01            NaN
         13   -1    0    0    0    0  0.00000000000E+00  0.00000000000E+00  0.74505805969E-08  0.10566000000E+00  0.10566000000E+00 0. -1.
     999900   -1    0    0    0    0 -0.00000000000E+00 -0.00000000000E+00 -0.74505805969E-08  0.93827000000E+00  0.93827000000E+00 0.  1.
     999902    2    1    2    0    0  0.24236221890E-01  0.54855339103E-02 -0.36405734201E-02  0.10188154761E+01  0.10185058837E+01 0.  0.
     999903    2    3    3    0    0  0.13055818518E-01 -0.12595145030E+00 -0.12376660023E-01  0.12894076505E+00  0.20936020339E-01 0.  0.
         14    1    1    2    0    0 -0.24236221890E-01 -0.54855339103E-02  0.36405734201E-02  0.25114523858E-01  0.00000000000E+00 0. -1.
     999901    1    3    3    0    0  0.11180403372E-01  0.13143698421E+00  0.87360866027E-02  0.88987471110E+00  0.88000000000E+00 0. -1.
        -11    1    4    4    0    0  0.11637167723E-01 -0.60497237396E-01  0.30226794895E-02  0.61682551159E-01  0.51100000000E-03 0.  1.
         11    1    4    4    0    0  0.14186507944E-02 -0.65454212904E-01 -0.15399339512E-01  0.67258213888E-01  0.51100000000E-03 0. -1.
</event>
<event>
 8    1  0.1129602E+005  0.1043930E+01  0.7957747E-01            NaN
         13   -1    0    0    0    0  0.00000000000E+00  0.00000000000E+00  0.74505805969E-08  0.10566000000E+00  0.10566000000E+00 0. -1.
     999900   -1    0    0    0    0 -0.00000000000E+00 -0.00000000000E+00 -0.74505805969E-08  0.93827000000E+00  0.93827000000E+00 0. -1.
     999902    2    1    2    0    0  0.28945280675E-02  0.22942129358E-01  0.59926575627E-02  0.10200421048E+01  0.10197623566E+01 0.  0.
     999903    2    3    3    0    0 -0.10615006293E+00 -0.56874000861E-01 -0.40597927091E-01  0.12850858325E+00  0.19072924602E-01 0.  0.
         14    1    1    2    0    0 -0.28945280675E-02 -0.22942129358E-01 -0.59926575627E-02  0.23887895196E-01  0.00000000000E+00 0. -1.
     999901    1    3    3    0    0  0.10904459099E+00  0.79816130219E-01  0.46590584654E-01  0.89153352155E+00  0.88000000000E+00 0.  1.
        -11    1    4    4    0    0 -0.63989895037E-01 -0.23886035513E-01 -0.20330443154E-01  0.71265962417E-01  0.51100000000E-03 0. -1.
         11    1    4    4    0    0 -0.42160167889E-01 -0.32987965348E-01 -0.20267483937E-01  0.57242620838E-01  0.51100000000E-03 0.  1.
</event>
<event>
 8    1  0.1129602E+005  0.1043930E+01  0.7957747E-01            NaN
         13   -1    0    0    0    0  0.00000000000E+00  0.00000000000E+00  0.74505805969E-08  0.10566000000E+00  0.10566000000E+00 0. -1.
     999900   -1    0    0    0    0 -0.00000000000E+00 -0.00000000000E+00 -0.74505805969E-08  0.93827000000E+00  0.93827000000E+00 0.  1.
     999902    2    1    2    0    0 -0.25501915261E-02  0.22601637112E-01 -0.93181592641E-02  0.10193502203E+01  0.10190538289E+01 0.  0.
     999903    2    3    3    0    0  0.34101830120E-01  0.37403571036E-01  0.11734079280E+00  0.12940361626E+00  0.20358592833E-01 0.  0.
         14    1    1    2    0    0  0.25501915261E-02 -0.22601637112E-01  0.93181592641E-02  0.24579779678E-01  0.00000000000E+00 0. -1.
     999901    1    3    3    0    0 -0.36652021646E-01 -0.14801933924E-01 -0.12665895207E+00  0.88994660406E+00  0.88000000000E+00 0.  1.
        -11    1    4    4    0    0  0.18354819919E-01  0.30753230632E-01  0.92972158231E-01  0.99633046404E-01  0.51100000000E-03 0. -1.
         11    1    4    4    0    0  0.15747010201E-01  0.66503404033E-02  0.24368634572E-01  0.29770569858E-01  0.51100000000E-03 0.  1.
</event>
<event>
 8    1  0.1129602E+005  0.1043930E+01  0.7957747E-01            NaN
         13   -1    0    0    0    0  0.00000000000E+00  0.00000000000E+00  0.74505805969E-08  0.10566000000E+00  0.10566000000E+00 0.  1.
     999900   -1    0    0    0    0 -0.00000000000E+00 -0.00000000000E+00 -0.74505805969E-08  0.93827000000E+00  0.93827000000E+00 0. -1.
     999902    2    1    2    0    0 -0.10180602122E-01  0.13820448850E-01  0.14101148227E-01  0.10217153236E+01  0.10214737934E+01 0.  0.
     999903    2    3    3    0    0  0.34009923452E-01 -0.12276711203E+00  0.16743760157E-01  0.13007865560E+00  0.20289515712E-01 0.  0.
         14    1    1    2    0    0  0.10180602122E-01 -0.13820448850E-01 -0.14101148227E-01  0.22214676395E-01  0.00000000000E+00 0. -1.
     999901    1    3    3    0    0 -0.44190525575E-01  0.13658756088E+00 -0.26426119295E-02  0.89163666801E+00  0.88000000000E+00 0.  1.
        -11    1    4    4    0    0  0.13905610649E-01 -0.31414526014E-01 -0.29607518982E-02  0.34485730745E-01  0.51100000000E-03 0.  1.
         11    1    4    4    0    0  0.20104312804E-01 -0.91352586018E-01  0.19704512055E-01  0.95592924853E-01  0.51100000000E-03 0. -1.
</event>
<event>
 8    1  0.1129602E+005  0.1043930E+01  0.7957747E-01            NaN
         13   -1    0    0    0    0  0.00000000000E+00  0.00000000000E+00  0.74505805969E-08  0.10566000000E+00  0.10566000000E+00 0.  1.
     999900   -1    0    0    0    0 -0.00000000000E+00 -0.00000000000E+00 -0.74505805969E-08  0.93827000000E+00  0.93827000000E+00 0.  1.
     999902    2    1    2    0    0  0.10621417683E-01 -0.11862460275E-01  0.16889486531E-01  0.10207182092E+01  0.10204542495E+01 0.  0.
     999903    2    3    3    0    0  0.10001117900E+00  0.68439882715E-01 -0.44722346085E-01  0.13041769047E+00  0.17956399325E-01 0.  0.
         14    1    1    2    0    0 -0.10621417683E-01  0.11862460275E-01 -0.16889486531E-01  0.23211790811E-01  0.00000000000E+00 0. -1.
     999901    1    3    3    0    0 -0.89389761316E-01 -0.80302342990E-01  0.61611832616E-01  0.89030051872E+00  0.88000000000E+00 0. -1.
        -11    1    4    4    0    0  0.55459942947E-01  0.48187167139E-01 -0.29378619148E-01  0.79127572518E-01  0.51100000000E-03 0.  1.
         11    1    4    4    0    0  0.44551236052E-01  0.20252715577E-01 -0.15343726937E-01  0.51290117950E-01  0.51100000000E-03 0. -1.
</event>
<event>
 8    1  0.1129602E+005  0.1043930E+01  0.7957747E-01            NaN
         13   -1    0    0    0    0  0.00000000000E+00  0.00000000000E+00  0.74505805969E-08  0.10566000000E+00  0.10566000000E+00 0.  1.
     999900   -1    0    0    0    0 -0.00000000000E+00 -0.00000000000E+00 -0.74505805969E-08  0.93827000000E+00  0.93827000000E+00 0.  1.
     999902    2    1    2    0    0  0.13191653387E-02 -0.15455952685E-01  0.18704131562E-01  0.10196303867E+01  0.10193407939E+01 0.  0.
     999903    2    3    3    0    0  0.28346664041E-01  0.70643664731E-01  0.10448163526E+00  0.13086640790E+00  0.20384893462E-01 0.  0.
         14    1    1    2    0    0 -0.13191653387E-02  0.15455952685E-01 -0.18704131562E-01  0.24299613332E-01  0.00000000000E+00 0. -1.
     999901    1    3    3    0    0 -0.27027498702E-01 -0.86099617416E-01 -0.85777503702E-01  0.88876397876E+00  0.88000000000E+00 0.  1.
        -11    1    4    4    0    0  0.52077762294E-02  0.39892924609E-01  0.50469068933E-01  0.64544205062E-01  0.51100000000E-03 0.  1.
         11    1    4    4    0    0  0.23138887812E-01  0.30750740122E-01  0.54012566331E-01  0.66322202843E-01  0.51100000000E-03 0. -1.
</event>
<event>
 7    1  0.1129602E+005  0.1043930E+01  0.7957747E-01            NaN
         13   -1    0    0    0    0  0.00000000000E+00  0.00000000000E+00  0.74505805969E-08  0.10566000000E+00  0.10566000000E+00 0.  1.
     999900   -1    0    0    0    0 -0.00000000000E+00 -0.00000000000E+00 -0.74505805969E-08  0.93827000000E+00  0.93827000000E+00 0.  1.
     999902    2    1    2    0    0  0.18369924322E-01  0.15384022660E-01  0.14762107833E-02  0.10199237202E+01  0.10196411592E+01 0.  0.
         14    1    1    2    0    0 -0.18369924322E-01 -0.15384022660E-01 -0.14762107833E-02  0.24006279826E-01  0.00000000000E+00 0.  1.
     999901    1    3    3    0    0  0.82227355879E-02  0.13436184162E-01  0.13111451971E+00  0.88985344957E+00  0.88000000000E+00 0. -1.
        -11    1    3    3    0    0  0.53897541998E-02  0.11727303850E-02 -0.81681520219E-01  0.81869143230E-01  0.51100000000E-03 0. -1.
         11    1    3    3    0    0  0.47574345340E-02  0.77510811268E-03 -0.47956788712E-01  0.48201127378E-01  0.51100000000E-03 0.  1.
</event>
<event>
 8    1  0.1129602E+005  0.1043930E+01  0.7957747E-01            NaN
         13   -1    0    0    0    0  0.00000000000E+00  0.00000000000E+00  0.74505805969E-08  0.10566000000E+00  0.10566000000E+00 0.  1.
     999900   -1    0    0    0    0 -0.00000000000E+00 -0.00000000000E+00 -0.74505805969E-08  0.93827000000E+00  0.93827000000E+00 0.  1.
     999902    2    1    2    0    0 -0.24151100274E-01  0.22868267146E-02  0.10023278176E-01  0.10176817367E+01  0.10173431800E+01 0.  0.
     999903    2    3    3    0    0 -0.98512124842E-01 -0.54621689697E-02  0.84366191807E-01  0.13138806205E+00  0.20265598925E-01 0.  0.
         14    1    1    2    0    0  0.24151100274E-01 -0.22868267146E-02 -0.10023278176E-01  0.26248263300E-01  0.00000000000E+00 0. -1.
     999901    1    3    3    0    0  0.74361024567E-01  0.77489956842E-02 -0.74342913632E-01  0.88629367465E+00  0.88000000000E+00 0. -1.
        -11    1    4    4    0    0 -0.83592709205E-01 -0.63517088623E-02  0.61130623720E-01  0.10375596135E+00  0.51100000000E-03 0. -1.
         11    1    4    4    0    0 -0.14919415636E-01  0.88953989265E-03  0.23235568088E-01  0.27632100708E-01  0.51100000000E-03 0.  1.
</event>
<event>
 8    1  0.1129602E+005  0.1043930E+01  0.7957747E-01            NaN
         13   -1    0    0    0    0  0.00000000000E+00  0.00000000000E+00  0.74505805969E-08  0.10566000000E+00  0.10566000000E+00 0. -1.
     999900   -1    0    0    0    0 -0.00000000000E+00 -0.00000000000E+00 -0.74505805969E-08  0.93827000000E+00  0.93827000000E+00 0.  1.
     999902    2    1    2    0    0 -0.16145699351E-01 -0.15809210261E-01  0.65166992889E-03  0.10213238192E+01  0.10210736037E+01 0.  0.
     999903    2    3    3    0    0  0.48058021716E-01 -0.50485266898E-01 -0.10963947203E+00  0.13144254471E+00  0.19949764577E-01 0.  0.
         14    1    1    2    0    0  0.16145699351E-01  0.15809210261E-01 -0.65166992889E-03  0.22606180799E-01  0.00000000000E+00 0.  1.
     999901    1    3    3    0    0 -0.64203721067E-01  0.34676056636E-01  0.11029114196E+00  0.88988127450E+00  0.88000000000E+00 0. -1.
        -11    1    4    4    0    0  0.14552070809E-01 -0.29672961180E-01 -0.49748095042E-01  0.59727560400E-01  0.51100000000E-03 0.  1.
         11    1    4    4    0    0  0.33505950907E-01 -0.20812305718E-01 -0.59891376988E-01  0.71714984306E-01  0.51100000000E-03 0. -1.
</event>
<event>
 8    1  0.1129602E+005  0.1043930E+01  0.7957747E-01            NaN
         13   -1    0    0    0    0  0.00000000000E+00  0.00000000000E+00  0.74505805969E-08  0.10566000000E+00  0.10566000000E+00 0. -1.
     999900   -1    0    0    0    0 -0.00000000000E+00 -0.00000000000E+00 -0.74505805969E-08  0.93827000000E+00  0.93827000000E+00 0. -1.
     999902    2    1    2    0    0  0.12649680471E-01 -0.46026054264E-02 -0.17911865132E-01  0.10215239003E+01  0.10212781431E+01 0.  0.
     999903    2    3    3    0    0  0.31518334423E-01 -0.41990106043E-01  0.11758047932E+00  0.13016985910E+00  0.19038085261E-01 0.  0.
         14    1    1    2    0    0 -0.12649680471E-01  0.46026054264E-02  0.17911865132E-01  0.22406099733E-01  0.00000000000E+00 0. -1.
     999901    1    3    3    0    0 -0.18868653952E-01  0.37387500617E-01 -0.13549234445E+00  0.89135404117E+00  0.88000000000E+00 0. -1.
        -11    1    4    4    0    0  0.28076412971E-01 -0.23270253938E-01  0.70235625287E-01  0.79139711044E-01  0.51100000000E-03 0.  1.
         11    1    4    4    0    0  0.34419214523E-02 -0.18719852105E-01  0.47344854032E-01  0.51030148054E-01  0.51100000000E-03 0. -1.
</event>
<event>
 8    1  0.1129602E+005  0.1043930E+01  0.7957747E-01            NaN
         13   -1    0    0    0    0  0.00000000000E+00  0.00000000000E+00  0.74505805969E-08  0.10566000000E+00  0.10566000000E+00 0. -1.
     999900   -1    0    0    0    0 -0.00000000000E+00 -0.00000000000E+00 -0.74505805969E-08  0.93827000000E+00  0.93827000000E+00 0. -1.
     999902    2    1    2    0    0  0.17161317054E-01 -0.15071064795E-01 -0.48243634207E-02  0.10205864296E+01  0.10203194294E+01 0.  0.
     999903    2    3    3    0    0 -0.77351349796E-01  0.69933740222E-01 -0.72740841558E-01  0.12886275654E+00  0.20986201572E-01 0.  0.
         14    1    1    2    0    0 -0.17161317054E-01  0.15071064795E-01  0.48243634207E-02  0.23343570410E-01  0.00000000000E+00 0. -1.
     999901    1    3    3    0    0  0.94512666850E-01 -0.85004805016E-01  0.67916478137E-01  0.89172367305E+00  0.88000000000E+00 0.  1.
        -11    1    4    4    0    0 -0.60793910311E-01  0.44472992347E-01 -0.58176756686E-01  0.95176376894E-01  0.51100000000E-03 0. -1.
         11    1    4    4    0    0 -0.16557439486E-01  0.25460747874E-01 -0.14564084872E-01  0.33686379648E-01  0.51100000000E-03 0.  1.
</event>
<event>
 8    1  0.1129602E+005  0.1043930E+01  0.7957747E-01            NaN
         13   -1    0    0    0    0  0.00000000000E+00  0.00000000000E+00  0.74505805969E-08  0.10566000000E+00  0.10566000000E+00 0.  1.
     999900   -1    0    0    0    0 -0.00000000000E+00 -0.00000000000E+00 -0.74505805969E-08  0.93827000000E+00  0.93827000000E+00 0.  1.
     999902    2    1    2    0    0 -0.11964760734E-01 -0.11193249386E-01  0.16768358273E-01  0.10204859779E+01  0.10202166481E+01 0.  0.
     999903    2    3    3    0    0 -0.81113461113E-01 -0.68438402420E-01  0.78827337757E-01  0.13374482786E+00  0.20266260179E-01 0.  0.
         14    1    1    2    0    0  0.11964760734E-01  0.11193249386E-01 -0.16768358273E-01  0.23444022061E-01  0.00000000000E+00 0. -1.
     999901    1    3    3    0    0  0.69148700379E-01  0.57245153034E-01 -0.62058979485E-01  0.88674115008E+00  0.88000000000E+00 0.  1.
        -11    1    4    4    0    0 -0.20692339780E-01 -0.91440406931E-02  0.23431202440E-01  0.32574050631E-01  0.51100000000E-03 0. -1.
         11    1    4    4    0    0 -0.60421121333E-01 -0.59294361727E-01  0.55396135318E-01  0.10117077723E+00  0.51100000000E-03 0.  1.
</event>
<event>
 8    1  0.1129602E+005  0.1043930E+01  0.7957747E-01            NaN
         13   -1    0    0    0    0  0.00000000000E+00  0.00000000000E+00  0.74505805969E-08  0.10566000000E+00  0.10566000000E+00 0. -1.
     999900   -1    0    0    0    0 -0.00000000000E+00 -0.00000000000E+00 -0.74505805969E-08  0.93827000000E+00  0.93827000000E+00 0. -1.
     999902    2    1    2    0    0 -0.60328758850E-02 -0.98330300978E-02 -0.20621038705E-01  0.10203013879E+01  0.10200277500E+01 0.  0.
     999903    2    3    3    0    0  0.38692983880E-01  0.11480691404E+00 -0.43013131930E-01  0.13011212486E+00  0.20031500282E-01 0.  0.
         14    1    1    2    0    0  0.60328758850E-02  0.98330300978E-02  0.20621038705E-01  0.23628612097E-01  0.00000000000E+00 0. -1.
     999901    1    3    3    0    0 -0.44725859765E-01 -0.12463994414E+00  0.22392093224E-01  0.89018926305E+00  0.88000000000E+00 0.  1.
        -11    1    4    4    0    0  0.19864204185E-01  0.63152655096E-01 -0.12989147020E-01  0.67467203253E-01  0.51100000000E-03 0.  1.
         11    1    4    4    0    0  0.18828779695E-01  0.51654258942E-01 -0.30023984910E-01  0.62644921602E-01  0.51100000000E-03 0. -1.
</event>
<event>
 8    1  0.1129602E+005  0.1043930E+01  0.7957747E-01            NaN
         13   -1    0    0    0    0  0.00000000000E+00  0.00000000000E+00  0.74505805969E-08  0.10566000000E+00  0.10566000000E+00 0. -1.
     999900   -1    0    0    0    0 -0.00000000000E+00 -0.00000000000E+00 -0.74505805969E-08  0.93827000000E+00  0.93827000000E+00 0.  1.
     999902    2    1    2    0    0 -0.10253041355E-01 -0.14990450173E-04  0.20454418299E-01  0.10210496960E+01  0.10207933059E+01 0.  0.
     999903    2    3    3    0    0  0.11115819913E+00  0.41955212466E-01 -0.46219168610E-01  0.12922709347E+00  0.21143439954E-01 0.  0.
         14    1    1    2    0    0  0.10253041355E-01  0.14990450173E-04 -0.20454418299E-01  0.22880303968E-01  0.00000000000E+00 0. -1.
     999901    1    3    3    0    0 -0.12141124048E+00 -0.41970202916E-01  0.66673586908E-01  0.89182260256E+00  0.88000000000E+00 0. -1.
        -11    1    4    4    0    0  0.44325494305E-01  0.94687755568E-02 -0.93950749659E-02  0.46291853609E-01  0.51100000000E-03 0.  1.
         11    1    4    4    0    0  0.66832704824E-01  0.32486436909E-01 -0.36824093644E-01  0.82935239861E-01  0.51100000000E-03 0. -1.
</event>
<event>
 8    1  0.1129602E+005  0.1043930E+01  0.7957747E-01            NaN
         13   -1    0    0    0    0  0.00000000000E+00  0.00000000000E+00  0.74505805969E-08  0.10566000000E+00  0.10566000000E+00 0. -1.
     999900   -1    0    0    0    0 -0.00000000000E+00 -0.00000000000E+00 -0.74505805969E-08  0.93827000000E+00  0.93827000000E+00 0. -1.
     999902    2    1    2    0    0 -0.13911764684E-02  0.20100885985E-01  0.12716468384E-01  0.10201037633E+01  0.10198254744E+01 0.  0.
     999903    2    3    3    0    0 -0.43268690345E-01  0.12295562056E+00  0.17954303568E-01  0.13310869139E+00  0.20132126453E-01 0.  0.
         14    1    1    2    0    0  0.13911764684E-02 -0.20100885985E-01 -0.12716468384E-01  0.23826236747E-01  0.00000000000E+00 0. -1.
     999901    1    3    3    0    0  0.41877513877E-01 -0.10285473457E+00 -0.52378351840E-02  0.88699507186E+00  0.88000000000E+00 0.  1.
        -11    1    4    4    0    0 -0.23763857332E-01  0.61062127159E-01 -0.89216219804E-03  0.65531376934E-01  0.51100000000E-03 0.  1.
         11    1    4    4    0    0 -0.19504833013E-01  0.61893493400E-01  0.18846465766E-01  0.67577314456E-01  0.51100000000E-03 0. -1.
</event>
<event>
 8    1  0.1129602E+005  0.1043930E+01  0.7957747E-01            NaN
         13   -1    0    0    0    0  0.00000000000E+00  0.00000000000E+00  0.74505805969E-08  0.10566000000E+00  0.10566000000E+00 0. -1.
     999900   -1    0    0    0    0 -0.00000000000E+00 -0.00000000000E+00 -0.74505805969E-08  0.93827000000E+00  0.93827000000E+00 0.  1.
     999902    2    1    2    0    0 -0.40781520939E-02 -0.15421840098E-01 -0.17150580046E-01  0.10205076416E+01  0.10202388150E+01 0.  0.
     999903    2    3    3    0    0  0.78773120859E-02 -0.11964827960E+00  0.50955930742E-01  0.13166312167E+00  0.18997575470E-01 0.  0.
         14    1    1    2    0    0  0.40781520939E-02  0.15421840098E-01  0.17150580046E-01  0.23422358387E-01  0.00000000000E+00 0. -1.
     999901    1    3    3    0    0 -0.11955464180E-01  0.10422643950E+00 -0.68106510789E-01  0.88884451994E+00  0.88000000000E+00 0.  1.
        -11    1    4    4    0    0  0.11848909420E-01 -0.83872540896E-01  0.29189499788E-01  0.89595132623E-01  0.51100000000E-03 0. -1.
         11    1    4    4    0    0 -0.39715973341E-02 -0.35775738704E-01  0.21766430954E-01  0.42067989050E-01  0.51100000000E-03 0.  1.
</event>
<event>
 8    1  0.1129602E+005  0.1043930E+01  0.7957747E-01            NaN
         13   -1    0    0    0    0  0.00000000000E+00  0.00000000000E+00  0.74505805969E-08  0.10566000000E+00  0.10566000000E+00 0. -1.
     999900   -1    0    0    0    0 -0.00000000000E+00 -0.00000000000E+00 -0.74505805969E-08  0.93827000000E+00  0.93827000000E+00 0.  1.
     999902    2    1    2    0    0  0.20047510646E-01 -0.86564319580E-04 -0.12394151557E-01  0.10203604186E+01  0.10200881622E+01 0.  0.
     999903    2    3    3    0    0 -0.70272699484E-01 -0.48258117151E-01  0.93633170658E-01  0.12810483190E+00  0.19405647272E-01 0.  0.
         14    1    1    2    0    0 -0.20047510646E-01  0.86564319580E-04  0.12394151557E-01  0.23569581441E-01  0.00000000000E+00 0. -1.
     999901    1    3    3    0    0  0.90320210130E-01  0.48171552831E-01 -0.10602732222E+00  0.89225558665E+00  0.88000000000E+00 0.  1.
        -11    1    4    4    0    0 -0.53159614600E-01 -0.40770209586E-01  0.61553087941E-01  0.90979109526E-01  0.51100000000E-03 0.  1.
         11    1    4    4    0    0 -0.17113084884E-01 -0.74879075642E-02  0.32080082717E-01  0.37125722378E-01  0.51100000000E-03 0. -1.
</event>
<event>
 8    1  0.1129602E+005  0.1043930E+01  0.7957747E-01            NaN
         13   -1    0    0    0    0  0.00000000000E+00  0.00000000000E+00  0.74505805969E-08  0.10566000000E+00  0.10566000000E+00 0.  1.
     999900   -1    0    0    0    0 -0.00000000000E+00 -0.00000000000E+00 -0.74505805969E-08  0.93827000000E+00  0.93827000000E+00 0. -1.
     999902    2    1    2    0    0  0.11840600046E-01 -0.12064286204E-01  0.16331466887E-01  0.10204254553E+01  0.10201547168E+01 0.  0.
     999903    2    3    3    0    0 -0.12479650035E+00 -0.65202252089E-02 -0.24616515536E-01  0.12892269530E+00  0.19960177594E-01 0.  0.
         14    1    1    2    0    0 -0.11840600046E-01  0.12064286204E-01 -0.16331466887E-01  0.23504544704E-01  0.00000000000E+00 0. -1.
     999901    1    3    3    0    0  0.13663710040E+00 -0.55440609946E-02  0.40947982424E-01  0.89150276000E+00  0.88000000000E+00 0. -1.
        -11    1    4    4    0    0 -0.83493182690E-01  0.43471889153E-02 -0.19960821811E-01  0.85957577534E-01  0.51100000000E-03 0. -1.
         11    1    4    4    0    0 -0.41303317660E-01 -0.10867414124E-01 -0.46556937253E-02  0.42965117765E-01  0.51100000000E-03 0.  1.
</event>
<event>
 8    1  0.1129602E+005  0.1043930E+01  0.7957747E-01            NaN
         13   -1    0    0    0    0  0.00000000000E+00  0.00000000000E+00  0.74505805969E-08  0.10566000000E+00  0.10566000000E+00 0.  1.
     999900   -1    0    0    0    0 -0.00000000000E+00 -0.00000000000E+00 -0.74505805969E-08  0.93827000000E+00  0.93827000000E+00 0. -1.
     999902    2    1    2    0    0 -0.44371469617E-02 -0.18317206053E-01  0.15256549949E-01  0.10196818944E+01  0.10193935428E+01 0.  0.
     999903    2    3    3    0    0  0.83477706251E-01 -0.62441464093E-01 -0.74433122655E-01  0.12967054110E+00  0.20166695360E-01 0.  0.
         14    1    1    2    0    0  0.44371469617E-02  0.18317206053E-01 -0.15256549949E-01  0.24248105639E-01  0.00000000000E+00 0. -1.
     999901    1    3    3    0    0 -0.87914853212E-01  0.44124258039E-01  0.89689672604E-01  0.89001135326E+00  0.88000000000E+00 0.  1.
        -11    1    4    4    0    0  0.60549462834E-01 -0.38470589217E-01 -0.59872912313E-01  0.93441160277E-01  0.51100000000E-03 0.  1.
         11    1    4    4    0    0  0.22928243416E-01 -0.23970874876E-01 -0.14560210343E-01  0.36229380821E-01  0.51100000000E-03 0. -1.
</event>
<event>
 8    1  0.1129602E+005  0.1043930E+01  0.7957747E-01            NaN
         13   -1    0    0    0    0  0.00000000000E+00  0.00000000000E+00  0.74505805969E-08  0.10566000000E+00  0.10566000000E+00 0.  1.
     999900   -1    0    0    0    0 -0.00000000000E+00 -0.00000000000E+00 -0.74505805969E-08  0.93827000000E+00  0.93827000000E+00 0. -1.
     999902    2    1    2    0    0  0.38326323885E-02 -0.24656317604E-01 -0.18227905486E-03  0.10189769181E+01  0.10186713422E+01 0.  0.
     999903    2    3    3    0    0 -0.72620461761E-01  0.68744848840E-01  0.76463101100E-01  0.12743703244E+00  0.19849576764E-01 0.  0.
         14    1    1    2    0    0 -0.38326323885E-02  0.24656317604E-01  0.18227905486E-03  0.24953081863E-01  0.00000000000E+00 0.  1.
     999901    1    3    3    0    0  0.76453094149E-01 -0.93401166444E-01 -0.76645380155E-01  0.89153988570E+00  0.88000000000E+00 0. -1.
        -11    1    4    4    0    0 -0.36204276172E-01  0.44794479602E-01  0.51145542251E-01  0.77028713017E-01  0.51100000000E-03 0.  1.
         11    1    4    4    0    0 -0.36416185589E-01  0.23950369238E-01  0.25317558849E-01  0.50408319418E-01  0.51100000000E-03 0. -1.
</event>
<event>
 8    1  0.1129602E+005  0.1043930E+01  0.7957747E-01            NaN
         13   -1    0    0    0    0  0.00000000000E+00  0.00000000000E+00  0.74505805969E-08  0.10566000000E+00  0.10566000000E+00 0.  1.
     999900   -1    0    0    0    0 -0.00000000000E+00 -0.00000000000E+00 -0.74505805969E-08  0.93827000000E+00  0.93827000000E+00 0. -1.
     999902    2    1    2    0    0  0.68693433259E-02 -0.19162789737E-01 -0.10989256448E-01  0.10207963849E+01  0.10205342206E+01 0.  0.
     999903    2    3    3    0    0 -0.57185907876E-01  0.71419572335E-01  0.87744941421E-01  0.12835216744E+00  0.20102755284E-01 0.  0.
         14    1    1    2    0    0 -0.68693433259E-02  0.19162789737E-01  0.10989256448E-01  0.23133615055E-01  0.00000000000E+00 0.  1.
     999901    1    3    3    0    0  0.64055251202E-01 -0.90582362072E-01 -0.98734197869E-01  0.89244421750E+00  0.88000000000E+00 0. -1.
        -11    1    4    4    0    0 -0.24508872171E-01  0.45976318863E-01  0.45207482985E-01  0.68981768244E-01  0.51100000000E-03 0.  1.
         11    1    4    4    0    0 -0.32677035705E-01  0.25443253472E-01  0.42537458436E-01  0.59370399198E-01  0.51100000000E-03 0. -1.
</event>
<event>
 8    1  0.1291713E+005  0.1043930E+01  0.7957747E-01            NaN
         13   -1    0    0    0    0  0.00000000000E+00  0.00000000000E+00  0.74505805969E-08  0.10566000000E+00  0.10566000000E+00 0.  1.
     999900   -1    0    0    0    0 -0.00000000000E+00 -0.00000000000E+00 -0.74505805969E-08  0.93827000000E+00  0.93827000000E+00 0.  1.
     999902    2    1    2    0    0 -0.21355600006E-01 -0.97480968410E-02 -0.29213176630E-02  0.10202736871E+01  0.10199993997E+01 0.  0.
     999903    2    3    3    0    0  0.73686776603E-01 -0.10485563587E+00 -0.66388607203E-02  0.13005331131E+00  0.21103172533E-01 0.  0.
         14    1    1    2    0    0  0.21355600006E-01  0.97480968410E-02  0.29213176630E-02  0.23656312910E-01  0.00000000000E+00 0. -1.
     999901    1    3    3    0    0 -0.95042376609E-01  0.95107539027E-01  0.37175430572E-02  0.89022037578E+00  0.88000000000E+00 0. -1.
        -11    1    4    4    0    0  0.35076358490E-01 -0.32367847121E-01 -0.13049281901E-02  0.47749266076E-01  0.51100000000E-03 0.  1.
         11    1    4    4    0    0  0.38610418113E-01 -0.72487788747E-01 -0.53339325302E-02  0.82304045232E-01  0.51100000000E-03 0. -1.
</event>
<event>
 8    1  0.1129602E+005  0.1043930E+01  0.7957747E-01            NaN
         13   -1    0    0    0    0  0.00000000000E+00  0.00000000000E+00  0.74505805969E-08  0.10566000000E+00  0.10566000000E+00 0. -1.
     999900   -1    0    0    0    0 -0.00000000000E+00 -0.00000000000E+00 -0.74505805969E-08  0.93827000000E+00  0.93827000000E+00 0. -1.
     999902    2    1    2    0    0  0.45265427506E-03 -0.57044076380E-03 -0.23298865813E-01  0.10206197566E+01  0.10203535270E+01 0.  0.
     999903    2    3    3    0    0  0.52879215034E-01  0.89629333890E-02 -0.12080087461E+00  0.13363268161E+00  0.19705246291E-01 0.  0.
         14    1    1    2    0    0 -0.45265427506E-03  0.57044076380E-03  0.23298865813E-01  0.23310243386E-01  0.00000000000E+00 0. -1.
     999901    1    3    3    0    0 -0.52426560759E-01 -0.95333741528E-02  0.97502008797E-01  0.88698707500E+00  0.88000000000E+00 0.  1.
        -11    1    4    4    0    0  0.17420542217E-01 -0.20564197512E-02 -0.22385068340E-01  0.28443919542E-01  0.51100000000E-03 0.  1.
         11    1    4    4    0    0  0.35458672817E-01  0.11019353140E-01 -0.98415806270E-01  0.10518876207E+00  0.51100000000E-03 0. -1.
</event>
<event>
 8    1  0.1129602E+005  0.1043930E+01  0.7957747E-01            NaN
         13   -1    0    0    0    0  0.00000000000E+00  0.00000000000E+00  0.74505805969E-08  0.10566000000E+00  0.10566000000E+00 0. -1.
     999900   -1    0    0    0    0 -0.00000000000E+00 -0.00000000000E+00 -0.74505805969E-08  0.93827000000E+00  0.93827000000E+00 0. -1.
     999902    2    1    2    0    0 -0.14141774134E-01 -0.77827589438E-02 -0.16400517655E-01  0.10209183053E+01  0.10206589284E+01 0.  0.
     999903    2    3    3    0    0  0.41991374530E-02 -0.98055992442E-01  0.83540764186E-01  0.13048363308E+00  0.20354577164E-01 0.  0.
         14    1    1    2    0    0  0.14141774134E-01  0.77827589438E-02  0.16400517655E-01  0.23011694674E-01  0.00000000000E+00 0.  1.
     999901    1    3    3    0    0 -0.18340911587E-01  0.90273233498E-01 -0.99941281841E-01  0.89043467225E+00  0.88000000000E+00 0. -1.
        -11    1    4    4    0    0 -0.21508399851E-02 -0.19229426475E-01  0.27196199805E-01  0.33381002981E-01  0.51100000000E-03 0. -1.
         11    1    4    4    0    0  0.63499774381E-02 -0.78826565967E-01  0.56344564381E-01  0.97102630098E-01  0.51100000000E-03 0.  1.
</event>
<event>
 8    1  0.1129602E+005  0.1043930E+01  0.7957747E-01            NaN
         13   -1    0    0    0    0  0.00000000000E+00  0.00000000000E+00  0.74505805969E-08  0.10566000000E+00  0.10566000000E+00 0. -1.
     999900   -1    0    0    0    0 -0.00000000000E+00 -0.00000000000E+00 -0.74505805969E-08  0.93827000000E+00  0.93827000000E+00 0.  1.
     999902    2    1    2    0    0  0.85456302119E-02 -0.10533274272E-01 -0.18172989702E-01  0.10212532450E+01  0.10210014472E+01 0.  0.
     999903    2    3    3    0    0  0.88249136107E-01  0.68909730202E-01 -0.68323405138E-01  0.13267071986E+00  0.19924138106E-01 0.  0.
         14    1    1    2    0    0 -0.85456302119E-02  0.10533274272E-01  0.18172989702E-01  0.22676754999E-01  0.00000000000E+00 0. -1.
     999901    1    3    3    0    0 -0.79703505895E-01 -0.79443004473E-01  0.50150415436E-01  0.88858252514E+00  0.88000000000E+00 0. -1.
        -11    1    4    4    0    0  0.61142707530E-01  0.35614663488E-01 -0.43931237388E-01  0.83288952923E-01  0.51100000000E-03 0. -1.
         11    1    4    4    0    0  0.27106428577E-01  0.33295066713E-01 -0.24392167750E-01  0.49381766940E-01  0.51100000000E-03 0.  1.
</event>
<event>
 8    1  0.1129602E+005  0.1043930E+01  0.7957747E-01            NaN
         13   -1    0    0    0    0  0.00000000000E+00  0.00000000000E+00  0.74505805969E-08  0.10566000000E+00  0.10566000000E+00 0.  1.
     999900   -1    0    0    0    0 -0.00000000000E+00 -0.00000000000E+00 -0.74505805969E-08  0.93827000000E+00  0.93827000000E+00 0. -1.
     999902    2    1    2    0    0  0.53934038089E-02  0.19643146063E-01 -0.12638974463E-01  0.10199573976E+01  0.10196756382E+01 0.  0.
     999903    2    3    3    0    0 -0.10354790096E+00 -0.15882683447E-01 -0.74467963148E-01  0.13037709412E+00  0.21869652648E-01 0.  0.
         14    1    1    2    0    0 -0.53934038089E-02 -0.19643146063E-01  0.12638974463E-01  0.23972602432E-01  0.00000000000E+00 0.  1.
     999901    1    3    3    0    0  0.10894130477E+00  0.35525829510E-01  0.61828988686E-01  0.88958030345E+00  0.88000000000E+00 0.  1.
        -11    1    4    4    0    0 -0.29584068923E-01  0.41622470028E-02 -0.15359928357E-01  0.33596576526E-01  0.51100000000E-03 0. -1.
         11    1    4    4    0    0 -0.73963832042E-01 -0.20044930450E-01 -0.59108034791E-01  0.96780517589E-01  0.51100000000E-03 0.  1.
</event>
<event>
 8    1  0.1129602E+005  0.1043930E+01  0.7957747E-01            NaN
         13   -1    0    0    0    0  0.00000000000E+00  0.00000000000E+00  0.74505805969E-08  0.10566000000E+00  0.10566000000E+00 0.  1.
     999900   -1    0    0    0    0 -0.00000000000E+00 -0.00000000000E+00 -0.74505805969E-08  0.93827000000E+00  0.93827000000E+00 0. -1.
     999902    2    1    2    0    0  0.14800743275E-01 -0.13724203097E-02  0.18593411006E-01  0.10201253687E+01  0.10198475903E+01 0.  0.
     999903    2    3    3    0    0  0.67119326170E-01  0.10543211929E+00  0.37219592087E-01  0.13192979427E+00  0.19980912354E-01 0.  0.
         14    1    1    2    0    0 -0.14800743275E-01  0.13724203097E-02 -0.18593411006E-01  0.23804631310E-01  0.00000000000E+00 0. -1.
     999901    1    3    3    0    0 -0.52318582895E-01 -0.10680453960E+00 -0.18626181081E-01  0.88819557442E+00  0.88000000000E+00 0. -1.
        -11    1    4    4    0    0  0.54895947051E-01  0.69264615152E-01  0.26670990436E-01  0.92318767142E-01  0.51100000000E-03 0. -1.
         11    1    4    4    0    0  0.12223379119E-01  0.36167504135E-01  0.10548601651E-01  0.39611027129E-01  0.51100000000E-03 0.  1.
</event>
<event>
 8    1  0.1129602E+005  0.1043930E+01  0.7957747E-01            NaN
         13   -1    0    0    0    0  0.00000000000E+00  0.00000000000E+00  0.74505805969E-08  0.10566000000E+00  0.10566000000E+00 0.  1.
     999900   -1    0    0    0    0 -0.00000000000E+00 -0.00000000000E+00 -0.74505805969E-08  0.93827000000E+00  0.93827000000E+00 0. -1.
     999902    2    1    2    0    0 -0.18965728894E-01  0.83989588937E-03 -0.17996003075E-01  0.10177716280E+01  0.10174354163E+01 0.  0.
     999903    2    3    3    0    0  0.11265458141E+00 -0.21090232666E-01 -0.51158921566E-01  0.12709513469E+00  0.20002134370E-01 0.  0.
         14    1    1    2    0    0  0.18965728894E-01 -0.83989588937E-03  0.17996003075E-01  0.26158371973E-01  0.00000000000E+00 0.  1.
     999901    1    3    3    0    0 -0.13162031030E+00  0.21930128556E-01  0.33162918490E-01  0.89067649334E+00  0.88000000000E+00 0.  1.
        -11    1    4    4    0    0  0.92116161337E-01 -0.22251537868E-01 -0.35347940426E-01  0.10114472863E+00  0.51100000000E-03 0. -1.
         11    1    4    4    0    0  0.20538420073E-01  0.11613052021E-02 -0.15810981139E-01  0.25950406056E-01  0.51100000000E-03 0.  1.
</event>
<event>
 8    1  0.1129602E+005  0.1043930E+01  0.7957747E-01            NaN
         13   -1    0    0    0    0  0.00000000000E+00  0.00000000000E+00  0.74505805969E-08  0.10566000000E+00  0.10566000000E+00 0. -1.
     999900   -1    0    0    0    0 -0.00000000000E+00 -0.00000000000E+00 -0.74505805969E-08  0.93827000000E+00  0.93827000000E+00 0. -1.
     999902    2    1    2    0    0 -0.10780082556E-02  0.25232960512E-01  0.25915342934E-03  0.10186726930E+01  0.10183595258E+01 0.  0.
     999903    2    3    3    0    0 -0.35490493520E-01  0.95429133932E-01 -0.80761418753E-01  0.13149962359E+00  0.20086052706E-01 0.  0.
         14    1    1    2    0    0  0.10780082556E-02 -0.25232960512E-01 -0.25915342934E-03  0.25257307032E-01  0.00000000000E+00 0. -1.
     999901    1    3    3    0    0  0.34412485264E-01 -0.70196173420E-01  0.81020572183E-01  0.88717306937E+00  0.88000000000E+00 0.  1.
        -11    1    4    4    0    0 -0.24206706769E-01  0.39514322340E-01 -0.30561851717E-01  0.55512469085E-01  0.51100000000E-03 0.  1.
         11    1    4    4    0    0 -0.11283786750E-01  0.55914811592E-01 -0.50199567037E-01  0.75987154510E-01  0.51100000000E-03 0. -1.
</event>
<event>
 8    1  0.1129602E+005  0.1043930E+01  0.7957747E-01            NaN
         13   -1    0    0    0    0  0.00000000000E+00  0.00000000000E+00  0.74505805969E-08  0.10566000000E+00  0.10566000000E+00 0.  1.
     999900   -1    0    0    0    0 -0.00000000000E+00 -0.00000000000E+00 -0.74505805969E-08  0.93827000000E+00  0.93827000000E+00 0.  1.
     999902    2    1    2    0    0  0.71941807119E-02  0.75351048187E-02 -0.21270781014E-01  0.10202449801E+01  0.10199700188E+01 0.  0.
     999903    2    3    3    0    0 -0.60362956562E-01  0.10320652204E+00  0.46762922679E-01  0.12988237327E+00  0.19682155183E-01 0.  0.
         14    1    1    2    0    0 -0.71941807119E-02 -0.75351048187E-02  0.21270781014E-01  0.23685019858E-01  0.00000000000E+00 0.  1.
     999901    1    3    3    0    0  0.67557137274E-01 -0.95671417224E-01 -0.68033703693E-01  0.89036260687E+00  0.88000000000E+00 0.  1.
        -11    1    4    4    0    0 -0.44753754267E-01  0.88314983838E-01  0.33351137034E-01  0.10447485034E+00  0.51100000000E-03 0. -1.
         11    1    4    4    0    0 -0.15609202295E-01  0.14891538205E-01  0.13411785646E-01  0.25407522933E-01  0.51100000000E-03 0.  1.
</event>
<event>
 8    1  0.1129602E+005  0.1043930E+01  0.7957747E-01            NaN
         13   -1    0    0    0    0  0.00000000000E+00  0.00000000000E+00  0.74505805969E-08  0.10566000000E+00  0.10566000000E+00 0. -1.
     999900   -1    0    0    0    0 -0.00000000000E+00 -0.00000000000E+00 -0.74505805969E-08  0.93827000000E+00  0.93827000000E+00 0. -1.
     999902    2    1    2    0    0  0.11852487917E-01  0.17528819390E-01 -0.11089842468E-01  0.10200401364E+01  0.10197603415E+01 0.  0.
     999903    2    3    3    0    0  0.21877838653E-01 -0.57178135377E-01  0.11112810171E+00  0.12840183378E+00  0.19738210120E-01 0.  0.
         14    1    1    2    0    0 -0.11852487917E-01 -0.17528819390E-01  0.11089842468E-01  0.23889863645E-01  0.00000000000E+00 0. -1.
     999901    1    3    3    0    0 -0.10025350736E-01  0.74706954766E-01 -0.12221794417E+00  0.89163830258E+00  0.88000000000E+00 0. -1.
        -11    1    4    4    0    0  0.11181841076E-01 -0.19422595755E-01  0.23987900469E-01  0.32832168458E-01  0.51100000000E-03 0.  1.
         11    1    4    4    0    0  0.10695997578E-01 -0.37755539621E-01  0.87140201238E-01  0.95569665318E-01  0.51100000000E-03 0. -1.
</event>
<event>
 8    1  0.1129602E+005  0.1043930E+01  0.7957747E-01            NaN
         13   -1    0    0    0    0  0.00000000000E+00  0.00000000000E+00  0.74505805969E-08  0.10566000000E+00  0.10566000000E+00 0. -1.
     999900   -1    0    0    0    0 -0.00000000000E+00 -0.00000000000E+00 -0.74505805969E-08  0.93827000000E+00  0.93827000000E+00 0.  1.
     999902    2    1    2    0    0  0.16925328605E-01 -0.57366540249E-02  0.17433762768E-01  0.10189637822E+01  0.10186578804E+01 0.  0.
     999903    2    3    3    0    0  0.54418743192E-01 -0.76833382213E-01  0.90732697977E-01  0.13226584331E+00  0.19926429486E-01 0.  0.
         14    1    1    2    0    0 -0.16925328605E-01  0.57366540249E-02 -0.17433762768E-01  0.24966217816E-01  0.00000000000E+00 0.  1.
     999901    1    3    3    0    0 -0.37493414587E-01  0.71096728188E-01 -0.73298935209E-01  0.88669793887E+00  0.88000000000E+00 0.  1.
        -11    1    4    4    0    0  0.38826514192E-01 -0.50403031006E-01  0.48225751377E-01  0.79837008685E-01  0.51100000000E-03 0.  1.
         11    1    4    4    0    0  0.15592229000E-01 -0.26430351207E-01  0.42506946601E-01  0.52428834628E-01  0.51100000000E-03 0. -1.
</event>
<event>
 8    1  0.1178880E+005  0.1043930E+01  0.7957747E-01            NaN
         13   -1    0    0    0    0  0.00000000000E+00  0.00000000000E+00  0.74505805969E-08  0.10566000000E+00  0.10566000000E+00 0.  1.
     999900   -1    0    0    0    0 -0.00000000000E+00 -0.00000000000E+00 -0.74505805969E-08  0.93827000000E+00  0.93827000000E+00 0.  1.
     999902    2    1    2    0    0  0.14746144455E-01  0.12108834980E-02 -0.19119304047E-01  0.10197543345E+01  0.10194677238E+01 0.  0.
     999903    2    3    3    0    0  0.77769821981E-01 -0.68817767454E-01  0.75076828634E-01  0.12972685892E+00  0.20211318560E-01 0.  0.
         14    1    1    2    0    0 -0.14746144455E-01 -0.12108834980E-02  0.19119304047E-01  0.24175665500E-01  0.00000000000E+00 0.  1.
     999901    1    3    3    0    0 -0.63023677526E-01  0.70028650952E-01 -0.94196132681E-01  0.89002747558E+00  0.88000000000E+00 0.  1.
        -11    1    4    4    0    0  0.41983637346E-01 -0.39888702499E-01  0.53721749649E-01  0.78993809240E-01  0.51100000000E-03 0.  1.
         11    1    4    4    0    0  0.35786184635E-01 -0.28929064955E-01  0.21355078985E-01  0.50733049675E-01  0.51100000000E-03 0. -1.
</event>
<event>
 8    1  0.1129602E+005  0.1043930E+01  0.7957747E-01            NaN
         13   -1    0    0    0    0  0.00000000000E+00  0.00000000000E+00  0.74505805969E-08  0.10566000000E+00  0.10566000000E+00 0. -1.
     999900   -1    0    0    0    0 -0.00000000000E+00 -0.00000000000E+00 -0.74505805969E-08  0.93827000000E+00  0.93827000000E+00 0. -1.
     999902    2    1    2    0    0 -0.17326011002E-01 -0.13343758516E-01 -0.33441147659E-02  0.10218069430E+01  0.10215674227E+01 0.  0.
     999903    2    3    3    0    0 -0.11543722661E+00 -0.64682102985E-01  0.14610482801E-01  0.13468586679E+00  0.20427647202E-01 0.  0.
         14    1    1    2    0    0  0.17326011002E-01  0.13343758516E-01  0.33441147659E-02  0.22123057026E-01  0.00000000000E+00 0. -1.
     999901    1    3    3    0    0  0.98111215609E-01  0.51338344468E-01 -0.17954597567E-01  0.88712107619E+00  0.88000000000E+00 0. -1.
        -11    1    4    4    0    0 -0.11038273445E+00 -0.65182107613E-01  0.16484312121E-01  0.12924801308E+00  0.51100000000E-03 0. -1.
         11    1    4    4    0    0 -0.50544921592E-02  0.50000462814E-03 -0.18738293206E-02  0.54378537070E-02  0.51100000000E-03 0.  1.
</event>
<event>
 8    1  0.1129602E+005  0.1043930E+01  0.7957747E-01            NaN
         13   -1    0    0    0    0  0.00000000000E+00  0.00000000000E+00  0.74505805969E-08  0.10566000000E+00  0.10566000000E+00 0.  1.
     999900   -1    0    0    0    0 -0.00000000000E+00 -0.00000000000E+00 -0.74505805969E-08  0.93827000000E+00  0.93827000000E+00 0.  1.
     999902    2    1    2    0    0 -0.22597769765E-01  0.74744621887E-03 -0.30096133692E-02  0.10211204483E+01  0.10208656593E+01 0.  0.
     999903    2    3    3    0    0 -0.57623234639E-01  0.90728523531E-01 -0.75477590209E-01  0.13287780968E+00  0.20187707402E-01 0.  0.
         14    1    1    2    0    0  0.22597769765E-01 -0.74744621887E-03  0.30096133692E-02  0.22809551658E-01  0.00000000000E+00 0.  1.
     999901    1    3    3    0    0  0.35025464873E-01 -0.89981077312E-01  0.72467976840E-01  0.88824263866E+00  0.88000000000E+00 0.  1.
        -11    1    4    4    0    0 -0.13054290278E-01  0.87825635217E-02 -0.14725409560E-01  0.21555665714E-01  0.51100000000E-03 0. -1.
         11    1    4    4    0    0 -0.44568944361E-01  0.81945960009E-01 -0.60752180650E-01  0.11132214397E+00  0.51100000000E-03 0.  1.
</event>
<event>
 8    1  0.1129602E+005  0.1043930E+01  0.7957747E-01            NaN
         13   -1    0    0    0    0  0.00000000000E+00  0.00000000000E+00  0.74505805969E-08  0.10566000000E+00  0.10566000000E+00 0. -1.
     999900   -1    0    0    0    0 -0.00000000000E+00 -0.00000000000E+00 -0.74505805969E-08  0.93827000000E+00  0.93827000000E+00 0.  1.
     999902    2    1    2    0    0  0.20889658403E-01  0.84987622533E-02 -0.72551907833E-02  0.10202393989E+01  0.10199643065E+01 0.  0.
     999903    2    3    3    0    0 -0.88188468794E-01  0.72809727205E-01  0.56062296591E-01  0.12892405499E+00  0.19999211298E-01 0.  0.
         14    1    1    2    0    0 -0.20889658403E-01 -0.84987622533E-02  0.72551907833E-02  0.23690601118E-01  0.00000000000E+00 0.  1.
     999901    1    3    3    0    0  0.10907812720E+00 -0.64310964952E-01 -0.63317487375E-01  0.89131534389E+00  0.88000000000E+00 0.  1.
        -11    1    4    4    0    0 -0.67437275310E-01  0.44784014376E-01  0.35126010442E-01  0.88246766374E-01  0.51100000000E-03 0.  1.
         11    1    4    4    0    0 -0.20751193484E-01  0.28025712829E-01  0.20936286149E-01  0.40677288618E-01  0.51100000000E-03 0. -1.
</event>
<event>
 8    1  0.1129602E+005  0.1043930E+01  0.7957747E-01            NaN
         13   -1    0    0    0    0  0.00000000000E+00  0.00000000000E+00  0.74505805969E-08  0.10566000000E+00  0.10566000000E+00 0. -1.
     999900   -1    0    0    0    0 -0.00000000000E+00 -0.00000000000E+00 -0.74505805969E-08  0.93827000000E+00  0.93827000000E+00 0. -1.
     999902    2    1    2    0    0  0.87076610004E-02  0.19757061541E-01 -0.10691676147E-01  0.10198369143E+01  0.10195522816E+01 0.  0.
     999903    2    3    3    0    0  0.63866190521E-01  0.28990426737E-01  0.10795788879E+00  0.13011480166E+00  0.18857908836E-01 0.  0.
         14    1    1    2    0    0 -0.87076610004E-02 -0.19757061541E-01  0.10691676147E-01  0.24093085723E-01  0.00000000000E+00 0. -1.
     999901    1    3    3    0    0 -0.55158529521E-01 -0.92333651966E-02 -0.11864956494E+00  0.88972211261E+00  0.88000000000E+00 0. -1.
        -11    1    4    4    0    0  0.12468755038E-01  0.13984797184E-01  0.33754700788E-01  0.38609394592E-01  0.51100000000E-03 0.  1.
         11    1    4    4    0    0  0.51397435483E-01  0.15005629553E-01  0.74203188004E-01  0.91505407072E-01  0.51100000000E-03 0. -1.
</event>
<event>
 8    1  0.1129602E+005  0.1043930E+01  0.7957747E-01            NaN
         13   -1    0    0    0    0  0.00000000000E+00  0.00000000000E+00  0.74505805969E-08  0.10566000000E+00  0.10566000000E+00 0. -1.
     999900   -1    0    0    0    0 -0.00000000000E+00 -0.00000000000E+00 -0.74505805969E-08  0.93827000000E+00  0.93827000000E+00 0.  1.
     999902    2    1    2    0    0  0.91499284576E-02 -0.66129885152E-02 -0.21201456241E-01  0.10199101217E+01  0.10196272367E+01 0.  0.
     999903    2    3    3    0    0  0.31907465784E-01 -0.10213570837E+00 -0.75767859586E-01  0.13276865162E+00  0.20903516701E-01 0.  0.
         14    1    1    2    0    0 -0.91499284576E-02  0.66129885152E-02  0.21201456241E-01  0.24019878322E-01  0.00000000000E+00 0. -1.
     999901    1    3    3    0    0 -0.22757537326E-01  0.95522719858E-01  0.54566403345E-01  0.88714147005E+00  0.88000000000E+00 0. -1.
        -11    1    4    4    0    0  0.18308433701E-01 -0.37579847654E-01 -0.39340942688E-01  0.57405701693E-01  0.51100000000E-03 0. -1.
         11    1    4    4    0    0  0.13599032083E-01 -0.64555860719E-01 -0.36426916898E-01  0.75362949932E-01  0.51100000000E-03 0.  1.
</event>
<event>
 8    1  0.1129602E+005  0.1043930E+01  0.7957747E-01            NaN
         13   -1    0    0    0    0  0.00000000000E+00  0.00000000000E+00  0.74505805969E-08  0.10566000000E+00  0.10566000000E+00 0. -1.
     999900   -1    0    0    0    0 -0.00000000000E+00 -0.00000000000E+00 -0.74505805969E-08  0.93827000000E+00  0.93827000000E+00 0.  1.
     999902    2    1    2    0    0 -0.14439606431E-01 -0.25437778486E-02  0.19279552112E-01  0.10197086423E+01  0.10194209342E+01 0.  0.
     999903    2    3    3    0    0 -0.14748196929E-01 -0.42478881157E-01 -0.11835797210E+00  0.12811512741E+00  0.19568128536E-01 0.  0.
         14    1    1    2    0    0  0.14439606431E-01  0.25437778486E-02 -0.19279552112E-01  0.24221357709E-01  0.00000000000E+00 0.  1.
     999901    1    3    3    0    0  0.30859049748E-03  0.39935103308E-01  0.13763752421E+00  0.89159351488E+00  0.88000000000E+00 0. -1.
        -11    1    4    4    0    0 -0.95100095598E-02 -0.42466829455E-01 -0.10918800800E+00  0.11754213754E+00  0.51100000000E-03 0. -1.
         11    1    4    4    0    0 -0.52381873688E-02 -0.12051702251E-04 -0.91699641054E-02  0.10572989873E-01  0.51100000000E-03 0.  1.
</event>
<event>
 8    1  0.1129602E+005  0.1043930E+01  0.7957747E-01            NaN
         13   -1    0    0    0    0  0.00000000000E+00  0.00000000000E+00  0.74505805969E-08  0.10566000000E+00  0.10566000000E+00 0.  1.
     999900   -1    0    0    0    0 -0.00000000000E+00 -0.00000000000E+00 -0.74505805969E-08  0.93827000000E+00  0.93827000000E+00 0. -1.
     999902    2    1    2    0    0 -0.41904329393E-02  0.80250136909E-02 -0.21375768478E-01  0.10207161237E+01  0.10204521161E+01 0.  0.
     999903    2    3    3    0    0  0.11574169767E+00  0.48648079564E-01 -0.33354599996E-01  0.13157190493E+00  0.20877274776E-01 0.  0.
         14    1    1    2    0    0  0.41904329393E-02 -0.80250136909E-02  0.21375768478E-01  0.23213876259E-01  0.00000000000E+00 0.  1.
     999901    1    3    3    0    0 -0.11993213061E+00 -0.40623065873E-01  0.11978831518E-01  0.88914421881E+00  0.88000000000E+00 0.  1.
        -11    1    4    4    0    0  0.19396282627E-01  0.36138755288E-02 -0.11995689972E-01  0.23096180961E-01  0.51100000000E-03 0.  1.
         11    1    4    4    0    0  0.96345415044E-01  0.45034204035E-01 -0.21358910025E-01  0.10847572397E+00  0.51100000000E-03 0. -1.
</event>
<event>
 8    1  0.1129602E+005  0.1043930E+01  0.7957747E-01            NaN
         13   -1    0    0    0    0  0.00000000000E+00  0.00000000000E+00  0.74505805969E-08  0.10566000000E+00  0.10566000000E+00 0. -1.
     999900   -1    0    0    0    0 -0.00000000000E+00 -0.00000000000E+00 -0.74505805969E-08  0.93827000000E+00  0.93827000000E+00 0. -1.
     999902    2    1    2    0    0 -0.15847445133E-01 -0.13101798188E-01 -0.92922016573E-02  0.10213657884E+01  0.10211165115E+01 0.  0.
     999903    2    3    3    0    0 -0.49525837924E-01 -0.85389645197E-01 -0.88357917061E-01  0.13422929704E+00  0.21591260922E-01 0.  0.
         14    1    1    2    0    0  0.15847445133E-01  0.13101798188E-01  0.92922016573E-02  0.22564211589E-01  0.00000000000E+00 0.  1.
     999901    1    3    3    0    0  0.33678392791E-01  0.72287847008E-01  0.79065715403E-01  0.88713649137E+00  0.88000000000E+00 0.  1.
        -11    1    4    4    0    0 -0.41380404627E-01 -0.69292480610E-01 -0.59812007248E-01  0.10045657315E+00  0.51100000000E-03 0.  1.
         11    1    4    4    0    0 -0.81454332972E-02 -0.16097164587E-01 -0.28545909813E-01  0.33772723896E-01  0.51100000000E-03 0. -1.
</event>
<event>
 8    1  0.1129602E+005  0.1043930E+01  0.7957747E-01            NaN
         13   -1    0    0    0    0  0.00000000000E+00  0.00000000000E+00  0.74505805969E-08  0.10566000000E+00  0.10566000000E+00 0. -1.
     999900   -1    0    0    0    0 -0.00000000000E+00 -0.00000000000E+00 -0.74505805969E-08  0.93827000000E+00  0.93827000000E+00 0.  1.
     999902    2    1    2    0    0  0.16160093152E-01 -0.17704547701E-01 -0.91729890016E-03  0.10199416475E+01  0.10196595134E+01 0.  0.
     999903    2    3    3    0    0 -0.75326532204E-01 -0.47947364310E-01 -0.92322728836E-01  0.12997570250E+00  0.19928893171E-01 0.  0.
         14    1    1    2    0    0 -0.16160093152E-01  0.17704547701E-01  0.91729890016E-03  0.23988352533E-01  0.00000000000E+00 0. -1.
     999901    1    3    3    0    0  0.91486625356E-01  0.30242816609E-01  0.91405429936E-01  0.88996594496E+00  0.88000000000E+00 0. -1.
        -11    1    4    4    0    0 -0.16856866412E-01 -0.65693251340E-02 -0.29952085508E-01  0.34995692953E-01  0.51100000000E-03 0.  1.
         11    1    4    4    0    0 -0.58469665792E-01 -0.41378039176E-01 -0.62370643328E-01  0.94980009550E-01  0.51100000000E-03 0. -1.
</event>
<event>
 8    1  0.1129602E+005  0.1043930E+01  0.7957747E-01            NaN
         13   -1    0    0    0    0  0.00000000000E+00  0.00000000000E+00  0.74505805969E-08  0.10566000000E+00  0.10566000000E+00 0. -1.
     999900   -1    0    0    0    0 -0.00000000000E+00 -0.00000000000E+00 -0.74505805969E-08  0.93827000000E+00  0.93827000000E+00 0.  1.
     999902    2    1    2    0    0 -0.51237499330E-02  0.16874427639E-01  0.15739418159E-01  0.10202925635E+01  0.10200187188E+01 0.  0.
     999903    2    3    3    0    0 -0.28931051648E-01  0.12804775467E+00  0.45324784504E-02  0.13290770235E+00  0.20265259844E-01 0.  0.
         14    1    1    2    0    0  0.51237499330E-02 -0.16874427639E-01 -0.15739418159E-01  0.23637436526E-01  0.00000000000E+00 0.  1.
     999901    1    3    3    0    0  0.23807301715E-01 -0.11117332703E+00  0.11206939708E-01  0.88738486113E+00  0.88000000000E+00 0. -1.
        -11    1    4    4    0    0 -0.21660457659E-02  0.41006950061E-01 -0.48886554712E-02  0.41357245808E-01  0.51100000000E-03 0. -1.
         11    1    4    4    0    0 -0.26765005882E-01  0.87040804612E-01  0.94211339216E-02  0.91550456540E-01  0.51100000000E-03 0.  1.
</event>
<event>
 8    1  0.1129602E+005  0.1043930E+01  0.7957747E-01            NaN
         13   -1    0    0    0    0  0.00000000000E+00  0.00000000000E+00  0.74505805969E-08  0.10566000000E+00  0.10566000000E+00 0. -1.
     999900   -1    0    0    0    0 -0.00000000000E+00 -0.00000000000E+00 -0.74505805969E-08  0.93827000000E+00  0.93827000000E+00 0.  1.
     999902    2    1    2    0    0 -0.53876691297E-02  0.17793926393E-01  0.14687222311E-01  0.10202368513E+01  0.10199616990E+01 0.  0.
     999903    2    3    3    0    0 -0.11552573842E-01 -0.11507065079E+00  0.54686547829E-01  0.12934350868E+00  0.19089475883E-01 0.  0.
         14    1    1    2    0    0  0.53876691297E-02 -0.17793926393E-01 -0.14687222311E-01  0.23693148679E-01  0.00000000000E+00 0.  1.
     999901    1    3    3    0    0  0.61649047122E-02  0.13286457718E+00 -0.39999325517E-01  0.89089334264E+00  0.88000000000E+00 0.  1.
        -11    1    4    4    0    0 -0.25427158533E-02 -0.73202758987E-01  0.25696683919E-01  0.77625318116E-01  0.51100000000E-03 0.  1.
         11    1    4    4    0    0 -0.90098579886E-02 -0.41867891800E-01  0.28989863910E-01  0.51718190564E-01  0.51100000000E-03 0. -1.
</event>
<event>
 8    1  0.1129602E+005  0.1043930E+01  0.7957747E-01            NaN
         13   -1    0    0    0    0  0.00000000000E+00  0.00000000000E+00  0.74505805969E-08  0.10566000000E+00  0.10566000000E+00 0. -1.
     999900   -1    0    0    0    0 -0.00000000000E+00 -0.00000000000E+00 -0.74505805969E-08  0.93827000000E+00  0.93827000000E+00 0.  1.
     999902    2    1    2    0    0  0.11043191107E-01  0.11570833651E-01 -0.17163837436E-01  0.10204686791E+01  0.10201989470E+01 0.  0.
     999903    2    3    3    0    0 -0.12514310876E+00 -0.12362159210E-01  0.20109348117E-01  0.12889210543E+00  0.19878840798E-01 0.  0.
         14    1    1    2    0    0 -0.11043191107E-01 -0.11570833651E-01  0.17163837436E-01  0.23461320865E-01  0.00000000000E+00 0. -1.
     999901    1    3    3    0    0  0.13618629986E+00  0.23932992861E-01 -0.37273185553E-01  0.89157657370E+00  0.88000000000E+00 0. -1.
        -11    1    4    4    0    0 -0.91875912008E-01 -0.10826449422E-02  0.10575367122E-01  0.92490295913E-01  0.51100000000E-03 0.  1.
         11    1    4    4    0    0 -0.33267196747E-01 -0.11279514268E-01  0.95339809954E-02  0.36401809517E-01  0.51100000000E-03 0. -1.
</event>
<event>
 8    1  0.1129602E+005  0.1043930E+01  0.7957747E-01            NaN
         13   -1    0    0    0    0  0.00000000000E+00  0.00000000000E+00  0.74505805969E-08  0.10566000000E+00  0.10566000000E+00 0. -1.
     999900   -1    0    0    0    0 -0.00000000000E+00 -0.00000000000E+00 -0.74505805969E-08  0.93827000000E+00  0.93827000000E+00 0. -1.
     999902    2    1    2    0    0  0.15000017886E-01 -0.79118124225E-02 -0.17852031389E-01  0.10193069958E+01  0.10190095482E+01 0.  0.
     999903    2    3    3    0    0 -0.11253644865E+00  0.54946541713E-01 -0.15901995734E-01  0.12789209483E+00  0.20492431082E-01 0.  0.
         14    1    1    2    0    0 -0.15000017886E-01  0.79118124225E-02  0.17852031389E-01  0.24623004226E-01  0.00000000000E+00 0.  1.
     999901    1    3    3    0    0  0.12753646653E+00 -0.62858354136E-01 -0.19500356547E-02  0.89141490094E+00  0.88000000000E+00 0.  1.
        -11    1    4    4    0    0 -0.59415149038E-01  0.26100869017E-01  0.17385409488E-02  0.64920712752E-01  0.51100000000E-03 0.  1.
         11    1    4    4    0    0 -0.53121299611E-01  0.28845672696E-01 -0.17640536683E-01  0.62971382081E-01  0.51100000000E-03 0. -1.
</event>
<event>
 8    1  0.1129602E+005  0.1043930E+01  0.7957747E-01            NaN
         13   -1    0    0    0    0  0.00000000000E+00  0.00000000000E+00  0.74505805969E-08  0.10566000000E+00  0.10566000000E+00 0. -1.
     999900   -1    0    0    0    0 -0.00000000000E+00 -0.00000000000E+00 -0.74505805969E-08  0.93827000000E+00  0.93827000000E+00 0. -1.
     999902    2    1    2    0    0  0.16381884458E-01 -0.13927546199E-01 -0.23573312466E-02  0.10222990108E+01  0.10220701384E+01 0.  0.
     999903    2    3    3    0    0 -0.87392974726E-01  0.39337098200E-01  0.86048765701E-01  0.13021046046E+00  0.19116344000E-01 0.  0.
         14    1    1    2    0    0 -0.16381884458E-01  0.13927546199E-01  0.23573312466E-02  0.21630989162E-01  0.00000000000E+00 0.  1.
     999901    1    3    3    0    0  0.10377485918E+00 -0.53264644399E-01 -0.88406096947E-01  0.89208855038E+00  0.88000000000E+00 0. -1.
        -11    1    4    4    0    0 -0.65672346613E-01  0.25780639307E-01  0.72795167494E-01  0.10137502653E+00  0.51100000000E-03 0. -1.
         11    1    4    4    0    0 -0.21720628113E-01  0.13556458893E-01  0.13253598206E-01  0.28835433927E-01  0.51100000000E-03 0.  1.
</event>
<event>
 8    1  0.1129602E+005  0.1043930E+01  0.7957747E-01            NaN
         13   -1    0    0    0    0  0.00000000000E+00  0.00000000000E+00  0.74505805969E-08  0.10566000000E+00  0.10566000000E+00 0.  1.
     999900   -1    0    0    0    0 -0.00000000000E+00 -0.00000000000E+00 -0.74505805969E-08  0.93827000000E+00  0.93827000000E+00 0. -1.
     999902    2    1    2    0    0 -0.10224033048E-01  0.40448988296E-02  0.20865526600E-01  0.10203447873E+01  0.10200721654E+01 0.  0.
     999903    2    3    3    0    0  0.91553793016E-01  0.28903296097E-01  0.87389870317E-01  0.13163664954E+00  0.21765121806E-01 0.  0.
         14    1    1    2    0    0  0.10224033048E-01 -0.40448988296E-02 -0.20865526600E-01  0.23585212711E-01  0.00000000000E+00 0. -1.
     999901    1    3    3    0    0 -0.10177782606E+00 -0.24858397267E-01 -0.66524343717E-01  0.88870813775E+00  0.88000000000E+00 0.  1.
        -11    1    4    4    0    0  0.18689913518E-01 -0.20299293548E-03  0.25926324135E-01  0.31965441928E-01  0.51100000000E-03 0. -1.
         11    1    4    4    0    0  0.72863879498E-01  0.29106289033E-01  0.61463546182E-01  0.99671207613E-01  0.51100000000E-03 0.  1.
</event>
<event>
 8    1  0.1129602E+005  0.1043930E+01  0.7957747E-01            NaN
         13   -1    0    0    0    0  0.00000000000E+00  0.00000000000E+00  0.74505805969E-08  0.10566000000E+00  0.10566000000E+00 0. -1.
     999900   -1    0    0    0    0 -0.00000000000E+00 -0.00000000000E+00 -0.74505805969E-08  0.93827000000E+00  0.93827000000E+00 0. -1.
     999902    2    1    2    0    0  0.12190385488E-01 -0.20856907218E-01  0.14346288911E-02  0.10197292926E+01  0.10194420808E+01 0.  0.
     999903    2    3    3    0    0 -0.88883677355E-01  0.76364166147E-01 -0.45353409135E-01  0.12739694211E+00  0.21006074537E-01 0.  0.
         14    1    1    2    0    0 -0.12190385488E-01  0.20856907218E-01 -0.14346288911E-02  0.24200707368E-01  0.00000000000E+00 0. -1.
     999901    1    3    3    0    0  0.10107406284E+00 -0.97221073365E-01  0.46788038026E-01  0.89233235052E+00  0.88000000000E+00 0.  1.
        -11    1    4    4    0    0 -0.78891531318E-01  0.57278243678E-01 -0.36573611721E-01  0.10412761933E+00  0.51100000000E-03 0.  1.
         11    1    4    4    0    0 -0.99921460372E-02  0.19085922469E-01 -0.87797974137E-02  0.23269322778E-01  0.51100000000E-03 0. -1.
</event>
<event>
 8    1  0.1129602E+005  0.1043930E+01  0.7957747E-01            NaN
         13   -1    0    0    0    0  0.00000000000E+00  0.00000000000E+00  0.74505805969E-08  0.10566000000E+00  0.10566000000E+00 0. -1.
     999900   -1    0    0    0    0 -0.00000000000E+00 -0.00000000000E+00 -0.74505805969E-08  0.93827000000E+00  0.93827000000E+00 0. -1.
     999902    2    1    2    0    0  0.37219893529E-02  0.18023745585E-01 -0.14743732416E-01  0.10203485188E+01  0.10200759842E+01 0.  0.
     999903    2    3    3    0    0  0.10514709531E+00  0.36657516437E-01  0.65223597143E-01  0.13072554061E+00  0.20865382377E-01 0.  0.
         14    1    1    2    0    0 -0.37219893529E-02 -0.18023745585E-01  0.14743732416E-01  0.23581481192E-01  0.00000000000E+00 0. -1.
     999901    1    3    3    0    0 -0.10142510595E+00 -0.18633770852E-01 -0.79967329558E-01  0.88962297819E+00  0.88000000000E+00 0. -1.
        -11    1    4    4    0    0  0.82317085406E-01  0.22353415811E-01  0.56851035848E-01  0.10250892228E+00  0.51100000000E-03 0.  1.
         11    1    4    4    0    0  0.22830009901E-01  0.14304100626E-01  0.83725612950E-02  0.28216618339E-01  0.51100000000E-03 0. -1.
</event>
<event>
 8    1  0.1129602E+005  0.1043930E+01  0.7957747E-01            NaN
         13   -1    0    0    0    0  0.00000000000E+00  0.00000000000E+00  0.74505805969E-08  0.10566000000E+00  0.10566000000E+00 0.  1.
     999900   -1    0    0    0    0 -0.00000000000E+00 -0.00000000000E+00 -0.74505805969E-08  0.93827000000E+00  0.93827000000E+00 0. -1.
     999902    2    1    2    0    0 -0.14344369603E-01 -0.17276612479E-01  0.88107882865E-02  0.10198079713E+01  0.10195226462E+01 0.  0.
     999903    2    3    3    0    0 -0.98840009419E-01  0.48732305209E-01 -0.66084032891E-01  0.13014178413E+00  0.20630064009E-01 0.  0.
         14    1    1    2    0    0  0.14344369603E-01  0.17276612479E-01 -0.88107882865E-02  0.24122028694E-01  0.00000000000E+00 0. -1.
     999901    1    3    3    0    0  0.84495639815E-01 -0.66008917688E-01  0.74894821177E-01  0.88966618717E+00  0.88000000000E+00 0. -1.
        -11    1    4    4    0    0 -0.33759786830E-01  0.25865500877E-01 -0.31822259418E-01  0.53119343538E-01  0.51100000000E-03 0.  1.
         11    1    4    4    0    0 -0.65080222589E-01  0.22866804332E-01 -0.34261773472E-01  0.77022440594E-01  0.51100000000E-03 0. -1.
</event>
<event>
 8    1  0.1129602E+005  0.1043930E+01  0.7957747E-01            NaN
         13   -1    0    0    0    0  0.00000000000E+00  0.00000000000E+00  0.74505805969E-08  0.10566000000E+00  0.10566000000E+00 0.  1.
     999900   -1    0    0    0    0 -0.00000000000E+00 -0.00000000000E+00 -0.74505805969E-08  0.93827000000E+00  0.93827000000E+00 0. -1.
     999902    2    1    2    0    0 -0.10514168523E-01 -0.20839325059E-01  0.16763655052E-02  0.10205283887E+01  0.10202600437E+01 0.  0.
     999903    2    3    3    0    0 -0.28911233532E-01 -0.20391231264E-01 -0.12493108779E+00  0.13127696196E+00  0.19344309440E-01 0.  0.
         14    1    1    2    0    0  0.10514168523E-01  0.20839325059E-01 -0.16763655052E-02  0.23401611269E-01  0.00000000000E+00 0.  1.
     999901    1    3    3    0    0  0.18397065009E-01 -0.44809379538E-03  0.12660745330E+00  0.88925142677E+00  0.88000000000E+00 0.  1.
        -11    1    4    4    0    0 -0.17713411967E-01 -0.36935835613E-02 -0.80439640005E-01  0.82451223933E-01  0.51100000000E-03 0.  1.
         11    1    4    4    0    0 -0.11197821564E-01 -0.16697647703E-01 -0.44491447786E-01  0.48825738025E-01  0.51100000000E-03 0. -1.
</event>
<event>
 8    1  0.1129602E+005  0.1043930E+01  0.7957747E-01            NaN
         13   -1    0    0    0    0  0.00000000000E+00  0.00000000000E+00  0.74505805969E-08  0.10566000000E+00  0.10566000000E+00 0.  1.
     999900   -1    0    0    0    0 -0.00000000000E+00 -0.00000000000E+00 -0.74505805969E-08  0.93827000000E+00  0.93827000000E+00 0.  1.
     999902    2    1    2    0    0 -0.57574570733E-02 -0.12641010788E-01  0.19644754733E-01  0.10198704935E+01  0.10195866631E+01 0.  0.
     999903    2    3    3    0    0  0.74482872399E-01 -0.10420760379E+00  0.22568071159E-01  0.13148347353E+00  0.19278563421E-01 0.  0.
         14    1    1    2    0    0  0.57574570733E-02  0.12641010788E-01 -0.19644754733E-01  0.24059506525E-01  0.00000000000E+00 0. -1.
     999901    1    3    3    0    0 -0.80240329472E-01  0.91566593001E-01 -0.29233164258E-02  0.88838701994E+00  0.88000000000E+00 0.  1.
        -11    1    4    4    0    0  0.21262932867E-01 -0.40913154163E-01  0.14771829315E-01  0.48419691861E-01  0.51100000000E-03 0. -1.
         11    1    4    4    0    0  0.53219939532E-01 -0.63294449626E-01  0.77962418440E-02  0.83063781669E-01  0.51100000000E-03 0.  1.
</event>
<event>
 8    1  0.1129602E+005  0.1043930E+01  0.7957747E-01            NaN
         13   -1    0    0    0    0  0.00000000000E+00  0.00000000000E+00  0.74505805969E-08  0.10566000000E+00  0.10566000000E+00 0.  1.
     999900   -1    0    0    0    0 -0.00000000000E+00 -0.00000000000E+00 -0.74505805969E-08  0.93827000000E+00  0.93827000000E+00 0. -1.
     999902    2    1    2    0    0 -0.10705282025E-01  0.75817457876E-02  0.18121483227E-01  0.10215587218E+01  0.10213137364E+01 0.  0.
     999903    2    3    3    0    0 -0.63183568646E-01 -0.59729797672E-01  0.99355630009E-01  0.13370524234E+00  0.21112520874E-01 0.  0.
         14    1    1    2    0    0  0.10705282025E-01 -0.75817457876E-02 -0.18121483227E-01  0.22371278165E-01  0.00000000000E+00 0. -1.
     999901    1    3    3    0    0  0.52478286621E-01  0.67311543459E-01 -0.81234146782E-01  0.88785347950E+00  0.88000000000E+00 0. -1.
        -11    1    4    4    0    0 -0.33485677479E-01 -0.45568091334E-01  0.64069222228E-01  0.85456818932E-01  0.51100000000E-03 0.  1.
         11    1    4    4    0    0 -0.29697891167E-01 -0.14161706337E-01  0.35286407781E-01  0.48248423407E-01  0.51100000000E-03 0. -1.
</event>
<event>
 8    1  0.1129602E+005  0.1043930E+01  0.7957747E-01            NaN
         13   -1    0    0    0    0  0.00000000000E+00  0.00000000000E+00  0.74505805969E-08  0.10566000000E+00  0.10566000000E+00 0.  1.
     999900   -1    0    0    0    0 -0.00000000000E+00 -0.00000000000E+00 -0.74505805969E-08  0.93827000000E+00  0.93827000000E+00 0. -1.
     999902    2    1    2    0    0  0.23335109614E-02  0.96098088551E-02  0.21345332437E-01  0.10204051851E+01  0.10201339740E+01 0.  0.
     999903    2    3    3    0    0  0.26772918919E-01 -0.12485482179E+00  0.12135540574E-01  0.12980828311E+00  0.19934976996E-01 0.  0.
         14    1    1    2    0    0 -0.23335109614E-02 -0.96098088551E-02 -0.21345332437E-01  0.23524814909E-01  0.00000000000E+00 0. -1.
     999901    1    3    3    0    0 -0.24439407958E-01  0.13446463064E+00  0.92097918625E-02  0.89059690198E+00  0.88000000000E+00 0.  1.
        -11    1    4    4    0    0  0.17572430897E-01 -0.37773246778E-01  0.32269971927E-02  0.41788552639E-01  0.51100000000E-03 0.  1.
         11    1    4    4    0    0  0.92004880227E-02 -0.87081575009E-01  0.89085433818E-02  0.88019730470E-01  0.51100000000E-03 0. -1.
</event>
<event>
 8    1  0.1129602E+005  0.1043930E+01  0.7957747E-01            NaN
         13   -1    0    0    0    0  0.00000000000E+00  0.00000000000E+00  0.74505805969E-08  0.10566000000E+00  0.10566000000E+00 0. -1.
     999900   -1    0    0    0    0 -0.00000000000E+00 -0.00000000000E+00 -0.74505805969E-08  0.93827000000E+00  0.93827000000E+00 0.  1.
     999902    2    1    2    0    0 -0.83458417971E-02  0.12237658813E-01 -0.16542570844E-01  0.10217248200E+01  0.10214834985E+01 0.  0.
     999903    2    3    3    0    0  0.19852118370E-04 -0.11241184295E+00  0.61858543922E-01  0.12945007649E+00  0.17158671753E-01 0.  0.
         14    1    1    2    0    0  0.83458417971E-02 -0.12237658813E-01  0.16542570844E-01  0.22205179996E-01  0.00000000000E+00 0. -1.
     999901    1    3    3    0    0 -0.83656939155E-02  0.12464950176E+00 -0.78401114766E-01  0.89227474352E+00  0.88000000000E+00 0.  1.
        -11    1    4    4    0    0  0.76357734251E-02 -0.35971382012E-01  0.17303700660E-01  0.40643874535E-01  0.51100000000E-03 0.  1.
         11    1    4    4    0    0 -0.76159213067E-02 -0.76440460938E-01  0.44554843262E-01  0.88806201951E-01  0.51100000000E-03 0. -1.
</event>
<event>
 8    1  0.1129602E+005  0.1043930E+01  0.7957747E-01            NaN
         13   -1    0    0    0    0  0.00000000000E+00  0.00000000000E+00  0.74505805969E-08  0.10566000000E+00  0.10566000000E+00 0.  1.
     999900   -1    0    0    0    0 -0.00000000000E+00 -0.00000000000E+00 -0.74505805969E-08  0.93827000000E+00  0.93827000000E+00 0. -1.
     999902    2    1    2    0    0 -0.63701072707E-02 -0.58729434892E-02 -0.22509067210E-01  0.10198109652E+01  0.10195257118E+01 0.  0.
     999903    2    3    3    0    0  0.72891006492E-01 -0.10599676580E+00 -0.78460693855E-02  0.13047294880E+00  0.20327724318E-01 0.  0.
         14    1    1    2    0    0  0.63701072707E-02  0.58729434892E-02  0.22509067210E-01  0.24119034776E-01  0.00000000000E+00 0.  1.
     999901    1    3    3    0    0 -0.79261113763E-01  0.10012382231E+00 -0.14662997825E-01  0.88933801642E+00  0.88000000000E+00 0. -1.
        -11    1    4    4    0    0  0.19243994717E-01 -0.39261856251E-01  0.45127385687E-02  0.43959647625E-01  0.51100000000E-03 0. -1.
         11    1    4    4    0    0  0.53647011775E-01 -0.66734909552E-01 -0.12358807954E-01  0.86513301176E-01  0.51100000000E-03 0.  1.
</event>
<event>
 8    1  0.1129602E+005  0.1043930E+01  0.7957747E-01            NaN
         13   -1    0    0    0    0  0.00000000000E+00  0.00000000000E+00  0.74505805969E-08  0.10566000000E+00  0.10566000000E+00 0. -1.
     999900   -1    0    0    0    0 -0.00000000000E+00 -0.00000000000E+00 -0.74505805969E-08  0.93827000000E+00  0.93827000000E+00 0. -1.
     999902    2    1    2    0    0  0.95204614348E-02  0.15894589980E-01 -0.14481466515E-01  0.10204142595E+01  0.10201432601E+01 0.  0.
     999903    2    3    3    0    0 -0.62323514484E-01  0.94951400086E-01  0.62444284745E-01  0.13062265063E+00  0.16217253883E-01 0.  0.
         14    1    1    2    0    0 -0.95204614348E-02 -0.15894589980E-01  0.14481466515E-01  0.23515740452E-01  0.00000000000E+00 0. -1.
     999901    1    3    3    0    0  0.71843975919E-01 -0.79056810106E-01 -0.76925751261E-01  0.88979160892E+00  0.88000000000E+00 0. -1.
        -11    1    4    4    0    0 -0.29595639954E-01  0.48941635181E-01  0.22525947557E-01  0.61472473456E-01  0.51100000000E-03 0. -1.
         11    1    4    4    0    0 -0.32727874531E-01  0.46009764904E-01  0.39918337188E-01  0.69150177170E-01  0.51100000000E-03 0.  1.
</event>
<event>
 8    1  0.1129602E+005  0.1043930E+01  0.7957747E-01            NaN
         13   -1    0    0    0    0  0.00000000000E+00  0.00000000000E+00  0.74505805969E-08  0.10566000000E+00  0.10566000000E+00 0. -1.
     999900   -1    0    0    0    0 -0.00000000000E+00 -0.00000000000E+00 -0.74505805969E-08  0.93827000000E+00  0.93827000000E+00 0.  1.
     999902    2    1    2    0    0  0.75531616758E-03 -0.15486137912E-01  0.17684038567E-01  0.10204115776E+01  0.10201405156E+01 0.  0.
     999903    2    3    3    0    0  0.88864292696E-01  0.41356435405E-01  0.85443615854E-01  0.13160021960E+00  0.20267931365E-01 0.  0.
         14    1    1    2    0    0 -0.75531616758E-03  0.15486137912E-01 -0.17684038567E-01  0.23518422353E-01  0.00000000000E+00 0.  1.
     999901    1    3    3    0    0 -0.88108976529E-01 -0.56842573317E-01 -0.67759577287E-01  0.88881135805E+00  0.88000000000E+00 0.  1.
        -11    1    4    4    0    0  0.17187848653E-01  0.16316915267E-01  0.25904556992E-01  0.35113687632E-01  0.51100000000E-03 0. -1.
         11    1    4    4    0    0  0.71676444043E-01  0.25039520138E-01  0.59539058862E-01  0.96486531965E-01  0.51100000000E-03 0.  1.
</event>
<event>
 8    1  0.1129602E+005  0.1043930E+01  0.7957747E-01            NaN
         13   -1    0    0    0    0  0.00000000000E+00  0.00000000000E+00  0.74505805969E-08  0.10566000000E+00  0.10566000000E+00 0.  1.
     999900   -1    0    0    0    0 -0.00000000000E+00 -0.00000000000E+00 -0.74505805969E-08  0.93827000000E+00  0.93827000000E+00 0. -1.
     999902    2    1    2    0    0  0.17902205058E-01  0.16478185152E-01  0.20397334812E-01  0.10121798693E+01  0.10116817766E+01 0.  0.
     999903    2    3    3    0    0 -0.81889383500E-01 -0.19447872263E-01  0.87726181659E-01  0.12325792877E+00  0.20311159247E-01 0.  0.
         14    1    1    2    0    0 -0.17902205058E-01 -0.16478185152E-01 -0.20397334812E-01  0.31750130697E-01  0.00000000000E+00 0. -1.
     999901    1    3    3    0    0  0.99791588558E-01  0.35926057415E-01 -0.67328846847E-01  0.88892194054E+00  0.88000000000E+00 0. -1.
        -11    1    4    4    0    0 -0.45158298700E-01 -0.53525543421E-02  0.34574934624E-01  0.57128005433E-01  0.51100000000E-03 0.  1.
         11    1    4    4    0    0 -0.36731084800E-01 -0.14095317921E-01  0.53151247035E-01  0.66129923334E-01  0.51100000000E-03 0. -1.
</event>
<event>
 8    1  0.1129602E+005  0.1043930E+01  0.7957747E-01            NaN
         13   -1    0    0    0    0  0.00000000000E+00  0.00000000000E+00  0.74505805969E-08  0.10566000000E+00  0.10566000000E+00 0. -1.
     999900   -1    0    0    0    0 -0.00000000000E+00 -0.00000000000E+00 -0.74505805969E-08  0.93827000000E+00  0.93827000000E+00 0.  1.
     999902    2    1    2    0    0 -0.13929340950E-01 -0.17557212904E-01  0.65132451686E-02  0.10205910920E+01  0.10203241997E+01 0.  0.
     999903    2    3    3    0    0 -0.11638006256E+00  0.33460927514E-01 -0.47379783808E-01  0.13154471549E+00  0.19880030870E-01 0.  0.
         14    1    1    2    0    0  0.13929340950E-01  0.17557212904E-01 -0.65132451686E-02  0.23338908006E-01  0.00000000000E+00 0.  1.
     999901    1    3    3    0    0  0.10245072161E+00 -0.51018140418E-01  0.53893028977E-01  0.88904637651E+00  0.88000000000E+00 0.  1.
        -11    1    4    4    0    0 -0.88507595369E-01  0.33154431533E-01 -0.32521366881E-01  0.99953545176E-01  0.51100000000E-03 0. -1.
         11    1    4    4    0    0 -0.27872467189E-01  0.30649598046E-03 -0.14858416927E-01  0.31591170311E-01  0.51100000000E-03 0.  1.
</event>
<event>
 8    1  0.1129602E+005  0.1043930E+01  0.7957747E-01            NaN
         13   -1    0    0    0    0  0.00000000000E+00  0.00000000000E+00  0.74505805969E-08  0.10566000000E+00  0.10566000000E+00 0.  1.
     999900   -1    0    0    0    0 -0.00000000000E+00 -0.00000000000E+00 -0.74505805969E-08  0.93827000000E+00  0.93827000000E+00 0.  1.
     999902    2    1    2    0    0 -0.16803089753E-01 -0.79886242692E-02 -0.13888536643E-01  0.10207124766E+01  0.10204483850E+01 0.  0.
     999903    2    3    3    0    0 -0.10972956447E+00 -0.16845961465E-01  0.68458106690E-01  0.13195224358E+00  0.20012957754E-01 0.  0.
         14    1    1    2    0    0  0.16803089753E-01  0.79886242692E-02  0.13888536643E-01  0.23217523405E-01  0.00000000000E+00 0. -1.
     999901    1    3    3    0    0  0.92926474712E-01  0.88573371960E-02 -0.82346643333E-01  0.88876023302E+00  0.88000000000E+00 0.  1.
        -11    1    4    4    0    0 -0.19800754532E-01 -0.94689841680E-02  0.19114186083E-01  0.29109187069E-01  0.51100000000E-03 0. -1.
         11    1    4    4    0    0 -0.89928809934E-01 -0.73769772973E-02  0.49343920607E-01  0.10284305651E+00  0.51100000000E-03 0.  1.
</event>
<event>
 8    1  0.1129602E+005  0.1043930E+01  0.7957747E-01            NaN
         13   -1    0    0    0    0  0.00000000000E+00  0.00000000000E+00  0.74505805969E-08  0.10566000000E+00  0.10566000000E+00 0. -1.
     999900   -1    0    0    0    0 -0.00000000000E+00 -0.00000000000E+00 -0.74505805969E-08  0.93827000000E+00  0.93827000000E+00 0. -1.
     999902    2    1    2    0    0  0.51269275058E-02 -0.14826013659E-02 -0.23775339509E-01  0.10195630088E+01  0.10192717884E+01 0.  0.
     999903    2    3    3    0    0  0.88213925575E-01  0.80901548569E-01 -0.47702983759E-01  0.13149593385E+00  0.26245927949E-01 0.  0.
         14    1    1    2    0    0 -0.51269275058E-02  0.14826013659E-02  0.23775339509E-01  0.24366991222E-01  0.00000000000E+00 0. -1.
     999901    1    3    3    0    0 -0.83086998069E-01 -0.82384149935E-01  0.23927644251E-01  0.88806707493E+00  0.88000000000E+00 0. -1.
        -11    1    4    4    0    0  0.15527762866E-01  0.27864051648E-01 -0.18584857021E-01  0.36921197507E-01  0.51100000000E-03 0. -1.
         11    1    4    4    0    0  0.72686162709E-01  0.53037496921E-01 -0.29118126739E-01  0.94574736345E-01  0.51100000000E-03 0.  1.
</event>
<event>
 8    1  0.1129602E+005  0.1043930E+01  0.7957747E-01            NaN
         13   -1    0    0    0    0  0.00000000000E+00  0.00000000000E+00  0.74505805969E-08  0.10566000000E+00  0.10566000000E+00 0. -1.
     999900   -1    0    0    0    0 -0.00000000000E+00 -0.00000000000E+00 -0.74505805969E-08  0.93827000000E+00  0.93827000000E+00 0. -1.
     999902    2    1    2    0    0  0.38921839033E-02  0.20917221643E-01  0.11148793282E-01  0.10199096992E+01  0.10196268042E+01 0.  0.
     999903    2    3    3    0    0 -0.29059462756E-01 -0.10533332508E+00 -0.62221886804E-01  0.12726852371E+00  0.19650755261E-01 0.  0.
         14    1    1    2    0    0 -0.38921839033E-02 -0.20917221643E-01 -0.11148793282E-01  0.24020300757E-01  0.00000000000E+00 0.  1.
     999901    1    3    3    0    0  0.32951646660E-01  0.12625054672E+00  0.73370680086E-01  0.89264117554E+00  0.88000000000E+00 0. -1.
        -11    1    4    4    0    0 -0.25011855363E-01 -0.63489255008E-01 -0.45523674079E-01  0.82031362495E-01  0.51100000000E-03 0. -1.
         11    1    4    4    0    0 -0.40476073930E-02 -0.41844070067E-01 -0.16698212726E-01  0.45237161213E-01  0.51100000000E-03 0.  1.
</event>
<event>
 8    1  0.1129602E+005  0.1043930E+01  0.7957747E-01            NaN
         13   -1    0    0    0    0  0.00000000000E+00  0.00000000000E+00  0.74505805969E-08  0.10566000000E+00  0.10566000000E+00 0. -1.
     999900   -1    0    0    0    0 -0.00000000000E+00 -0.00000000000E+00 -0.74505805969E-08  0.93827000000E+00  0.93827000000E+00 0.  1.
     999902    2    1    2    0    0 -0.70515598560E-03  0.85728879541E-02  0.22202855248E-01  0.10201191110E+01  0.10198411848E+01 0.  0.
     999903    2    3    3    0    0  0.12668910655E-01 -0.86559191068E-01  0.96714450160E-01  0.13176053708E+00  0.18819123414E-01 0.  0.
         14    1    1    2    0    0  0.70515598560E-03 -0.85728879541E-02 -0.22202855248E-01  0.23810888980E-01  0.00000000000E+00 0.  1.
     999901    1    3    3    0    0 -0.13374066641E-01  0.95132079022E-01 -0.74511594912E-01  0.88835857394E+00  0.88000000000E+00 0.  1.
        -11    1    4    4    0    0  0.36538061876E-02 -0.73573867575E-01  0.79726864837E-01  0.10854998106E+00  0.51100000000E-03 0.  1.
         11    1    4    4    0    0  0.90151044673E-02 -0.12985323493E-01  0.16987585323E-01  0.23210556023E-01  0.51100000000E-03 0. -1.
</event>
<event>
 8    1  0.1129602E+005  0.1043930E+01  0.7957747E-01            NaN
         13   -1    0    0    0    0  0.00000000000E+00  0.00000000000E+00  0.74505805969E-08  0.10566000000E+00  0.10566000000E+00 0. -1.
     999900   -1    0    0    0    0 -0.00000000000E+00 -0.00000000000E+00 -0.74505805969E-08  0.93827000000E+00  0.93827000000E+00 0. -1.
     999902    2    1    2    0    0 -0.14825353069E-01  0.21372871037E-02  0.15340959931E-01  0.10224892878E+01  0.10222644665E+01 0.  0.
     999903    2    3    3    0    0 -0.88515744748E-01  0.20871823736E-01 -0.94502131184E-01  0.13240684138E+00  0.18172747493E-01 0.  0.
         14    1    1    2    0    0  0.14825353069E-01 -0.21372871037E-02 -0.15340959931E-01  0.21440712240E-01  0.00000000000E+00 0.  1.
     999901    1    3    3    0    0  0.73690391679E-01 -0.18734536633E-01  0.10984309111E+00  0.89008244638E+00  0.88000000000E+00 0.  1.
        -11    1    4    4    0    0 -0.44768808267E-01  0.55561968778E-02 -0.35699658283E-01  0.57531245770E-01  0.51100000000E-03 0.  1.
         11    1    4    4    0    0 -0.43746936481E-01  0.15315626858E-01 -0.58802472901E-01  0.74875595609E-01  0.51100000000E-03 0. -1.
</event>
<event>
 8    1  0.1129602E+005  0.1043930E+01  0.7957747E-01            NaN
         13   -1    0    0    0    0  0.00000000000E+00  0.00000000000E+00  0.74505805969E-08  0.10566000000E+00  0.10566000000E+00 0. -1.
     999900   -1    0    0    0    0 -0.00000000000E+00 -0.00000000000E+00 -0.74505805969E-08  0.93827000000E+00  0.93827000000E+00 0. -1.
     999902    2    1    2    0    0 -0.11833766444E-01 -0.11386373951E-01 -0.16711599941E-01  0.10204999955E+01  0.10202309913E+01 0.  0.
     999903    2    3    3    0    0 -0.99604615475E-01 -0.23080668466E-01  0.76840676118E-01  0.13112240028E+00  0.28892865340E-01 0.  0.
         14    1    1    2    0    0  0.11833766444E-01  0.11386373951E-01  0.16711599941E-01  0.23430004537E-01  0.00000000000E+00 0. -1.
     999901    1    3    3    0    0  0.87770849030E-01  0.11694294515E-01 -0.93552276058E-01  0.88937759519E+00  0.88000000000E+00 0.  1.
        -11    1    4    4    0    0 -0.13186902288E-01  0.66005478049E-02  0.86039893076E-02  0.17080731140E-01  0.51100000000E-03 0. -1.
         11    1    4    4    0    0 -0.86417713187E-01 -0.29681216271E-01  0.68236686810E-01  0.11404166914E+00  0.51100000000E-03 0.  1.
</event>
<event>
 8    1  0.1129602E+005  0.1043930E+01  0.7957747E-01            NaN
         13   -1    0    0    0    0  0.00000000000E+00  0.00000000000E+00  0.74505805969E-08  0.10566000000E+00  0.10566000000E+00 0.  1.
     999900   -1    0    0    0    0 -0.00000000000E+00 -0.00000000000E+00 -0.74505805969E-08  0.93827000000E+00  0.93827000000E+00 0.  1.
     999902    2    1    2    0    0 -0.45986008419E-02 -0.17992328172E-01  0.14165806299E-01  0.10205731794E+01  0.10203058724E+01 0.  0.
     999903    2    3    3    0    0  0.12289080281E-01 -0.86692197628E-01  0.98965965545E-01  0.13367074230E+00  0.20175390632E-01 0.  0.
         14    1    1    2    0    0  0.45986008419E-02  0.17992328172E-01 -0.14165806299E-01  0.23356820649E-01  0.00000000000E+00 0.  1.
     999901    1    3    3    0    0 -0.16887681123E-01  0.68699869457E-01 -0.84800159246E-01  0.88690243705E+00  0.88000000000E+00 0.  1.
        -11    1    4    4    0    0  0.95821373688E-03 -0.52735640232E-01  0.69828164386E-01  0.87511139787E-01  0.51100000000E-03 0.  1.
         11    1    4    4    0    0  0.11330866544E-01 -0.33956557396E-01  0.29137801159E-01  0.46159602514E-01  0.51100000000E-03 0. -1.
</event>
<event>
 8    1  0.1129602E+005  0.1043930E+01  0.7957747E-01            NaN
         13   -1    0    0    0    0  0.00000000000E+00  0.00000000000E+00  0.74505805969E-08  0.10566000000E+00  0.10566000000E+00 0.  1.
     999900   -1    0    0    0    0 -0.00000000000E+00 -0.00000000000E+00 -0.74505805969E-08  0.93827000000E+00  0.93827000000E+00 0.  1.
     999902    2    1    2    0    0 -0.12377351266E-01  0.88001768576E-02 -0.18702522221E-01  0.10198379624E+01  0.10195533548E+01 0.  0.
     999903    2    3    3    0    0  0.63418323960E-01  0.34434348592E-01 -0.10826233244E+00  0.13168085090E+00  0.20285603093E-01 0.  0.
         14    1    1    2    0    0  0.12377351266E-01 -0.88001768576E-02  0.18702522221E-01  0.24092037575E-01  0.00000000000E+00 0.  1.
     999901    1    3    3    0    0 -0.75795675226E-01 -0.25634171735E-01  0.89559810216E-01  0.88815711152E+00  0.88000000000E+00 0. -1.
        -11    1    4    4    0    0  0.84137103921E-02  0.13593381014E-01 -0.19923727096E-01  0.25549687911E-01  0.51100000000E-03 0.  1.
         11    1    4    4    0    0  0.55004613567E-01  0.20840967578E-01 -0.88338605340E-01  0.10613116299E+00  0.51100000000E-03 0. -1.
</event>
<event>
 8    1  0.1129602E+005  0.1043930E+01  0.7957747E-01            NaN
         13   -1    0    0    0    0  0.00000000000E+00  0.00000000000E+00  0.74505805969E-08  0.10566000000E+00  0.10566000000E+00 0. -1.
     999900   -1    0    0    0    0 -0.00000000000E+00 -0.00000000000E+00 -0.74505805969E-08  0.93827000000E+00  0.93827000000E+00 0.  1.
     999902    2    1    2    0    0 -0.22053271639E-01  0.65101674899E-02 -0.31626816956E-02  0.10207194070E+01  0.10204554749E+01 0.  0.
     999903    2    3    3    0    0  0.59906295674E-01 -0.31645630707E-01 -0.10875105589E+00  0.12980855830E+00  0.20814885235E-01 0.  0.
         14    1    1    2    0    0  0.22053271639E-01 -0.65101674899E-02  0.31626816956E-02  0.23210592975E-01  0.00000000000E+00 0.  1.
     999901    1    3    3    0    0 -0.81959567313E-01  0.38155798197E-01  0.10558837419E+00  0.89091084872E+00  0.88000000000E+00 0. -1.
        -11    1    4    4    0    0  0.35762094599E-01 -0.10131853764E-01 -0.45383130333E-01  0.58664056377E-01  0.51100000000E-03 0.  1.
         11    1    4    4    0    0  0.24144201075E-01 -0.21513776944E-01 -0.63367925555E-01  0.71144501924E-01  0.51100000000E-03 0. -1.
</event>
<event>
 8    1  0.1129602E+005  0.1043930E+01  0.7957747E-01            NaN
         13   -1    0    0    0    0  0.00000000000E+00  0.00000000000E+00  0.74505805969E-08  0.10566000000E+00  0.10566000000E+00 0. -1.
     999900   -1    0    0    0    0 -0.00000000000E+00 -0.00000000000E+00 -0.74505805969E-08  0.93827000000E+00  0.93827000000E+00 0.  1.
     999902    2    1    2    0    0  0.11009507003E-01  0.20381828843E-01  0.23060785702E-02  0.10206502622E+01  0.10203847371E+01 0.  0.
     999903    2    3    3    0    0 -0.52566026212E-01 -0.10812874159E+00 -0.39195305198E-01  0.12808139656E+00  0.20336182675E-01 0.  0.
         14    1    1    2    0    0 -0.11009507003E-01 -0.20381828843E-01 -0.23060785702E-02  0.23279737753E-01  0.00000000000E+00 0.  1.
     999901    1    3    3    0    0  0.63575533215E-01  0.12851057043E+00  0.41501383768E-01  0.89256886569E+00  0.88000000000E+00 0. -1.
        -11    1    4    4    0    0 -0.18457595559E-01 -0.48870629144E-01 -0.26344253980E-01  0.58508991322E-01  0.51100000000E-03 0. -1.
         11    1    4    4    0    0 -0.34108430653E-01 -0.59258112447E-01 -0.12851051218E-01  0.69572405240E-01  0.51100000000E-03 0.  1.
</event>
<event>
 8    1  0.1129602E+005  0.1043930E+01  0.7957747E-01            NaN
         13   -1    0    0    0    0  0.00000000000E+00  0.00000000000E+00  0.74505805969E-08  0.10566000000E+00  0.10566000000E+00 0.  1.
     999900   -1    0    0    0    0 -0.00000000000E+00 -0.00000000000E+00 -0.74505805969E-08  0.93827000000E+00  0.93827000000E+00 0.  1.
     999902    2    1    2    0    0 -0.20182877559E-01 -0.11771517456E-01  0.30417808480E-02  0.10203679627E+01  0.10200958826E+01 0.  0.
     999903    2    3    3    0    0  0.39218521791E-01 -0.36909339135E-01  0.11740311426E+00  0.13062701677E+00  0.19481645357E-01 0.  0.
         14    1    1    2    0    0  0.20182877559E-01  0.11771517456E-01 -0.30417808480E-02  0.23562037274E-01  0.00000000000E+00 0.  1.
     999901    1    3    3    0    0 -0.59401399350E-01  0.25137821678E-01 -0.11436133341E+00  0.88974094595E+00  0.88000000000E+00 0. -1.
        -11    1    4    4    0    0  0.22383949238E-01 -0.84911262173E-02  0.55921673707E-01  0.60832845726E-01  0.51100000000E-03 0.  1.
         11    1    4    4    0    0  0.16834572554E-01 -0.28418212918E-01  0.61481440556E-01  0.69794171048E-01  0.51100000000E-03 0. -1.
</event>
<event>
 8    1  0.1129602E+005  0.1043930E+01  0.7957747E-01            NaN
         13   -1    0    0    0    0  0.00000000000E+00  0.00000000000E+00  0.74505805969E-08  0.10566000000E+00  0.10566000000E+00 0.  1.
     999900   -1    0    0    0    0 -0.00000000000E+00 -0.00000000000E+00 -0.74505805969E-08  0.93827000000E+00  0.93827000000E+00 0.  1.
     999902    2    1    2    0    0  0.72225005420E-02  0.20964299337E-01  0.43738763170E-02  0.10213291780E+01  0.10210790825E+01 0.  0.
     999903    2    3    3    0    0 -0.89805654450E-01  0.89387212233E-01 -0.33588124645E-01  0.13254502458E+00  0.19618668171E-01 0.  0.
         14    1    1    2    0    0 -0.72225005420E-02 -0.20964299337E-01 -0.43738763170E-02  0.22600821994E-01  0.00000000000E+00 0.  1.
     999901    1    3    3    0    0  0.97028154992E-01 -0.68422912896E-01  0.37962000962E-01  0.88878415343E+00  0.88000000000E+00 0. -1.
        -11    1    4    4    0    0 -0.44886425194E-01  0.31036261703E-01 -0.14872657146E-01  0.56564103093E-01  0.51100000000E-03 0.  1.
         11    1    4    4    0    0 -0.44919229257E-01  0.58350950530E-01 -0.18715467500E-01  0.75980921483E-01  0.51100000000E-03 0. -1.
</event>
<event>
 8    1  0.1129602E+005  0.1043930E+01  0.7957747E-01            NaN
         13   -1    0    0    0    0  0.00000000000E+00  0.00000000000E+00  0.74505805969E-08  0.10566000000E+00  0.10566000000E+00 0.  1.
     999900   -1    0    0    0    0 -0.00000000000E+00 -0.00000000000E+00 -0.74505805969E-08  0.93827000000E+00  0.93827000000E+00 0. -1.
     999902    2    1    2    0    0 -0.17936992577E-01  0.87857355412E-02 -0.14379950555E-01  0.10193188678E+01  0.10190217104E+01 0.  0.
     999903    2    3    3    0    0 -0.81777751031E-02 -0.10824366719E+00  0.64381388641E-01  0.12803077070E+00  0.21525509261E-01 0.  0.
         14    1    1    2    0    0  0.17936992577E-01 -0.87857355412E-02  0.14379950555E-01  0.24611132231E-01  0.00000000000E+00 0.  1.
     999901    1    3    3    0    0 -0.97592174740E-02  0.11702940273E+00 -0.78761339195E-01  0.89128809707E+00  0.88000000000E+00 0. -1.
        -11    1    4    4    0    0  0.41457214014E-02 -0.63892373244E-01  0.43979016742E-01  0.77677779315E-01  0.51100000000E-03 0.  1.
         11    1    4    4    0    0 -0.12323496504E-01 -0.44351293949E-01  0.20402371898E-01  0.50352991382E-01  0.51100000000E-03 0. -1.
</event>
<event>
 8    1  0.1129602E+005  0.1043930E+01  0.7957747E-01            NaN
         13   -1    0    0    0    0  0.00000000000E+00  0.00000000000E+00  0.74505805969E-08  0.10566000000E+00  0.10566000000E+00 0.  1.
     999900   -1    0    0    0    0 -0.00000000000E+00 -0.00000000000E+00 -0.74505805969E-08  0.93827000000E+00  0.93827000000E+00 0. -1.
     999902    2    1    2    0    0  0.48377251580E-02  0.16053227672E-01 -0.15966103895E-01  0.10207777609E+01  0.10205151694E+01 0.  0.
     999903    2    3    3    0    0 -0.12489266749E+00 -0.22722210209E-01  0.17719386550E-01  0.12978493170E+00  0.20388099610E-01 0.  0.
         14    1    1    2    0    0 -0.48377251580E-02 -0.16053227672E-01  0.15966103895E-01  0.23152239136E-01  0.00000000000E+00 0.  1.
     999901    1    3    3    0    0  0.12973039265E+00  0.38775437881E-01 -0.33685490445E-01  0.89099282917E+00  0.88000000000E+00 0.  1.
        -11    1    4    4    0    0 -0.74603880263E-01 -0.78106117982E-02  0.18742791026E-01  0.77319453848E-01  0.51100000000E-03 0.  1.
         11    1    4    4    0    0 -0.50288787230E-01 -0.14911598410E-01 -0.10234044760E-02  0.52465477850E-01  0.51100000000E-03 0. -1.
</event>
<event>
 7    1  0.1129602E+005  0.1043930E+01  0.7957747E-01            NaN
         13   -1    0    0    0    0  0.00000000000E+00  0.00000000000E+00  0.74505805969E-08  0.10566000000E+00  0.10566000000E+00 0.  1.
     999900   -1    0    0    0    0 -0.00000000000E+00 -0.00000000000E+00 -0.74505805969E-08  0.93827000000E+00  0.93827000000E+00 0.  1.
     999903    2    1    2    0    0 -0.16792173253E-01  0.87763367284E-01 -0.64891196563E-01  0.11205768663E+00  0.19017676559E-01 0.  0.
         14    1    1    2    0    0  0.12952275505E-01  0.33073602076E-01  0.23604627145E-01  0.42647426858E-01  0.00000000000E+00 0.  1.
     999901    1    1    2    0    0  0.38398977481E-02 -0.12083696936E+00  0.41286569419E-01  0.88922488651E+00  0.88000000000E+00 0. -1.
        -11    1    3    3    0    0 -0.12704529031E-01  0.52026483965E-01 -0.49502379106E-01  0.72930835384E-01  0.51100000000E-03 0.  1.
         11    1    3    3    0    0 -0.40876442223E-02  0.35736883319E-01 -0.15388817457E-01  0.39126851245E-01  0.51100000000E-03 0. -1.
</event>
<event>
 8    1  0.1129602E+005  0.1043930E+01  0.7957747E-01            NaN
         13   -1    0    0    0    0  0.00000000000E+00  0.00000000000E+00  0.74505805969E-08  0.10566000000E+00  0.10566000000E+00 0.  1.
     999900   -1    0    0    0    0 -0.00000000000E+00 -0.00000000000E+00 -0.74505805969E-08  0.93827000000E+00  0.93827000000E+00 0. -1.
     999902    2    1    2    0    0  0.18604482346E-01 -0.33767752523E-02 -0.12506820933E-01  0.10212595359E+01  0.10210078793E+01 0.  0.
     999903    2    3    3    0    0  0.35860942568E-01 -0.74102515129E-01  0.10003909436E+00  0.13110983005E+00  0.20119075180E-01 0.  0.
         14    1    1    2    0    0 -0.18604482346E-01  0.33767752523E-02  0.12506820933E-01  0.22670464140E-01  0.00000000000E+00 0.  1.
     999901    1    3    3    0    0 -0.17256460222E-01  0.70725739876E-01 -0.11254591529E+00  0.89014970581E+00  0.88000000000E+00 0. -1.
        -11    1    4    4    0    0  0.27875286031E-01 -0.37589523156E-01  0.48021305997E-01  0.67054535813E-01  0.51100000000E-03 0.  1.
         11    1    4    4    0    0  0.79856565369E-02 -0.36512991973E-01  0.52017788362E-01  0.64055294240E-01  0.51100000000E-03 0. -1.
</event>
<event>
 8    1  0.1129602E+005  0.1043930E+01  0.7957747E-01            NaN
         13   -1    0    0    0    0  0.00000000000E+00  0.00000000000E+00  0.74505805969E-08  0.10566000000E+00  0.10566000000E+00 0. -1.
     999900   -1    0    0    0    0 -0.00000000000E+00 -0.00000000000E+00 -0.74505805969E-08  0.93827000000E+00  0.93827000000E+00 0. -1.
     999902    2    1    2    0    0  0.98346308647E-02  0.13433767474E-01  0.17003220462E-01  0.10201330343E+01  0.10198554368E+01 0.  0.
     999903    2    3    3    0    0 -0.76713164447E-01  0.94924954995E-01 -0.37306261792E-01  0.13048093687E+00  0.27163597635E-01 0.  0.
         14    1    1    2    0    0 -0.98346308647E-02 -0.13433767474E-01 -0.17003220462E-01  0.23796965750E-01  0.00000000000E+00 0.  1.
     999901    1    3    3    0    0  0.86547795311E-01 -0.81491187521E-01  0.54309482254E-01  0.88965209738E+00  0.88000000000E+00 0. -1.
        -11    1    4    4    0    0 -0.20272893762E-01  0.44525883557E-01 -0.93459133669E-02  0.49811160855E-01  0.51100000000E-03 0. -1.
         11    1    4    4    0    0 -0.56440270685E-01  0.50399071438E-01 -0.27960348425E-01  0.80669776012E-01  0.51100000000E-03 0.  1.
</event>
<event>
 8    1  0.1129602E+005  0.1043930E+01  0.7957747E-01            NaN
         13   -1    0    0    0    0  0.00000000000E+00  0.00000000000E+00  0.74505805969E-08  0.10566000000E+00  0.10566000000E+00 0. -1.
     999900   -1    0    0    0    0 -0.00000000000E+00 -0.00000000000E+00 -0.74505805969E-08  0.93827000000E+00  0.93827000000E+00 0. -1.
     999902    2    1    2    0    0  0.43052625845E-02 -0.55283299176E-02  0.22528814340E-01  0.10203366706E+01  0.10200638589E+01 0.  0.
     999903    2    3    3    0    0 -0.85198812711E-01 -0.35377982012E-01 -0.87145490614E-01  0.12852366642E+00  0.20336100814E-01 0.  0.
         14    1    1    2    0    0 -0.43052625845E-02  0.55283299176E-02 -0.22528814340E-01  0.23593329421E-01  0.00000000000E+00 0.  1.
     999901    1    3    3    0    0  0.89504075296E-01  0.29849652094E-01  0.10967430495E+00  0.89181300416E+00  0.88000000000E+00 0.  1.
        -11    1    4    4    0    0 -0.18798724069E-01 -0.17629596253E-02 -0.26365572449E-01  0.32433078559E-01  0.51100000000E-03 0. -1.
         11    1    4    4    0    0 -0.66400088642E-01 -0.33615022386E-01 -0.60779918165E-01  0.96090587858E-01  0.51100000000E-03 0.  1.
</event>
<event>
 8    1  0.1129602E+005  0.1043930E+01  0.7957747E-01            NaN
         13   -1    0    0    0    0  0.00000000000E+00  0.00000000000E+00  0.74505805969E-08  0.10566000000E+00  0.10566000000E+00 0.  1.
     999900   -1    0    0    0    0 -0.00000000000E+00 -0.00000000000E+00 -0.74505805969E-08  0.93827000000E+00  0.93827000000E+00 0.  1.
     999902    2    1    2    0    0  0.21286600437E-01 -0.12457923237E-01 -0.76218396784E-02  0.10181150499E+01  0.10177877201E+01 0.  0.
     999903    2    3    3    0    0 -0.66309917417E-01 -0.92240494662E-01  0.54963541173E-01  0.12797161282E+00  0.21223308567E-01 0.  0.
         14    1    1    2    0    0 -0.21286600437E-01  0.12457923237E-01  0.76218396784E-02  0.25814950119E-01  0.00000000000E+00 0.  1.
     999901    1    3    3    0    0  0.87596517855E-01  0.79782571426E-01 -0.62585380851E-01  0.89014343706E+00  0.88000000000E+00 0. -1.
        -11    1    4    4    0    0 -0.33089282600E-01 -0.37836611271E-01  0.34703355555E-01  0.61082679896E-01  0.51100000000E-03 0. -1.
         11    1    4    4    0    0 -0.33220634817E-01 -0.54403883392E-01  0.20260185618E-01  0.66888932926E-01  0.51100000000E-03 0.  1.
</event>
<event>
 8    1  0.1129602E+005  0.1043930E+01  0.7957747E-01            NaN
         13   -1    0    0    0    0  0.00000000000E+00  0.00000000000E+00  0.74505805969E-08  0.10566000000E+00  0.10566000000E+00 0. -1.
     999900   -1    0    0    0    0 -0.00000000000E+00 -0.00000000000E+00 -0.74505805969E-08  0.93827000000E+00  0.93827000000E+00 0. -1.
     999902    2    1    2    0    0 -0.67611442224E-02  0.22660157195E-01 -0.10269374241E-02  0.10202603909E+01  0.10199857915E+01 0.  0.
     999903    2    3    3    0    0  0.98014042870E-01 -0.48599278923E-01  0.64590249441E-01  0.12876649731E+00  0.20982564066E-01 0.  0.
         14    1    1    2    0    0  0.67611442224E-02 -0.22660157195E-01  0.10269374241E-02  0.23669609118E-01  0.00000000000E+00 0. -1.
     999901    1    3    3    0    0 -0.10477518709E+00  0.71259436118E-01 -0.65617186865E-01  0.89149389357E+00  0.88000000000E+00 0. -1.
        -11    1    4    4    0    0  0.31852617430E-01 -0.91448981853E-02  0.28436208498E-01  0.43670327165E-01  0.51100000000E-03 0.  1.
         11    1    4    4    0    0  0.66161425440E-01 -0.39454380738E-01  0.36154040943E-01  0.85096170144E-01  0.51100000000E-03 0. -1.
</event>
<event>
 8    1  0.1129602E+005  0.1043930E+01  0.7957747E-01            NaN
         13   -1    0    0    0    0  0.00000000000E+00  0.00000000000E+00  0.74505805969E-08  0.10566000000E+00  0.10566000000E+00 0. -1.
     999900   -1    0    0    0    0 -0.00000000000E+00 -0.00000000000E+00 -0.74505805969E-08  0.93827000000E+00  0.93827000000E+00 0.  1.
     999902    2    1    2    0    0 -0.22236668991E-02  0.20810511811E-01 -0.11271363510E-01  0.10201588887E+01  0.10198819012E+01 0.  0.
     999903    2    3    3    0    0  0.10517195085E+00 -0.33844263214E-01 -0.66787052478E-01  0.13021341012E+00  0.16983768713E-01 0.  0.
         14    1    1    2    0    0  0.22236668991E-02 -0.20810511811E-01  0.11271363510E-01  0.23771111285E-01  0.00000000000E+00 0. -1.
     999901    1    3    3    0    0 -0.10739561775E+00  0.54654775026E-01  0.55515688967E-01  0.88994547859E+00  0.88000000000E+00 0. -1.
        -11    1    4    4    0    0  0.53992162186E-01 -0.20162646008E-01 -0.44138918170E-01  0.72596081780E-01  0.51100000000E-03 0.  1.
         11    1    4    4    0    0  0.51179788662E-01 -0.13681617207E-01 -0.22648134307E-01  0.57617328344E-01  0.51100000000E-03 0. -1.
</event>
<event>
 8    1  0.1129602E+005  0.1043930E+01  0.7957747E-01            NaN
         13   -1    0    0    0    0  0.00000000000E+00  0.00000000000E+00  0.74505805969E-08  0.10566000000E+00  0.10566000000E+00 0.  1.
     999900   -1    0    0    0    0 -0.00000000000E+00 -0.00000000000E+00 -0.74505805969E-08  0.93827000000E+00  0.93827000000E+00 0. -1.
     999902    2    1    2    0    0  0.77861354208E-02 -0.22465776958E-01  0.18362136600E-02  0.10200824274E+01  0.10198036340E+01 0.  0.
     999903    2    3    3    0    0 -0.11945824635E+00  0.40693202330E-01 -0.14621395625E-01  0.12853823764E+00  0.19546968823E-01 0.  0.
         14    1    1    2    0    0 -0.77861354208E-02  0.22465776958E-01 -0.18362136600E-02  0.23847572617E-01  0.00000000000E+00 0.  1.
     999901    1    3    3    0    0  0.12724438177E+00 -0.63158979288E-01  0.16457609284E-01  0.89154418974E+00  0.88000000000E+00 0.  1.
        -11    1    4    4    0    0 -0.89995716342E-01  0.26517308697E-01 -0.31177884008E-02  0.93874268817E-01  0.51100000000E-03 0.  1.
         11    1    4    4    0    0 -0.29462530004E-01  0.14175893633E-01 -0.11503607224E-01  0.34663968825E-01  0.51100000000E-03 0. -1.
</event>
<event>
 8    1  0.1129602E+005  0.1043930E+01  0.7957747E-01            NaN
         13   -1    0    0    0    0  0.00000000000E+00  0.00000000000E+00  0.74505805969E-08  0.10566000000E+00  0.10566000000E+00 0. -1.
     999900   -1    0    0    0    0 -0.00000000000E+00 -0.00000000000E+00 -0.74505805969E-08  0.93827000000E+00  0.93827000000E+00 0. -1.
     999902    2    1    2    0    0 -0.18351666209E-01 -0.47194471498E-02  0.13644409942E-01  0.10205799089E+01  0.10203127577E+01 0.  0.
     999903    2    3    3    0    0 -0.97751460892E-01  0.87434786071E-01  0.18662205999E-02  0.13213438107E+00  0.15994435234E-01 0.  0.
         14    1    1    2    0    0  0.18351666209E-01  0.47194471498E-02 -0.13644409942E-01  0.23350091150E-01  0.00000000000E+00 0.  1.
     999901    1    3    3    0    0  0.79399794683E-01 -0.92154233221E-01  0.11778189342E-01  0.88844552778E+00  0.88000000000E+00 0. -1.
        -11    1    4    4    0    0 -0.44530204245E-01  0.45646697051E-01 -0.57916256236E-02  0.64034085378E-01  0.51100000000E-03 0.  1.
         11    1    4    4    0    0 -0.53221256647E-01  0.41788089020E-01  0.76578462235E-02  0.68100295688E-01  0.51100000000E-03 0. -1.
</event>
<event>
 8    1  0.1129602E+005  0.1043930E+01  0.7957747E-01            NaN
         13   -1    0    0    0    0  0.00000000000E+00  0.00000000000E+00  0.74505805969E-08  0.10566000000E+00  0.10566000000E+00 0.  1.
     999900   -1    0    0    0    0 -0.00000000000E+00 -0.00000000000E+00 -0.74505805969E-08  0.93827000000E+00  0.93827000000E+00 0.  1.
     999902    2    1    2    0    0  0.14905197539E-01  0.15680437691E-01  0.91106914037E-02  0.10204556366E+01  0.10201856010E+01 0.  0.
     999903    2    3    3    0    0  0.83899913253E-01  0.78121614159E-01 -0.63265268473E-01  0.13259447014E+00  0.20895388817E-01 0.  0.
         14    1    1    2    0    0 -0.14905197539E-01 -0.15680437691E-01 -0.91106914037E-02  0.23474363415E-01  0.00000000000E+00 0. -1.
     999901    1    3    3    0    0 -0.68994715714E-01 -0.62441176468E-01  0.72375959876E-01  0.88786116645E+00  0.88000000000E+00 0.  1.
        -11    1    4    4    0    0  0.22512246954E-01  0.25500471318E-01 -0.89115676087E-02  0.35167491503E-01  0.51100000000E-03 0. -1.
         11    1    4    4    0    0  0.61387666299E-01  0.52621142841E-01 -0.54353700864E-01  0.97426978636E-01  0.51100000000E-03 0.  1.
</event>
<event>
 8    1  0.1129602E+005  0.1043930E+01  0.7957747E-01            NaN
         13   -1    0    0    0    0  0.00000000000E+00  0.00000000000E+00  0.74505805969E-08  0.10566000000E+00  0.10566000000E+00 0.  1.
     999900   -1    0    0    0    0 -0.00000000000E+00 -0.00000000000E+00 -0.74505805969E-08  0.93827000000E+00  0.93827000000E+00 0. -1.
     999902    2    1    2    0    0  0.33480522101E-02 -0.13748401902E-01 -0.18275099827E-01  0.10208170754E+01  0.10205553852E+01 0.  0.
     999903    2    3    3    0    0  0.13981575485E-01  0.10942528997E+00  0.62842775970E-01  0.12848028926E+00  0.19712729334E-01 0.  0.
         14    1    1    2    0    0 -0.33480522101E-02  0.13748401902E-01  0.18275099827E-01  0.23112924569E-01  0.00000000000E+00 0.  1.
     999901    1    3    3    0    0 -0.10633523275E-01 -0.12317369187E+00 -0.81117875797E-01  0.89233678617E+00  0.88000000000E+00 0.  1.
        -11    1    4    4    0    0  0.66599860704E-03  0.76215555719E-01  0.40813587011E-01  0.86459611921E-01  0.51100000000E-03 0.  1.
         11    1    4    4    0    0  0.13315576878E-01  0.33209734250E-01  0.22029188959E-01  0.42020677336E-01  0.51100000000E-03 0. -1.
</event>
<event>
 8    1  0.1129602E+005  0.1043930E+01  0.7957747E-01            NaN
         13   -1    0    0    0    0  0.00000000000E+00  0.00000000000E+00  0.74505805969E-08  0.10566000000E+00  0.10566000000E+00 0.  1.
     999900   -1    0    0    0    0 -0.00000000000E+00 -0.00000000000E+00 -0.74505805969E-08  0.93827000000E+00  0.93827000000E+00 0.  1.
     999902    2    1    2    0    0 -0.21892929137E-02  0.22085593126E-01  0.11690281243E-01  0.10188455605E+01  0.10185367186E+01 0.  0.
     999903    2    3    3    0    0  0.11150519074E+00 -0.14257038391E-01 -0.57755490879E-01  0.12807626508E+00  0.20764446630E-01 0.  0.
         14    1    1    2    0    0  0.21892929137E-02 -0.22085593126E-01 -0.11690281243E-01  0.25084439454E-01  0.00000000000E+00 0. -1.
     999901    1    3    3    0    0 -0.11369448366E+00  0.36342631517E-01  0.69445772122E-01  0.89076929547E+00  0.88000000000E+00 0. -1.
        -11    1    4    4    0    0  0.59117118683E-01 -0.17939036761E-01 -0.32206473850E-01  0.69671808072E-01  0.51100000000E-03 0.  1.
         11    1    4    4    0    0  0.52388072061E-01  0.36819983692E-02 -0.25549017029E-01  0.58404457007E-01  0.51100000000E-03 0. -1.
</event>
<event>
 8    1  0.1129602E+005  0.1043930E+01  0.7957747E-01            NaN
         13   -1    0    0    0    0  0.00000000000E+00  0.00000000000E+00  0.74505805969E-08  0.10566000000E+00  0.10566000000E+00 0. -1.
     999900   -1    0    0    0    0 -0.00000000000E+00 -0.00000000000E+00 -0.74505805969E-08  0.93827000000E+00  0.93827000000E+00 0.  1.
     999902    2    1    2    0    0  0.81857951793E-03 -0.14477723435E-01 -0.17367055162E-01  0.10213050325E+01  0.10210543963E+01 0.  0.
     999903    2    3    3    0    0  0.64534824039E-01  0.99869707133E-01 -0.52891856456E-01  0.13091348596E+00  0.14215850632E-01 0.  0.
         14    1    1    2    0    0 -0.81857951793E-03  0.14477723435E-01  0.17367055162E-01  0.22624967476E-01  0.00000000000E+00 0. -1.
     999901    1    3    3    0    0 -0.63716244521E-01 -0.11434743057E+00  0.35524801293E-01  0.89039154657E+00  0.88000000000E+00 0. -1.
        -11    1    4    4    0    0  0.22409989326E-01  0.45666057929E-01 -0.18497938277E-01  0.54129763623E-01  0.51100000000E-03 0. -1.
         11    1    4    4    0    0  0.42124834713E-01  0.54203649204E-01 -0.34393918178E-01  0.76783722333E-01  0.51100000000E-03 0.  1.
</event>
<event>
 8    1  0.1129602E+005  0.1043930E+01  0.7957747E-01            NaN
         13   -1    0    0    0    0  0.00000000000E+00  0.00000000000E+00  0.74505805969E-08  0.10566000000E+00  0.10566000000E+00 0.  1.
     999900   -1    0    0    0    0 -0.00000000000E+00 -0.00000000000E+00 -0.74505805969E-08  0.93827000000E+00  0.93827000000E+00 0.  1.
     999902    2    1    2    0    0  0.17513485692E-01 -0.15965115022E-01  0.28224107352E-03  0.10202300688E+01  0.10199547571E+01 0.  0.
     999903    2    3    3    0    0 -0.10721956555E+00  0.65262625137E-01 -0.10128454710E-01  0.12766933561E+00  0.21014951432E-01 0.  0.
         14    1    1    2    0    0 -0.17513485692E-01  0.15965115022E-01 -0.28224107352E-03  0.23699931198E-01  0.00000000000E+00 0.  1.
     999901    1    3    3    0    0  0.12473305125E+00 -0.81227740159E-01  0.10410695784E-01  0.89256073319E+00  0.88000000000E+00 0.  1.
        -11    1    4    4    0    0 -0.34184353999E-01  0.27430356773E-01  0.47219326148E-02  0.44085738052E-01  0.51100000000E-03 0.  1.
         11    1    4    4    0    0 -0.73035211555E-01  0.37832268364E-01 -0.14850387325E-01  0.83583597561E-01  0.51100000000E-03 0. -1.
</event>
<event>
 8    1  0.1129602E+005  0.1043930E+01  0.7957747E-01            NaN
         13   -1    0    0    0    0  0.00000000000E+00  0.00000000000E+00  0.74505805969E-08  0.10566000000E+00  0.10566000000E+00 0.  1.
     999900   -1    0    0    0    0 -0.00000000000E+00 -0.00000000000E+00 -0.74505805969E-08  0.93827000000E+00  0.93827000000E+00 0.  1.
     999902    2    1    2    0    0  0.73460693744E-02 -0.19757282101E-01 -0.10752046892E-01  0.10202673407E+01  0.10199929044E+01 0.  0.
     999903    2    3    3    0    0  0.49509264946E-01 -0.11448230867E+00 -0.43503811263E-01  0.13357503571E+00  0.19807631261E-01 0.  0.
         14    1    1    2    0    0 -0.73460693744E-02  0.19757282101E-01  0.10752046892E-01  0.23662659268E-01  0.00000000000E+00 0. -1.
     999901    1    3    3    0    0 -0.42163195571E-01  0.94725026570E-01  0.32751764371E-01  0.88669230502E+00  0.88000000000E+00 0. -1.
        -11    1    4    4    0    0  0.16337980055E-01 -0.18958771256E-01 -0.61590048234E-02  0.25779043063E-01  0.51100000000E-03 0.  1.
         11    1    4    4    0    0  0.33171284890E-01 -0.95523537414E-01 -0.37344806439E-01  0.10779599265E+00  0.51100000000E-03 0. -1.
</event>
<event>
 8    1  0.1129602E+005  0.1043930E+01  0.7957747E-01            NaN
         13   -1    0    0    0    0  0.00000000000E+00  0.00000000000E+00  0.74505805969E-08  0.10566000000E+00  0.10566000000E+00 0. -1.
     999900   -1    0    0    0    0 -0.00000000000E+00 -0.00000000000E+00 -0.74505805969E-08  0.93827000000E+00  0.93827000000E+00 0.  1.
     999902    2    1    2    0    0 -0.19481514627E-01 -0.12593961012E-01  0.22481669666E-02  0.10206235305E+01  0.10203573881E+01 0.  0.
     999903    2    3    3    0    0 -0.84193641365E-01  0.93610996243E-01 -0.31368952777E-01  0.13124326141E+00  0.19728015712E-01 0.  0.
         14    1    1    2    0    0  0.19481514627E-01  0.12593961012E-01 -0.22481669666E-02  0.23306469506E-01  0.00000000000E+00 0. -1.
     999901    1    3    3    0    0  0.64712126738E-01 -0.10620495725E+00  0.33617119743E-01  0.88938026908E+00  0.88000000000E+00 0. -1.
        -11    1    4    4    0    0 -0.15082616703E-01  0.15479359584E-01  0.20313956019E-02  0.21713672855E-01  0.51100000000E-03 0.  1.
         11    1    4    4    0    0 -0.69111024662E-01  0.78131636659E-01 -0.33400348379E-01  0.10952958856E+00  0.51100000000E-03 0. -1.
</event>
<event>
 8    1  0.1129602E+005  0.1043930E+01  0.7957747E-01            NaN
         13   -1    0    0    0    0  0.00000000000E+00  0.00000000000E+00  0.74505805969E-08  0.10566000000E+00  0.10566000000E+00 0.  1.
     999900   -1    0    0    0    0 -0.00000000000E+00 -0.00000000000E+00 -0.74505805969E-08  0.93827000000E+00  0.93827000000E+00 0. -1.
     999902    2    1    2    0    0 -0.12776699722E-01  0.68990771481E-03 -0.23835519023E-01  0.10168772368E+01  0.10165173204E+01 0.  0.
     999903    2    3    3    0    0  0.66718368260E-01 -0.62499692736E-01  0.82264283370E-01  0.12470597551E+00  0.20654678769E-01 0.  0.
         14    1    1    2    0    0  0.12776699722E-01 -0.68990771481E-03  0.23835519023E-01  0.27052763177E-01  0.00000000000E+00 0.  1.
     999901    1    3    3    0    0 -0.79495067982E-01  0.63189600451E-01 -0.10609980239E+00  0.89217126131E+00  0.88000000000E+00 0. -1.
        -11    1    4    4    0    0  0.89720435344E-02 -0.11566692082E-01  0.46299573448E-02  0.15361756310E-01  0.51100000000E-03 0.  1.
         11    1    4    4    0    0  0.57746324726E-01 -0.50933000654E-01  0.77634326025E-01  0.10934421920E+00  0.51100000000E-03 0. -1.
</event>
<event>
 8    1  0.1129602E+005  0.1043930E+01  0.7957747E-01            NaN
         13   -1    0    0    0    0  0.00000000000E+00  0.00000000000E+00  0.74505805969E-08  0.10566000000E+00  0.10566000000E+00 0. -1.
     999900   -1    0    0    0    0 -0.00000000000E+00 -0.00000000000E+00 -0.74505805969E-08  0.93827000000E+00  0.93827000000E+00 0. -1.
     999902    2    1    2    0    0 -0.34934771793E-02 -0.85336554399E-02  0.22085795040E-01  0.10199965506E+01  0.10197157218E+01 0.  0.
     999903    2    3    3    0    0 -0.63465424815E-01 -0.10202316963E+00 -0.45851460970E-01  0.13041665282E+00  0.21669323305E-01 0.  0.
         14    1    1    2    0    0  0.34934771793E-02  0.85336554399E-02 -0.22085795040E-01  0.23933449407E-01  0.00000000000E+00 0.  1.
     999901    1    3    3    0    0  0.59971947636E-01  0.93489514187E-01  0.67937256009E-01  0.88957989777E+00  0.88000000000E+00 0. -1.
        -11    1    4    4    0    0 -0.22174618277E-01 -0.18421793888E-01 -0.99891959179E-02  0.30514280949E-01  0.51100000000E-03 0. -1.
         11    1    4    4    0    0 -0.41290806538E-01 -0.83601375739E-01 -0.35862265052E-01  0.99902371872E-01  0.51100000000E-03 0.  1.
</event>
<event>
 8    1  0.1129602E+005  0.1043930E+01  0.7957747E-01            NaN
         13   -1    0    0    0    0  0.00000000000E+00  0.00000000000E+00  0.74505805969E-08  0.10566000000E+00  0.10566000000E+00 0. -1.
     999900   -1    0    0    0    0 -0.00000000000E+00 -0.00000000000E+00 -0.74505805969E-08  0.93827000000E+00  0.93827000000E+00 0.  1.
     999902    2    1    2    0    0 -0.12042473108E-01 -0.19438786003E-01  0.56950350742E-02  0.10203647505E+01  0.10200925953E+01 0.  0.
     999903    2    3    3    0    0  0.94302343516E-01  0.53696124375E-01 -0.65084155056E-01  0.12813852980E+00  0.20182413488E-01 0.  0.
         14    1    1    2    0    0  0.12042473108E-01  0.19438786003E-01 -0.56950350742E-02  0.23565249507E-01  0.00000000000E+00 0.  1.
     999901    1    3    3    0    0 -0.10634481662E+00 -0.73134910378E-01  0.70779190130E-01  0.89222622069E+00  0.88000000000E+00 0. -1.
        -11    1    4    4    0    0  0.33647838638E-01  0.28988065480E-01 -0.20571357324E-01  0.48948205773E-01  0.51100000000E-03 0.  1.
         11    1    4    4    0    0  0.60654504878E-01  0.24708058895E-01 -0.44512797732E-01  0.79190324025E-01  0.51100000000E-03 0. -1.
</event>
<event>
 8    1  0.1129602E+005  0.1043930E+01  0.7957747E-01            NaN
         13   -1    0    0    0    0  0.00000000000E+00  0.00000000000E+00  0.74505805969E-08  0.10566000000E+00  0.10566000000E+00 0. -1.
     999900   -1    0    0    0    0 -0.00000000000E+00 -0.00000000000E+00 -0.74505805969E-08  0.93827000000E+00  0.93827000000E+00 0. -1.
     999902    2    1    2    0    0  0.13253385671E-01  0.19038086860E-01  0.42176315649E-02  0.10203526931E+01  0.10200802562E+01 0.  0.
     999903    2    3    3    0    0 -0.90344148197E-01 -0.57684246275E-01 -0.67043958113E-01  0.12811002458E+00  0.20682086376E-01 0.  0.
         14    1    1    2    0    0 -0.13253385671E-01 -0.19038086860E-01 -0.42176315649E-02  0.23577306866E-01  0.00000000000E+00 0. -1.
     999901    1    3    3    0    0  0.10359753387E+00  0.76722333135E-01  0.71261589678E-01  0.89224266855E+00  0.88000000000E+00 0. -1.
        -11    1    4    4    0    0 -0.34769179218E-01 -0.11694648767E-01 -0.17881110032E-01  0.40812447246E-01  0.51100000000E-03 0. -1.
         11    1    4    4    0    0 -0.55574968979E-01 -0.45989597508E-01 -0.49162848081E-01  0.87297577334E-01  0.51100000000E-03 0.  1.
</event>
<event>
 8    1  0.1129602E+005  0.1043930E+01  0.7957747E-01            NaN
         13   -1    0    0    0    0  0.00000000000E+00  0.00000000000E+00  0.74505805969E-08  0.10566000000E+00  0.10566000000E+00 0. -1.
     999900   -1    0    0    0    0 -0.00000000000E+00 -0.00000000000E+00 -0.74505805969E-08  0.93827000000E+00  0.93827000000E+00 0. -1.
     999902    2    1    2    0    0 -0.17893283329E-01  0.15128779260E-01  0.15047689526E-02  0.10204499259E+01  0.10201797574E+01 0.  0.
     999903    2    3    3    0    0 -0.10314945012E+00 -0.49542260695E-01 -0.62198399616E-01  0.13168164841E+00  0.19420889730E-01 0.  0.
         14    1    1    2    0    0  0.17893283329E-01 -0.15128779260E-01 -0.15047689526E-02  0.23480074101E-01  0.00000000000E+00 0.  1.
     999901    1    3    3    0    0  0.85256166794E-01  0.64671039955E-01  0.63703168569E-01  0.88876827749E+00  0.88000000000E+00 0.  1.
        -11    1    4    4    0    0 -0.36287387885E-01 -0.27934777844E-01 -0.24741991126E-01  0.52053372403E-01  0.51100000000E-03 0.  1.
         11    1    4    4    0    0 -0.66862062238E-01 -0.21607482851E-01 -0.37456408490E-01  0.79628276007E-01  0.51100000000E-03 0. -1.
</event>
<event>
 8    1  0.1129602E+005  0.1043930E+01  0.7957747E-01            NaN
         13   -1    0    0    0    0  0.00000000000E+00  0.00000000000E+00  0.74505805969E-08  0.10566000000E+00  0.10566000000E+00 0. -1.
     999900   -1    0    0    0    0 -0.00000000000E+00 -0.00000000000E+00 -0.74505805969E-08  0.93827000000E+00  0.93827000000E+00 0. -1.
     999902    2    1    2    0    0  0.47504038033E-02 -0.17485578946E-01 -0.12875828041E-01  0.10217016677E+01  0.10214598372E+01 0.  0.
     999903    2    3    3    0    0  0.70050590628E-01 -0.10196584661E+00 -0.49060165849E-01  0.13450927805E+00  0.19537832144E-01 0.  0.
         14    1    1    2    0    0 -0.47504038033E-02  0.17485578946E-01  0.12875828041E-01  0.22228332262E-01  0.00000000000E+00 0. -1.
     999901    1    3    3    0    0 -0.65300186825E-01  0.84480267665E-01  0.36184337808E-01  0.88719238969E+00  0.88000000000E+00 0. -1.
        -11    1    4    4    0    0  0.52088311479E-01 -0.59221227408E-01 -0.30366867406E-01  0.84514813645E-01  0.51100000000E-03 0.  1.
         11    1    4    4    0    0  0.17962279150E-01 -0.42744619204E-01 -0.18693298443E-01  0.49994464401E-01  0.51100000000E-03 0. -1.
</event>
<event>
 8    1  0.1129602E+005  0.1043930E+01  0.7957747E-01            NaN
         13   -1    0    0    0    0  0.00000000000E+00  0.00000000000E+00  0.74505805969E-08  0.10566000000E+00  0.10566000000E+00 0.  1.
     999900   -1    0    0    0    0 -0.00000000000E+00 -0.00000000000E+00 -0.74505805969E-08  0.93827000000E+00  0.93827000000E+00 0. -1.
     999902    2    1    2    0    0  0.73369929938E-02  0.11362308209E-01 -0.17207510365E-01  0.10220432020E+01  0.10218088250E+01 0.  0.
     999903    2    3    3    0    0 -0.36138646909E-01 -0.25812510606E-01  0.12018279643E+00  0.12954771471E+00  0.19142056470E-01 0.  0.
         14    1    1    2    0    0 -0.73369929938E-02 -0.11362308209E-01  0.17207510365E-01  0.21886798007E-01  0.00000000000E+00 0.  1.
     999901    1    3    3    0    0  0.43475639903E-01  0.37174818815E-01 -0.13739030679E+00  0.89249548728E+00  0.88000000000E+00 0. -1.
        -11    1    4    4    0    0 -0.25683118669E-01 -0.27506058725E-01  0.97379716552E-01  0.10439959850E+00  0.51100000000E-03 0. -1.
         11    1    4    4    0    0 -0.10455528240E-01  0.16935481186E-02  0.22803079874E-01  0.25148116207E-01  0.51100000000E-03 0.  1.
</event>
<event>
 8    1  0.1129602E+005  0.1043930E+01  0.7957747E-01            NaN
         13   -1    0    0    0    0  0.00000000000E+00  0.00000000000E+00  0.74505805969E-08  0.10566000000E+00  0.10566000000E+00 0. -1.
     999900   -1    0    0    0    0 -0.00000000000E+00 -0.00000000000E+00 -0.74505805969E-08  0.93827000000E+00  0.93827000000E+00 0. -1.
     999902    2    1    2    0    0 -0.10905891493E-01  0.52207157373E-02  0.19445450986E-01  0.10210319672E+01  0.10207751751E+01 0.  0.
     999903    2    3    3    0    0 -0.60277379044E-01  0.92830756049E-01  0.72831401867E-01  0.13369712471E+00  0.17877258306E-01 0.  0.
         14    1    1    2    0    0  0.10905891493E-01 -0.52207157373E-02 -0.19445450986E-01  0.22898032800E-01  0.00000000000E+00 0.  1.
     999901    1    3    3    0    0  0.49371487551E-01 -0.87610040311E-01 -0.53385950880E-01  0.88733484249E+00  0.88000000000E+00 0. -1.
        -11    1    4    4    0    0 -0.44650469075E-01  0.71334192233E-01  0.63856537130E-01  0.10564161029E+00  0.51100000000E-03 0.  1.
         11    1    4    4    0    0 -0.15626909969E-01  0.21496563816E-01  0.89748647366E-02  0.28055514415E-01  0.51100000000E-03 0. -1.
</event>
<event>
 8    1  0.1129602E+005  0.1043930E+01  0.7957747E-01            NaN
         13   -1    0    0    0    0  0.00000000000E+00  0.00000000000E+00  0.74505805969E-08  0.10566000000E+00  0.10566000000E+00 0.  1.
     999900   -1    0    0    0    0 -0.00000000000E+00 -0.00000000000E+00 -0.74505805969E-08  0.93827000000E+00  0.93827000000E+00 0.  1.
     999902    2    1    2    0    0  0.90089518896E-02  0.27011304975E-02 -0.21753827828E-01  0.10202300771E+01  0.10199547656E+01 0.  0.
     999903    2    3    3    0    0  0.22823111860E-01  0.46196137668E-01  0.11552913445E+00  0.12841773227E+00  0.22116859736E-01 0.  0.
         14    1    1    2    0    0 -0.90089518896E-02 -0.27011304975E-02  0.21753827828E-01  0.23699922897E-01  0.00000000000E+00 0.  1.
     999901    1    3    3    0    0 -0.13814159971E-01 -0.43495007170E-01 -0.13728296228E+00  0.89181234483E+00  0.88000000000E+00 0.  1.
        -11    1    4    4    0    0  0.17193853529E-01  0.22677494928E-01  0.83919669326E-01  0.88615288727E-01  0.51100000000E-03 0. -1.
         11    1    4    4    0    0  0.56292583310E-02  0.23518642740E-01  0.31609465123E-01  0.39802443544E-01  0.51100000000E-03 0.  1.
</event>
<event>
 8    1  0.1129602E+005  0.1043930E+01  0.7957747E-01            NaN
         13   -1    0    0    0    0  0.00000000000E+00  0.00000000000E+00  0.74505805969E-08  0.10566000000E+00  0.10566000000E+00 0. -1.
     999900   -1    0    0    0    0 -0.00000000000E+00 -0.00000000000E+00 -0.74505805969E-08  0.93827000000E+00  0.93827000000E+00 0. -1.
     999902    2    1    2    0    0  0.16559844085E-02 -0.20758469602E-01 -0.72783790868E-02  0.10218702823E+01  0.10216321464E+01 0.  0.
     999903    2    3    3    0    0 -0.14661747791E-03  0.11470563718E+00 -0.56764934799E-01  0.13012890002E+00  0.23534402470E-01 0.  0.
         14    1    1    2    0    0 -0.16559844085E-02  0.20758469602E-01  0.72783790868E-02  0.22059717739E-01  0.00000000000E+00 0. -1.
     999901    1    3    3    0    0  0.18026018864E-02 -0.13546410679E+00  0.49486555712E-01  0.89174138224E+00  0.88000000000E+00 0.  1.
        -11    1    4    4    0    0  0.85717724893E-02  0.90144412721E-01 -0.39062795121E-01  0.98618727998E-01  0.51100000000E-03 0. -1.
         11    1    4    4    0    0 -0.87183899672E-02  0.24561224464E-01 -0.17702139678E-01  0.31510172023E-01  0.51100000000E-03 0.  1.
</event>
<event>
 8    1  0.1129602E+005  0.1043930E+01  0.7957747E-01            NaN
         13   -1    0    0    0    0  0.00000000000E+00  0.00000000000E+00  0.74505805969E-08  0.10566000000E+00  0.10566000000E+00 0.  1.
     999900   -1    0    0    0    0 -0.00000000000E+00 -0.00000000000E+00 -0.74505805969E-08  0.93827000000E+00  0.93827000000E+00 0.  1.
     999902    2    1    2    0    0  0.28026170655E-02 -0.23255948554E-01 -0.54728159735E-02  0.10198749481E+01  0.10195912241E+01 0.  0.
     999903    2    3    3    0    0 -0.47420737988E-01 -0.11506717093E+00  0.40663888878E-01  0.13247409087E+00  0.20165631025E-01 0.  0.
         14    1    1    2    0    0 -0.28026170655E-02  0.23255948554E-01  0.54728159735E-02  0.24055051866E-01  0.00000000000E+00 0.  1.
     999901    1    3    3    0    0  0.50223355053E-01  0.91811222376E-01 -0.46136704852E-01  0.88740085727E+00  0.88000000000E+00 0.  1.
        -11    1    4    4    0    0 -0.36691383539E-01 -0.92043060152E-01  0.23571305864E-01  0.10185308110E+00  0.51100000000E-03 0.  1.
         11    1    4    4    0    0 -0.10729354448E-01 -0.23024110779E-01  0.17092583014E-01  0.30621009767E-01  0.51100000000E-03 0. -1.
</event>
<event>
 8    1  0.1129602E+005  0.1043930E+01  0.7957747E-01            NaN
         13   -1    0    0    0    0  0.00000000000E+00  0.00000000000E+00  0.74505805969E-08  0.10566000000E+00  0.10566000000E+00 0.  1.
     999900   -1    0    0    0    0 -0.00000000000E+00 -0.00000000000E+00 -0.74505805969E-08  0.93827000000E+00  0.93827000000E+00 0.  1.
     999902    2    1    2    0    0  0.39121696804E-02 -0.88665255204E-02 -0.20547806409E-01  0.10212114460E+01  0.10209587087E+01 0.  0.
     999903    2    3    3    0    0 -0.34272059331E-01 -0.99072629530E-01  0.75021093233E-01  0.13063377332E+00  0.21143753902E-01 0.  0.
         14    1    1    2    0    0 -0.39121696804E-02  0.88665255204E-02  0.20547806409E-01  0.22718553973E-01  0.00000000000E+00 0.  1.
     999901    1    3    3    0    0  0.38184229011E-01  0.90206104010E-01 -0.95568899642E-01  0.89057767271E+00  0.88000000000E+00 0.  1.
        -11    1    4    4    0    0 -0.22647563606E-01 -0.51831094872E-01  0.51893990157E-01  0.76763414908E-01  0.51100000000E-03 0. -1.
         11    1    4    4    0    0 -0.11624495725E-01 -0.47241534658E-01  0.23127103076E-01  0.53870358412E-01  0.51100000000E-03 0.  1.
</event>
<event>
 8    1  0.1129602E+005  0.1043930E+01  0.7957747E-01            NaN
         13   -1    0    0    0    0  0.00000000000E+00  0.00000000000E+00  0.74505805969E-08  0.10566000000E+00  0.10566000000E+00 0. -1.
     999900   -1    0    0    0    0 -0.00000000000E+00 -0.00000000000E+00 -0.74505805969E-08  0.93827000000E+00  0.93827000000E+00 0. -1.
     999902    2    1    2    0    0 -0.12396282019E-01 -0.45618669977E-02  0.18761798706E-01  0.10209847711E+01  0.10207269073E+01 0.  0.
     999903    2    3    3    0    0  0.22923551166E-01  0.60865850892E-01 -0.10934160354E+00  0.12860662337E+00  0.18813195065E-01 0.  0.
         14    1    1    2    0    0  0.12396282019E-01  0.45618669977E-02 -0.18761798706E-01  0.22945228895E-01  0.00000000000E+00 0.  1.
     999901    1    3    3    0    0 -0.35319833185E-01 -0.65427717890E-01  0.12810340224E+00  0.89237814773E+00  0.88000000000E+00 0.  1.
        -11    1    4    4    0    0  0.16915840993E-01  0.19207085791E-01 -0.42613766166E-01  0.49711688856E-01  0.51100000000E-03 0. -1.
         11    1    4    4    0    0  0.60077101736E-02  0.41658765101E-01 -0.66727837370E-01  0.78894934517E-01  0.51100000000E-03 0.  1.
</event>
<event>
 8    1  0.1129602E+005  0.1043930E+01  0.7957747E-01            NaN
         13   -1    0    0    0    0  0.00000000000E+00  0.00000000000E+00  0.74505805969E-08  0.10566000000E+00  0.10566000000E+00 0. -1.
     999900   -1    0    0    0    0 -0.00000000000E+00 -0.00000000000E+00 -0.74505805969E-08  0.93827000000E+00  0.93827000000E+00 0.  1.
     999902    2    1    2    0    0 -0.32094105296E-02 -0.42202385650E-02 -0.18106436733E-01  0.10250632626E+01  0.10248896226E+01 0.  0.
     999903    2    3    3    0    0  0.90897990768E-01 -0.87766755848E-01  0.40455102518E-01  0.13418410276E+00  0.20082578427E-01 0.  0.
         14    1    1    2    0    0  0.32094105296E-02  0.42202385650E-02  0.18106436733E-01  0.18866737415E-01  0.00000000000E+00 0. -1.
     999901    1    3    3    0    0 -0.94107401298E-01  0.83546517283E-01 -0.58561539251E-01  0.89087915982E+00  0.88000000000E+00 0. -1.
        -11    1    4    4    0    0  0.52640279737E-01 -0.39869494175E-01  0.14482574546E-01  0.67606077412E-01  0.51100000000E-03 0.  1.
         11    1    4    4    0    0  0.38257711031E-01 -0.47897261673E-01  0.25972527972E-01  0.66578025349E-01  0.51100000000E-03 0. -1.
</event>
<event>
 8    1  0.1129602E+005  0.1043930E+01  0.7957747E-01            NaN
         13   -1    0    0    0    0  0.00000000000E+00  0.00000000000E+00  0.74505805969E-08  0.10566000000E+00  0.10566000000E+00 0.  1.
     999900   -1    0    0    0    0 -0.00000000000E+00 -0.00000000000E+00 -0.74505805969E-08  0.93827000000E+00  0.93827000000E+00 0.  1.
     999902    2    1    2    0    0 -0.81021134415E-02  0.19020458403E-01  0.11312137109E-01  0.10203633599E+01  0.10200911722E+01 0.  0.
     999903    2    3    3    0    0 -0.24382474830E-01 -0.79470205262E-01 -0.95249986703E-01  0.12833143937E+00  0.22054019149E-01 0.  0.
         14    1    1    2    0    0  0.81021134415E-02 -0.19020458403E-01 -0.11312137109E-01  0.23566640110E-01  0.00000000000E+00 0.  1.
     999901    1    3    3    0    0  0.16280361389E-01  0.98490663665E-01  0.10656212381E+00  0.89203192052E+00  0.88000000000E+00 0. -1.
        -11    1    4    4    0    0 -0.36899055251E-02 -0.46417033778E-01 -0.45361576317E-01  0.65008385264E-01  0.51100000000E-03 0. -1.
         11    1    4    4    0    0 -0.20692569305E-01 -0.33053171483E-01 -0.49888410386E-01  0.63323054106E-01  0.51100000000E-03 0.  1.
</event>
<event>
 8    1  0.1129602E+005  0.1043930E+01  0.7957747E-01            NaN
         13   -1    0    0    0    0  0.00000000000E+00  0.00000000000E+00  0.74505805969E-08  0.10566000000E+00  0.10566000000E+00 0. -1.
     999900   -1    0    0    0    0 -0.00000000000E+00 -0.00000000000E+00 -0.74505805969E-08  0.93827000000E+00  0.93827000000E+00 0.  1.
     999902    2    1    2    0    0  0.20433366434E-01 -0.34023722889E-02  0.13896639485E-01  0.10189857584E+01  0.10186804016E+01 0.  0.
     999903    2    3    3    0    0 -0.56734849401E-01  0.35832463658E-01 -0.10555625990E+00  0.12670592500E+00  0.20235089269E-01 0.  0.
         14    1    1    2    0    0 -0.20433366434E-01  0.34023722889E-02 -0.13896639485E-01  0.24944241620E-01  0.00000000000E+00 0. -1.
     999901    1    3    3    0    0  0.77168215835E-01 -0.39234835947E-01  0.11945289938E+00  0.89227983338E+00  0.88000000000E+00 0. -1.
        -11    1    4    4    0    0 -0.51021345481E-01  0.22882887200E-01 -0.83664772009E-01  0.10063229808E+00  0.51100000000E-03 0. -1.
         11    1    4    4    0    0 -0.57135039193E-02  0.12949576458E-01 -0.21891487890E-01  0.26073626915E-01  0.51100000000E-03 0.  1.
</event>
<event>
 8    1  0.1129602E+005  0.1043930E+01  0.7957747E-01            NaN
         13   -1    0    0    0    0  0.00000000000E+00  0.00000000000E+00  0.74505805969E-08  0.10566000000E+00  0.10566000000E+00 0. -1.
     999900   -1    0    0    0    0 -0.00000000000E+00 -0.00000000000E+00 -0.74505805969E-08  0.93827000000E+00  0.93827000000E+00 0.  1.
     999902    2    1    2    0    0 -0.61247114465E-02  0.15799896022E-01 -0.15665084056E-01  0.10208530924E+01  0.10205922264E+01 0.  0.
     999903    2    3    3    0    0  0.40721517965E-02  0.73633796570E-01 -0.10984997184E+00  0.13388097947E+00  0.20459274996E-01 0.  0.
         14    1    1    2    0    0  0.61247114465E-02 -0.15799896022E-01  0.15665084056E-01  0.23076907572E-01  0.00000000000E+00 0. -1.
     999901    1    3    3    0    0 -0.10196863243E-01 -0.57833900548E-01  0.94184887786E-01  0.88697211295E+00  0.88000000000E+00 0. -1.
        -11    1    4    4    0    0  0.11288705341E-01  0.50574660042E-01 -0.67212052783E-01  0.84870208359E-01  0.51100000000E-03 0. -1.
         11    1    4    4    0    0 -0.72165535443E-02  0.23059136528E-01 -0.42637919059E-01  0.49010771114E-01  0.51100000000E-03 0.  1.
</event>
<event>
 7    1  0.1129602E+005  0.1043930E+01  0.7957747E-01            NaN
         13   -1    0    0    0    0  0.00000000000E+00  0.00000000000E+00  0.74505805969E-08  0.10566000000E+00  0.10566000000E+00 0.  1.
     999900   -1    0    0    0    0 -0.00000000000E+00 -0.00000000000E+00 -0.74505805969E-08  0.93827000000E+00  0.93827000000E+00 0. -1.
     999902    2    1    2    0    0  0.16591910259E-02 -0.95255903296E-02  0.23345756997E-01  0.10186611624E+01  0.10183477056E+01 0.  0.
         14    1    1    2    0    0 -0.16591910259E-02  0.95255903296E-02 -0.23345756997E-01  0.25268837642E-01  0.00000000000E+00 0. -1.
     999901    1    3    3    0    0 -0.11068051850E+00 -0.37185144459E-01 -0.25955366136E-01  0.88809154549E+00  0.88000000000E+00 0. -1.
        -11    1    3    3    0    0  0.70607596946E-01  0.33425851400E-01  0.25490329572E-01  0.82175046766E-01  0.51100000000E-03 0. -1.
         11    1    3    3    0    0  0.41732112575E-01 -0.57662972706E-02  0.23810793561E-01  0.48394570100E-01  0.51100000000E-03 0.  1.
</event>
<event>
 8    1  0.1129602E+005  0.1043930E+01  0.7957747E-01            NaN
         13   -1    0    0    0    0  0.00000000000E+00  0.00000000000E+00  0.74505805969E-08  0.10566000000E+00  0.10566000000E+00 0. -1.
     999900   -1    0    0    0    0 -0.00000000000E+00 -0.00000000000E+00 -0.74505805969E-08  0.93827000000E+00  0.93827000000E+00 0.  1.
     999902    2    1    2    0    0  0.85517613708E-02  0.14206534510E-01 -0.15558993339E-01  0.10211914750E+01  0.10209382881E+01 0.  0.
     999903    2    3    3    0    0  0.19697893084E-01 -0.10506220829E+00 -0.73333115896E-01  0.13119871183E+00  0.20230706745E-01 0.  0.
         14    1    1    2    0    0 -0.85517613708E-02 -0.14206534510E-01  0.15558993339E-01  0.22738524997E-01  0.00000000000E+00 0.  1.
     999901    1    3    3    0    0 -0.11146131713E-01  0.11926874280E+00  0.57774122557E-01  0.88999276317E+00  0.88000000000E+00 0. -1.
        -11    1    4    4    0    0 -0.36096456844E-02 -0.28696666798E-01 -0.18445841755E-01  0.34307993622E-01  0.51100000000E-03 0. -1.
         11    1    4    4    0    0  0.23307538768E-01 -0.76365541496E-01 -0.54887274141E-01  0.96890718208E-01  0.51100000000E-03 0.  1.
</event>
<event>
 8    1  0.1129602E+005  0.1043930E+01  0.7957747E-01            NaN
         13   -1    0    0    0    0  0.00000000000E+00  0.00000000000E+00  0.74505805969E-08  0.10566000000E+00  0.10566000000E+00 0. -1.
     999900   -1    0    0    0    0 -0.00000000000E+00 -0.00000000000E+00 -0.74505805969E-08  0.93827000000E+00  0.93827000000E+00 0. -1.
     999902    2    1    2    0    0  0.20709623550E-01  0.45203048843E-02  0.10538336375E-01  0.10202576913E+01  0.10199830286E+01 0.  0.
     999903    2    3    3    0    0  0.71627656247E-01 -0.36349910116E-01  0.10391093606E+00  0.13291251448E+00  0.20406292328E-01 0.  0.
         14    1    1    2    0    0 -0.20709623550E-01 -0.45203048843E-02 -0.10538336375E-01  0.23672308661E-01  0.00000000000E+00 0.  1.
     999901    1    3    3    0    0 -0.50918032698E-01  0.40870215000E-01 -0.93372599686E-01  0.88734517686E+00  0.88000000000E+00 0. -1.
        -11    1    4    4    0    0  0.62986824714E-01 -0.38255262858E-01  0.96056564925E-01  0.12106993851E+00  0.51100000000E-03 0. -1.
         11    1    4    4    0    0  0.86408315334E-02  0.19053527423E-02  0.78543711361E-02  0.11842575970E-01  0.51100000000E-03 0.  1.
</event>
<event>
 8    1  0.1129602E+005  0.1043930E+01  0.7957747E-01            NaN
         13   -1    0    0    0    0  0.00000000000E+00  0.00000000000E+00  0.74505805969E-08  0.10566000000E+00  0.10566000000E+00 0.  1.
     999900   -1    0    0    0    0 -0.00000000000E+00 -0.00000000000E+00 -0.74505805969E-08  0.93827000000E+00  0.93827000000E+00 0. -1.
     999902    2    1    2    0    0 -0.16003061192E-01 -0.13905651349E-02  0.16892866689E-01  0.10206190458E+01  0.10203527998E+01 0.  0.
     999903    2    3    3    0    0 -0.11240221537E+00 -0.39691345327E-01 -0.52540082581E-01  0.13181047189E+00  0.20096748642E-01 0.  0.
         14    1    1    2    0    0  0.16003061192E-01  0.13905651349E-02 -0.16892866689E-01  0.23310954161E-01  0.00000000000E+00 0. -1.
     999901    1    3    3    0    0  0.96399154183E-01  0.38300780192E-01  0.69432949269E-01  0.88880857395E+00  0.88000000000E+00 0.  1.
        -11    1    4    4    0    0 -0.62229958871E-01 -0.14634657748E-01 -0.35853921869E-01  0.73297379373E-01  0.51100000000E-03 0. -1.
         11    1    4    4    0    0 -0.50172256504E-01 -0.25056687579E-01 -0.16686160712E-01  0.58513092513E-01  0.51100000000E-03 0.  1.
</event>
<event>
 8    1  0.1129602E+005  0.1043930E+01  0.7957747E-01            NaN
         13   -1    0    0    0    0  0.00000000000E+00  0.00000000000E+00  0.74505805969E-08  0.10566000000E+00  0.10566000000E+00 0. -1.
     999900   -1    0    0    0    0 -0.00000000000E+00 -0.00000000000E+00 -0.74505805969E-08  0.93827000000E+00  0.93827000000E+00 0. -1.
     999902    2    1    2    0    0  0.34718185699E-02  0.18488388782E-01 -0.14791600301E-01  0.10199995699E+01  0.10197188128E+01 0.  0.
     999903    2    3    3    0    0  0.10668291417E+00 -0.65530323882E-01 -0.28256925426E-01  0.12989115557E+00  0.19944696966E-01 0.  0.
         14    1    1    2    0    0 -0.34718185699E-02 -0.18488388782E-01  0.14791600301E-01  0.23930430071E-01  0.00000000000E+00 0. -1.
     999901    1    3    3    0    0 -0.10321109560E+00  0.84018712664E-01  0.13465325125E-01  0.89010841436E+00  0.88000000000E+00 0. -1.
        -11    1    4    4    0    0  0.71253366730E-01 -0.53913096733E-01 -0.17157124933E-01  0.90985121458E-01  0.51100000000E-03 0.  1.
         11    1    4    4    0    0  0.35429547439E-01 -0.11617227149E-01 -0.11099800492E-01  0.38906034112E-01  0.51100000000E-03 0. -1.
</event>
<event>
 8    1  0.1129602E+005  0.1043930E+01  0.7957747E-01            NaN
         13   -1    0    0    0    0  0.00000000000E+00  0.00000000000E+00  0.74505805969E-08  0.10566000000E+00  0.10566000000E+00 0.  1.
     999900   -1    0    0    0    0 -0.00000000000E+00 -0.00000000000E+00 -0.74505805969E-08  0.93827000000E+00  0.93827000000E+00 0. -1.
     999902    2    1    2    0    0  0.61242180078E-02  0.56050325218E-02 -0.21015563900E-01  0.10213340632E+01  0.10210840770E+01 0.  0.
     999903    2    3    3    0    0  0.12070281629E+00 -0.47861892819E-02 -0.52658370004E-01  0.13328141840E+00  0.19973860251E-01 0.  0.
         14    1    1    2    0    0 -0.61242180078E-02 -0.56050325218E-02  0.21015563900E-01  0.22595936843E-01  0.00000000000E+00 0.  1.
     999901    1    3    3    0    0 -0.11457859828E+00  0.10391221804E-01  0.31642806104E-01  0.88805264475E+00  0.88000000000E+00 0.  1.
        -11    1    4    4    0    0  0.13917820251E-01  0.24694487340E-02 -0.12775218762E-01  0.19059675575E-01  0.51100000000E-03 0. -1.
         11    1    4    4    0    0  0.10678499603E+00 -0.72556380160E-02 -0.39883151242E-01  0.11422174283E+00  0.51100000000E-03 0.  1.
</event>
<event>
 8    1  0.1129602E+005  0.1043930E+01  0.7957747E-01            NaN
         13   -1    0    0    0    0  0.00000000000E+00  0.00000000000E+00  0.74505805969E-08  0.10566000000E+00  0.10566000000E+00 0.  1.
     999900   -1    0    0    0    0 -0.00000000000E+00 -0.00000000000E+00 -0.74505805969E-08  0.93827000000E+00  0.93827000000E+00 0. -1.
     999902    2    1    2    0    0 -0.11703153537E-01  0.46599713470E-02 -0.20159070443E-01  0.10201588566E+01  0.10198818684E+01 0.  0.
     999903    2    3    3    0    0 -0.20980984683E-01 -0.84087740286E-01 -0.97844952404E-01  0.13224144453E+00  0.20080218003E-01 0.  0.
         14    1    1    2    0    0  0.11703153537E-01 -0.46599713470E-02  0.20159070443E-01  0.23771143363E-01  0.00000000000E+00 0.  1.
     999901    1    3    3    0    0  0.92778311455E-02  0.88747711633E-01  0.77685881962E-01  0.88791741211E+00  0.88000000000E+00 0.  1.
        -11    1    4    4    0    0 -0.45729297478E-02 -0.15665183254E-01 -0.31754773470E-01  0.35706251721E-01  0.51100000000E-03 0. -1.
         11    1    4    4    0    0 -0.16408054935E-01 -0.68422557032E-01 -0.66090178935E-01  0.96535192807E-01  0.51100000000E-03 0.  1.
</event>
<event>
 8    1  0.1129602E+005  0.1043930E+01  0.7957747E-01            NaN
         13   -1    0    0    0    0  0.00000000000E+00  0.00000000000E+00  0.74505805969E-08  0.10566000000E+00  0.10566000000E+00 0. -1.
     999900   -1    0    0    0    0 -0.00000000000E+00 -0.00000000000E+00 -0.74505805969E-08  0.93827000000E+00  0.93827000000E+00 0. -1.
     999902    2    1    2    0    0  0.47404396211E-02 -0.14668880193E-01  0.15068105427E-01  0.10223732003E+01  0.10221459118E+01 0.  0.
     999903    2    3    3    0    0  0.40968466072E-01 -0.39657600337E-01  0.12052758354E+00  0.13498455510E+00  0.21042605432E-01 0.  0.
         14    1    1    2    0    0 -0.47404396211E-02  0.14668880193E-01 -0.15068105427E-01  0.21556799741E-01  0.00000000000E+00 0. -1.
     999901    1    3    3    0    0 -0.36228026451E-01  0.24988720144E-01 -0.10545947812E+00  0.88738864516E+00  0.88000000000E+00 0. -1.
        -11    1    4    4    0    0  0.28570344469E-01 -0.13650767990E-01  0.56453574619E-01  0.64729245771E-01  0.51100000000E-03 0.  1.
         11    1    4    4    0    0  0.12398121604E-01 -0.26006832347E-01  0.64074008925E-01  0.70255309328E-01  0.51100000000E-03 0. -1.
</event>
<event>
 8    1  0.1129602E+005  0.1043930E+01  0.7957747E-01            NaN
         13   -1    0    0    0    0  0.00000000000E+00  0.00000000000E+00  0.74505805969E-08  0.10566000000E+00  0.10566000000E+00 0.  1.
     999900   -1    0    0    0    0 -0.00000000000E+00 -0.00000000000E+00 -0.74505805969E-08  0.93827000000E+00  0.93827000000E+00 0. -1.
     999902    2    1    2    0    0  0.10429124910E-01  0.15047238541E-02 -0.24337772409E-01  0.10174091025E+01  0.10170633824E+01 0.  0.
     999903    2    3    3    0    0  0.92194168236E-01 -0.70747185264E-01 -0.55854023509E-01  0.13011031696E+00  0.17438284227E-01 0.  0.
         14    1    1    2    0    0 -0.10429124910E-01 -0.15047238541E-02  0.24337772409E-01  0.26520897535E-01  0.00000000000E+00 0.  1.
     999901    1    3    3    0    0 -0.81765043326E-01  0.72251909118E-01  0.31516251100E-01  0.88729878551E+00  0.88000000000E+00 0. -1.
        -11    1    4    4    0    0  0.76202641424E-01 -0.56839802667E-01 -0.52641219636E-01  0.10866906116E+00  0.51100000000E-03 0. -1.
         11    1    4    4    0    0  0.15991526812E-01 -0.13907382597E-01 -0.32128038732E-02  0.21441255798E-01  0.51100000000E-03 0.  1.
</event>
<event>
 8    1  0.1129602E+005  0.1043930E+01  0.7957747E-01            NaN
         13   -1    0    0    0    0  0.00000000000E+00  0.00000000000E+00  0.74505805969E-08  0.10566000000E+00  0.10566000000E+00 0.  1.
     999900   -1    0    0    0    0 -0.00000000000E+00 -0.00000000000E+00 -0.74505805969E-08  0.93827000000E+00  0.93827000000E+00 0.  1.
     999902    2    1    2    0    0  0.17768569231E-01  0.79444987747E-02 -0.14268938142E-01  0.10197962123E+01  0.10195106056E+01 0.  0.
     999903    2    3    3    0    0  0.20531448997E-01  0.81628234677E-01  0.98121354106E-01  0.12958921152E+00  0.89919139120E-02 0.  0.
         14    1    1    2    0    0 -0.17768569231E-01 -0.79444987747E-02  0.14268938142E-01  0.24133787705E-01  0.00000000000E+00 0.  1.
     999901    1    3    3    0    0 -0.27628797662E-02 -0.73683735902E-01 -0.11239029225E+00  0.89020700078E+00  0.88000000000E+00 0.  1.
        -11    1    4    4    0    0  0.17734555485E-01  0.58433934369E-01  0.66735390367E-01  0.90459452754E-01  0.51100000000E-03 0.  1.
         11    1    4    4    0    0  0.27968935120E-02  0.23194300308E-01  0.31385963739E-01  0.39129758764E-01  0.51100000000E-03 0. -1.
</event>
<event>
 8    1  0.1129602E+005  0.1043930E+01  0.7957747E-01            NaN
         13   -1    0    0    0    0  0.00000000000E+00  0.00000000000E+00  0.74505805969E-08  0.10566000000E+00  0.10566000000E+00 0.  1.
     999900   -1    0    0    0    0 -0.00000000000E+00 -0.00000000000E+00 -0.74505805969E-08  0.93827000000E+00  0.93827000000E+00 0.  1.
     999902    2    1    2    0    0 -0.16987452631E-01  0.83117813966E-02  0.13813474939E-01  0.10205105349E+01  0.10202417755E+01 0.  0.
     999903    2    3    3    0    0 -0.80969408069E-01 -0.10168519469E+00  0.46252763257E-02  0.13131008033E+00  0.18028315329E-01 0.  0.
         14    1    1    2    0    0  0.16987452631E-01 -0.83117813966E-02 -0.13813474939E-01  0.23419465125E-01  0.00000000000E+00 0. -1.
     999901    1    3    3    0    0  0.63981955439E-01  0.10999697608E+00  0.91881986130E-02  0.88920045454E+00  0.88000000000E+00 0.  1.
        -11    1    4    4    0    0 -0.58753671173E-01 -0.70437398093E-01 -0.47084463176E-02  0.91846891696E-01  0.51100000000E-03 0. -1.
         11    1    4    4    0    0 -0.22215736896E-01 -0.31247796594E-01  0.93337226433E-02  0.39463188634E-01  0.51100000000E-03 0.  1.
</event>
<event>
 8    1  0.1129602E+005  0.1043930E+01  0.7957747E-01            NaN
         13   -1    0    0    0    0  0.00000000000E+00  0.00000000000E+00  0.74505805969E-08  0.10566000000E+00  0.10566000000E+00 0.  1.
     999900   -1    0    0    0    0 -0.00000000000E+00 -0.00000000000E+00 -0.74505805969E-08  0.93827000000E+00  0.93827000000E+00 0. -1.
     999902    2    1    2    0    0 -0.37884970631E-02 -0.21938314142E-01  0.91409380343E-02  0.10198634447E+01  0.10195794460E+01 0.  0.
     999903    2    3    3    0    0  0.10206719973E-01  0.78918845053E-01  0.99895573882E-01  0.12935547918E+00  0.20526886684E-01 0.  0.
         14    1    1    2    0    0  0.37884970631E-02  0.21938314142E-01 -0.91409380343E-02  0.24066555332E-01  0.00000000000E+00 0.  1.
     999901    1    3    3    0    0 -0.13995217036E-01 -0.10085715920E+00 -0.90754635847E-01  0.89050796548E+00  0.88000000000E+00 0.  1.
        -11    1    4    4    0    0  0.16290856907E-01  0.56290478421E-01  0.67864040463E-01  0.89664926747E-01  0.51100000000E-03 0. -1.
         11    1    4    4    0    0 -0.60841369342E-02  0.22628366632E-01  0.32031533419E-01  0.39690552438E-01  0.51100000000E-03 0.  1.
</event>
<event>
 8    1  0.1129602E+005  0.1043930E+01  0.7957747E-01            NaN
         13   -1    0    0    0    0  0.00000000000E+00  0.00000000000E+00  0.74505805969E-08  0.10566000000E+00  0.10566000000E+00 0.  1.
     999900   -1    0    0    0    0 -0.00000000000E+00 -0.00000000000E+00 -0.74505805969E-08  0.93827000000E+00  0.93827000000E+00 0.  1.
     999902    2    1    2    0    0 -0.97250493392E-02 -0.10283698036E-01  0.21208321748E-01  0.10184324719E+01  0.10181132431E+01 0.  0.
     999903    2    3    3    0    0  0.10475790662E+00 -0.71596089321E-01 -0.45070181690E-02  0.12852976075E+00  0.19984173238E-01 0.  0.
         14    1    1    2    0    0  0.97250493392E-02  0.10283698036E-01 -0.21208321748E-01  0.25497528142E-01  0.00000000000E+00 0. -1.
     999901    1    3    3    0    0 -0.11448295596E+00  0.61312391285E-01  0.25715339917E-01  0.88990271111E+00  0.88000000000E+00 0. -1.
        -11    1    4    4    0    0  0.53176766581E-01 -0.46619230517E-01  0.26627929379E-02  0.70770564116E-01  0.51100000000E-03 0. -1.
         11    1    4    4    0    0  0.51581140040E-01 -0.24976858804E-01 -0.71698111069E-02  0.57759196635E-01  0.51100000000E-03 0.  1.
</event>
<event>
 8    1  0.1129602E+005  0.1043930E+01  0.7957747E-01            NaN
         13   -1    0    0    0    0  0.00000000000E+00  0.00000000000E+00  0.74505805969E-08  0.10566000000E+00  0.10566000000E+00 0.  1.
     999900   -1    0    0    0    0 -0.00000000000E+00 -0.00000000000E+00 -0.74505805969E-08  0.93827000000E+00  0.93827000000E+00 0.  1.
     999902    2    1    2    0    0  0.13199550624E-01 -0.18126389639E-01 -0.53630242039E-02  0.10208744981E+01  0.10206141214E+01 0.  0.
     999903    2    3    3    0    0 -0.61116651499E-01  0.99063656452E-01  0.50235846947E-01  0.12826728368E+00  0.19493656032E-01 0.  0.
         14    1    1    2    0    0 -0.13199550624E-01  0.18126389639E-01  0.53630242039E-02  0.23055501873E-01  0.00000000000E+00 0.  1.
     999901    1    3    3    0    0  0.74316202122E-01 -0.11719004609E+00 -0.55598871151E-01  0.89260721444E+00  0.88000000000E+00 0.  1.
        -11    1    4    4    0    0 -0.27607811024E-01  0.44731650678E-01  0.12222515353E-01  0.53970017644E-01  0.51100000000E-03 0. -1.
         11    1    4    4    0    0 -0.33508840474E-01  0.54332005774E-01  0.38013331594E-01  0.74297266041E-01  0.51100000000E-03 0.  1.
</event>
<event>
 8    1  0.1129602E+005  0.1043930E+01  0.7957747E-01            NaN
         13   -1    0    0    0    0  0.00000000000E+00  0.00000000000E+00  0.74505805969E-08  0.10566000000E+00  0.10566000000E+00 0.  1.
     999900   -1    0    0    0    0 -0.00000000000E+00 -0.00000000000E+00 -0.74505805969E-08  0.93827000000E+00  0.93827000000E+00 0. -1.
     999902    2    1    2    0    0 -0.71547500329E-02  0.10158304599E-02 -0.23945361983E-01  0.10189179485E+01  0.10186109086E+01 0.  0.
     999903    2    3    3    0    0 -0.11228668739E+00 -0.30896024157E-02  0.60145072082E-01  0.12867035377E+00  0.17910456017E-01 0.  0.
         14    1    1    2    0    0  0.71547500329E-02 -0.10158304599E-02  0.23945361983E-01  0.25012051497E-01  0.00000000000E+00 0.  1.
     999901    1    3    3    0    0  0.10513193736E+00  0.41054328756E-02 -0.84090434065E-01  0.89024759474E+00  0.88000000000E+00 0. -1.
        -11    1    4    4    0    0 -0.36405147406E-01 -0.92030434709E-02  0.21927616705E-01  0.43486920587E-01  0.51100000000E-03 0.  1.
         11    1    4    4    0    0 -0.75881539985E-01  0.61134410552E-02  0.38217455377E-01  0.85183433181E-01  0.51100000000E-03 0. -1.
</event>
<event>
 8    1  0.1129602E+005  0.1043930E+01  0.7957747E-01            NaN
         13   -1    0    0    0    0  0.00000000000E+00  0.00000000000E+00  0.74505805969E-08  0.10566000000E+00  0.10566000000E+00 0.  1.
     999900   -1    0    0    0    0 -0.00000000000E+00 -0.00000000000E+00 -0.74505805969E-08  0.93827000000E+00  0.93827000000E+00 0. -1.
     999902    2    1    2    0    0 -0.16526711325E-02 -0.21393712181E-01 -0.11462488393E-01  0.10196028365E+01  0.10193125788E+01 0.  0.
     999903    2    3    3    0    0  0.12438535620E+00 -0.18364144265E-01 -0.28725919223E-01  0.13044998765E+00  0.19571975122E-01 0.  0.
         14    1    1    2    0    0  0.16526711325E-02  0.21393712181E-01  0.11462488393E-01  0.24327163478E-01  0.00000000000E+00 0.  1.
     999901    1    3    3    0    0 -0.12603802733E+00 -0.30295679157E-02  0.17263430830E-01  0.88915284887E+00  0.88000000000E+00 0.  1.
        -11    1    4    4    0    0  0.94498642501E-01 -0.22252983130E-01 -0.22904263147E-01  0.99749962827E-01  0.51100000000E-03 0. -1.
         11    1    4    4    0    0  0.29886713701E-01  0.38888388646E-02 -0.58216560762E-02  0.30700024822E-01  0.51100000000E-03 0.  1.
</event>
<event>
 8    1  0.1129602E+005  0.1043930E+01  0.7957747E-01            NaN
         13   -1    0    0    0    0  0.00000000000E+00  0.00000000000E+00  0.74505805969E-08  0.10566000000E+00  0.10566000000E+00 0.  1.
     999900   -1    0    0    0    0 -0.00000000000E+00 -0.00000000000E+00 -0.74505805969E-08  0.93827000000E+00  0.93827000000E+00 0.  1.
     999902    2    1    2    0    0  0.12822666642E-01  0.19543639318E-01  0.33879060984E-02  0.10203110981E+01  0.10200376878E+01 0.  0.
     999903    2    3    3    0    0  0.12343667719E+00  0.11042116436E-01  0.42444503928E-01  0.13248614182E+00  0.19811619047E-01 0.  0.
         14    1    1    2    0    0 -0.12822666642E-01 -0.19543639318E-01 -0.33879060984E-02  0.23618901866E-01  0.00000000000E+00 0. -1.
     999901    1    3    3    0    0 -0.11061401055E+00  0.85015228820E-02 -0.39056597830E-01  0.88782495631E+00  0.88000000000E+00 0.  1.
        -11    1    4    4    0    0  0.35350076651E-01  0.23429971772E-02  0.29364196540E-02  0.35552795057E-01  0.51100000000E-03 0. -1.
         11    1    4    4    0    0  0.88086600539E-01  0.86991192593E-02  0.39508084274E-01  0.96933346762E-01  0.51100000000E-03 0.  1.
</event>
<event>
 8    1  0.1129602E+005  0.1043930E+01  0.7957747E-01            NaN
         13   -1    0    0    0    0  0.00000000000E+00  0.00000000000E+00  0.74505805969E-08  0.10566000000E+00  0.10566000000E+00 0. -1.
     999900   -1    0    0    0    0 -0.00000000000E+00 -0.00000000000E+00 -0.74505805969E-08  0.93827000000E+00  0.93827000000E+00 0.  1.
     999902    2    1    2    0    0 -0.13825522679E-01  0.38909582846E-02  0.22467044843E-01  0.10172644279E+01  0.10169148752E+01 0.  0.
     999903    2    3    3    0    0 -0.55602292430E-01  0.39581940427E-01  0.11024182193E+00  0.13119244648E+00  0.19996344154E-01 0.  0.
         14    1    1    2    0    0  0.13825522679E-01 -0.38909582846E-02 -0.22467044843E-01  0.26665572142E-01  0.00000000000E+00 0. -1.
     999901    1    3    3    0    0  0.41776769751E-01 -0.35690982143E-01 -0.87774777083E-01  0.88607198138E+00  0.88000000000E+00 0.  1.
        -11    1    4    4    0    0 -0.10690659408E-01  0.18285481024E-01  0.37871850253E-01  0.43395704596E-01  0.51100000000E-03 0.  1.
         11    1    4    4    0    0 -0.44911633022E-01  0.21296459403E-01  0.72369971673E-01  0.87796741880E-01  0.51100000000E-03 0. -1.
</event>
<event>
 8    1  0.1129602E+005  0.1043930E+01  0.7957747E-01            NaN
         13   -1    0    0    0    0  0.00000000000E+00  0.00000000000E+00  0.74505805969E-08  0.10566000000E+00  0.10566000000E+00 0.  1.
     999900   -1    0    0    0    0 -0.00000000000E+00 -0.00000000000E+00 -0.74505805969E-08  0.93827000000E+00  0.93827000000E+00 0.  1.
     999902    2    1    2    0    0  0.81731525307E-02 -0.10960936780E-01  0.18617561753E-01  0.10208311653E+01  0.10205697977E+01 0.  0.
     999903    2    3    3    0    0  0.63972934860E-01 -0.77127127656E-01 -0.81937327199E-01  0.13088573655E+00  0.19396397293E-01 0.  0.
         14    1    1    2    0    0 -0.81731525307E-02  0.10960936780E-01 -0.18617561753E-01  0.23098834668E-01  0.00000000000E+00 0. -1.
     999901    1    3    3    0    0 -0.55799782329E-01  0.66166190876E-01  0.10055488895E+00  0.88994542878E+00  0.88000000000E+00 0. -1.
        -11    1    4    4    0    0  0.43325434920E-01 -0.41426025895E-01 -0.56816158462E-01  0.82592650495E-01  0.51100000000E-03 0. -1.
         11    1    4    4    0    0  0.20647499940E-01 -0.35701101760E-01 -0.25121168738E-01  0.48293086052E-01  0.51100000000E-03 0.  1.
</event>
<event>
 8    1  0.1129602E+005  0.1043930E+01  0.7957747E-01            NaN
         13   -1    0    0    0    0  0.00000000000E+00  0.00000000000E+00  0.74505805969E-08  0.10566000000E+00  0.10566000000E+00 0.  1.
     999900   -1    0    0    0    0 -0.00000000000E+00 -0.00000000000E+00 -0.74505805969E-08  0.93827000000E+00  0.93827000000E+00 0.  1.
     999902    2    1    2    0    0  0.15073299390E-01 -0.17867165189E-01  0.43187656543E-02  0.10201583429E+01  0.10198813425E+01 0.  0.
     999903    2    3    3    0    0  0.11583273331E+00  0.11674370674E-02 -0.59815624275E-01  0.13188586238E+00  0.19934562291E-01 0.  0.
         14    1    1    2    0    0 -0.15073299390E-01  0.17867165189E-01 -0.43187656543E-02  0.23771657140E-01  0.00000000000E+00 0. -1.
     999901    1    3    3    0    0 -0.10075943392E+00 -0.19034602257E-01  0.64134389929E-01  0.88827248048E+00  0.88000000000E+00 0. -1.
        -11    1    4    4    0    0  0.11372456722E+00  0.23860417093E-02 -0.61061172468E-01  0.12910344026E+00  0.51100000000E-03 0.  1.
         11    1    4    4    0    0  0.21081660900E-02 -0.12186046418E-02  0.12455481928E-02  0.27824221169E-02  0.51100000000E-03 0. -1.
</event>
<event>
 8    1  0.1129602E+005  0.1043930E+01  0.7957747E-01            NaN
         13   -1    0    0    0    0  0.00000000000E+00  0.00000000000E+00  0.74505805969E-08  0.10566000000E+00  0.10566000000E+00 0. -1.
     999900   -1    0    0    0    0 -0.00000000000E+00 -0.00000000000E+00 -0.74505805969E-08  0.93827000000E+00  0.93827000000E+00 0.  1.
     999902    2    1    2    0    0  0.23613346259E-01 -0.10769559383E-01 -0.72291617800E-03  0.10179666385E+01  0.10176354853E+01 0.  0.
     999903    2    3    3    0    0 -0.17539771232E-01  0.96009141037E-01 -0.78534431587E-01  0.12715245933E+00  0.21787432867E-01 0.  0.
         14    1    1    2    0    0 -0.23613346259E-01  0.10769559383E-01  0.72291617800E-03  0.25963361467E-01  0.00000000000E+00 0. -1.
     999901    1    3    3    0    0  0.41153117492E-01 -0.10677870042E+00  0.77811515409E-01  0.89081417921E+00  0.88000000000E+00 0. -1.
        -11    1    4    4    0    0 -0.17993539193E-01  0.47017126550E-01 -0.47076439764E-01  0.68926264541E-01  0.51100000000E-03 0. -1.
         11    1    4    4    0    0  0.45376796054E-03  0.48992014486E-01 -0.31457991823E-01  0.58226194787E-01  0.51100000000E-03 0.  1.
</event>
<event>
 8    1  0.1129602E+005  0.1043930E+01  0.7957747E-01            NaN
         13   -1    0    0    0    0  0.00000000000E+00  0.00000000000E+00  0.74505805969E-08  0.10566000000E+00  0.10566000000E+00 0. -1.
     999900   -1    0    0    0    0 -0.00000000000E+00 -0.00000000000E+00 -0.74505805969E-08  0.93827000000E+00  0.93827000000E+00 0. -1.
     999902    2    1    2    0    0  0.18652986598E-01  0.20983343088E-02 -0.16754839227E-01  0.10187692855E+01  0.10184585389E+01 0.  0.
     999903    2    3    3    0    0 -0.12587474239E-01  0.11031683281E+00  0.60903097557E-01  0.12819757871E+00  0.19929470309E-01 0.  0.
         14    1    1    2    0    0 -0.18652986598E-01 -0.20983343088E-02  0.16754839227E-01  0.25160714485E-01  0.00000000000E+00 0. -1.
     999901    1    3    3    0    0  0.31240460837E-01 -0.10821849850E+00 -0.77657936784E-01  0.89057170680E+00  0.88000000000E+00 0. -1.
        -11    1    4    4    0    0 -0.87797932219E-03  0.10731966504E-01  0.13525995498E-01  0.17296231611E-01  0.51100000000E-03 0. -1.
         11    1    4    4    0    0 -0.11709494917E-01  0.99584866306E-01  0.47377102059E-01  0.11090134710E+00  0.51100000000E-03 0.  1.
</event>
<event>
 8    1  0.1129602E+005  0.1043930E+01  0.7957747E-01            NaN
         13   -1    0    0    0    0  0.00000000000E+00  0.00000000000E+00  0.74505805969E-08  0.10566000000E+00  0.10566000000E+00 0.  1.
     999900   -1    0    0    0    0 -0.00000000000E+00 -0.00000000000E+00 -0.74505805969E-08  0.93827000000E+00  0.93827000000E+00 0. -1.
     999902    2    1    2    0    0  0.19221006495E-01  0.10566518321E-01 -0.66141016116E-02  0.10210205098E+01  0.10207634578E+01 0.  0.
     999903    2    3    3    0    0 -0.46579912889E-01  0.81167928236E-01  0.88891778912E-01  0.13060729491E+00  0.19964875830E-01 0.  0.
         14    1    1    2    0    0 -0.19221006495E-01 -0.10566518321E-01  0.66141016116E-02  0.22909490178E-01  0.00000000000E+00 0.  1.
     999901    1    3    3    0    0  0.65800919383E-01 -0.70601409914E-01 -0.95505880524E-01  0.89041321491E+00  0.88000000000E+00 0. -1.
        -11    1    4    4    0    0 -0.10322856549E-01  0.26980555454E-01  0.16871308975E-01  0.33457643783E-01  0.51100000000E-03 0.  1.
         11    1    4    4    0    0 -0.36257056339E-01  0.54187372782E-01  0.72020469937E-01  0.97149651128E-01  0.51100000000E-03 0. -1.
</event>
<event>
 8    1  0.1129602E+005  0.1043930E+01  0.7957747E-01            NaN
         13   -1    0    0    0    0  0.00000000000E+00  0.00000000000E+00  0.74505805969E-08  0.10566000000E+00  0.10566000000E+00 0.  1.
     999900   -1    0    0    0    0 -0.00000000000E+00 -0.00000000000E+00 -0.74505805969E-08  0.93827000000E+00  0.93827000000E+00 0.  1.
     999902    2    1    2    0    0 -0.20826594598E-01  0.10272235950E-01 -0.50439372599E-02  0.10201664317E+01  0.10198896221E+01 0.  0.
     999903    2    3    3    0    0 -0.10029971297E+00 -0.60402866870E-01 -0.59167803361E-01  0.13211218812E+00  0.15628901013E-01 0.  0.
         14    1    1    2    0    0  0.20826594598E-01 -0.10272235950E-01  0.50439372599E-02  0.23763568273E-01  0.00000000000E+00 0. -1.
     999901    1    3    3    0    0  0.79473118376E-01  0.70675102820E-01  0.54123866101E-01  0.88805424361E+00  0.88000000000E+00 0. -1.
        -11    1    4    4    0    0 -0.59550946760E-01 -0.36996305042E-01 -0.26840226579E-01  0.75071304308E-01  0.51100000000E-03 0. -1.
         11    1    4    4    0    0 -0.40748766215E-01 -0.23406561828E-01 -0.32327576782E-01  0.57040883814E-01  0.51100000000E-03 0.  1.
</event>
<event>
 8    1  0.1129602E+005  0.1043930E+01  0.7957747E-01            NaN
         13   -1    0    0    0    0  0.00000000000E+00  0.00000000000E+00  0.74505805969E-08  0.10566000000E+00  0.10566000000E+00 0.  1.
     999900   -1    0    0    0    0 -0.00000000000E+00 -0.00000000000E+00 -0.74505805969E-08  0.93827000000E+00  0.93827000000E+00 0.  1.
     999902    2    1    2    0    0  0.14007825673E-01  0.78430057934E-02 -0.17523052949E-01  0.10201647038E+01  0.10198878534E+01 0.  0.
     999903    2    3    3    0    0  0.83872577206E-02  0.12598902123E+00 -0.33271231699E-01  0.13211173414E+00  0.20073760849E-01 0.  0.
         14    1    1    2    0    0 -0.14007825673E-01 -0.78430057934E-02  0.17523052949E-01  0.23765296224E-01  0.00000000000E+00 0.  1.
     999901    1    3    3    0    0  0.56205679521E-02 -0.11814601544E+00  0.15748178750E-01  0.88805296964E+00  0.88000000000E+00 0. -1.
        -11    1    4    4    0    0 -0.44875879267E-04  0.42958852939E-01 -0.20715132956E-02  0.43011828001E-01  0.51100000000E-03 0.  1.
         11    1    4    4    0    0  0.84321335999E-02  0.83030168295E-01 -0.31199718403E-01  0.89099906137E-01  0.51100000000E-03 0. -1.
</event>
<event>
 8    1  0.1129602E+005  0.1043930E+01  0.7957747E-01            NaN
         13   -1    0    0    0    0  0.00000000000E+00  0.00000000000E+00  0.74505805969E-08  0.10566000000E+00  0.10566000000E+00 0.  1.
     999900   -1    0    0    0    0 -0.00000000000E+00 -0.00000000000E+00 -0.74505805969E-08  0.93827000000E+00  0.93827000000E+00 0.  1.
     999902    2    1    2    0    0 -0.11757165485E-01  0.17182941063E-01  0.17540297647E-01  0.10167059951E+01  0.10163414455E+01 0.  0.
     999903    2    3    3    0    0  0.56155885846E-01  0.71255180983E-01  0.90176521297E-01  0.12945630604E+00  0.19908436601E-01 0.  0.
         14    1    1    2    0    0  0.11757165485E-01 -0.17182941063E-01 -0.17540297647E-01  0.27224004947E-01  0.00000000000E+00 0. -1.
     999901    1    3    3    0    0 -0.67913051330E-01 -0.54072239920E-01 -0.72636223650E-01  0.88724968901E+00  0.88000000000E+00 0. -1.
        -11    1    4    4    0    0  0.46334558302E-01  0.46942796726E-01  0.57084497616E-01  0.87231980641E-01  0.51100000000E-03 0.  1.
         11    1    4    4    0    0  0.98213275440E-02  0.24312384257E-01  0.33092023681E-01  0.42224325397E-01  0.51100000000E-03 0. -1.
</event>
<event>
 8    1  0.1129602E+005  0.1043930E+01  0.7957747E-01            NaN
         13   -1    0    0    0    0  0.00000000000E+00  0.00000000000E+00  0.74505805969E-08  0.10566000000E+00  0.10566000000E+00 0. -1.
     999900   -1    0    0    0    0 -0.00000000000E+00 -0.00000000000E+00 -0.74505805969E-08  0.93827000000E+00  0.93827000000E+00 0.  1.
     999902    2    1    2    0    0 -0.69828752640E-02 -0.55167432907E-02  0.21359591377E-01  0.10207907012E+01  0.10205284066E+01 0.  0.
     999903    2    3    3    0    0 -0.58315785297E-01 -0.85711982432E-01 -0.76284519174E-01  0.13028482458E+00  0.20187444196E-01 0.  0.
         14    1    1    2    0    0  0.69828752640E-02  0.55167432907E-02 -0.21359591377E-01  0.23139298764E-01  0.00000000000E+00 0.  1.
     999901    1    3    3    0    0  0.51332910033E-01  0.80195239141E-01  0.97644110551E-01  0.89050587666E+00  0.88000000000E+00 0. -1.
        -11    1    4    4    0    0 -0.15420626550E-01 -0.31511016237E-01 -0.15979405719E-01  0.38553111361E-01  0.51100000000E-03 0.  1.
         11    1    4    4    0    0 -0.42895158746E-01 -0.54200966195E-01 -0.60305113454E-01  0.91731713219E-01  0.51100000000E-03 0. -1.
</event>
<event>
 8    1  0.1129602E+005  0.1043930E+01  0.7957747E-01            NaN
         13   -1    0    0    0    0  0.00000000000E+00  0.00000000000E+00  0.74505805969E-08  0.10566000000E+00  0.10566000000E+00 0.  1.
     999900   -1    0    0    0    0 -0.00000000000E+00 -0.00000000000E+00 -0.74505805969E-08  0.93827000000E+00  0.93827000000E+00 0. -1.
     999902    2    1    2    0    0 -0.56216677256E-02 -0.23082048787E-01  0.17262740597E-02  0.10201105931E+01  0.10198324656E+01 0.  0.
     999903    2    3    3    0    0  0.30532273009E-01 -0.34425355519E-01  0.12133159198E+00  0.13121171800E+00  0.19437976486E-01 0.  0.
         14    1    1    2    0    0  0.56216677256E-02  0.23082048787E-01 -0.17262740597E-02  0.23819406927E-01  0.00000000000E+00 0.  1.
     999901    1    3    3    0    0 -0.36153940734E-01  0.11343306732E-01 -0.11960531792E+00  0.88889887508E+00  0.88000000000E+00 0. -1.
        -11    1    4    4    0    0  0.22944885070E-01 -0.11722330294E-01  0.56485301273E-01  0.62086481292E-01  0.51100000000E-03 0.  1.
         11    1    4    4    0    0  0.75873879385E-02 -0.22703025225E-01  0.64846290706E-01  0.69125236704E-01  0.51100000000E-03 0. -1.
</event>
<event>
 7    1  0.1382747E+005  0.1043930E+01  0.7957747E-01            NaN
         13   -1    0    0    0    0  0.00000000000E+00  0.00000000000E+00  0.74505805969E-08  0.10566000000E+00  0.10566000000E+00 0.  1.
     999900   -1    0    0    0    0 -0.00000000000E+00 -0.00000000000E+00 -0.74505805969E-08  0.93827000000E+00  0.93827000000E+00 0.  1.
     999903    2    1    2    0    0 -0.90516794194E-01 -0.62668804079E-01  0.85542419070E-02  0.11224423275E+00  0.20122715925E-01 0.  0.
         14    1    1    2    0    0  0.38195966300E-01 -0.21677818466E-01 -0.13977030534E-01  0.46089229084E-01  0.00000000000E+00 0.  1.
     999901    1    1    2    0    0  0.52320827894E-01  0.84346622545E-01  0.54227886270E-02  0.88559653816E+00  0.88000000000E+00 0.  1.
        -11    1    3    3    0    0 -0.49665642591E-01 -0.37342376730E-01  0.14502205615E-01  0.63809907087E-01  0.51100000000E-03 0. -1.
         11    1    3    3    0    0 -0.40851151603E-01 -0.25326427349E-01 -0.59479637075E-02  0.48434325668E-01  0.51100000000E-03 0.  1.
</event>
<event>
 7    1  0.1129602E+005  0.1043930E+01  0.7957747E-01            NaN
         13   -1    0    0    0    0  0.00000000000E+00  0.00000000000E+00  0.74505805969E-08  0.10566000000E+00  0.10566000000E+00 0. -1.
     999900   -1    0    0    0    0 -0.00000000000E+00 -0.00000000000E+00 -0.74505805969E-08  0.93827000000E+00  0.93827000000E+00 0.  1.
     999903    2    1    2    0    0  0.14020426209E-01 -0.11124805772E+00 -0.52209860516E-02  0.11400612867E+00  0.19935796460E-01 0.  0.
         14    1    1    2    0    0  0.19802539354E-01 -0.19896488476E-01  0.27482054324E-01  0.39284527851E-01  0.00000000000E+00 0. -1.
     999901    1    1    2    0    0 -0.33822965563E-01  0.13114454620E+00 -0.22261068273E-01  0.89063934348E+00  0.88000000000E+00 0.  1.
        -11    1    3    3    0    0 -0.43105453835E-03 -0.55793070623E-01  0.40837983427E-02  0.55946323092E-01  0.51100000000E-03 0. -1.
         11    1    3    3    0    0  0.14451480747E-01 -0.55454987098E-01 -0.93047843943E-02  0.58059805576E-01  0.51100000000E-03 0.  1.
</event>
<event>
 8    1  0.1129602E+005  0.1043930E+01  0.7957747E-01            NaN
         13   -1    0    0    0    0  0.00000000000E+00  0.00000000000E+00  0.74505805969E-08  0.10566000000E+00  0.10566000000E+00 0. -1.
     999900   -1    0    0    0    0 -0.00000000000E+00 -0.00000000000E+00 -0.74505805969E-08  0.93827000000E+00  0.93827000000E+00 0. -1.
     999902    2    1    2    0    0  0.11855472533E-01  0.97630895061E-02 -0.17431030544E-01  0.10206983197E+01  0.10204339022E+01 0.  0.
     999903    2    3    3    0    0  0.47042602153E-01  0.10120126260E+00  0.66266190968E-01  0.13131409533E+00  0.19936940540E-01 0.  0.
         14    1    1    2    0    0 -0.11855472533E-01 -0.97630895061E-02  0.17431030544E-01  0.23231680342E-01  0.00000000000E+00 0. -1.
     999901    1    3    3    0    0 -0.35187129619E-01 -0.91438173096E-01 -0.83697221512E-01  0.88938422433E+00  0.88000000000E+00 0.  1.
        -11    1    4    4    0    0  0.26881726925E-01  0.35286031007E-01  0.28272575736E-01  0.52605426398E-01  0.51100000000E-03 0.  1.
         11    1    4    4    0    0  0.20160875227E-01  0.65915231594E-01  0.37993615232E-01  0.78708668935E-01  0.51100000000E-03 0. -1.
</event>
<event>
 8    1  0.1129602E+005  0.1043930E+01  0.7957747E-01            NaN
         13   -1    0    0    0    0  0.00000000000E+00  0.00000000000E+00  0.74505805969E-08  0.10566000000E+00  0.10566000000E+00 0.  1.
     999900   -1    0    0    0    0 -0.00000000000E+00 -0.00000000000E+00 -0.74505805969E-08  0.93827000000E+00  0.93827000000E+00 0.  1.
     999902    2    1    2    0    0 -0.19720497554E-01 -0.75623769509E-02  0.10615879029E-01  0.10202913779E+01  0.10200175054E+01 0.  0.
     999903    2    3    3    0    0  0.12337402752E+00 -0.28862867024E-01  0.62123644032E-02  0.12846788360E+00  0.20277768217E-01 0.  0.
         14    1    1    2    0    0  0.19720497554E-01  0.75623769509E-02 -0.10615879029E-01  0.23638622136E-01  0.00000000000E+00 0. -1.
     999901    1    3    3    0    0 -0.14309452508E+00  0.21300490073E-01  0.44035146262E-02  0.89182349427E+00  0.88000000000E+00 0.  1.
        -11    1    4    4    0    0  0.63675775294E-01 -0.23314811879E-01  0.92148462393E-02  0.68435073788E-01  0.51100000000E-03 0. -1.
         11    1    4    4    0    0  0.59698252231E-01 -0.55480551456E-02 -0.30024818361E-02  0.60032809809E-01  0.51100000000E-03 0.  1.
</event>
<event>
 8    1  0.1129602E+005  0.1043930E+01  0.7957747E-01            NaN
         13   -1    0    0    0    0  0.00000000000E+00  0.00000000000E+00  0.74505805969E-08  0.10566000000E+00  0.10566000000E+00 0. -1.
     999900   -1    0    0    0    0 -0.00000000000E+00 -0.00000000000E+00 -0.74505805969E-08  0.93827000000E+00  0.93827000000E+00 0.  1.
     999902    2    1    2    0    0 -0.41933427098E-03  0.23076836220E-01 -0.74466579440E-02  0.10196778058E+01  0.10193893558E+01 0.  0.
     999903    2    3    3    0    0 -0.79329465125E-01 -0.80138196655E-01  0.57363956118E-01  0.12778063261E+00  0.17943578505E-01 0.  0.
         14    1    1    2    0    0  0.41933427098E-03 -0.23076836220E-01  0.74466579440E-02  0.24252194245E-01  0.00000000000E+00 0. -1.
     999901    1    3    3    0    0  0.78910130854E-01  0.10321503288E+00 -0.64810614062E-01  0.89189717314E+00  0.88000000000E+00 0. -1.
        -11    1    4    4    0    0 -0.52762174763E-01 -0.44987090853E-01  0.42243894392E-01  0.81194169516E-01  0.51100000000E-03 0.  1.
         11    1    4    4    0    0 -0.26567290362E-01 -0.35151105803E-01  0.15120061726E-01  0.46586463098E-01  0.51100000000E-03 0. -1.
</event>
<event>
 8    1  0.1129602E+005  0.1043930E+01  0.7957747E-01            NaN
         13   -1    0    0    0    0  0.00000000000E+00  0.00000000000E+00  0.74505805969E-08  0.10566000000E+00  0.10566000000E+00 0. -1.
     999900   -1    0    0    0    0 -0.00000000000E+00 -0.00000000000E+00 -0.74505805969E-08  0.93827000000E+00  0.93827000000E+00 0.  1.
     999902    2    1    2    0    0  0.10958531372E-01  0.15721556073E-01  0.13312786754E-01  0.10205957542E+01  0.10203289697E+01 0.  0.
     999903    2    3    3    0    0  0.11370999995E+00  0.40655525733E-01 -0.49545900955E-01  0.13204030757E+00  0.19925126361E-01 0.  0.
         14    1    1    2    0    0 -0.10958531372E-01 -0.15721556073E-01 -0.13312786754E-01  0.23334245784E-01  0.00000000000E+00 0. -1.
     999901    1    3    3    0    0 -0.10275146858E+00 -0.24933969660E-01  0.62858687709E-01  0.88855544664E+00  0.88000000000E+00 0. -1.
        -11    1    4    4    0    0  0.72429530829E-01  0.17510829745E-01 -0.36321922874E-01  0.82898789476E-01  0.51100000000E-03 0. -1.
         11    1    4    4    0    0  0.41280469124E-01  0.23144695988E-01 -0.13223978081E-01  0.49141518096E-01  0.51100000000E-03 0.  1.
</event>
<event>
 8    1  0.1129602E+005  0.1043930E+01  0.7957747E-01            NaN
         13   -1    0    0    0    0  0.00000000000E+00  0.00000000000E+00  0.74505805969E-08  0.10566000000E+00  0.10566000000E+00 0. -1.
     999900   -1    0    0    0    0 -0.00000000000E+00 -0.00000000000E+00 -0.74505805969E-08  0.93827000000E+00  0.93827000000E+00 0.  1.
     999902    2    1    2    0    0  0.22946061609E-01  0.81849685907E-02 -0.45005337700E-02  0.10191556129E+01  0.10188544513E+01 0.  0.
     999903    2    3    3    0    0 -0.50229515172E-02  0.10925108056E+00 -0.68034827570E-01  0.13065506070E+00  0.21931221600E-01 0.  0.
         14    1    1    2    0    0 -0.22946061609E-01 -0.81849685907E-02  0.45005337700E-02  0.24774387145E-01  0.00000000000E+00 0.  1.
     999901    1    3    3    0    0  0.27969013126E-01 -0.10106611196E+00  0.63534293800E-01  0.88850055215E+00  0.88000000000E+00 0. -1.
        -11    1    4    4    0    0 -0.79716863131E-02  0.44969032900E-01 -0.38991551068E-01  0.60053008903E-01  0.51100000000E-03 0. -1.
         11    1    4    4    0    0  0.29487347959E-02  0.64282047655E-01 -0.29043276503E-01  0.70602051802E-01  0.51100000000E-03 0.  1.
</event>
<event>
 8    1  0.1129602E+005  0.1043930E+01  0.7957747E-01            NaN
         13   -1    0    0    0    0  0.00000000000E+00  0.00000000000E+00  0.74505805969E-08  0.10566000000E+00  0.10566000000E+00 0. -1.
     999900   -1    0    0    0    0 -0.00000000000E+00 -0.00000000000E+00 -0.74505805969E-08  0.93827000000E+00  0.93827000000E+00 0.  1.
     999902    2    1    2    0    0 -0.18666750464E-01 -0.58173321677E-02 -0.82215642227E-02  0.10227195534E+01  0.10224995853E+01 0.  0.
     999903    2    3    3    0    0 -0.15152689872E-01 -0.79891650591E-01 -0.10494627850E+00  0.13431929247E+00  0.20388014012E-01 0.  0.
         14    1    1    2    0    0  0.18666750464E-01  0.58173321677E-02  0.82215642227E-02  0.21210446594E-01  0.00000000000E+00 0. -1.
     999901    1    3    3    0    0 -0.35140605925E-02  0.74074318423E-01  0.96724714277E-01  0.88840026093E+00  0.88000000000E+00 0.  1.
        -11    1    4    4    0    0 -0.76936848998E-02 -0.66806289601E-01 -0.94483873804E-01  0.11597299965E+00  0.51100000000E-03 0.  1.
         11    1    4    4    0    0 -0.74590049722E-02 -0.13085360990E-01 -0.10462404695E-01  0.18346292825E-01  0.51100000000E-03 0. -1.
</event>
<event>
 8    1  0.1129602E+005  0.1043930E+01  0.7957747E-01            NaN
         13   -1    0    0    0    0  0.00000000000E+00  0.00000000000E+00  0.74505805969E-08  0.10566000000E+00  0.10566000000E+00 0.  1.
     999900   -1    0    0    0    0 -0.00000000000E+00 -0.00000000000E+00 -0.74505805969E-08  0.93827000000E+00  0.93827000000E+00 0.  1.
     999902    2    1    2    0    0  0.41500445385E-02 -0.15398182991E-01  0.17219374364E-01  0.10204601521E+01  0.10201902216E+01 0.  0.
     999903    2    3    3    0    0 -0.89838393972E-01 -0.62184414580E-01  0.72106924038E-01  0.13252129090E+00  0.20606930856E-01 0.  0.
         14    1    1    2    0    0 -0.41500445385E-02  0.15398182991E-01 -0.17219374364E-01  0.23469847945E-01  0.00000000000E+00 0.  1.
     999901    1    3    3    0    0  0.93988438511E-01  0.46786231589E-01 -0.54887549674E-01  0.88793886115E+00  0.88000000000E+00 0.  1.
        -11    1    4    4    0    0 -0.46271048909E-01 -0.19691619158E-01  0.34319990137E-01  0.60884256390E-01  0.51100000000E-03 0. -1.
         11    1    4    4    0    0 -0.43567345064E-01 -0.42492795422E-01  0.37786933901E-01  0.71637034510E-01  0.51100000000E-03 0.  1.
</event>
<event>
 8    1  0.1129602E+005  0.1043930E+01  0.7957747E-01            NaN
         13   -1    0    0    0    0  0.00000000000E+00  0.00000000000E+00  0.74505805969E-08  0.10566000000E+00  0.10566000000E+00 0. -1.
     999900   -1    0    0    0    0 -0.00000000000E+00 -0.00000000000E+00 -0.74505805969E-08  0.93827000000E+00  0.93827000000E+00 0.  1.
     999902    2    1    2    0    0 -0.21805704062E-01  0.20625993033E-02  0.85047264420E-02  0.10204337574E+01  0.10201632123E+01 0.  0.
     999903    2    3    3    0    0  0.69702316090E-01  0.60780532012E-01 -0.87197934670E-01  0.12859267696E+00  0.19491301069E-01 0.  0.
         14    1    1    2    0    0  0.21805704062E-01 -0.20625993033E-02 -0.85047264420E-02  0.23496242623E-01  0.00000000000E+00 0.  1.
     999901    1    3    3    0    0 -0.91508020152E-01 -0.58717932709E-01  0.95702661112E-01  0.89184108042E+00  0.88000000000E+00 0.  1.
        -11    1    4    4    0    0  0.53603214118E-01  0.35173494652E-01 -0.55864307299E-01  0.85038586776E-01  0.51100000000E-03 0. -1.
         11    1    4    4    0    0  0.16099101972E-01  0.25607037360E-01 -0.31333627371E-01  0.43554090185E-01  0.51100000000E-03 0.  1.
</event>
<event>
 8    1  0.1236739E+005  0.1043930E+01  0.7957747E-01            NaN
         13   -1    0    0    0    0  0.00000000000E+00  0.00000000000E+00  0.74505805969E-08  0.10566000000E+00  0.10566000000E+00 0. -1.
     999900   -1    0    0    0    0 -0.00000000000E+00 -0.00000000000E+00 -0.74505805969E-08  0.93827000000E+00  0.93827000000E+00 0.  1.
     999902    2    1    2    0    0 -0.21959119779E-01  0.80106018333E-02 -0.30101873991E-02  0.10203623546E+01  0.10200901434E+01 0.  0.
     999903    2    3    3    0    0 -0.93096155188E-01 -0.80798448890E-01  0.42217674472E-01  0.13188439491E+00  0.20393090250E-01 0.  0.
         14    1    1    2    0    0  0.21959119779E-01 -0.80106018333E-02  0.30101873991E-02  0.23567645436E-01  0.00000000000E+00 0. -1.
     999901    1    3    3    0    0  0.71137035409E-01  0.88809050723E-01 -0.45227861871E-01  0.88847795965E+00  0.88000000000E+00 0.  1.
        -11    1    4    4    0    0 -0.59814919797E-01 -0.39023328709E-01  0.21411460883E-01  0.74561093017E-01  0.51100000000E-03 0. -1.
         11    1    4    4    0    0 -0.33281235392E-01 -0.41775120181E-01  0.20806213589E-01  0.57323301896E-01  0.51100000000E-03 0.  1.
</event>
<event>
 8    1  0.1129602E+005  0.1043930E+01  0.7957747E-01            NaN
         13   -1    0    0    0    0  0.00000000000E+00  0.00000000000E+00  0.74505805969E-08  0.10566000000E+00  0.10566000000E+00 0. -1.
     999900   -1    0    0    0    0 -0.00000000000E+00 -0.00000000000E+00 -0.74505805969E-08  0.93827000000E+00  0.93827000000E+00 0. -1.
     999902    2    1    2    0    0 -0.25550535255E-02  0.13386915369E-01  0.17931073469E-01  0.10214075402E+01  0.10211591952E+01 0.  0.
     999903    2    3    3    0    0 -0.96942019489E-01  0.73251728569E-01 -0.47463671175E-01  0.13193063330E+00  0.19731219953E-01 0.  0.
         14    1    1    2    0    0  0.25550535255E-02 -0.13386915369E-01 -0.17931073469E-01  0.22522459843E-01  0.00000000000E+00 0.  1.
     999901    1    3    3    0    0  0.94386965963E-01 -0.59864813200E-01  0.65394744645E-01  0.88947690686E+00  0.88000000000E+00 0. -1.
        -11    1    4    4    0    0 -0.49757132491E-01  0.36550348404E-01 -0.34625029634E-01  0.70787385885E-01  0.51100000000E-03 0.  1.
         11    1    4    4    0    0 -0.47184886998E-01  0.36701380165E-01 -0.12838641541E-01  0.61143247416E-01  0.51100000000E-03 0. -1.
</event>
<event>
 8    1  0.1129602E+005  0.1043930E+01  0.7957747E-01            NaN
         13   -1    0    0    0    0  0.00000000000E+00  0.00000000000E+00  0.74505805969E-08  0.10566000000E+00  0.10566000000E+00 0.  1.
     999900   -1    0    0    0    0 -0.00000000000E+00 -0.00000000000E+00 -0.74505805969E-08  0.93827000000E+00  0.93827000000E+00 0. -1.
     999902    2    1    2    0    0  0.15280164675E-01 -0.20115102258E-01  0.18119807280E-02  0.10186044389E+01  0.10182895555E+01 0.  0.
     999903    2    3    3    0    0  0.10024272611E-01  0.65833994821E-01  0.10763353101E+00  0.12809162472E+00  0.19694832102E-01 0.  0.
         14    1    1    2    0    0 -0.15280164675E-01  0.20115102258E-01 -0.18119807280E-02  0.25325561110E-01  0.00000000000E+00 0.  1.
     999901    1    3    3    0    0  0.52558920644E-02 -0.85949097079E-01 -0.10582155028E+00  0.89051281417E+00  0.88000000000E+00 0. -1.
        -11    1    4    4    0    0  0.10775778024E-01  0.55169217566E-01  0.74872529968E-01  0.93626475015E-01  0.51100000000E-03 0. -1.
         11    1    4    4    0    0 -0.75150541291E-03  0.10664777255E-01  0.32761001041E-01  0.34465149709E-01  0.51100000000E-03 0.  1.
</event>
<event>
 8    1  0.1129602E+005  0.1043930E+01  0.7957747E-01            NaN
         13   -1    0    0    0    0  0.00000000000E+00  0.00000000000E+00  0.74505805969E-08  0.10566000000E+00  0.10566000000E+00 0. -1.
     999900   -1    0    0    0    0 -0.00000000000E+00 -0.00000000000E+00 -0.74505805969E-08  0.93827000000E+00  0.93827000000E+00 0.  1.
     999902    2    1    2    0    0 -0.20161396313E-01 -0.17578548437E-01 -0.29838005045E-02  0.10170154996E+01  0.10166593019E+01 0.  0.
     999903    2    3    3    0    0 -0.59226531325E-01  0.10701683838E+00 -0.26524000880E-01  0.12706930110E+00  0.21970410741E-01 0.  0.
         14    1    1    2    0    0  0.20161396313E-01  0.17578548437E-01  0.29838005045E-02  0.26914500402E-01  0.00000000000E+00 0.  1.
     999901    1    3    3    0    0  0.39065135012E-01 -0.12459538682E+00  0.23540200375E-01  0.88994619850E+00  0.88000000000E+00 0. -1.
        -11    1    4    4    0    0 -0.34312375698E-01  0.58061199743E-01 -0.35851541214E-02  0.67539295915E-01  0.51100000000E-03 0. -1.
         11    1    4    4    0    0 -0.24914155628E-01  0.48955638642E-01 -0.22938846759E-01  0.59530005183E-01  0.51100000000E-03 0.  1.
</event>
<event>
 8    1  0.1129602E+005  0.1043930E+01  0.7957747E-01            NaN
         13   -1    0    0    0    0  0.00000000000E+00  0.00000000000E+00  0.74505805969E-08  0.10566000000E+00  0.10566000000E+00 0.  1.
     999900   -1    0    0    0    0 -0.00000000000E+00 -0.00000000000E+00 -0.74505805969E-08  0.93827000000E+00  0.93827000000E+00 0.  1.
     999902    2    1    2    0    0 -0.11480123165E-01 -0.21659499211E-01 -0.11884257769E-01  0.10166873365E+01  0.10163222803E+01 0.  0.
     999903    2    3    3    0    0 -0.42980318988E-01  0.11494477691E+00 -0.16209176796E-01  0.12558033081E+00  0.21167723459E-01 0.  0.
         14    1    1    2    0    0  0.11480123165E-01  0.21659499211E-01  0.11884257769E-01  0.27242663538E-01  0.00000000000E+00 0.  1.
     999901    1    3    3    0    0  0.31500195824E-01 -0.13660427612E+00  0.43249190277E-02  0.89110700565E+00  0.88000000000E+00 0. -1.
        -11    1    4    4    0    0 -0.29242225257E-01  0.74513047239E-01 -0.41545366959E-03  0.80048333334E-01  0.51100000000E-03 0.  1.
         11    1    4    4    0    0 -0.13738093732E-01  0.40431729667E-01 -0.15793723127E-01  0.45531997480E-01  0.51100000000E-03 0. -1.
</event>
<event>
 8    1  0.1129602E+005  0.1043930E+01  0.7957747E-01            NaN
         13   -1    0    0    0    0  0.00000000000E+00  0.00000000000E+00  0.74505805969E-08  0.10566000000E+00  0.10566000000E+00 0.  1.
     999900   -1    0    0    0    0 -0.00000000000E+00 -0.00000000000E+00 -0.74505805969E-08  0.93827000000E+00  0.93827000000E+00 0. -1.
     999902    2    1    2    0    0  0.11480293700E-01 -0.62130751802E-03  0.20889408356E-01  0.10200857020E+01  0.10198069861E+01 0.  0.
     999903    2    3    3    0    0 -0.41439291857E-01 -0.11716587791E+00  0.35360209963E-01  0.13070809741E+00  0.19728264547E-01 0.  0.
         14    1    1    2    0    0 -0.11480293700E-01  0.62130751802E-03 -0.20889408356E-01  0.23844298017E-01  0.00000000000E+00 0. -1.
     999901    1    3    3    0    0  0.52919585557E-01  0.11654457040E+00 -0.14470801607E-01  0.88937760458E+00  0.88000000000E+00 0.  1.
        -11    1    4    4    0    0 -0.23031280167E-01 -0.46943983724E-01  0.69546722804E-02  0.52752308590E-01  0.51100000000E-03 0. -1.
         11    1    4    4    0    0 -0.18408011689E-01 -0.70221894189E-01  0.28405537682E-01  0.77955788816E-01  0.51100000000E-03 0.  1.
</event>
<event>
 8    1  0.1129602E+005  0.1043930E+01  0.7957747E-01            NaN
         13   -1    0    0    0    0  0.00000000000E+00  0.00000000000E+00  0.74505805969E-08  0.10566000000E+00  0.10566000000E+00 0. -1.
     999900   -1    0    0    0    0 -0.00000000000E+00 -0.00000000000E+00 -0.74505805969E-08  0.93827000000E+00  0.93827000000E+00 0. -1.
     999902    2    1    2    0    0  0.83690276160E-02 -0.17572444623E-01  0.12476051023E-01  0.10208111055E+01  0.10205492785E+01 0.  0.
     999903    2    3    3    0    0  0.14124240910E-01 -0.45136885550E-01 -0.11995916771E+00  0.13045611561E+00  0.19793018029E-01 0.  0.
         14    1    1    2    0    0 -0.83690276160E-02  0.17572444623E-01 -0.12476051023E-01  0.23118894489E-01  0.00000000000E+00 0. -1.
     999901    1    3    3    0    0 -0.57552132941E-02  0.27564440927E-01  0.13243521874E+00  0.89035498990E+00  0.88000000000E+00 0. -1.
        -11    1    4    4    0    0  0.10447027630E-01 -0.13031227271E-01 -0.24349389404E-01  0.29531460442E-01  0.51100000000E-03 0.  1.
         11    1    4    4    0    0  0.36772132796E-02 -0.32105658278E-01 -0.95609778309E-01  0.10092465517E+00  0.51100000000E-03 0. -1.
</event>
<event>
 8    1  0.1129602E+005  0.1043930E+01  0.7957747E-01            NaN
         13   -1    0    0    0    0  0.00000000000E+00  0.00000000000E+00  0.74505805969E-08  0.10566000000E+00  0.10566000000E+00 0. -1.
     999900   -1    0    0    0    0 -0.00000000000E+00 -0.00000000000E+00 -0.74505805969E-08  0.93827000000E+00  0.93827000000E+00 0. -1.
     999902    2    1    2    0    0 -0.15943289949E-01  0.15866422814E-01  0.82306789564E-02  0.10199784668E+01  0.10196972084E+01 0.  0.
     999903    2    3    3    0    0 -0.94808100877E-01  0.32901359122E-01  0.84915448314E-01  0.13296640299E+00  0.19958846131E-01 0.  0.
         14    1    1    2    0    0  0.15943289949E-01 -0.15866422814E-01 -0.82306789564E-02  0.23951533216E-01  0.00000000000E+00 0. -1.
     999901    1    3    3    0    0  0.78864810928E-01 -0.17034936308E-01 -0.76684769357E-01  0.88701206379E+00  0.88000000000E+00 0. -1.
        -11    1    4    4    0    0 -0.44889814846E-01  0.11293896260E-01  0.50938520751E-01  0.68830528016E-01  0.51100000000E-03 0. -1.
         11    1    4    4    0    0 -0.49918286032E-01  0.21607462862E-01  0.33976927563E-01  0.64135874979E-01  0.51100000000E-03 0.  1.
</event>
<event>
 8    1  0.1129602E+005  0.1043930E+01  0.7957747E-01            NaN
         13   -1    0    0    0    0  0.00000000000E+00  0.00000000000E+00  0.74505805969E-08  0.10566000000E+00  0.10566000000E+00 0. -1.
     999900   -1    0    0    0    0 -0.00000000000E+00 -0.00000000000E+00 -0.74505805969E-08  0.93827000000E+00  0.93827000000E+00 0.  1.
     999902    2    1    2    0    0  0.12497313235E-01 -0.21628760833E-01 -0.17391480631E-01  0.10134923632E+01  0.10130352021E+01 0.  0.
     999903    2    3    3    0    0 -0.55926216444E-01  0.10105519892E+00 -0.33812538611E-01  0.12219960295E+00  0.21202836603E-01 0.  0.
         14    1    1    2    0    0 -0.12497313235E-01  0.21628760833E-01  0.17391480631E-01  0.30437636765E-01  0.00000000000E+00 0. -1.
     999901    1    3    3    0    0  0.68423529679E-01 -0.12268395975E+00  0.16421057979E-01  0.89129276029E+00  0.88000000000E+00 0.  1.
        -11    1    4    4    0    0 -0.97930986751E-02  0.30766690207E-01 -0.16867527499E-01  0.36431697914E-01  0.51100000000E-03 0.  1.
         11    1    4    4    0    0 -0.46133117769E-01  0.70288508708E-01 -0.16945011112E-01  0.85767905035E-01  0.51100000000E-03 0. -1.
</event>
<event>
 8    1  0.1129602E+005  0.1043930E+01  0.7957747E-01            NaN
         13   -1    0    0    0    0  0.00000000000E+00  0.00000000000E+00  0.74505805969E-08  0.10566000000E+00  0.10566000000E+00 0. -1.
     999900   -1    0    0    0    0 -0.00000000000E+00 -0.00000000000E+00 -0.74505805969E-08  0.93827000000E+00  0.93827000000E+00 0. -1.
     999902    2    1    2    0    0  0.14265617521E-01 -0.19563447752E-01 -0.22470847467E-02  0.10196136327E+01  0.10193236356E+01 0.  0.
     999903    2    3    3    0    0  0.89000073363E-01  0.71701421830E-02 -0.94026472014E-01  0.13128746527E+00  0.20566893326E-01 0.  0.
         14    1    1    2    0    0 -0.14265617521E-01  0.19563447752E-01  0.22470847467E-02  0.24316367349E-01  0.00000000000E+00 0. -1.
     999901    1    3    3    0    0 -0.74734455842E-01 -0.26733589935E-01  0.91779387267E-01  0.88832616738E+00  0.88000000000E+00 0. -1.
        -11    1    4    4    0    0  0.41368574627E-01  0.77543246549E-02 -0.30964212950E-01  0.52254493798E-01  0.51100000000E-03 0.  1.
         11    1    4    4    0    0  0.47631498736E-01 -0.58418247197E-03 -0.63062259063E-01  0.79032971475E-01  0.51100000000E-03 0. -1.
</event>
<event>
 8    1  0.1129602E+005  0.1043930E+01  0.7957747E-01            NaN
         13   -1    0    0    0    0  0.00000000000E+00  0.00000000000E+00  0.74505805969E-08  0.10566000000E+00  0.10566000000E+00 0. -1.
     999900   -1    0    0    0    0 -0.00000000000E+00 -0.00000000000E+00 -0.74505805969E-08  0.93827000000E+00  0.93827000000E+00 0. -1.
     999902    2    1    2    0    0  0.11657123576E-01 -0.16863491213E-01  0.11092850284E-01  0.10206208346E+01  0.10203546299E+01 0.  0.
     999903    2    3    3    0    0  0.10344369797E+00 -0.47588286478E-01  0.66867831514E-01  0.13355847102E+00  0.20032838774E-01 0.  0.
         14    1    1    2    0    0 -0.11657123576E-01  0.16863491213E-01 -0.11092850284E-01  0.23309165437E-01  0.00000000000E+00 0. -1.
     999901    1    3    3    0    0 -0.91786574398E-01  0.30724795265E-01 -0.55774981230E-01  0.88706236354E+00  0.88000000000E+00 0.  1.
        -11    1    4    4    0    0  0.39399186397E-01 -0.28497957611E-01  0.31586237689E-01  0.57986041502E-01  0.51100000000E-03 0. -1.
         11    1    4    4    0    0  0.64044511577E-01 -0.19090328867E-01  0.35281593825E-01  0.75572429518E-01  0.51100000000E-03 0.  1.
</event>
<event>
 8    1  0.1129602E+005  0.1043930E+01  0.7957747E-01            NaN
         13   -1    0    0    0    0  0.00000000000E+00  0.00000000000E+00  0.74505805969E-08  0.10566000000E+00  0.10566000000E+00 0.  1.
     999900   -1    0    0    0    0 -0.00000000000E+00 -0.00000000000E+00 -0.74505805969E-08  0.93827000000E+00  0.93827000000E+00 0. -1.
     999902    2    1    2    0    0  0.29927103801E-02  0.45887913258E-02  0.21924131456E-01  0.10213317509E+01  0.10210817130E+01 0.  0.
     999903    2    3    3    0    0 -0.75786225155E-01  0.48559589452E-01  0.96791943712E-01  0.13355658733E+00  0.19159749526E-01 0.  0.
         14    1    1    2    0    0 -0.29927103801E-02 -0.45887913258E-02 -0.21924131456E-01  0.22598249077E-01  0.00000000000E+00 0. -1.
     999901    1    3    3    0    0  0.78778935535E-01 -0.43970798126E-01 -0.74867812256E-01  0.88777516359E+00  0.88000000000E+00 0. -1.
        -11    1    4    4    0    0 -0.38790595446E-01  0.19066321130E-01  0.34349584113E-01  0.55212226420E-01  0.51100000000E-03 0.  1.
         11    1    4    4    0    0 -0.36995629710E-01  0.29493268322E-01  0.62442359599E-01  0.78344360915E-01  0.51100000000E-03 0. -1.
</event>
<event>
 8    1  0.1129602E+005  0.1043930E+01  0.7957747E-01            NaN
         13   -1    0    0    0    0  0.00000000000E+00  0.00000000000E+00  0.74505805969E-08  0.10566000000E+00  0.10566000000E+00 0.  1.
     999900   -1    0    0    0    0 -0.00000000000E+00 -0.00000000000E+00 -0.74505805969E-08  0.93827000000E+00  0.93827000000E+00 0. -1.
     999902    2    1    2    0    0 -0.19567145992E-01  0.64148528056E-02  0.11323100448E-01  0.10204302948E+01  0.10201596691E+01 0.  0.
     999903    2    3    3    0    0 -0.62738027624E-01  0.98839517129E-01  0.59134763674E-01  0.13324823983E+00  0.23513036515E-01 0.  0.
         14    1    1    2    0    0  0.19567145992E-01 -0.64148528056E-02 -0.11323100448E-01  0.23499705159E-01  0.00000000000E+00 0. -1.
     999901    1    3    3    0    0  0.43170881632E-01 -0.92424664324E-01 -0.47811663226E-01  0.88718205501E+00  0.88000000000E+00 0.  1.
        -11    1    4    4    0    0 -0.37009369536E-01  0.71872291890E-01  0.31148210333E-01  0.86635973492E-01  0.51100000000E-03 0. -1.
         11    1    4    4    0    0 -0.25728658088E-01  0.26967225239E-01  0.27986553341E-01  0.46612266336E-01  0.51100000000E-03 0.  1.
</event>
<event>
 8    1  0.1129602E+005  0.1043930E+01  0.7957747E-01            NaN
         13   -1    0    0    0    0  0.00000000000E+00  0.00000000000E+00  0.74505805969E-08  0.10566000000E+00  0.10566000000E+00 0.  1.
     999900   -1    0    0    0    0 -0.00000000000E+00 -0.00000000000E+00 -0.74505805969E-08  0.93827000000E+00  0.93827000000E+00 0.  1.
     999902    2    1    2    0    0 -0.95767734539E-02  0.51153224561E-02  0.21342813765E-01  0.10199842945E+01  0.10197031745E+01 0.  0.
     999903    2    3    3    0    0  0.29581940318E-01 -0.69739025491E-02  0.12738555210E+00  0.13267114988E+00  0.21232725139E-01 0.  0.
         14    1    1    2    0    0  0.95767734539E-02 -0.51153224561E-02 -0.21342813765E-01  0.23945705524E-01  0.00000000000E+00 0. -1.
     999901    1    3    3    0    0 -0.39158713772E-01  0.12089225005E-01 -0.10604273833E+00  0.88731314460E+00  0.88000000000E+00 0.  1.
        -11    1    4    4    0    0  0.14935597199E-01 -0.41166255539E-02  0.10238110309E+00  0.10354791191E+00  0.51100000000E-03 0. -1.
         11    1    4    4    0    0  0.14646343120E-01 -0.28572769952E-02  0.25004449004E-01  0.29123237965E-01  0.51100000000E-03 0.  1.
</event>
<event>
 8    1  0.1129602E+005  0.1043930E+01  0.7957747E-01            NaN
         13   -1    0    0    0    0  0.00000000000E+00  0.00000000000E+00  0.74505805969E-08  0.10566000000E+00  0.10566000000E+00 0. -1.
     999900   -1    0    0    0    0 -0.00000000000E+00 -0.00000000000E+00 -0.74505805969E-08  0.93827000000E+00  0.93827000000E+00 0. -1.
     999902    2    1    2    0    0 -0.49381948843E-02 -0.26993252795E-02  0.24212329085E-01  0.10190722244E+01  0.10187690070E+01 0.  0.
     999903    2    3    3    0    0 -0.99547784641E-01 -0.62138384948E-01  0.55781322591E-01  0.13144585168E+00  0.19887575566E-01 0.  0.
         14    1    1    2    0    0  0.49381948843E-02  0.26993252795E-02 -0.24212329085E-01  0.24857775553E-01  0.00000000000E+00 0.  1.
     999901    1    3    3    0    0  0.94609589757E-01  0.59439059669E-01 -0.31568993505E-01  0.88762637277E+00  0.88000000000E+00 0.  1.
        -11    1    4    4    0    0 -0.52981853194E-01 -0.39784597993E-01  0.40162785293E-01  0.77480329432E-01  0.51100000000E-03 0.  1.
         11    1    4    4    0    0 -0.46565931447E-01 -0.22353786955E-01  0.15618537298E-01  0.53965522244E-01  0.51100000000E-03 0. -1.
</event>
<event>
 8    1  0.1129602E+005  0.1043930E+01  0.7957747E-01            NaN
         13   -1    0    0    0    0  0.00000000000E+00  0.00000000000E+00  0.74505805969E-08  0.10566000000E+00  0.10566000000E+00 0. -1.
     999900   -1    0    0    0    0 -0.00000000000E+00 -0.00000000000E+00 -0.74505805969E-08  0.93827000000E+00  0.93827000000E+00 0.  1.
     999902    2    1    2    0    0 -0.16422040908E-01  0.10657548047E-02 -0.17109407938E-01  0.10201907687E+01  0.10199145325E+01 0.  0.
     999903    2    3    3    0    0  0.11756186857E-01 -0.10162130335E+00 -0.80089012803E-01  0.13153725073E+00  0.20559696864E-01 0.  0.
         14    1    1    2    0    0  0.16422040908E-01 -0.10657548047E-02  0.17109407938E-01  0.23739231261E-01  0.00000000000E+00 0. -1.
     999901    1    3    3    0    0 -0.28178227765E-01  0.10268705815E+00  0.62979604866E-01  0.88865351800E+00  0.88000000000E+00 0. -1.
        -11    1    4    4    0    0  0.90943306181E-02 -0.35586892919E-01 -0.39677578897E-01  0.54071297239E-01  0.51100000000E-03 0.  1.
         11    1    4    4    0    0  0.26618562385E-02 -0.66034410431E-01 -0.40411433906E-01  0.77465953495E-01  0.51100000000E-03 0. -1.
</event>
<event>
 8    1  0.1129602E+005  0.1043930E+01  0.7957747E-01            NaN
         13   -1    0    0    0    0  0.00000000000E+00  0.00000000000E+00  0.74505805969E-08  0.10566000000E+00  0.10566000000E+00 0. -1.
     999900   -1    0    0    0    0 -0.00000000000E+00 -0.00000000000E+00 -0.74505805969E-08  0.93827000000E+00  0.93827000000E+00 0.  1.
     999902    2    1    2    0    0 -0.19212232514E-01  0.59030194612E-02 -0.11811187756E-01  0.10206177785E+01  0.10203515032E+01 0.  0.
     999903    2    3    3    0    0  0.66412528923E-01 -0.99885802620E-01 -0.44966158035E-01  0.12953858630E+00  0.19248179362E-01 0.  0.
         14    1    1    2    0    0  0.19212232514E-01 -0.59030194612E-02  0.11811187756E-01  0.23312221540E-01  0.00000000000E+00 0.  1.
     999901    1    3    3    0    0 -0.85624761437E-01  0.10578882208E+00  0.33154970278E-01  0.89107919216E+00  0.88000000000E+00 0.  1.
        -11    1    4    4    0    0  0.12317774899E-01 -0.20351114411E-01 -0.17401264301E-01  0.29478136924E-01  0.51100000000E-03 0.  1.
         11    1    4    4    0    0  0.54094754024E-01 -0.79534688209E-01 -0.27564893734E-01  0.10006044937E+00  0.51100000000E-03 0. -1.
</event>
<event>
 8    1  0.1129602E+005  0.1043930E+01  0.7957747E-01            NaN
         13   -1    0    0    0    0  0.00000000000E+00  0.00000000000E+00  0.74505805969E-08  0.10566000000E+00  0.10566000000E+00 0.  1.
     999900   -1    0    0    0    0 -0.00000000000E+00 -0.00000000000E+00 -0.74505805969E-08  0.93827000000E+00  0.93827000000E+00 0.  1.
     999902    2    1    2    0    0  0.87240165635E-03  0.15407549381E-01  0.63932377876E-02  0.10272258942E+01  0.10270900693E+01 0.  0.
     999903    2    3    3    0    0  0.39863271380E-01  0.12995207767E+00 -0.17462708445E-01  0.13862595996E+00  0.20870737728E-01 0.  0.
         14    1    1    2    0    0 -0.87240165635E-03 -0.15407549381E-01 -0.63932377876E-02  0.16704105842E-01  0.00000000000E+00 0. -1.
     999901    1    3    3    0    0 -0.38990869724E-01 -0.11454452829E+00  0.23855946232E-01  0.88859993420E+00  0.88000000000E+00 0. -1.
        -11    1    4    4    0    0  0.30267274388E-01  0.88626651659E-01 -0.26660782621E-02  0.93691837305E-01  0.51100000000E-03 0.  1.
         11    1    4    4    0    0  0.95959969917E-02  0.41325426011E-01 -0.14796630182E-01  0.44934122657E-01  0.51100000000E-03 0. -1.
</event>
<event>
 8    1  0.1129602E+005  0.1043930E+01  0.7957747E-01            NaN
         13   -1    0    0    0    0  0.00000000000E+00  0.00000000000E+00  0.74505805969E-08  0.10566000000E+00  0.10566000000E+00 0.  1.
     999900   -1    0    0    0    0 -0.00000000000E+00 -0.00000000000E+00 -0.74505805969E-08  0.93827000000E+00  0.93827000000E+00 0.  1.
     999902    2    1    2    0    0 -0.17329261235E-01  0.12838661093E-01  0.67864740120E-02  0.10213204723E+01  0.10210701819E+01 0.  0.
     999903    2    3    3    0    0  0.10069551596E+00 -0.24535344687E-01 -0.74059215055E-01  0.12898494696E+00  0.20267686944E-01 0.  0.
         14    1    1    2    0    0  0.17329261235E-01 -0.12838661093E-01 -0.67864740120E-02  0.22609527707E-01  0.00000000000E+00 0. -1.
     999901    1    3    3    0    0 -0.11802477719E+00  0.37374005780E-01  0.80845689067E-01  0.89233552534E+00  0.88000000000E+00 0. -1.
        -11    1    4    4    0    0  0.70770957536E-01 -0.26339236620E-01 -0.50369380252E-01  0.90772349337E-01  0.51100000000E-03 0.  1.
         11    1    4    4    0    0  0.29924558420E-01  0.18038919330E-02 -0.23689834803E-01  0.38212597618E-01  0.51100000000E-03 0. -1.
</event>
<event>
 8    1  0.1129602E+005  0.1043930E+01  0.7957747E-01            NaN
         13   -1    0    0    0    0  0.00000000000E+00  0.00000000000E+00  0.74505805969E-08  0.10566000000E+00  0.10566000000E+00 0.  1.
     999900   -1    0    0    0    0 -0.00000000000E+00 -0.00000000000E+00 -0.74505805969E-08  0.93827000000E+00  0.93827000000E+00 0.  1.
     999902    2    1    2    0    0 -0.46731745650E-02  0.51947861395E-02  0.22185729411E-01  0.10206699279E+01  0.10204048563E+01 0.  0.
     999903    2    3    3    0    0  0.10715015651E+00  0.38732770014E-01 -0.58383458322E-01  0.12931105084E+00  0.18202641307E-01 0.  0.
         14    1    1    2    0    0  0.46731745650E-02 -0.51947861395E-02 -0.22185729411E-01  0.23260072078E-01  0.00000000000E+00 0. -1.
     999901    1    3    3    0    0 -0.11182333108E+00 -0.33537983874E-01  0.80569187733E-01  0.89135887708E+00  0.88000000000E+00 0. -1.
        -11    1    4    4    0    0  0.52984316976E-01  0.21931776679E-01 -0.19596268008E-01  0.60602108169E-01  0.51100000000E-03 0.  1.
         11    1    4    4    0    0  0.54165839538E-01  0.16800993335E-01 -0.38787190314E-01  0.68708942674E-01  0.51100000000E-03 0. -1.
</event>
<event>
 8    1  0.1129602E+005  0.1043930E+01  0.7957747E-01            NaN
         13   -1    0    0    0    0  0.00000000000E+00  0.00000000000E+00  0.74505805969E-08  0.10566000000E+00  0.10566000000E+00 0.  1.
     999900   -1    0    0    0    0 -0.00000000000E+00 -0.00000000000E+00 -0.74505805969E-08  0.93827000000E+00  0.93827000000E+00 0.  1.
     999902    2    1    2    0    0  0.19950298565E-01 -0.10307030662E-01 -0.74344285352E-02  0.10202758244E+01  0.10200015872E+01 0.  0.
     999903    2    3    3    0    0  0.24964824370E-01  0.42192136222E-01 -0.12035752769E+00  0.13149411090E+00  0.20033669519E-01 0.  0.
         14    1    1    2    0    0 -0.19950298565E-01  0.10307030662E-01  0.74344285352E-02  0.23654175563E-01  0.00000000000E+00 0.  1.
     999901    1    3    3    0    0 -0.50145258052E-02 -0.52499166884E-01  0.11292309916E+00  0.88878171354E+00  0.88000000000E+00 0. -1.
        -11    1    4    4    0    0  0.20299893765E-01  0.17333142187E-01 -0.49257903157E-01  0.56027900633E-01  0.51100000000E-03 0.  1.
         11    1    4    4    0    0  0.46649306054E-02  0.24858994035E-01 -0.71099624537E-01  0.75466210268E-01  0.51100000000E-03 0. -1.
</event>
<event>
 7    1  0.1129602E+005  0.1043930E+01  0.7957747E-01            NaN
         13   -1    0    0    0    0  0.00000000000E+00  0.00000000000E+00  0.74505805969E-08  0.10566000000E+00  0.10566000000E+00 0. -1.
     999900   -1    0    0    0    0 -0.00000000000E+00 -0.00000000000E+00 -0.74505805969E-08  0.93827000000E+00  0.93827000000E+00 0.  1.
     999903    2    1    2    0    0 -0.98898712466E-01  0.39088028556E-01 -0.40366356931E-01  0.11572354111E+00  0.21299434087E-01 0.  0.
         14    1    1    2    0    0  0.12793814669E-01 -0.40262112752E-01 -0.65918891346E-02  0.42757132965E-01  0.00000000000E+00 0. -1.
     999901    1    1    2    0    0  0.86104897797E-01  0.11740841967E-02  0.46958246065E-01  0.88544932592E+00  0.88000000000E+00 0. -1.
        -11    1    3    3    0    0 -0.29709520081E-01  0.18441287339E-01 -0.21652975448E-01  0.41132093661E-01  0.51100000000E-03 0.  1.
         11    1    3    3    0    0 -0.69189192385E-01  0.20646741217E-01 -0.18713381482E-01  0.74591447454E-01  0.51100000000E-03 0. -1.
</event>
<event>
 8    1  0.1129602E+005  0.1043930E+01  0.7957747E-01            NaN
         13   -1    0    0    0    0  0.00000000000E+00  0.00000000000E+00  0.74505805969E-08  0.10566000000E+00  0.10566000000E+00 0. -1.
     999900   -1    0    0    0    0 -0.00000000000E+00 -0.00000000000E+00 -0.74505805969E-08  0.93827000000E+00  0.93827000000E+00 0.  1.
     999902    2    1    2    0    0 -0.34479337961E-02 -0.22976148598E-01  0.66160684125E-02  0.10197729304E+01  0.10194867657E+01 0.  0.
     999903    2    3    3    0    0 -0.12636465090E+00 -0.27289100799E-01  0.10383142595E-01  0.13121155840E+00  0.19898326265E-01 0.  0.
         14    1    1    2    0    0  0.34479337961E-02  0.22976148598E-01 -0.66160684125E-02  0.24157069630E-01  0.00000000000E+00 0.  1.
     999901    1    3    3    0    0  0.12291671711E+00  0.43129522010E-02 -0.37670741822E-02  0.88856137197E+00  0.88000000000E+00 0.  1.
        -11    1    4    4    0    0 -0.33285307948E-01  0.59590757543E-03 -0.14480223860E-02  0.33326036681E-01  0.51100000000E-03 0. -1.
         11    1    4    4    0    0 -0.93079342956E-01 -0.27885008375E-01  0.11831164981E-01  0.97885521723E-01  0.51100000000E-03 0.  1.
</event>
<event>
 8    1  0.1129602E+005  0.1043930E+01  0.7957747E-01            NaN
         13   -1    0    0    0    0  0.00000000000E+00  0.00000000000E+00  0.74505805969E-08  0.10566000000E+00  0.10566000000E+00 0. -1.
     999900   -1    0    0    0    0 -0.00000000000E+00 -0.00000000000E+00 -0.74505805969E-08  0.93827000000E+00  0.93827000000E+00 0. -1.
     999902    2    1    2    0    0  0.19749203242E-01 -0.14485642729E-01 -0.93758161760E-02  0.10177046153E+01  0.10173666562E+01 0.  0.
     999903    2    3    3    0    0 -0.25748812310E-01 -0.50140938818E-01  0.11263693784E+00  0.12740776497E+00  0.19197492736E-01 0.  0.
         14    1    1    2    0    0 -0.19749203242E-01  0.14485642729E-01  0.93758161760E-02  0.26225384705E-01  0.00000000000E+00 0.  1.
     999901    1    3    3    0    0  0.45498015552E-01  0.35655296089E-01 -0.12201275402E+00  0.89029685033E+00  0.88000000000E+00 0. -1.
        -11    1    4    4    0    0 -0.21211925533E-01 -0.32135578109E-01  0.91473983862E-01  0.99249141104E-01  0.51100000000E-03 0.  1.
         11    1    4    4    0    0 -0.45368867771E-02 -0.18005360709E-01  0.21162953978E-01  0.28158623865E-01  0.51100000000E-03 0. -1.
</event>
<event>
 8    1  0.1129602E+005  0.1043930E+01  0.7957747E-01            NaN
         13   -1    0    0    0    0  0.00000000000E+00  0.00000000000E+00  0.74505805969E-08  0.10566000000E+00  0.10566000000E+00 0. -1.
     999900   -1    0    0    0    0 -0.00000000000E+00 -0.00000000000E+00 -0.74505805969E-08  0.93827000000E+00  0.93827000000E+00 0. -1.
     999902    2    1    2    0    0  0.16757966579E-01  0.13043414240E-01  0.11168603795E-01  0.10199362965E+01  0.10196540350E+01 0.  0.
     999903    2    3    3    0    0  0.64428398609E-01  0.36403531074E-01  0.10856525603E+00  0.13297278367E+00  0.20472194767E-01 0.  0.
         14    1    1    2    0    0 -0.16757966579E-01 -0.13043414240E-01 -0.11168603795E-01  0.23993703541E-01  0.00000000000E+00 0.  1.
     999901    1    3    3    0    0 -0.47670432030E-01 -0.23360116834E-01 -0.97396652235E-01  0.88696351279E+00  0.88000000000E+00 0. -1.
        -11    1    4    4    0    0  0.16281320684E-01  0.36684714539E-03  0.28596547561E-01  0.32912605996E-01  0.51100000000E-03 0.  1.
         11    1    4    4    0    0  0.48147077925E-01  0.36036683929E-01  0.79968708469E-01  0.10006017768E+00  0.51100000000E-03 0. -1.
</event>
<event>
 8    1  0.1129602E+005  0.1043930E+01  0.7957747E-01            NaN
         13   -1    0    0    0    0  0.00000000000E+00  0.00000000000E+00  0.74505805969E-08  0.10566000000E+00  0.10566000000E+00 0. -1.
     999900   -1    0    0    0    0 -0.00000000000E+00 -0.00000000000E+00 -0.74505805969E-08  0.93827000000E+00  0.93827000000E+00 0. -1.
     999902    2    1    2    0    0 -0.10333626965E-01  0.18249955809E-01 -0.10808573098E-01  0.10203361452E+01  0.10200633212E+01 0.  0.
     999903    2    3    3    0    0 -0.18564265221E-02 -0.11739337872E+00 -0.49767792458E-01  0.12905123118E+00  0.19817553229E-01 0.  0.
         14    1    1    2    0    0  0.10333626965E-01 -0.18249955809E-01  0.10808573098E-01  0.23593854829E-01  0.00000000000E+00 0. -1.
     999901    1    3    3    0    0 -0.84772004424E-02  0.13564333453E+00  0.38959219361E-01  0.89128491399E+00  0.88000000000E+00 0.  1.
        -11    1    4    4    0    0 -0.83650594936E-02 -0.74251041182E-01 -0.24536874056E-01  0.78648017434E-01  0.51100000000E-03 0.  1.
         11    1    4    4    0    0  0.65086329714E-02 -0.43142337542E-01 -0.25230918402E-01  0.50403213748E-01  0.51100000000E-03 0. -1.
</event>
<event>
 8    1  0.1129602E+005  0.1043930E+01  0.7957747E-01            NaN
         13   -1    0    0    0    0  0.00000000000E+00  0.00000000000E+00  0.74505805969E-08  0.10566000000E+00  0.10566000000E+00 0. -1.
     999900   -1    0    0    0    0 -0.00000000000E+00 -0.00000000000E+00 -0.74505805969E-08  0.93827000000E+00  0.93827000000E+00 0. -1.
     999902    2    1    2    0    0  0.12837627900E-01 -0.10605630891E-01  0.15505146822E-01  0.10211771172E+01  0.10209236069E+01 0.  0.
     999903    2    3    3    0    0  0.77910999165E-01  0.43124330243E-01 -0.91255726801E-01  0.13071693479E+00  0.28800654782E-01 0.  0.
         14    1    1    2    0    0 -0.12837627900E-01  0.10605630891E-01 -0.15505146822E-01  0.22752882777E-01  0.00000000000E+00 0.  1.
     999901    1    3    3    0    0 -0.65073371266E-01 -0.53729961133E-01  0.10676087362E+00  0.89046018244E+00  0.88000000000E+00 0. -1.
        -11    1    4    4    0    0  0.37768857265E-01  0.34401485131E-01 -0.39160638539E-01  0.64372086265E-01  0.51100000000E-03 0. -1.
         11    1    4    4    0    0  0.40142141900E-01  0.87228451121E-02 -0.52095088262E-01  0.66344848520E-01  0.51100000000E-03 0.  1.
</event>
<event>
 8    1  0.1129602E+005  0.1043930E+01  0.7957747E-01            NaN
         13   -1    0    0    0    0  0.00000000000E+00  0.00000000000E+00  0.74505805969E-08  0.10566000000E+00  0.10566000000E+00 0. -1.
     999900   -1    0    0    0    0 -0.00000000000E+00 -0.00000000000E+00 -0.74505805969E-08  0.93827000000E+00  0.93827000000E+00 0. -1.
     999902    2    1    2    0    0 -0.15206618400E-01 -0.54944800205E-02 -0.16366048758E-01  0.10209239550E+01  0.10206647069E+01 0.  0.
     999903    2    3    3    0    0  0.43421633745E-01  0.11746400994E+00 -0.31279065950E-01  0.13031828454E+00  0.17923264506E-01 0.  0.
         14    1    1    2    0    0  0.15206618400E-01  0.54944800205E-02  0.16366048758E-01  0.23006044984E-01  0.00000000000E+00 0. -1.
     999901    1    3    3    0    0 -0.58628252145E-01 -0.12295848996E+00  0.14913017192E-01  0.89060567048E+00  0.88000000000E+00 0.  1.
        -11    1    4    4    0    0  0.30123922550E-01  0.55695595944E-01 -0.15416446057E-01  0.65171911491E-01  0.51100000000E-03 0.  1.
         11    1    4    4    0    0  0.13297711194E-01  0.61768413995E-01 -0.15862619893E-01  0.65146373048E-01  0.51100000000E-03 0. -1.
</event>
<event>
 8    1  0.1129602E+005  0.1043930E+01  0.7957747E-01            NaN
         13   -1    0    0    0    0  0.00000000000E+00  0.00000000000E+00  0.74505805969E-08  0.10566000000E+00  0.10566000000E+00 0. -1.
     999900   -1    0    0    0    0 -0.00000000000E+00 -0.00000000000E+00 -0.74505805969E-08  0.93827000000E+00  0.93827000000E+00 0.  1.
     999902    2    1    2    0    0  0.34532042806E-02 -0.17041688514E-01 -0.10782132688E-01  0.10234703286E+01  0.10232658088E+01 0.  0.
     999903    2    3    3    0    0  0.98983493584E-01 -0.14758726520E-01  0.82364397474E-01  0.13340992384E+00  0.31603192844E-01 0.  0.
         14    1    1    2    0    0 -0.34532042806E-02  0.17041688514E-01  0.10782132688E-01  0.20459671369E-01  0.00000000000E+00 0. -1.
     999901    1    3    3    0    0 -0.95530289304E-01 -0.22829619948E-02 -0.93146530162E-01  0.89006040479E+00  0.88000000000E+00 0.  1.
        -11    1    4    4    0    0  0.74815107772E-01 -0.20413583436E-01  0.74052813845E-01  0.10722917093E+00  0.51100000000E-03 0. -1.
         11    1    4    4    0    0  0.24168385813E-01  0.56548569166E-02  0.83115836294E-02  0.26180752910E-01  0.51100000000E-03 0.  1.
</event>
<event>
 8    1  0.1129602E+005  0.1043930E+01  0.7957747E-01            NaN
         13   -1    0    0    0    0  0.00000000000E+00  0.00000000000E+00  0.74505805969E-08  0.10566000000E+00  0.10566000000E+00 0. -1.
     999900   -1    0    0    0    0 -0.00000000000E+00 -0.00000000000E+00 -0.74505805969E-08  0.93827000000E+00  0.93827000000E+00 0. -1.
     999902    2    1    2    0    0 -0.74770970422E-02  0.14697299622E-01 -0.17959832422E-01  0.10195481794E+01  0.10192566001E+01 0.  0.
     999903    2    3    3    0    0  0.80100883386E-01 -0.96840413123E-01  0.10301350605E-01  0.12774704768E+00  0.20468835688E-01 0.  0.
         14    1    1    2    0    0  0.74770970422E-02 -0.14697299622E-01  0.17959832422E-01  0.24381820625E-01  0.00000000000E+00 0. -1.
     999901    1    3    3    0    0 -0.87577980428E-01  0.11153771275E+00 -0.28261183027E-01  0.89180113169E+00  0.88000000000E+00 0.  1.
        -11    1    4    4    0    0  0.41515075970E-01 -0.57801448715E-01  0.14732721493E-01  0.72676152966E-01  0.51100000000E-03 0. -1.
         11    1    4    4    0    0  0.38585807416E-01 -0.39038964409E-01 -0.44313708883E-02  0.55070894718E-01  0.51100000000E-03 0.  1.
</event>
<event>
 8    1  0.1129602E+005  0.1043930E+01  0.7957747E-01            NaN
         13   -1    0    0    0    0  0.00000000000E+00  0.00000000000E+00  0.74505805969E-08  0.10566000000E+00  0.10566000000E+00 0.  1.
     999900   -1    0    0    0    0 -0.00000000000E+00 -0.00000000000E+00 -0.74505805969E-08  0.93827000000E+00  0.93827000000E+00 0.  1.
     999902    2    1    2    0    0 -0.59585396328E-02  0.22423617480E-01  0.66185639342E-02  0.10198026669E+01  0.10195172147E+01 0.  0.
     999903    2    3    3    0    0  0.11665611589E+00  0.54863830560E-01  0.67094628033E-02  0.13070946060E+00  0.20524544357E-01 0.  0.
         14    1    1    2    0    0  0.59585396328E-02 -0.22423617480E-01 -0.66185639342E-02  0.24127333130E-01  0.00000000000E+00 0.  1.
     999901    1    3    3    0    0 -0.12261465552E+00 -0.32440213080E-01 -0.90898869121E-04  0.88909320627E+00  0.88000000000E+00 0.  1.
        -11    1    4    4    0    0  0.89459940167E-01  0.49378469171E-01  0.10419946841E-01  0.10271392567E+00  0.51100000000E-03 0. -1.
         11    1    4    4    0    0  0.27196175722E-01  0.54853613886E-02 -0.37104840374E-02  0.27995534934E-01  0.51100000000E-03 0.  1.
</event>
<event>
 8    1  0.1129602E+005  0.1043930E+01  0.7957747E-01            NaN
         13   -1    0    0    0    0  0.00000000000E+00  0.00000000000E+00  0.74505805969E-08  0.10566000000E+00  0.10566000000E+00 0.  1.
     999900   -1    0    0    0    0 -0.00000000000E+00 -0.00000000000E+00 -0.74505805969E-08  0.93827000000E+00  0.93827000000E+00 0.  1.
     999902    2    1    2    0    0 -0.15634300956E-01  0.10213332529E-01 -0.15480141707E-01  0.10196734892E+01  0.10193849353E+01 0.  0.
     999903    2    3    3    0    0 -0.12542569580E-01 -0.78562000443E-01  0.98401800585E-01  0.12790013499E+00  0.18607154703E-01 0.  0.
         14    1    1    2    0    0  0.15634300956E-01 -0.10213332529E-01  0.15480141707E-01  0.24256510775E-01  0.00000000000E+00 0. -1.
     999901    1    3    3    0    0 -0.30917313758E-02  0.88775332973E-01 -0.11388194229E+00  0.89177335424E+00  0.88000000000E+00 0.  1.
        -11    1    4    4    0    0  0.33840674362E-02 -0.52749168181E-02  0.11524375872E-01  0.13128176571E-01  0.51100000000E-03 0.  1.
         11    1    4    4    0    0 -0.15926637016E-01 -0.73287083625E-01  0.86877424713E-01  0.11477195842E+00  0.51100000000E-03 0. -1.
</event>
<event>
 8    1  0.1129602E+005  0.1043930E+01  0.7957747E-01            NaN
         13   -1    0    0    0    0  0.00000000000E+00  0.00000000000E+00  0.74505805969E-08  0.10566000000E+00  0.10566000000E+00 0.  1.
     999900   -1    0    0    0    0 -0.00000000000E+00 -0.00000000000E+00 -0.74505805969E-08  0.93827000000E+00  0.93827000000E+00 0. -1.
     999902    2    1    2    0    0 -0.23680222612E-01 -0.38411630615E-02  0.12885748756E-01  0.10166985844E+01  0.10163338337E+01 0.  0.
     999903    2    3    3    0    0  0.55112530232E-02 -0.12340632533E+00  0.26747834246E-01  0.12802534425E+00  0.20384972226E-01 0.  0.
         14    1    1    2    0    0  0.23680222612E-01  0.38411630615E-02 -0.12885748756E-01  0.27231415638E-01  0.00000000000E+00 0. -1.
     999901    1    3    3    0    0 -0.29191475635E-01  0.11956516227E+00 -0.13862085490E-01  0.88867324011E+00  0.88000000000E+00 0. -1.
        -11    1    4    4    0    0 -0.55539494413E-03 -0.45624938185E-01  0.19655229449E-01  0.49684329658E-01  0.51100000000E-03 0. -1.
         11    1    4    4    0    0  0.60666479674E-02 -0.77781387143E-01  0.70926047975E-02  0.78341014591E-01  0.51100000000E-03 0.  1.
</event>
<event>
 8    1  0.1129602E+005  0.1043930E+01  0.7957747E-01            NaN
         13   -1    0    0    0    0  0.00000000000E+00  0.00000000000E+00  0.74505805969E-08  0.10566000000E+00  0.10566000000E+00 0.  1.
     999900   -1    0    0    0    0 -0.00000000000E+00 -0.00000000000E+00 -0.74505805969E-08  0.93827000000E+00  0.93827000000E+00 0.  1.
     999902    2    1    2    0    0  0.20092619795E-01  0.12134357583E-01 -0.27060808215E-02  0.10203020742E+01  0.10200284524E+01 0.  0.
     999903    2    3    3    0    0  0.41908926839E-01  0.10180091037E+00 -0.71623256984E-01  0.13279679584E+00  0.19629430541E-01 0.  0.
         14    1    1    2    0    0 -0.20092619795E-01 -0.12134357583E-01  0.27060808215E-02  0.23627925800E-01  0.00000000000E+00 0.  1.
     999901    1    3    3    0    0 -0.21816307044E-01 -0.89666552791E-01  0.68917176163E-01  0.88750527836E+00  0.88000000000E+00 0. -1.
        -11    1    4    4    0    0  0.37744938159E-01  0.73772218539E-01 -0.59255012044E-01  0.10187461979E+00  0.51100000000E-03 0. -1.
         11    1    4    4    0    0  0.41639886801E-02  0.28028691835E-01 -0.12368244940E-01  0.30922176049E-01  0.51100000000E-03 0.  1.
</event>
<event>
 8    1  0.1129602E+005  0.1043930E+01  0.7957747E-01            NaN
         13   -1    0    0    0    0  0.00000000000E+00  0.00000000000E+00  0.74505805969E-08  0.10566000000E+00  0.10566000000E+00 0. -1.
     999900   -1    0    0    0    0 -0.00000000000E+00 -0.00000000000E+00 -0.74505805969E-08  0.93827000000E+00  0.93827000000E+00 0. -1.
     999902    2    1    2    0    0  0.15274844415E-01  0.13383943153E-01  0.10402452913E-01  0.10211119845E+01  0.10208570042E+01 0.  0.
     999903    2    3    3    0    0 -0.10111783658E+00 -0.17107184171E-01 -0.75173360312E-01  0.12881148304E+00  0.20588624007E-01 0.  0.
         14    1    1    2    0    0 -0.15274844415E-01 -0.13383943153E-01 -0.10402452913E-01  0.22818015532E-01  0.00000000000E+00 0.  1.
     999901    1    3    3    0    0  0.11639268099E+00  0.30491127324E-01  0.85575813225E-01  0.89230050143E+00  0.88000000000E+00 0.  1.
        -11    1    4    4    0    0 -0.33233316273E-01  0.53977315616E-03 -0.33646419553E-01  0.47297857619E-01  0.51100000000E-03 0. -1.
         11    1    4    4    0    0 -0.67884520305E-01 -0.17646957327E-01 -0.41526940759E-01  0.81513625424E-01  0.51100000000E-03 0.  1.
</event>
<event>
 8    1  0.1129602E+005  0.1043930E+01  0.7957747E-01            NaN
         13   -1    0    0    0    0  0.00000000000E+00  0.00000000000E+00  0.74505805969E-08  0.10566000000E+00  0.10566000000E+00 0. -1.
     999900   -1    0    0    0    0 -0.00000000000E+00 -0.00000000000E+00 -0.74505805969E-08  0.93827000000E+00  0.93827000000E+00 0.  1.
     999902    2    1    2    0    0 -0.23815577963E-01  0.51919811476E-02 -0.41822774850E-02  0.10191988482E+01  0.10188987498E+01 0.  0.
     999903    2    3    3    0    0  0.91337941114E-01  0.70656164609E-01  0.50477458611E-01  0.12760837106E+00  0.20025220387E-01 0.  0.
         14    1    1    2    0    0  0.23815577963E-01 -0.51919811476E-02  0.41822774850E-02  0.24731151750E-01  0.00000000000E+00 0. -1.
     999901    1    3    3    0    0 -0.11515351908E+00 -0.65464183462E-01 -0.54659736096E-01  0.89159047719E+00  0.88000000000E+00 0. -1.
        -11    1    4    4    0    0  0.31184623683E-01  0.25079835989E-01  0.73726984799E-02  0.40695168404E-01  0.51100000000E-03 0.  1.
         11    1    4    4    0    0  0.60153317431E-01  0.45576328620E-01  0.43104760131E-01  0.86913202653E-01  0.51100000000E-03 0. -1.
</event>
<event>
 8    1  0.1129602E+005  0.1043930E+01  0.7957747E-01            NaN
         13   -1    0    0    0    0  0.00000000000E+00  0.00000000000E+00  0.74505805969E-08  0.10566000000E+00  0.10566000000E+00 0. -1.
     999900   -1    0    0    0    0 -0.00000000000E+00 -0.00000000000E+00 -0.74505805969E-08  0.93827000000E+00  0.93827000000E+00 0.  1.
     999902    2    1    2    0    0  0.23309556428E-01 -0.35205306174E-02 -0.10292474441E-01  0.10182071583E+01  0.10178821899E+01 0.  0.
     999903    2    3    3    0    0  0.95890113236E-01  0.63965392980E-01 -0.59531369043E-01  0.13127606971E+00  0.20073297252E-01 0.  0.
         14    1    1    2    0    0 -0.23309556428E-01  0.35205306174E-02  0.10292474441E-01  0.25722841732E-01  0.00000000000E+00 0.  1.
     999901    1    3    3    0    0 -0.72580556809E-01 -0.67485923597E-01  0.49238894602E-01  0.88693108856E+00  0.88000000000E+00 0. -1.
        -11    1    4    4    0    0  0.30042968768E-01  0.96435036888E-02 -0.13916487105E-01  0.34489228320E-01  0.51100000000E-03 0. -1.
         11    1    4    4    0    0  0.65847144469E-01  0.54321889291E-01 -0.45614881938E-01  0.96786841389E-01  0.51100000000E-03 0.  1.
</event>
<event>
 8    1  0.1129602E+005  0.1043930E+01  0.7957747E-01            NaN
         13   -1    0    0    0    0  0.00000000000E+00  0.00000000000E+00  0.74505805969E-08  0.10566000000E+00  0.10566000000E+00 0.  1.
     999900   -1    0    0    0    0 -0.00000000000E+00 -0.00000000000E+00 -0.74505805969E-08  0.93827000000E+00  0.93827000000E+00 0.  1.
     999902    2    1    2    0    0  0.11520454795E-01  0.19331570417E-01 -0.84909040970E-02  0.10198774337E+01  0.10195937690E+01 0.  0.
     999903    2    3    3    0    0 -0.42247205933E-01 -0.11331594278E+00 -0.40567034203E-01  0.12773663639E+00  0.67553471398E-02 0.  0.
         14    1    1    2    0    0 -0.11520454795E-01 -0.19331570417E-01  0.84909040970E-02  0.24052566305E-01  0.00000000000E+00 0.  1.
     999901    1    3    3    0    0  0.53767660728E-01  0.13264751319E+00  0.32076130106E-01  0.89214079731E+00  0.88000000000E+00 0.  1.
        -11    1    4    4    0    0 -0.17555112565E-01 -0.50674194555E-01 -0.21230340425E-01  0.57680537849E-01  0.51100000000E-03 0.  1.
         11    1    4    4    0    0 -0.24692093367E-01 -0.62641748222E-01 -0.19336693778E-01  0.70056098539E-01  0.51100000000E-03 0. -1.
</event>
<event>
 8    1  0.1129602E+005  0.1043930E+01  0.7957747E-01            NaN
         13   -1    0    0    0    0  0.00000000000E+00  0.00000000000E+00  0.74505805969E-08  0.10566000000E+00  0.10566000000E+00 0.  1.
     999900   -1    0    0    0    0 -0.00000000000E+00 -0.00000000000E+00 -0.74505805969E-08  0.93827000000E+00  0.93827000000E+00 0.  1.
     999902    2    1    2    0    0  0.21151655884E-01 -0.95044879703E-02 -0.21054640728E-02  0.10206456530E+01  0.10203800214E+01 0.  0.
     999903    2    3    3    0    0  0.53907605572E-01 -0.62668849007E-01  0.10156445377E+00  0.13236255991E+00  0.19263811234E-01 0.  0.
         14    1    1    2    0    0 -0.21151655884E-01  0.95044879703E-02  0.21054640728E-02  0.23284347042E-01  0.00000000000E+00 0.  1.
     999901    1    3    3    0    0 -0.32755949688E-01  0.53164361037E-01 -0.10366991784E+00  0.88828309304E+00  0.88000000000E+00 0.  1.
        -11    1    4    4    0    0  0.33951686090E-01 -0.28572001165E-01  0.63729151494E-01  0.77657852855E-01  0.51100000000E-03 0.  1.
         11    1    4    4    0    0  0.19955919482E-01 -0.34096847843E-01  0.37835302273E-01  0.54704707058E-01  0.51100000000E-03 0. -1.
</event>
<event>
 8    1  0.1129602E+005  0.1043930E+01  0.7957747E-01            NaN
         13   -1    0    0    0    0  0.00000000000E+00  0.00000000000E+00  0.74505805969E-08  0.10566000000E+00  0.10566000000E+00 0. -1.
     999900   -1    0    0    0    0 -0.00000000000E+00 -0.00000000000E+00 -0.74505805969E-08  0.93827000000E+00  0.93827000000E+00 0. -1.
     999902    2    1    2    0    0 -0.22299391530E-02 -0.17417842816E-01 -0.16431860271E-01  0.10198808855E+01  0.10195973032E+01 0.  0.
     999903    2    3    3    0    0  0.38955766228E-01 -0.76261241770E-01  0.95670786792E-01  0.12986638481E+00  0.19469199783E-01 0.  0.
         14    1    1    2    0    0  0.22299391530E-02  0.17417842816E-01  0.16431860271E-01  0.24049114515E-01  0.00000000000E+00 0. -1.
     999901    1    3    3    0    0 -0.41185705381E-01  0.58843398954E-01 -0.11210264706E+00  0.89001450067E+00  0.88000000000E+00 0. -1.
        -11    1    4    4    0    0  0.37444628906E-01 -0.68534056169E-01  0.77353249477E-01  0.10992180591E+00  0.51100000000E-03 0.  1.
         11    1    4    4    0    0  0.15111373221E-02 -0.77271856008E-02  0.18317537314E-01  0.19944578902E-01  0.51100000000E-03 0. -1.
</event>
<event>
 8    1  0.1129602E+005  0.1043930E+01  0.7957747E-01            NaN
         13   -1    0    0    0    0  0.00000000000E+00  0.00000000000E+00  0.74505805969E-08  0.10566000000E+00  0.10566000000E+00 0. -1.
     999900   -1    0    0    0    0 -0.00000000000E+00 -0.00000000000E+00 -0.74505805969E-08  0.93827000000E+00  0.93827000000E+00 0.  1.
     999902    2    1    2    0    0  0.82373710606E-02  0.40188112959E-02 -0.21920567979E-01  0.10201704456E+01  0.10198937305E+01 0.  0.
     999903    2    3    3    0    0 -0.69073601379E-02 -0.24230104647E-01 -0.12945037796E+00  0.13304586347E+00  0.17578163663E-01 0.  0.
         14    1    1    2    0    0 -0.82373710606E-02 -0.40188112959E-02  0.21920567979E-01  0.23759554430E-01  0.00000000000E+00 0. -1.
     999901    1    3    3    0    0  0.15144731199E-01  0.28248915943E-01  0.10752980998E+00  0.88712458210E+00  0.88000000000E+00 0. -1.
        -11    1    4    4    0    0  0.28958179120E-02 -0.19468545001E-01 -0.77480942270E-01  0.79943527204E-01  0.51100000000E-03 0. -1.
         11    1    4    4    0    0 -0.98031780500E-02 -0.47615596457E-02 -0.51969435686E-01  0.53102336264E-01  0.51100000000E-03 0.  1.
</event>
<event>
 8    1  0.1129602E+005  0.1043930E+01  0.7957747E-01            NaN
         13   -1    0    0    0    0  0.00000000000E+00  0.00000000000E+00  0.74505805969E-08  0.10566000000E+00  0.10566000000E+00 0. -1.
     999900   -1    0    0    0    0 -0.00000000000E+00 -0.00000000000E+00 -0.74505805969E-08  0.93827000000E+00  0.93827000000E+00 0. -1.
     999902    2    1    2    0    0 -0.50720898318E-03 -0.11324063776E-01  0.21905233658E-01  0.10192656341E+01  0.10189671742E+01 0.  0.
     999903    2    3    3    0    0 -0.12032131624E+00  0.42860036338E-01  0.62056229194E-02  0.12935675410E+00  0.19505338212E-01 0.  0.
         14    1    1    2    0    0  0.50720898318E-03  0.11324063776E-01 -0.21905233658E-01  0.24664365853E-01  0.00000000000E+00 0.  1.
     999901    1    3    3    0    0  0.11981410726E+00 -0.54184100114E-01  0.15699610738E-01  0.88990888004E+00  0.88000000000E+00 0. -1.
        -11    1    4    4    0    0 -0.76944038655E-01  0.34186544943E-01  0.10764080640E-01  0.84883635012E-01  0.51100000000E-03 0. -1.
         11    1    4    4    0    0 -0.43377277588E-01  0.86734913949E-02 -0.45584577201E-02  0.44473119091E-01  0.51100000000E-03 0.  1.
</event>
<event>
 8    1  0.1129602E+005  0.1043930E+01  0.7957747E-01            NaN
         13   -1    0    0    0    0  0.00000000000E+00  0.00000000000E+00  0.74505805969E-08  0.10566000000E+00  0.10566000000E+00 0. -1.
     999900   -1    0    0    0    0 -0.00000000000E+00 -0.00000000000E+00 -0.74505805969E-08  0.93827000000E+00  0.93827000000E+00 0.  1.
     999902    2    1    2    0    0  0.19173536660E-01 -0.74184768617E-02 -0.10199030616E-01  0.10209805222E+01  0.10207225618E+01 0.  0.
     999903    2    3    3    0    0  0.29507635786E-01 -0.72299503141E-01 -0.10625307008E+00  0.13331914548E+00  0.19656065876E-01 0.  0.
         14    1    1    2    0    0 -0.19173536660E-01  0.74184768617E-02  0.10199030616E-01  0.22949477827E-01  0.00000000000E+00 0. -1.
     999901    1    3    3    0    0 -0.10334099126E-01  0.64881026280E-01  0.96054039465E-01  0.88766137669E+00  0.88000000000E+00 0.  1.
        -11    1    4    4    0    0  0.56307783075E-02 -0.36103520670E-01 -0.40456921734E-01  0.54517827418E-01  0.51100000000E-03 0. -1.
         11    1    4    4    0    0  0.23876857478E-01 -0.36195982471E-01 -0.65796148347E-01  0.78801318062E-01  0.51100000000E-03 0.  1.
</event>
<event>
 8    1  0.1129602E+005  0.1043930E+01  0.7957747E-01            NaN
         13   -1    0    0    0    0  0.00000000000E+00  0.00000000000E+00  0.74505805969E-08  0.10566000000E+00  0.10566000000E+00 0.  1.
     999900   -1    0    0    0    0 -0.00000000000E+00 -0.00000000000E+00 -0.74505805969E-08  0.93827000000E+00  0.93827000000E+00 0.  1.
     999902    2    1    2    0    0  0.65280491851E-02 -0.22552351424E-01  0.44201715178E-02  0.10200393764E+01  0.10197595636E+01 0.  0.
     999903    2    3    3    0    0  0.44116031949E-01  0.11750226566E+00  0.16594615262E-01  0.12808849808E+00  0.19449302629E-01 0.  0.
         14    1    1    2    0    0 -0.65280491851E-02  0.22552351424E-01 -0.44201715178E-02  0.23890623625E-01  0.00000000000E+00 0.  1.
     999901    1    3    3    0    0 -0.37587982764E-01 -0.14005461709E+00 -0.12174443744E-01  0.89195087830E+00  0.88000000000E+00 0.  1.
        -11    1    4    4    0    0  0.17041537664E-01  0.60197374114E-01 -0.23674954582E-04  0.62565162332E-01  0.51100000000E-03 0. -1.
         11    1    4    4    0    0  0.27074494285E-01  0.57304891551E-01  0.16618290217E-01  0.65523335745E-01  0.51100000000E-03 0.  1.
</event>
<event>
 8    1  0.1129602E+005  0.1043930E+01  0.7957747E-01            NaN
         13   -1    0    0    0    0  0.00000000000E+00  0.00000000000E+00  0.74505805969E-08  0.10566000000E+00  0.10566000000E+00 0.  1.
     999900   -1    0    0    0    0 -0.00000000000E+00 -0.00000000000E+00 -0.74505805969E-08  0.93827000000E+00  0.93827000000E+00 0. -1.
     999902    2    1    2    0    0  0.98485459083E-02  0.21443816979E-02 -0.19689105927E-01  0.10218109331E+01  0.10215715001E+01 0.  0.
     999903    2    3    3    0    0 -0.14567575923E-02 -0.12026186839E+00  0.47288093671E-01  0.13074581468E+00  0.19830913311E-01 0.  0.
         14    1    1    2    0    0 -0.98485459083E-02 -0.21443816979E-02  0.19689105927E-01  0.22119066924E-01  0.00000000000E+00 0.  1.
     999901    1    3    3    0    0  0.11305303501E-01  0.12240625009E+00 -0.66977199598E-01  0.89106511839E+00  0.88000000000E+00 0.  1.
        -11    1    4    4    0    0 -0.84369099353E-03 -0.83481619316E-01  0.22774973956E-01  0.86538160010E-01  0.51100000000E-03 0. -1.
         11    1    4    4    0    0 -0.61306659876E-03 -0.36780249075E-01  0.24513119714E-01  0.44207654675E-01  0.51100000000E-03 0.  1.
</event>
<event>
 8    1  0.1129602E+005  0.1043930E+01  0.7957747E-01            NaN
         13   -1    0    0    0    0  0.00000000000E+00  0.00000000000E+00  0.74505805969E-08  0.10566000000E+00  0.10566000000E+00 0. -1.
     999900   -1    0    0    0    0 -0.00000000000E+00 -0.00000000000E+00 -0.74505805969E-08  0.93827000000E+00  0.93827000000E+00 0. -1.
     999902    2    1    2    0    0  0.12494162624E-01  0.56950608393E-02  0.18109656678E-01  0.10212034190E+01  0.10209505010E+01 0.  0.
     999903    2    3    3    0    0  0.99830610074E-01 -0.71648354285E-01 -0.42001848108E-01  0.13147140773E+00  0.20516784045E-01 0.  0.
         14    1    1    2    0    0 -0.12494162624E-01 -0.56950608393E-02 -0.18109656678E-01  0.22726580971E-01  0.00000000000E+00 0.  1.
     999901    1    3    3    0    0 -0.87336447450E-01  0.77343415124E-01  0.60111504786E-01  0.88973201130E+00  0.88000000000E+00 0. -1.
        -11    1    4    4    0    0  0.33433312171E-01 -0.27098730110E-01 -0.48807142323E-02  0.43315240143E-01  0.51100000000E-03 0. -1.
         11    1    4    4    0    0  0.66397297903E-01 -0.44549624175E-01 -0.37121133875E-01  0.88156167590E-01  0.51100000000E-03 0.  1.
</event>
<event>
 8    1  0.1129602E+005  0.1043930E+01  0.7957747E-01            NaN
         13   -1    0    0    0    0  0.00000000000E+00  0.00000000000E+00  0.74505805969E-08  0.10566000000E+00  0.10566000000E+00 0. -1.
     999900   -1    0    0    0    0 -0.00000000000E+00 -0.00000000000E+00 -0.74505805969E-08  0.93827000000E+00  0.93827000000E+00 0.  1.
     999902    2    1    2    0    0  0.22479125058E-01 -0.10418263833E-01 -0.14094934183E-02  0.10191139174E+01  0.10188117288E+01 0.  0.
     999903    2    3    3    0    0 -0.12691794676E-01 -0.28030344395E-01 -0.12443606599E+00  0.12968560856E+00  0.19678432130E-01 0.  0.
         14    1    1    2    0    0 -0.22479125058E-01  0.10418263833E-01  0.14094934183E-02  0.24816082615E-01  0.00000000000E+00 0.  1.
     999901    1    3    3    0    0  0.35170919734E-01  0.17612080561E-01  0.12302657257E+00  0.88942830882E+00  0.88000000000E+00 0. -1.
        -11    1    4    4    0    0 -0.35664835802E-02  0.24657823967E-02 -0.10172669612E-01  0.11069969105E-01  0.51100000000E-03 0.  1.
         11    1    4    4    0    0 -0.91253110958E-02 -0.30496126791E-01 -0.11426339637E+00  0.11861563946E+00  0.51100000000E-03 0. -1.
</event>
<event>
 8    1  0.1129602E+005  0.1043930E+01  0.7957747E-01            NaN
         13   -1    0    0    0    0  0.00000000000E+00  0.00000000000E+00  0.74505805969E-08  0.10566000000E+00  0.10566000000E+00 0.  1.
     999900   -1    0    0    0    0 -0.00000000000E+00 -0.00000000000E+00 -0.74505805969E-08  0.93827000000E+00  0.93827000000E+00 0. -1.
     999902    2    1    2    0    0 -0.10995127591E-01  0.68061392903E-02 -0.19574103277E-01  0.10204702071E+01  0.10202005106E+01 0.  0.
     999903    2    3    3    0    0 -0.11903545096E+00  0.49322652646E-01  0.20431146330E-01  0.13194289444E+00  0.19731523104E-01 0.  0.
         14    1    1    2    0    0  0.10995127591E-01 -0.68061392903E-02  0.19574103277E-01  0.23459792878E-01  0.00000000000E+00 0.  1.
     999901    1    3    3    0    0  0.10804032337E+00 -0.42516513356E-01 -0.40005249607E-01  0.88852731268E+00  0.88000000000E+00 0. -1.
        -11    1    4    4    0    0 -0.76247447816E-01  0.21973271582E-01  0.16144722773E-01  0.80977843618E-01  0.51100000000E-03 0.  1.
         11    1    4    4    0    0 -0.42788003144E-01  0.27349381064E-01  0.42864235567E-02  0.50965050825E-01  0.51100000000E-03 0. -1.
</event>
<event>
 8    1  0.1129602E+005  0.1043930E+01  0.7957747E-01            NaN
         13   -1    0    0    0    0  0.00000000000E+00  0.00000000000E+00  0.74505805969E-08  0.10566000000E+00  0.10566000000E+00 0. -1.
     999900   -1    0    0    0    0 -0.00000000000E+00 -0.00000000000E+00 -0.74505805969E-08  0.93827000000E+00  0.93827000000E+00 0. -1.
     999902    2    1    2    0    0  0.24409345441E-01 -0.10437580625E-01 -0.31336153872E-02  0.10171983936E+01  0.10168470845E+01 0.  0.
     999903    2    3    3    0    0  0.10229550429E+00  0.60908748954E-01  0.47013138290E-01  0.12946462194E+00  0.19406371717E-01 0.  0.
         14    1    1    2    0    0 -0.24409345441E-01  0.10437580625E-01  0.31336153872E-02  0.26731606378E-01  0.00000000000E+00 0.  1.
     999901    1    3    3    0    0 -0.77886158854E-01 -0.71346329579E-01 -0.50146753677E-01  0.88773377168E+00  0.88000000000E+00 0. -1.
        -11    1    4    4    0    0  0.27355323287E-01  0.20962200945E-01  0.53790793502E-02  0.34884426271E-01  0.51100000000E-03 0. -1.
         11    1    4    4    0    0  0.74940181008E-01  0.39946548009E-01  0.41634058940E-01  0.94580195665E-01  0.51100000000E-03 0.  1.
</event>
<event>
 8    1  0.1129602E+005  0.1043930E+01  0.7957747E-01            NaN
         13   -1    0    0    0    0  0.00000000000E+00  0.00000000000E+00  0.74505805969E-08  0.10566000000E+00  0.10566000000E+00 0. -1.
     999900   -1    0    0    0    0 -0.00000000000E+00 -0.00000000000E+00 -0.74505805969E-08  0.93827000000E+00  0.93827000000E+00 0.  1.
     999902    2    1    2    0    0  0.17345881792E-01  0.84896163893E-02  0.13516778496E-01  0.10203576326E+01  0.10200853111E+01 0.  0.
     999903    2    3    3    0    0  0.10958286866E+00  0.53603931771E-01  0.51197765337E-01  0.13358662502E+00  0.18503745664E-01 0.  0.
         14    1    1    2    0    0 -0.17345881792E-01 -0.84896163893E-02 -0.13516778496E-01  0.23572367350E-01  0.00000000000E+00 0.  1.
     999901    1    3    3    0    0 -0.92236986871E-01 -0.45114315382E-01 -0.37680986841E-01  0.88677100763E+00  0.88000000000E+00 0. -1.
        -11    1    4    4    0    0  0.33184804573E-01  0.14382550144E-01  0.24369273927E-01  0.43614351260E-01  0.51100000000E-03 0. -1.
         11    1    4    4    0    0  0.76398064091E-01  0.39221381627E-01  0.26828491410E-01  0.89972273762E-01  0.51100000000E-03 0.  1.
</event>
<event>
 8    1  0.1129602E+005  0.1043930E+01  0.7957747E-01            NaN
         13   -1    0    0    0    0  0.00000000000E+00  0.00000000000E+00  0.74505805969E-08  0.10566000000E+00  0.10566000000E+00 0.  1.
     999900   -1    0    0    0    0 -0.00000000000E+00 -0.00000000000E+00 -0.74505805969E-08  0.93827000000E+00  0.93827000000E+00 0.  1.
     999902    2    1    2    0    0  0.21780876504E-01  0.96061670304E-02 -0.22256358765E-02  0.10200210376E+01  0.10197407900E+01 0.  0.
     999903    2    3    3    0    0  0.12352072798E+00 -0.97925154436E-02  0.43081544069E-01  0.13278936168E+00  0.20584740396E-01 0.  0.
         14    1    1    2    0    0 -0.21780876504E-01 -0.96061670304E-02  0.22256358765E-02  0.23908962365E-01  0.00000000000E+00 0.  1.
     999901    1    3    3    0    0 -0.10173985148E+00  0.19398682474E-01 -0.45307179946E-01  0.88723167595E+00  0.88000000000E+00 0.  1.
        -11    1    4    4    0    0  0.11025583834E+00 -0.25526402413E-02  0.35395235647E-01  0.11582724070E+00  0.51100000000E-03 0.  1.
         11    1    4    4    0    0  0.13264889639E-01 -0.72398752022E-02  0.76863084222E-02  0.16962120983E-01  0.51100000000E-03 0. -1.
</event>
<event>
 8    1  0.1129602E+005  0.1043930E+01  0.7957747E-01            NaN
         13   -1    0    0    0    0  0.00000000000E+00  0.00000000000E+00  0.74505805969E-08  0.10566000000E+00  0.10566000000E+00 0. -1.
     999900   -1    0    0    0    0 -0.00000000000E+00 -0.00000000000E+00 -0.74505805969E-08  0.93827000000E+00  0.93827000000E+00 0.  1.
     999902    2    1    2    0    0  0.18525896992E-01 -0.25314872966E-02  0.13631918436E-01  0.10207902833E+01  0.10205279791E+01 0.  0.
     999903    2    3    3    0    0  0.10016724305E+00  0.38027667265E-01  0.77508570406E-01  0.13377811821E+00  0.20234286927E-01 0.  0.
         14    1    1    2    0    0 -0.18525896992E-01  0.25314872966E-02 -0.13631918436E-01  0.23139716669E-01  0.00000000000E+00 0.  1.
     999901    1    3    3    0    0 -0.81641346059E-01 -0.40559154561E-01 -0.63876651970E-01  0.88701216512E+00  0.88000000000E+00 0.  1.
        -11    1    4    4    0    0  0.46945185019E-01  0.27859359517E-01  0.43495483330E-01  0.69800519341E-01  0.51100000000E-03 0.  1.
         11    1    4    4    0    0  0.53222058032E-01  0.10168307747E-01  0.34013087076E-01  0.63977598869E-01  0.51100000000E-03 0. -1.
</event>
<event>
 8    1  0.1129602E+005  0.1043930E+01  0.7957747E-01            NaN
         13   -1    0    0    0    0  0.00000000000E+00  0.00000000000E+00  0.74505805969E-08  0.10566000000E+00  0.10566000000E+00 0.  1.
     999900   -1    0    0    0    0 -0.00000000000E+00 -0.00000000000E+00 -0.74505805969E-08  0.93827000000E+00  0.93827000000E+00 0.  1.
     999902    2    1    2    0    0 -0.12523540569E-01 -0.13584070185E-01 -0.15331219207E-01  0.10199214117E+01  0.10196387957E+01 0.  0.
     999903    2    3    3    0    0 -0.15283889844E-01 -0.11280703190E+00  0.61513396098E-01  0.13101314275E+00  0.20530999424E-01 0.  0.
         14    1    1    2    0    0  0.12523540569E-01  0.13584070185E-01  0.15331219207E-01  0.24008588329E-01  0.00000000000E+00 0. -1.
     999901    1    3    3    0    0  0.27603492754E-02  0.99222961719E-01 -0.76844615305E-01  0.88890826892E+00  0.88000000000E+00 0.  1.
        -11    1    4    4    0    0 -0.29367717542E-02 -0.59968823443E-01  0.42304951221E-01  0.73449672786E-01  0.51100000000E-03 0.  1.
         11    1    4    4    0    0 -0.12347118090E-01 -0.52838208460E-01  0.19208444877E-01  0.57563469962E-01  0.51100000000E-03 0. -1.
</event>
<event>
 8    1  0.1129602E+005  0.1043930E+01  0.7957747E-01            NaN
         13   -1    0    0    0    0  0.00000000000E+00  0.00000000000E+00  0.74505805969E-08  0.10566000000E+00  0.10566000000E+00 0. -1.
     999900   -1    0    0    0    0 -0.00000000000E+00 -0.00000000000E+00 -0.74505805969E-08  0.93827000000E+00  0.93827000000E+00 0. -1.
     999902    2    1    2    0    0 -0.11584298325E-01 -0.14302659519E-01  0.14240200402E-01  0.10206588732E+01  0.10203935466E+01 0.  0.
     999903    2    3    3    0    0  0.12081313743E+00  0.41062887806E-01  0.44385173532E-02  0.12898040094E+00  0.18283010130E-01 0.  0.
         14    1    1    2    0    0  0.11584298325E-01  0.14302659519E-01 -0.14240200402E-01  0.23271126842E-01  0.00000000000E+00 0.  1.
     999901    1    3    3    0    0 -0.13239743576E+00 -0.55365547325E-01  0.98016830486E-02  0.89167847222E+00  0.88000000000E+00 0.  1.
        -11    1    4    4    0    0  0.87127665667E-01  0.34454947041E-01  0.99056190890E-02  0.94216537353E-01  0.51100000000E-03 0.  1.
         11    1    4    4    0    0  0.33685471764E-01  0.66079407648E-02 -0.54671017358E-02  0.34763863588E-01  0.51100000000E-03 0. -1.
</event>
<event>
 8    1  0.1129602E+005  0.1043930E+01  0.7957747E-01            NaN
         13   -1    0    0    0    0  0.00000000000E+00  0.00000000000E+00  0.74505805969E-08  0.10566000000E+00  0.10566000000E+00 0. -1.
     999900   -1    0    0    0    0 -0.00000000000E+00 -0.00000000000E+00 -0.74505805969E-08  0.93827000000E+00  0.93827000000E+00 0.  1.
     999902    2    1    2    0    0  0.63042059655E-02 -0.12694196577E-01  0.19467533653E-01  0.10198494995E+01  0.10195651676E+01 0.  0.
     999903    2    3    3    0    0 -0.10020239080E+00  0.54572088395E-01 -0.54022991127E-01  0.12784654796E+00  0.20189707811E-01 0.  0.
         14    1    1    2    0    0 -0.63042059655E-02  0.12694196577E-01 -0.19467533653E-01  0.24080500537E-01  0.00000000000E+00 0.  1.
     999901    1    3    3    0    0  0.10650659677E+00 -0.67266284971E-01  0.73490524781E-01  0.89200295150E+00  0.88000000000E+00 0. -1.
        -11    1    4    4    0    0 -0.91613029048E-01  0.42436355668E-01 -0.46109860530E-01  0.11099626900E+00  0.51100000000E-03 0.  1.
         11    1    4    4    0    0 -0.85893617557E-02  0.12135732727E-01 -0.79131305977E-02  0.16850278960E-01  0.51100000000E-03 0. -1.
</event>
<event>
 8    1  0.1129602E+005  0.1043930E+01  0.7957747E-01            NaN
         13   -1    0    0    0    0  0.00000000000E+00  0.00000000000E+00  0.74505805969E-08  0.10566000000E+00  0.10566000000E+00 0.  1.
     999900   -1    0    0    0    0 -0.00000000000E+00 -0.00000000000E+00 -0.74505805969E-08  0.93827000000E+00  0.93827000000E+00 0.  1.
     999902    2    1    2    0    0 -0.16096640703E-02  0.15642376626E-01  0.18001788561E-01  0.10200272940E+01  0.10197471947E+01 0.  0.
     999903    2    3    3    0    0  0.80353473585E-01 -0.31572398936E-01  0.96883668235E-01  0.13145003681E+00  0.20956381273E-01 0.  0.
         14    1    1    2    0    0  0.16096640703E-02 -0.15642376626E-01 -0.18001788561E-01  0.23902706046E-01  0.00000000000E+00 0. -1.
     999901    1    3    3    0    0 -0.81963137655E-01  0.47214775562E-01 -0.78881879674E-01  0.88857725714E+00  0.88000000000E+00 0.  1.
        -11    1    4    4    0    0  0.32680603382E-01 -0.41578750914E-02  0.27516441002E-01  0.42926977637E-01  0.51100000000E-03 0.  1.
         11    1    4    4    0    0  0.47672870203E-01 -0.27414523845E-01  0.69367227233E-01  0.88523059177E-01  0.51100000000E-03 0. -1.
</event>
<event>
 8    1  0.1129602E+005  0.1043930E+01  0.7957747E-01            NaN
         13   -1    0    0    0    0  0.00000000000E+00  0.00000000000E+00  0.74505805969E-08  0.10566000000E+00  0.10566000000E+00 0.  1.
     999900   -1    0    0    0    0 -0.00000000000E+00 -0.00000000000E+00 -0.74505805969E-08  0.93827000000E+00  0.93827000000E+00 0. -1.
     999902    2    1    2    0    0  0.15270002312E-01  0.20902526658E-02 -0.17275163969E-01  0.10207789003E+01  0.10205163349E+01 0.  0.
     999903    2    3    3    0    0 -0.12081145009E+00 -0.54901183794E-02  0.38880790435E-01  0.12851822375E+00  0.19485125045E-01 0.  0.
         14    1    1    2    0    0 -0.15270002312E-01 -0.20902526658E-02  0.17275163969E-01  0.23151099692E-01  0.00000000000E+00 0.  1.
     999901    1    3    3    0    0  0.13608145240E+00  0.75803710452E-02 -0.56155954403E-01  0.89226067656E+00  0.88000000000E+00 0. -1.
        -11    1    4    4    0    0 -0.63278795412E-01 -0.12578341562E-01  0.21167129294E-01  0.67902349803E-01  0.51100000000E-03 0. -1.
         11    1    4    4    0    0 -0.57532654681E-01  0.70882231823E-02  0.17713661140E-01  0.60615873948E-01  0.51100000000E-03 0.  1.
</event>
<event>
 8    1  0.1129602E+005  0.1043930E+01  0.7957747E-01            NaN
         13   -1    0    0    0    0  0.00000000000E+00  0.00000000000E+00  0.74505805969E-08  0.10566000000E+00  0.10566000000E+00 0.  1.
     999900   -1    0    0    0    0 -0.00000000000E+00 -0.00000000000E+00 -0.74505805969E-08  0.93827000000E+00  0.93827000000E+00 0.  1.
     999902    2    1    2    0    0  0.23213897728E-01  0.71618056989E-02  0.70069214521E-02  0.10186461424E+01  0.10183323082E+01 0.  0.
     999903    2    3    3    0    0 -0.75243107137E-01  0.18354045831E-01  0.10028973448E+00  0.12818517677E+00  0.19365240267E-01 0.  0.
         14    1    1    2    0    0 -0.23213897728E-01 -0.71618056989E-02 -0.70069214521E-02  0.25283857633E-01  0.00000000000E+00 0. -1.
     999901    1    3    3    0    0  0.98457004865E-01 -0.11192240132E-01 -0.93282813031E-01  0.89046096560E+00  0.88000000000E+00 0.  1.
        -11    1    4    4    0    0 -0.46805484653E-01  0.18143052342E-01  0.53004084514E-01  0.73004231645E-01  0.51100000000E-03 0. -1.
         11    1    4    4    0    0 -0.28437622483E-01  0.21099348913E-03  0.47285649969E-01  0.55180945124E-01  0.51100000000E-03 0.  1.
</event>
<event>
 8    1  0.1129602E+005  0.1043930E+01  0.7957747E-01            NaN
         13   -1    0    0    0    0  0.00000000000E+00  0.00000000000E+00  0.74505805969E-08  0.10566000000E+00  0.10566000000E+00 0.  1.
     999900   -1    0    0    0    0 -0.00000000000E+00 -0.00000000000E+00 -0.74505805969E-08  0.93827000000E+00  0.93827000000E+00 0.  1.
     999902    2    1    2    0    0  0.10952914100E-01  0.15106172827E-01  0.10102798308E-01  0.10227113922E+01  0.10224912529E+01 0.  0.
     999903    2    3    3    0    0 -0.97541895218E-01  0.84167657625E-01 -0.20330250620E-01  0.13284242271E+00  0.25202663923E-01 0.  0.
         14    1    1    2    0    0 -0.10952914100E-01 -0.15106172827E-01 -0.10102798308E-01  0.21218607833E-01  0.00000000000E+00 0.  1.
     999901    1    3    3    0    0  0.10849480932E+00 -0.69061484798E-01  0.30433048927E-01  0.88986896945E+00  0.88000000000E+00 0. -1.
        -11    1    4    4    0    0 -0.59927758598E-01  0.56755886789E-01 -0.12814199413E-02  0.82549803718E-01  0.51100000000E-03 0.  1.
         11    1    4    4    0    0 -0.37614136620E-01  0.27411770836E-01 -0.19048830678E-01  0.50292618994E-01  0.51100000000E-03 0. -1.
</event>
<event>
 8    1  0.1129602E+005  0.1043930E+01  0.7957747E-01            NaN
         13   -1    0    0    0    0  0.00000000000E+00  0.00000000000E+00  0.74505805969E-08  0.10566000000E+00  0.10566000000E+00 0. -1.
     999900   -1    0    0    0    0 -0.00000000000E+00 -0.00000000000E+00 -0.74505805969E-08  0.93827000000E+00  0.93827000000E+00 0. -1.
     999902    2    1    2    0    0  0.20392052229E-01  0.10309653839E-01  0.48820936380E-02  0.10205642217E+01  0.10202967074E+01 0.  0.
     999903    2    3    3    0    0  0.60633869328E-04  0.12346859915E+00  0.43455545006E-01  0.13224771021E+00  0.18883162084E-01 0.  0.
         14    1    1    2    0    0 -0.20392052229E-01 -0.10309653839E-01 -0.48820936380E-02  0.23365778281E-01  0.00000000000E+00 0. -1.
     999901    1    3    3    0    0  0.20331418360E-01 -0.11315894531E+00 -0.38573451368E-01  0.88831651151E+00  0.88000000000E+00 0. -1.
        -11    1    4    4    0    0  0.87744511641E-02  0.52914281960E-01  0.22138306221E-01  0.58028251325E-01  0.51100000000E-03 0.  1.
         11    1    4    4    0    0 -0.87138172948E-02  0.70554317190E-01  0.21317238785E-01  0.74219458880E-01  0.51100000000E-03 0. -1.
</event>
<event>
 8    1  0.1129602E+005  0.1043930E+01  0.7957747E-01            NaN
         13   -1    0    0    0    0  0.00000000000E+00  0.00000000000E+00  0.74505805969E-08  0.10566000000E+00  0.10566000000E+00 0. -1.
     999900   -1    0    0    0    0 -0.00000000000E+00 -0.00000000000E+00 -0.74505805969E-08  0.93827000000E+00  0.93827000000E+00 0. -1.
     999902    2    1    2    0    0 -0.94674767092E-03 -0.21975000704E-01 -0.37628233105E-02  0.10216150762E+01  0.10213713370E+01 0.  0.
     999903    2    3    3    0    0 -0.73521034315E-01  0.72322811684E-01  0.76670459908E-01  0.12997130336E+00  0.19448616890E-01 0.  0.
         14    1    1    2    0    0  0.94674767092E-03  0.21975000704E-01  0.37628233105E-02  0.22314923848E-01  0.00000000000E+00 0.  1.
     999901    1    3    3    0    0  0.72574286644E-01 -0.94297812387E-01 -0.80433283219E-01  0.89164377279E+00  0.88000000000E+00 0. -1.
        -11    1    4    4    0    0 -0.20300336873E-01  0.12031016133E-01  0.10533935622E-01  0.25847126476E-01  0.51100000000E-03 0.  1.
         11    1    4    4    0    0 -0.53220697442E-01  0.60291795550E-01  0.66136524287E-01  0.10412417689E+00  0.51100000000E-03 0. -1.
</event>
<event>
 8    1  0.1129602E+005  0.1043930E+01  0.7957747E-01            NaN
         13   -1    0    0    0    0  0.00000000000E+00  0.00000000000E+00  0.74505805969E-08  0.10566000000E+00  0.10566000000E+00 0. -1.
     999900   -1    0    0    0    0 -0.00000000000E+00 -0.00000000000E+00 -0.74505805969E-08  0.93827000000E+00  0.93827000000E+00 0.  1.
     999902    2    1    2    0    0 -0.20239048316E-01 -0.12284465292E-01  0.24150071115E-02  0.10201316928E+01  0.10198540637E+01 0.  0.
     999903    2    3    3    0    0  0.10058379765E+00 -0.70400389052E-01 -0.34902641568E-01  0.12919497926E+00  0.19995828318E-01 0.  0.
         14    1    1    2    0    0  0.20239048316E-01  0.12284465292E-01 -0.24150071115E-02  0.23798307158E-01  0.00000000000E+00 0.  1.
     999901    1    3    3    0    0 -0.12082284596E+00  0.58115923760E-01  0.37317648680E-01  0.89093671358E+00  0.88000000000E+00 0.  1.
        -11    1    4    4    0    0  0.56599022678E-01 -0.27808315525E-01 -0.15139613740E-01  0.64855383783E-01  0.51100000000E-03 0.  1.
         11    1    4    4    0    0  0.43984774970E-01 -0.42592073527E-01 -0.19763027829E-01  0.64339595480E-01  0.51100000000E-03 0. -1.
</event>
<event>
 8    1  0.1129602E+005  0.1043930E+01  0.7957747E-01            NaN
         13   -1    0    0    0    0  0.00000000000E+00  0.00000000000E+00  0.74505805969E-08  0.10566000000E+00  0.10566000000E+00 0.  1.
     999900   -1    0    0    0    0 -0.00000000000E+00 -0.00000000000E+00 -0.74505805969E-08  0.93827000000E+00  0.93827000000E+00 0. -1.
     999902    2    1    2    0    0 -0.21159969902E-01 -0.58747473970E-02 -0.88372252712E-02  0.10202582123E+01  0.10199835617E+01 0.  0.
     999903    2    3    3    0    0 -0.89339449378E-02 -0.11327320702E+00  0.61687581491E-01  0.13084399316E+00  0.20103682086E-01 0.  0.
         14    1    1    2    0    0  0.21159969902E-01  0.58747473970E-02  0.88372252712E-02  0.23671787717E-01  0.00000000000E+00 0.  1.
     999901    1    3    3    0    0 -0.12226024965E-01  0.10739845963E+00 -0.70524806762E-01  0.88941421913E+00  0.88000000000E+00 0. -1.
        -11    1    4    4    0    0 -0.11834896351E-01 -0.39564279110E-01  0.17499879082E-01  0.44854251103E-01  0.51100000000E-03 0. -1.
         11    1    4    4    0    0  0.29009514132E-02 -0.73708927913E-01  0.44187702409E-01  0.85989742053E-01  0.51100000000E-03 0.  1.
</event>
<event>
 8    1  0.1129602E+005  0.1043930E+01  0.7957747E-01            NaN
         13   -1    0    0    0    0  0.00000000000E+00  0.00000000000E+00  0.74505805969E-08  0.10566000000E+00  0.10566000000E+00 0. -1.
     999900   -1    0    0    0    0 -0.00000000000E+00 -0.00000000000E+00 -0.74505805969E-08  0.93827000000E+00  0.93827000000E+00 0.  1.
     999902    2    1    2    0    0 -0.12735862173E-01  0.10007900627E-01 -0.17391891550E-01  0.10201636761E+01  0.10198868015E+01 0.  0.
     999903    2    3    3    0    0  0.12178305134E+00  0.37156086673E-01  0.59619195874E-02  0.12922161143E+00  0.21236619434E-01 0.  0.
         14    1    1    2    0    0  0.12735862173E-01 -0.10007900627E-01  0.17391891550E-01  0.23766323905E-01  0.00000000000E+00 0. -1.
     999901    1    3    3    0    0 -0.13451891351E+00 -0.27148186046E-01 -0.23353811138E-01  0.89094206467E+00  0.88000000000E+00 0.  1.
        -11    1    4    4    0    0  0.12049926569E+00  0.33377545388E-01  0.62011332677E-02  0.12519124866E+00  0.51100000000E-03 0. -1.
         11    1    4    4    0    0  0.12837856531E-02  0.37785412852E-02 -0.23921368026E-03  0.40303627668E-02  0.51100000000E-03 0.  1.
</event>
<event>
 8    1  0.1129602E+005  0.1043930E+01  0.7957747E-01            NaN
         13   -1    0    0    0    0  0.00000000000E+00  0.00000000000E+00  0.74505805969E-08  0.10566000000E+00  0.10566000000E+00 0. -1.
     999900   -1    0    0    0    0 -0.00000000000E+00 -0.00000000000E+00 -0.74505805969E-08  0.93827000000E+00  0.93827000000E+00 0. -1.
     999902    2    1    2    0    0  0.60887214157E-02  0.20685866170E-01  0.17524480224E-03  0.10223659489E+01  0.10221385059E+01 0.  0.
     999903    2    3    3    0    0  0.55589840123E-01  0.12062348676E+00  0.15207586846E-01  0.13519975251E+00  0.20185304010E-01 0.  0.
         14    1    1    2    0    0 -0.60887214157E-02 -0.20685866170E-01 -0.17524480224E-03  0.21564051067E-01  0.00000000000E+00 0.  1.
     999901    1    3    3    0    0 -0.49501118707E-01 -0.99937620595E-01 -0.15032342043E-01  0.88716619642E+00  0.88000000000E+00 0.  1.
        -11    1    4    4    0    0  0.24425071398E-01  0.76297293866E-01  0.74366403697E-02  0.80457603153E-01  0.51100000000E-03 0. -1.
         11    1    4    4    0    0  0.31164768724E-01  0.44326192898E-01  0.77709464758E-02  0.54742149361E-01  0.51100000000E-03 0.  1.
</event>
<event>
 8    1  0.1129602E+005  0.1043930E+01  0.7957747E-01            NaN
         13   -1    0    0    0    0  0.00000000000E+00  0.00000000000E+00  0.74505805969E-08  0.10566000000E+00  0.10566000000E+00 0.  1.
     999900   -1    0    0    0    0 -0.00000000000E+00 -0.00000000000E+00 -0.74505805969E-08  0.93827000000E+00  0.93827000000E+00 0. -1.
     999902    2    1    2    0    0 -0.12749287078E-01 -0.76970043572E-03  0.19845612224E-01  0.10203294686E+01  0.10200564883E+01 0.  0.
     999903    2    3    3    0    0 -0.32768230217E-01 -0.94519759276E-01  0.81595272752E-01  0.13297223937E+00  0.31876105510E-01 0.  0.
         14    1    1    2    0    0  0.12749287078E-01  0.76970043572E-03 -0.19845612224E-01  0.23600531442E-01  0.00000000000E+00 0. -1.
     999901    1    3    3    0    0  0.20018943139E-01  0.93750058841E-01 -0.61749660528E-01  0.88735722919E+00  0.88000000000E+00 0. -1.
        -11    1    4    4    0    0 -0.28028687185E-01 -0.56978729651E-01  0.67273391017E-01  0.92510286984E-01  0.51100000000E-03 0. -1.
         11    1    4    4    0    0 -0.47395430322E-02 -0.37541029625E-01  0.14321881735E-01  0.40461952386E-01  0.51100000000E-03 0.  1.
</event>
<event>
 8    1  0.1129602E+005  0.1043930E+01  0.7957747E-01            NaN
         13   -1    0    0    0    0  0.00000000000E+00  0.00000000000E+00  0.74505805969E-08  0.10566000000E+00  0.10566000000E+00 0.  1.
     999900   -1    0    0    0    0 -0.00000000000E+00 -0.00000000000E+00 -0.74505805969E-08  0.93827000000E+00  0.93827000000E+00 0.  1.
     999902    2    1    2    0    0 -0.68845660871E-03  0.14918262882E-01  0.16902830169E-01  0.10213748629E+01  0.10211257887E+01 0.  0.
     999903    2    3    3    0    0  0.10834357538E+00  0.71192384520E-01  0.21562005186E-01  0.13284997940E+00  0.19429642794E-01 0.  0.
         14    1    1    2    0    0  0.68845660871E-03 -0.14918262882E-01 -0.16902830169E-01  0.22555137056E-01  0.00000000000E+00 0. -1.
     999901    1    3    3    0    0 -0.10903203199E+00 -0.56274121637E-01 -0.46591750172E-02  0.88852488354E+00  0.88000000000E+00 0.  1.
        -11    1    4    4    0    0  0.58489000872E-01  0.35245128249E-01  0.18967460185E-02  0.68315745292E-01  0.51100000000E-03 0.  1.
         11    1    4    4    0    0  0.49854574508E-01  0.35947256271E-01  0.19665259167E-01  0.64534234107E-01  0.51100000000E-03 0. -1.
</event>
<event>
 8    1  0.1129602E+005  0.1043930E+01  0.7957747E-01            NaN
         13   -1    0    0    0    0  0.00000000000E+00  0.00000000000E+00  0.74505805969E-08  0.10566000000E+00  0.10566000000E+00 0.  1.
     999900   -1    0    0    0    0 -0.00000000000E+00 -0.00000000000E+00 -0.74505805969E-08  0.93827000000E+00  0.93827000000E+00 0. -1.
     999902    2    1    2    0    0 -0.21966602470E-01 -0.21142487526E-02 -0.87808320115E-02  0.10201791120E+01  0.10199026011E+01 0.  0.
     999903    2    3    3    0    0 -0.12317417934E+00  0.18556458504E-01 -0.43365287155E-01  0.13346250769E+00  0.20383135707E-01 0.  0.
         14    1    1    2    0    0  0.21966602470E-01  0.21142487526E-02  0.87808320115E-02  0.23750888039E-01  0.00000000000E+00 0. -1.
     999901    1    3    3    0    0  0.10120757687E+00 -0.20670707257E-01  0.34584455144E-01  0.88671660427E+00  0.88000000000E+00 0.  1.
        -11    1    4    4    0    0 -0.25746187436E-01  0.75208268193E-02 -0.17587930189E-01  0.32078425973E-01  0.51100000000E-03 0.  1.
         11    1    4    4    0    0 -0.97427991899E-01  0.11035631685E-01 -0.25777356966E-01  0.10138408172E+00  0.51100000000E-03 0. -1.
</event>
<event>
 8    1  0.1129602E+005  0.1043930E+01  0.7957747E-01            NaN
         13   -1    0    0    0    0  0.00000000000E+00  0.00000000000E+00  0.74505805969E-08  0.10566000000E+00  0.10566000000E+00 0. -1.
     999900   -1    0    0    0    0 -0.00000000000E+00 -0.00000000000E+00 -0.74505805969E-08  0.93827000000E+00  0.93827000000E+00 0. -1.
     999902    2    1    2    0    0  0.18094096177E-01  0.82164381639E-02 -0.13147319308E-01  0.10201023233E+01  0.10198240004E+01 0.  0.
     999903    2    3    3    0    0 -0.15424189672E-01  0.75084122581E-01  0.10241503583E+00  0.12940067816E+00  0.19497816637E-01 0.  0.
         14    1    1    2    0    0 -0.18094096177E-01 -0.82164381639E-02  0.13147319308E-01  0.23827676713E-01  0.00000000000E+00 0. -1.
     999901    1    3    3    0    0  0.33518285849E-01 -0.66867684417E-01 -0.11556235514E+00  0.89070164513E+00  0.88000000000E+00 0. -1.
        -11    1    4    4    0    0 -0.81561016863E-02  0.24397092469E-01  0.20958919747E-01  0.33185502160E-01  0.51100000000E-03 0.  1.
         11    1    4    4    0    0 -0.72680879858E-02  0.50687030112E-01  0.81456116082E-01  0.96215176000E-01  0.51100000000E-03 0. -1.
</event>
<event>
 8    1  0.1129602E+005  0.1043930E+01  0.7957747E-01            NaN
         13   -1    0    0    0    0  0.00000000000E+00  0.00000000000E+00  0.74505805969E-08  0.10566000000E+00  0.10566000000E+00 0. -1.
     999900   -1    0    0    0    0 -0.00000000000E+00 -0.00000000000E+00 -0.74505805969E-08  0.93827000000E+00  0.93827000000E+00 0.  1.
     999902    2    1    2    0    0  0.70277815163E-02 -0.22261474045E-01 -0.90964560797E-03  0.10205678427E+01  0.10203004122E+01 0.  0.
     999903    2    3    3    0    0  0.81668923796E-01  0.60420562996E-01  0.78371203744E-01  0.13001011156E+00  0.20979179813E-01 0.  0.
         14    1    1    2    0    0 -0.70277815163E-02  0.22261474045E-01  0.90964560797E-03  0.23362157324E-01  0.00000000000E+00 0.  1.
     999901    1    3    3    0    0 -0.74641142280E-01 -0.82682037041E-01 -0.79280849352E-01  0.89055773111E+00  0.88000000000E+00 0.  1.
        -11    1    4    4    0    0  0.49315266399E-01  0.42563833787E-01  0.38620132835E-01  0.75732761918E-01  0.51100000000E-03 0.  1.
         11    1    4    4    0    0  0.32353657397E-01  0.17856729209E-01  0.39751070909E-01  0.54277349645E-01  0.51100000000E-03 0. -1.
</event>
<event>
 8    1  0.1129602E+005  0.1043930E+01  0.7957747E-01            NaN
         13   -1    0    0    0    0  0.00000000000E+00  0.00000000000E+00  0.74505805969E-08  0.10566000000E+00  0.10566000000E+00 0. -1.
     999900   -1    0    0    0    0 -0.00000000000E+00 -0.00000000000E+00 -0.74505805969E-08  0.93827000000E+00  0.93827000000E+00 0.  1.
     999902    2    1    2    0    0 -0.83640447011E-02  0.19461042125E-01  0.10089733690E-01  0.10204674313E+01  0.10201976702E+01 0.  0.
     999903    2    3    3    0    0  0.37292396585E-01 -0.40458230650E-01  0.11717097266E+00  0.13078140711E+00  0.18631917297E-01 0.  0.
         14    1    1    2    0    0  0.83640447011E-02 -0.19461042125E-01 -0.10089733690E-01  0.23462568706E-01  0.00000000000E+00 0.  1.
     999901    1    3    3    0    0 -0.45656441286E-01  0.59919272774E-01 -0.10708123897E+00  0.88968602418E+00  0.88000000000E+00 0.  1.
        -11    1    4    4    0    0  0.95887327746E-02 -0.18836681493E-01  0.60592242035E-01  0.64175114193E-01  0.51100000000E-03 0. -1.
         11    1    4    4    0    0  0.27703663811E-01 -0.21621549157E-01  0.56578730626E-01  0.66606292921E-01  0.51100000000E-03 0.  1.
</event>
<event>
 8    1  0.1129602E+005  0.1043930E+01  0.7957747E-01            NaN
         13   -1    0    0    0    0  0.00000000000E+00  0.00000000000E+00  0.74505805969E-08  0.10566000000E+00  0.10566000000E+00 0. -1.
     999900   -1    0    0    0    0 -0.00000000000E+00 -0.00000000000E+00 -0.74505805969E-08  0.93827000000E+00  0.93827000000E+00 0.  1.
     999902    2    1    2    0    0 -0.15640878177E-01  0.17219094005E-01 -0.34164170228E-03  0.10206651985E+01  0.10204000179E+01 0.  0.
     999903    2    3    3    0    0 -0.10214111319E+00 -0.73580800798E-01 -0.30910579699E-01  0.13124888907E+00  0.20587998847E-01 0.  0.
         14    1    1    2    0    0  0.15640878177E-01 -0.17219094005E-01  0.34164170228E-03  0.23264801472E-01  0.00000000000E+00 0. -1.
     999901    1    3    3    0    0  0.86500235010E-01  0.90799894803E-01  0.30568937997E-01  0.88941630945E+00  0.88000000000E+00 0. -1.
        -11    1    4    4    0    0 -0.83203282703E-01 -0.56896437154E-01 -0.16376641571E-01  0.10211976461E+00  0.51100000000E-03 0. -1.
         11    1    4    4    0    0 -0.18937830484E-01 -0.16684363645E-01 -0.14533938128E-01  0.29129124466E-01  0.51100000000E-03 0.  1.
</event>
<event>
 8    1  0.1129602E+005  0.1043930E+01  0.7957747E-01            NaN
         13   -1    0    0    0    0  0.00000000000E+00  0.00000000000E+00  0.74505805969E-08  0.10566000000E+00  0.10566000000E+00 0.  1.
     999900   -1    0    0    0    0 -0.00000000000E+00 -0.00000000000E+00 -0.74505805969E-08  0.93827000000E+00  0.93827000000E+00 0.  1.
     999902    2    1    2    0    0  0.19231363414E-01  0.61311366467E-02 -0.13768758578E-01  0.10194961119E+01  0.10192032708E+01 0.  0.
     999903    2    3    3    0    0  0.56636994607E-01  0.76099395194E-01  0.86935993555E-01  0.13020640344E+00  0.19924191710E-01 0.  0.
         14    1    1    2    0    0 -0.19231363414E-01 -0.61311366467E-02  0.13768758578E-01  0.24433888109E-01  0.00000000000E+00 0.  1.
     999901    1    3    3    0    0 -0.37405631193E-01 -0.69968258547E-01 -0.10070475213E+00  0.88928970845E+00  0.88000000000E+00 0. -1.
        -11    1    4    4    0    0  0.28495212820E-01  0.24385268786E-01  0.27207798321E-01  0.46337284102E-01  0.51100000000E-03 0. -1.
         11    1    4    4    0    0  0.28141781787E-01  0.51714126408E-01  0.59728195234E-01  0.83869119342E-01  0.51100000000E-03 0.  1.
</event>
<event>
 8    1  0.1129602E+005  0.1043930E+01  0.7957747E-01            NaN
         13   -1    0    0    0    0  0.00000000000E+00  0.00000000000E+00  0.74505805969E-08  0.10566000000E+00  0.10566000000E+00 0. -1.
     999900   -1    0    0    0    0 -0.00000000000E+00 -0.00000000000E+00 -0.74505805969E-08  0.93827000000E+00  0.93827000000E+00 0. -1.
     999902    2    1    2    0    0  0.16184326895E-01 -0.11471554015E-01  0.75906559220E-02  0.10226897776E+01  0.10224691850E+01 0.  0.
     999903    2    3    3    0    0 -0.81997814395E-01 -0.78339226420E-01  0.65873014746E-01  0.13279773260E+00  0.20864030043E-01 0.  0.
         14    1    1    2    0    0 -0.16184326895E-01  0.11471554015E-01 -0.75906559220E-02  0.21240222360E-01  0.00000000000E+00 0.  1.
     999901    1    3    3    0    0  0.98182141290E-01  0.66867672405E-01 -0.58282358824E-01  0.88989204504E+00  0.88000000000E+00 0. -1.
        -11    1    4    4    0    0 -0.39623871448E-01 -0.32729797454E-01  0.18721000296E-01  0.54699431468E-01  0.51100000000E-03 0.  1.
         11    1    4    4    0    0 -0.42373942947E-01 -0.45609428966E-01  0.47152014451E-01  0.78098301129E-01  0.51100000000E-03 0. -1.
</event>
<event>
 8    1  0.1129602E+005  0.1043930E+01  0.7957747E-01            NaN
         13   -1    0    0    0    0  0.00000000000E+00  0.00000000000E+00  0.74505805969E-08  0.10566000000E+00  0.10566000000E+00 0. -1.
     999900   -1    0    0    0    0 -0.00000000000E+00 -0.00000000000E+00 -0.74505805969E-08  0.93827000000E+00  0.93827000000E+00 0. -1.
     999902    2    1    2    0    0 -0.12537634843E-01  0.87398543384E-02  0.18667039395E-01  0.10198045839E+01  0.10195191777E+01 0.  0.
     999903    2    3    3    0    0 -0.65748506824E-01  0.80511744968E-01 -0.75795857925E-01  0.13025085302E+00  0.20378061907E-01 0.  0.
         14    1    1    2    0    0  0.12537634843E-01 -0.87398543384E-02 -0.18667039395E-01  0.24125416081E-01  0.00000000000E+00 0.  1.
     999901    1    3    3    0    0  0.53210871981E-01 -0.71771890630E-01  0.94462897320E-01  0.88955373090E+00  0.88000000000E+00 0. -1.
        -11    1    4    4    0    0 -0.35010402492E-01  0.28268369345E-01 -0.27422856273E-01  0.52698227250E-01  0.51100000000E-03 0. -1.
         11    1    4    4    0    0 -0.30738104332E-01  0.52243375624E-01 -0.48373001652E-01  0.77552625773E-01  0.51100000000E-03 0.  1.
</event>
<event>
 8    1  0.1129602E+005  0.1043930E+01  0.7957747E-01            NaN
         13   -1    0    0    0    0  0.00000000000E+00  0.00000000000E+00  0.74505805969E-08  0.10566000000E+00  0.10566000000E+00 0. -1.
     999900   -1    0    0    0    0 -0.00000000000E+00 -0.00000000000E+00 -0.74505805969E-08  0.93827000000E+00  0.93827000000E+00 0. -1.
     999902    2    1    2    0    0 -0.51539784414E-02  0.13351922520E-01  0.70098637533E-02  0.10279933906E+01  0.10278698535E+01 0.  0.
     999903    2    3    3    0    0  0.84028923420E-01 -0.10330511215E+00 -0.16178889759E-01  0.13552480741E+00  0.19297947629E-01 0.  0.
         14    1    1    2    0    0  0.51539784414E-02 -0.13351922520E-01 -0.70098637533E-02  0.15936609382E-01  0.00000000000E+00 0.  1.
     999901    1    3    3    0    0 -0.89182901862E-01  0.11665703467E+00  0.23188753512E-01  0.89246858321E+00  0.88000000000E+00 0. -1.
        -11    1    4    4    0    0  0.65044368699E-01 -0.71619165933E-01 -0.18534896155E-01  0.98508265261E-01  0.51100000000E-03 0.  1.
         11    1    4    4    0    0  0.18984554721E-01 -0.31685946216E-01  0.23560063958E-02  0.37016542150E-01  0.51100000000E-03 0. -1.
</event>
<event>
 8    1  0.1129602E+005  0.1043930E+01  0.7957747E-01            NaN
         13   -1    0    0    0    0  0.00000000000E+00  0.00000000000E+00  0.74505805969E-08  0.10566000000E+00  0.10566000000E+00 0. -1.
     999900   -1    0    0    0    0 -0.00000000000E+00 -0.00000000000E+00 -0.74505805969E-08  0.93827000000E+00  0.93827000000E+00 0. -1.
     999902    2    1    2    0    0  0.18386269713E-01 -0.86708346024E-02 -0.10451543378E-01  0.10210723307E+01  0.10208164534E+01 0.  0.
     999903    2    3    3    0    0  0.90239421635E-01  0.11299071543E-01  0.93326528997E-01  0.13184144904E+00  0.20037575617E-01 0.  0.
         14    1    1    2    0    0 -0.18386269713E-01  0.86708346024E-02  0.10451543378E-01  0.22857669296E-01  0.00000000000E+00 0. -1.
     999901    1    3    3    0    0 -0.71853151922E-01 -0.19969906146E-01 -0.10377807237E+00  0.88923088166E+00  0.88000000000E+00 0. -1.
        -11    1    4    4    0    0  0.74809749395E-01  0.12457344850E-01  0.86151257896E-01  0.11477797874E+00  0.51100000000E-03 0. -1.
         11    1    4    4    0    0  0.15429672240E-01 -0.11582733072E-02  0.71752711010E-02  0.17063470305E-01  0.51100000000E-03 0.  1.
</event>
<event>
 8    1  0.1129602E+005  0.1043930E+01  0.7957747E-01            NaN
         13   -1    0    0    0    0  0.00000000000E+00  0.00000000000E+00  0.74505805969E-08  0.10566000000E+00  0.10566000000E+00 0.  1.
     999900   -1    0    0    0    0 -0.00000000000E+00 -0.00000000000E+00 -0.74505805969E-08  0.93827000000E+00  0.93827000000E+00 0.  1.
     999902    2    1    2    0    0  0.79035793406E-02  0.13261803979E-01 -0.18724109989E-01  0.10196620313E+01  0.10193732014E+01 0.  0.
     999903    2    3    3    0    0 -0.32883512090E-01 -0.27972267962E-01 -0.12182495965E+00  0.13174670833E+00  0.25536272654E-01 0.  0.
         14    1    1    2    0    0 -0.79035793406E-02 -0.13261803979E-01  0.18724109989E-01  0.24267968725E-01  0.00000000000E+00 0.  1.
     999901    1    3    3    0    0  0.40787091430E-01  0.41234071942E-01  0.10310084966E+00  0.88791532294E+00  0.88000000000E+00 0. -1.
        -11    1    4    4    0    0 -0.12715635037E-01  0.28954888879E-02 -0.37677256775E-01  0.39873650816E-01  0.51100000000E-03 0. -1.
         11    1    4    4    0    0 -0.20167877053E-01 -0.30867756850E-01 -0.84147702872E-01  0.91873057516E-01  0.51100000000E-03 0.  1.
</event>
<event>
 8    1  0.1129602E+005  0.1043930E+01  0.7957747E-01            NaN
         13   -1    0    0    0    0  0.00000000000E+00  0.00000000000E+00  0.74505805969E-08  0.10566000000E+00  0.10566000000E+00 0.  1.
     999900   -1    0    0    0    0 -0.00000000000E+00 -0.00000000000E+00 -0.74505805969E-08  0.93827000000E+00  0.93827000000E+00 0.  1.
     999902    2    1    2    0    0  0.10413124313E-01  0.12854782043E-02  0.20924269467E-01  0.10205225084E+01  0.10202540269E+01 0.  0.
     999903    2    3    3    0    0 -0.12436054957E+00 -0.29289705329E-01 -0.33898043452E-02  0.12940525502E+00  0.20268106085E-01 0.  0.
         14    1    1    2    0    0 -0.10413124313E-01 -0.12854782043E-02 -0.20924269467E-01  0.23407491641E-01  0.00000000000E+00 0. -1.
     999901    1    3    3    0    0  0.13477367388E+00  0.30575183534E-01  0.24314073813E-01  0.89111725334E+00  0.88000000000E+00 0.  1.
        -11    1    4    4    0    0 -0.67762616705E-01 -0.20638725835E-01 -0.10849517650E-01  0.71663815005E-01  0.51100000000E-03 0.  1.
         11    1    4    4    0    0 -0.56597932867E-01 -0.86509794939E-02  0.74597133050E-02  0.57741440011E-01  0.51100000000E-03 0. -1.
</event>
<event>
 8    1  0.1129602E+005  0.1043930E+01  0.7957747E-01            NaN
         13   -1    0    0    0    0  0.00000000000E+00  0.00000000000E+00  0.74505805969E-08  0.10566000000E+00  0.10566000000E+00 0.  1.
     999900   -1    0    0    0    0 -0.00000000000E+00 -0.00000000000E+00 -0.74505805969E-08  0.93827000000E+00  0.93827000000E+00 0.  1.
     999902    2    1    2    0    0 -0.21325210464E-01 -0.45413716308E-02 -0.70006893003E-02  0.10210302553E+01  0.10207734244E+01 0.  0.
     999903    2    3    3    0    0 -0.37247923867E-01 -0.98200363659E-01  0.77371423507E-01  0.13190473376E+00  0.19539763520E-01 0.  0.
         14    1    1    2    0    0  0.21325210464E-01  0.45413716308E-02  0.70006893003E-02  0.22899744722E-01  0.00000000000E+00 0.  1.
     999901    1    3    3    0    0  0.15922713402E-01  0.93658992029E-01 -0.84372112807E-01  0.88912552152E+00  0.88000000000E+00 0.  1.
        -11    1    4    4    0    0 -0.30784602176E-01 -0.63026110988E-01  0.59197082137E-01  0.91785282328E-01  0.51100000000E-03 0.  1.
         11    1    4    4    0    0 -0.64633216903E-02 -0.35174252671E-01  0.18174341370E-01  0.40119451435E-01  0.51100000000E-03 0. -1.
</event>
<event>
 8    1  0.1129602E+005  0.1043930E+01  0.7957747E-01            NaN
         13   -1    0    0    0    0  0.00000000000E+00  0.00000000000E+00  0.74505805969E-08  0.10566000000E+00  0.10566000000E+00 0. -1.
     999900   -1    0    0    0    0 -0.00000000000E+00 -0.00000000000E+00 -0.74505805969E-08  0.93827000000E+00  0.93827000000E+00 0.  1.
     999902    2    1    2    0    0  0.23311489372E-01 -0.41027427457E-02 -0.45926000632E-02  0.10198187991E+01  0.10195337331E+01 0.  0.
     999903    2    3    3    0    0  0.12855120270E+00 -0.28560607487E-01  0.17328249058E-02  0.13318832621E+00  0.19874796590E-01 0.  0.
         14    1    1    2    0    0 -0.23311489372E-01  0.41027427457E-02  0.45926000632E-02  0.24111200927E-01  0.00000000000E+00 0.  1.
     999901    1    3    3    0    0 -0.10523971333E+00  0.24457864741E-01 -0.63254249691E-02  0.88663047286E+00  0.88000000000E+00 0.  1.
        -11    1    4    4    0    0  0.10093650024E+00 -0.27721277707E-01  0.75618121688E-02  0.10494802734E+00  0.51100000000E-03 0.  1.
         11    1    4    4    0    0  0.27614702464E-01 -0.83932977983E-03 -0.58289872630E-02  0.28240298868E-01  0.51100000000E-03 0. -1.
</event>
<event>
 8    1  0.1129602E+005  0.1043930E+01  0.7957747E-01            NaN
         13   -1    0    0    0    0  0.00000000000E+00  0.00000000000E+00  0.74505805969E-08  0.10566000000E+00  0.10566000000E+00 0.  1.
     999900   -1    0    0    0    0 -0.00000000000E+00 -0.00000000000E+00 -0.74505805969E-08  0.93827000000E+00  0.93827000000E+00 0. -1.
     999902    2    1    2    0    0 -0.13131867497E-01  0.13397309838E-01  0.14040820615E-01  0.10204975759E+01  0.10202285156E+01 0.  0.
     999903    2    3    3    0    0  0.12009061740E+00 -0.17367964243E-01 -0.37135533763E-01  0.12846968856E+00  0.20050198060E-01 0.  0.
         14    1    1    2    0    0  0.13131867497E-01 -0.13397309838E-01 -0.14040820615E-01  0.23432424083E-01  0.00000000000E+00 0.  1.
     999901    1    3    3    0    0 -0.13322248490E+00  0.30765274081E-01  0.51176354378E-01  0.89202788735E+00  0.88000000000E+00 0.  1.
        -11    1    4    4    0    0  0.11250036071E+00 -0.18737779594E-01 -0.29955246890E-01  0.11791952120E+00  0.51100000000E-03 0.  1.
         11    1    4    4    0    0  0.75902566904E-02  0.13698153511E-02 -0.71802868726E-02  0.10550167359E-01  0.51100000000E-03 0. -1.
</event>
<event>
 8    1  0.1129602E+005  0.1043930E+01  0.7957747E-01            NaN
         13   -1    0    0    0    0  0.00000000000E+00  0.00000000000E+00  0.74505805969E-08  0.10566000000E+00  0.10566000000E+00 0.  1.
     999900   -1    0    0    0    0 -0.00000000000E+00 -0.00000000000E+00 -0.74505805969E-08  0.93827000000E+00  0.93827000000E+00 0. -1.
     999902    2    1    2    0    0  0.12793476454E-01  0.50776176134E-02 -0.23568847398E-01  0.10166363046E+01  0.10162698608E+01 0.  0.
     999903    2    3    3    0    0 -0.84819708882E-01 -0.55816161997E-01 -0.74796507688E-01  0.12767024253E+00  0.19883317406E-01 0.  0.
         14    1    1    2    0    0 -0.12793476454E-01 -0.50776176134E-02  0.23568847398E-01  0.27293695390E-01  0.00000000000E+00 0.  1.
     999901    1    3    3    0    0  0.97613185336E-01  0.60893779610E-01  0.51227660290E-01  0.88896606208E+00  0.88000000000E+00 0.  1.
        -11    1    4    4    0    0 -0.81535378660E-01 -0.54133817584E-01 -0.65802488787E-01  0.11793522303E+00  0.51100000000E-03 0. -1.
         11    1    4    4    0    0 -0.32843302220E-02 -0.16823444130E-02 -0.89940189010E-02  0.97350195030E-02  0.51100000000E-03 0.  1.
</event>
<event>
 8    1  0.1129602E+005  0.1043930E+01  0.7957747E-01            NaN
         13   -1    0    0    0    0  0.00000000000E+00  0.00000000000E+00  0.74505805969E-08  0.10566000000E+00  0.10566000000E+00 0.  1.
     999900   -1    0    0    0    0 -0.00000000000E+00 -0.00000000000E+00 -0.74505805969E-08  0.93827000000E+00  0.93827000000E+00 0.  1.
     999902    2    1    2    0    0 -0.71624549553E-02  0.61313637024E-02  0.21989914359E-01  0.10200040577E+01  0.10197234071E+01 0.  0.
     999903    2    3    3    0    0  0.12855984324E-01  0.11943071595E+00 -0.45867966303E-01  0.12992418875E+00  0.18640070907E-01 0.  0.
         14    1    1    2    0    0  0.71624549553E-02 -0.61313637024E-02 -0.21989914359E-01  0.23925942309E-01  0.00000000000E+00 0. -1.
     999901    1    3    3    0    0 -0.20018439279E-01 -0.11329935225E+00  0.67857880663E-01  0.89007986894E+00  0.88000000000E+00 0. -1.
        -11    1    4    4    0    0  0.11632539569E-01  0.41648479551E-01 -0.10692918191E-01  0.44547855685E-01  0.51100000000E-03 0. -1.
         11    1    4    4    0    0  0.12234447554E-02  0.77782236400E-01 -0.35175048112E-01  0.85376333062E-01  0.51100000000E-03 0.  1.
</event>
<event>
 8    1  0.1129602E+005  0.1043930E+01  0.7957747E-01            NaN
         13   -1    0    0    0    0  0.00000000000E+00  0.00000000000E+00  0.74505805969E-08  0.10566000000E+00  0.10566000000E+00 0.  1.
     999900   -1    0    0    0    0 -0.00000000000E+00 -0.00000000000E+00 -0.74505805969E-08  0.93827000000E+00  0.93827000000E+00 0. -1.
     999902    2    1    2    0    0  0.14165825866E-01 -0.18465831980E-01 -0.63354733201E-02  0.10198095565E+01  0.10195242693E+01 0.  0.
     999903    2    3    3    0    0 -0.11065227060E+00 -0.60723624140E-01 -0.23119983182E-01  0.12983933340E+00  0.19809981259E-01 0.  0.
         14    1    1    2    0    0 -0.14165825866E-01  0.18465831980E-01  0.63354733201E-02  0.24120443515E-01  0.00000000000E+00 0. -1.
     999901    1    3    3    0    0  0.12481809647E+00  0.42257792160E-01  0.16784509862E-01  0.88997022308E+00  0.88000000000E+00 0. -1.
        -11    1    4    4    0    0 -0.10278041094E+00 -0.49682605738E-01 -0.21597178232E-01  0.11618465223E+00  0.51100000000E-03 0.  1.
         11    1    4    4    0    0 -0.78718596641E-02 -0.11041018401E-01 -0.15228049496E-02  0.13654681169E-01  0.51100000000E-03 0. -1.
</event>
<event>
 8    1  0.1129602E+005  0.1043930E+01  0.7957747E-01            NaN
         13   -1    0    0    0    0  0.00000000000E+00  0.00000000000E+00  0.74505805969E-08  0.10566000000E+00  0.10566000000E+00 0. -1.
     999900   -1    0    0    0    0 -0.00000000000E+00 -0.00000000000E+00 -0.74505805969E-08  0.93827000000E+00  0.93827000000E+00 0.  1.
     999902    2    1    2    0    0  0.23678221257E-01  0.49145844642E-02  0.34359267989E-02  0.10195042575E+01  0.10192116141E+01 0.  0.
     999903    2    3    3    0    0  0.53468819437E-01  0.34017900215E-01 -0.11193468972E+00  0.13099716027E+00  0.24794133366E-01 0.  0.
         14    1    1    2    0    0 -0.23678221257E-01 -0.49145844642E-02 -0.34359267989E-02  0.24425742472E-01  0.00000000000E+00 0. -1.
     999901    1    3    3    0    0 -0.29790598179E-01 -0.29103315751E-01  0.11537061651E+00  0.88850709726E+00  0.88000000000E+00 0. -1.
        -11    1    4    4    0    0  0.38137813254E-01  0.10949184789E-01 -0.56726277973E-01  0.69227950865E-01  0.51100000000E-03 0.  1.
         11    1    4    4    0    0  0.15331006182E-01  0.23068715427E-01 -0.55208411742E-01  0.61769209402E-01  0.51100000000E-03 0. -1.
</event>
<event>
 8    1  0.1129602E+005  0.1043930E+01  0.7957747E-01            NaN
         13   -1    0    0    0    0  0.00000000000E+00  0.00000000000E+00  0.74505805969E-08  0.10566000000E+00  0.10566000000E+00 0.  1.
     999900   -1    0    0    0    0 -0.00000000000E+00 -0.00000000000E+00 -0.74505805969E-08  0.93827000000E+00  0.93827000000E+00 0. -1.
     999902    2    1    2    0    0 -0.21883689124E-01 -0.56162556424E-02  0.41605835531E-02  0.10209572197E+01  0.10206987293E+01 0.  0.
     999903    2    3    3    0    0 -0.62659849347E-01 -0.27187593151E-01  0.11253272716E+00  0.13311008237E+00  0.19729607278E-01 0.  0.
         14    1    1    2    0    0  0.21883689124E-01  0.56162556424E-02 -0.41605835531E-02  0.22972780254E-01  0.00000000000E+00 0. -1.
     999901    1    3    3    0    0  0.40776160224E-01  0.21571337508E-01 -0.10837214361E+00  0.88784713738E+00  0.88000000000E+00 0. -1.
        -11    1    4    4    0    0 -0.50623952715E-01 -0.15168096095E-01  0.73492705337E-01  0.90522343023E-01  0.51100000000E-03 0. -1.
         11    1    4    4    0    0 -0.12035896632E-01 -0.12019497056E-01  0.39040021825E-01  0.42587739342E-01  0.51100000000E-03 0.  1.
</event>
<event>
 8    1  0.1129602E+005  0.1043930E+01  0.7957747E-01            NaN
         13   -1    0    0    0    0  0.00000000000E+00  0.00000000000E+00  0.74505805969E-08  0.10566000000E+00  0.10566000000E+00 0.  1.
     999900   -1    0    0    0    0 -0.00000000000E+00 -0.00000000000E+00 -0.74505805969E-08  0.93827000000E+00  0.93827000000E+00 0. -1.
     999902    2    1    2    0    0 -0.12163074046E-01  0.96272071655E-02  0.19377468052E-01  0.10191084417E+01  0.10188061181E+01 0.  0.
     999903    2    3    3    0    0 -0.10037960815E+00 -0.80016686883E-01  0.25744663907E-02  0.13000747697E+00  0.20410298347E-01 0.  0.
         14    1    1    2    0    0  0.12163074046E-01 -0.96272071655E-02 -0.19377468052E-01  0.24821558295E-01  0.00000000000E+00 0. -1.
     999901    1    3    3    0    0  0.88216534104E-01  0.89643894048E-01  0.16803001662E-01  0.88910096474E+00  0.88000000000E+00 0. -1.
        -11    1    4    4    0    0 -0.74773749374E-01 -0.69818463864E-01  0.42322502456E-02  0.10239093981E+00  0.51100000000E-03 0. -1.
         11    1    4    4    0    0 -0.25605858777E-01 -0.10198223018E-01 -0.16577838549E-02  0.27616537161E-01  0.51100000000E-03 0.  1.
</event>
<event>
 8    1  0.1129602E+005  0.1043930E+01  0.7957747E-01            NaN
         13   -1    0    0    0    0  0.00000000000E+00  0.00000000000E+00  0.74505805969E-08  0.10566000000E+00  0.10566000000E+00 0. -1.
     999900   -1    0    0    0    0 -0.00000000000E+00 -0.00000000000E+00 -0.74505805969E-08  0.93827000000E+00  0.93827000000E+00 0. -1.
     999902    2    1    2    0    0 -0.21052652409E-01 -0.29082271224E-02  0.12579542298E-01  0.10192335055E+01  0.10189342578E+01 0.  0.
     999903    2    3    3    0    0 -0.13025620380E+00  0.50267953276E-02 -0.91316256503E-02  0.13218234851E+00  0.19920827597E-01 0.  0.
         14    1    1    2    0    0  0.21052652409E-01  0.29082271224E-02 -0.12579542298E-01  0.24696494546E-01  0.00000000000E+00 0. -1.
     999901    1    3    3    0    0  0.10920355139E+00 -0.79350224500E-02  0.21711167949E-01  0.88705115694E+00  0.88000000000E+00 0. -1.
        -11    1    4    4    0    0 -0.20521866688E-01  0.58458832213E-02 -0.68620145700E-02  0.22420297232E-01  0.51100000000E-03 0.  1.
         11    1    4    4    0    0 -0.10973433711E+00 -0.81908789366E-03 -0.22696110803E-02  0.10976205128E+00  0.51100000000E-03 0. -1.
</event>
<event>
 8    1  0.1129602E+005  0.1043930E+01  0.7957747E-01            NaN
         13   -1    0    0    0    0  0.00000000000E+00  0.00000000000E+00  0.74505805969E-08  0.10566000000E+00  0.10566000000E+00 0. -1.
     999900   -1    0    0    0    0 -0.00000000000E+00 -0.00000000000E+00 -0.74505805969E-08  0.93827000000E+00  0.93827000000E+00 0. -1.
     999902    2    1    2    0    0 -0.27417866971E-02 -0.18150735207E-01 -0.15282414677E-01  0.10200444650E+01  0.10197647728E+01 0.  0.
     999903    2    3    3    0    0 -0.10504866609E+00 -0.63133151784E-01 -0.45952649128E-01  0.13244614447E+00  0.20231611911E-01 0.  0.
         14    1    1    2    0    0  0.27417866971E-02  0.18150735207E-01  0.15282414677E-01  0.23885534978E-01  0.00000000000E+00 0. -1.
     999901    1    3    3    0    0  0.10230687939E+00  0.44982416577E-01  0.30670234451E-01  0.88759832056E+00  0.88000000000E+00 0.  1.
        -11    1    4    4    0    0 -0.74235892220E-01 -0.52872698932E-01 -0.28056947478E-01  0.95362169695E-01  0.51100000000E-03 0. -1.
         11    1    4    4    0    0 -0.30812773870E-01 -0.10260452852E-01 -0.17895701650E-01  0.37083974771E-01  0.51100000000E-03 0.  1.
</event>
<event>
 8    1  0.1129602E+005  0.1043930E+01  0.7957747E-01            NaN
         13   -1    0    0    0    0  0.00000000000E+00  0.00000000000E+00  0.74505805969E-08  0.10566000000E+00  0.10566000000E+00 0.  1.
     999900   -1    0    0    0    0 -0.00000000000E+00 -0.00000000000E+00 -0.74505805969E-08  0.93827000000E+00  0.93827000000E+00 0. -1.
     999902    2    1    2    0    0 -0.13026177280E-01  0.14878923177E-01  0.13290050835E-01  0.10201037728E+01  0.10198254842E+01 0.  0.
     999903    2    3    3    0    0  0.10507814354E+00 -0.69659089915E-01  0.12509030482E-01  0.12819799517E+00  0.19607270686E-01 0.  0.
         14    1    1    2    0    0  0.13026177280E-01 -0.14878923177E-01 -0.13290050835E-01  0.23826227159E-01  0.00000000000E+00 0. -1.
     999901    1    3    3    0    0 -0.11810432082E+00  0.84538013091E-01  0.78102035257E-03  0.89190577767E+00  0.88000000000E+00 0.  1.
        -11    1    4    4    0    0  0.46429057398E-01 -0.42241646789E-01  0.40147549848E-02  0.62899868623E-01  0.51100000000E-03 0.  1.
         11    1    4    4    0    0  0.58649086143E-01 -0.27417443126E-01  0.84942754977E-02  0.65298126545E-01  0.51100000000E-03 0. -1.
</event>
<event>
 8    1  0.1129602E+005  0.1043930E+01  0.7957747E-01            NaN
         13   -1    0    0    0    0  0.00000000000E+00  0.00000000000E+00  0.74505805969E-08  0.10566000000E+00  0.10566000000E+00 0.  1.
     999900   -1    0    0    0    0 -0.00000000000E+00 -0.00000000000E+00 -0.74505805969E-08  0.93827000000E+00  0.93827000000E+00 0.  1.
     999902    2    1    2    0    0 -0.98144848451E-02  0.20756936028E-01 -0.31983930081E-02  0.10207480194E+01  0.10204847451E+01 0.  0.
     999903    2    3    3    0    0  0.37999077104E-01 -0.10515046670E+00 -0.60428471363E-01  0.12866389074E+00  0.20056074409E-01 0.  0.
         14    1    1    2    0    0  0.98144848451E-02 -0.20756936028E-01  0.31983930081E-02  0.23181980586E-01  0.00000000000E+00 0.  1.
     999901    1    3    3    0    0 -0.47813561949E-01  0.12590740273E+00  0.57230078355E-01  0.89208412868E+00  0.88000000000E+00 0. -1.
        -11    1    4    4    0    0  0.27980471855E-01 -0.56342014959E-01 -0.25853415176E-01  0.68014628222E-01  0.51100000000E-03 0.  1.
         11    1    4    4    0    0  0.10018605249E-01 -0.48808451740E-01 -0.34575056187E-01  0.60649262516E-01  0.51100000000E-03 0. -1.
</event>
<event>
 8    1  0.1129602E+005  0.1043930E+01  0.7957747E-01            NaN
         13   -1    0    0    0    0  0.00000000000E+00  0.00000000000E+00  0.74505805969E-08  0.10566000000E+00  0.10566000000E+00 0. -1.
     999900   -1    0    0    0    0 -0.00000000000E+00 -0.00000000000E+00 -0.74505805969E-08  0.93827000000E+00  0.93827000000E+00 0. -1.
     999902    2    1    2    0    0 -0.72312157737E-03  0.10504174315E-01  0.19446803745E-01  0.10218157793E+01  0.10215764523E+01 0.  0.
     999903    2    3    3    0    0  0.56801850235E-01  0.80966339447E-01 -0.83672407343E-01  0.13113760462E+00  0.20347021418E-01 0.  0.
         14    1    1    2    0    0  0.72312157737E-03 -0.10504174315E-01 -0.19446803745E-01  0.22114220736E-01  0.00000000000E+00 0.  1.
     999901    1    3    3    0    0 -0.57524971813E-01 -0.70462165132E-01  0.10311921109E+00  0.89067817465E+00  0.88000000000E+00 0.  1.
        -11    1    4    4    0    0  0.30542797029E-01  0.55137844633E-01 -0.61913518115E-01  0.88354904830E-01  0.51100000000E-03 0.  1.
         11    1    4    4    0    0  0.26259053206E-01  0.25828494815E-01 -0.21758889227E-01  0.42782699787E-01  0.51100000000E-03 0. -1.
</event>
<event>
 8    1  0.1129602E+005  0.1043930E+01  0.7957747E-01            NaN
         13   -1    0    0    0    0  0.00000000000E+00  0.00000000000E+00  0.74505805969E-08  0.10566000000E+00  0.10566000000E+00 0.  1.
     999900   -1    0    0    0    0 -0.00000000000E+00 -0.00000000000E+00 -0.74505805969E-08  0.93827000000E+00  0.93827000000E+00 0. -1.
     999902    2    1    2    0    0 -0.10647873490E-01 -0.38541374573E-02 -0.19804960811E-01  0.10211162310E+01  0.10208613466E+01 0.  0.
     999903    2    3    3    0    0  0.41485627453E-01  0.11695156417E+00 -0.37650923572E-01  0.13115533414E+00  0.19631708568E-01 0.  0.
         14    1    1    2    0    0  0.10647873490E-01  0.38541374573E-02  0.19804960811E-01  0.22813769047E-01  0.00000000000E+00 0.  1.
     999901    1    3    3    0    0 -0.52133500943E-01 -0.12080570163E+00  0.17845962761E-01  0.88996089681E+00  0.88000000000E+00 0. -1.
        -11    1    4    4    0    0  0.21474135870E-01  0.33371894413E-01 -0.12387661862E-01  0.41575679616E-01  0.51100000000E-03 0. -1.
         11    1    4    4    0    0  0.20011491584E-01  0.83579669755E-01 -0.25263261710E-01  0.89579654526E-01  0.51100000000E-03 0.  1.
</event>
<event>
 8    1  0.1129602E+005  0.1043930E+01  0.7957747E-01            NaN
         13   -1    0    0    0    0  0.00000000000E+00  0.00000000000E+00  0.74505805969E-08  0.10566000000E+00  0.10566000000E+00 0. -1.
     999900   -1    0    0    0    0 -0.00000000000E+00 -0.00000000000E+00 -0.74505805969E-08  0.93827000000E+00  0.93827000000E+00 0.  1.
     999902    2    1    2    0    0 -0.21473938707E-01  0.10027655739E-01  0.23061407965E-02  0.10201181918E+01  0.10198402439E+01 0.  0.
     999903    2    3    3    0    0  0.29098860908E-01  0.61132082071E-03  0.12508958134E+00  0.13010580500E+00  0.20808645256E-01 0.  0.
         14    1    1    2    0    0  0.21473938707E-01 -0.10027655739E-01 -0.23061407965E-02  0.23811808176E-01  0.00000000000E+00 0. -1.
     999901    1    3    3    0    0 -0.50572799616E-01  0.94163349187E-02 -0.12278344054E+00  0.89001238682E+00  0.88000000000E+00 0.  1.
        -11    1    4    4    0    0  0.19361415594E-01  0.39748051457E-02  0.11040018500E+00  0.11215670047E+00  0.51100000000E-03 0. -1.
         11    1    4    4    0    0  0.97374453143E-02 -0.33634843250E-02  0.14689396333E-01  0.17949104537E-01  0.51100000000E-03 0.  1.
</event>
<event>
 8    1  0.1129602E+005  0.1043930E+01  0.7957747E-01            NaN
         13   -1    0    0    0    0  0.00000000000E+00  0.00000000000E+00  0.74505805969E-08  0.10566000000E+00  0.10566000000E+00 0. -1.
     999900   -1    0    0    0    0 -0.00000000000E+00 -0.00000000000E+00 -0.74505805969E-08  0.93827000000E+00  0.93827000000E+00 0. -1.
     999902    2    1    2    0    0  0.20212965590E-01 -0.11101293002E-01  0.34197386136E-02  0.10206169715E+01  0.10203506776E+01 0.  0.
     999903    2    3    3    0    0  0.16119244443E-01 -0.28373861188E-01  0.12604267444E+00  0.13193734165E+00  0.21349480133E-01 0.  0.
         14    1    1    2    0    0 -0.20212965590E-01  0.11101293002E-01 -0.34197386136E-02  0.23313028470E-01  0.00000000000E+00 0.  1.
     999901    1    3    3    0    0  0.40937211476E-02  0.17272568186E-01 -0.12262293583E+00  0.88867962988E+00  0.88000000000E+00 0. -1.
        -11    1    4    4    0    0 -0.28165481933E-02  0.12219138532E-02  0.49307403896E-02  0.58308952125E-02  0.51100000000E-03 0. -1.
         11    1    4    4    0    0  0.18935792636E-01 -0.29595775042E-01  0.12111193405E+00  0.12610644644E+00  0.51100000000E-03 0.  1.
</event>
<event>
 8    1  0.1129602E+005  0.1043930E+01  0.7957747E-01            NaN
         13   -1    0    0    0    0  0.00000000000E+00  0.00000000000E+00  0.74505805969E-08  0.10566000000E+00  0.10566000000E+00 0. -1.
     999900   -1    0    0    0    0 -0.00000000000E+00 -0.00000000000E+00 -0.74505805969E-08  0.93827000000E+00  0.93827000000E+00 0. -1.
     999902    2    1    2    0    0  0.18540483214E-01 -0.13784544356E-02 -0.14704858302E-01  0.10202259389E+01  0.10199505301E+01 0.  0.
     999903    2    3    3    0    0 -0.21865466110E-02  0.10292161992E+00  0.75564956974E-01  0.12923954461E+00  0.19878539557E-01 0.  0.
         14    1    1    2    0    0 -0.18540483214E-01  0.13784544356E-02  0.14704858302E-01  0.23704061090E-01  0.00000000000E+00 0.  1.
     999901    1    3    3    0    0  0.20727029825E-01 -0.10430007436E+00 -0.90269815277E-01  0.89098639430E+00  0.88000000000E+00 0. -1.
        -11    1    4    4    0    0 -0.69209264553E-02  0.43798576160E-01  0.22852070148E-01  0.49886799132E-01  0.51100000000E-03 0. -1.
         11    1    4    4    0    0  0.47343798444E-02  0.59123043764E-01  0.52712886827E-01  0.79352745479E-01  0.51100000000E-03 0.  1.
</event>
<event>
 8    1  0.1129602E+005  0.1043930E+01  0.7957747E-01            NaN
         13   -1    0    0    0    0  0.00000000000E+00  0.00000000000E+00  0.74505805969E-08  0.10566000000E+00  0.10566000000E+00 0. -1.
     999900   -1    0    0    0    0 -0.00000000000E+00 -0.00000000000E+00 -0.74505805969E-08  0.93827000000E+00  0.93827000000E+00 0. -1.
     999902    2    1    2    0    0 -0.15964366020E-01  0.54943636478E-02 -0.15181589070E-01  0.10212247217E+01  0.10209722830E+01 0.  0.
     999903    2    3    3    0    0  0.97478774860E-01 -0.77250817398E-01  0.27891265890E-01  0.12905243903E+00  0.20169505926E-01 0.  0.
         14    1    1    2    0    0  0.15964366020E-01 -0.54943636478E-02  0.15181589070E-01  0.22705278263E-01  0.00000000000E+00 0. -1.
     999901    1    3    3    0    0 -0.11344314088E+00  0.82745181045E-01 -0.43072854960E-01  0.89217228271E+00  0.88000000000E+00 0.  1.
        -11    1    4    4    0    0  0.69142402687E-01 -0.54076932754E-01  0.10130025530E-01  0.88362124486E-01  0.51100000000E-03 0. -1.
         11    1    4    4    0    0  0.28336372174E-01 -0.23173884643E-01  0.17761240360E-01  0.40690314542E-01  0.51100000000E-03 0.  1.
</event>
<event>
 8    1  0.1129602E+005  0.1043930E+01  0.7957747E-01            NaN
         13   -1    0    0    0    0  0.00000000000E+00  0.00000000000E+00  0.74505805969E-08  0.10566000000E+00  0.10566000000E+00 0.  1.
     999900   -1    0    0    0    0 -0.00000000000E+00 -0.00000000000E+00 -0.74505805969E-08  0.93827000000E+00  0.93827000000E+00 0. -1.
     999902    2    1    2    0    0  0.23149227564E-01 -0.13189424412E-02  0.61429774077E-02  0.10199432846E+01  0.10196611894E+01 0.  0.
     999903    2    3    3    0    0  0.12406211418E+00 -0.27184974005E-01  0.35409098777E-01  0.13331542118E+00  0.19717156512E-01 0.  0.
         14    1    1    2    0    0 -0.23149227564E-01  0.13189424412E-02 -0.61429774077E-02  0.23986715436E-01  0.00000000000E+00 0. -1.
     999901    1    3    3    0    0 -0.10091288662E+00  0.25866031563E-01 -0.29266121369E-01  0.88662786339E+00  0.88000000000E+00 0. -1.
        -11    1    4    4    0    0  0.37383107464E-01 -0.16904290316E-01  0.14882588402E-01  0.43646355097E-01  0.51100000000E-03 0. -1.
         11    1    4    4    0    0  0.86679006716E-01 -0.10280683689E-01  0.20526510375E-01  0.89669066080E-01  0.51100000000E-03 0.  1.
</event>
<event>
 8    1  0.1129602E+005  0.1043930E+01  0.7957747E-01            NaN
         13   -1    0    0    0    0  0.00000000000E+00  0.00000000000E+00  0.74505805969E-08  0.10566000000E+00  0.10566000000E+00 0.  1.
     999900   -1    0    0    0    0 -0.00000000000E+00 -0.00000000000E+00 -0.74505805969E-08  0.93827000000E+00  0.93827000000E+00 0.  1.
     999902    2    1    2    0    0 -0.98207263502E-02  0.21550528217E-01 -0.16979123060E-02  0.10201864780E+01  0.10199101406E+01 0.  0.
     999903    2    3    3    0    0 -0.85152041451E-01  0.17544420478E-01 -0.97129244479E-01  0.13181831380E+00  0.19578071090E-01 0.  0.
         14    1    1    2    0    0  0.98207263502E-02 -0.21550528217E-01  0.16979123060E-02  0.23743522036E-01  0.00000000000E+00 0. -1.
     999901    1    3    3    0    0  0.75331315101E-01  0.40061077393E-02  0.95431332173E-01  0.88836816416E+00  0.88000000000E+00 0. -1.
        -11    1    4    4    0    0 -0.14696692491E-01  0.75972533799E-02 -0.10050775682E-01  0.19364664776E-01  0.51100000000E-03 0.  1.
         11    1    4    4    0    0 -0.70455348960E-01  0.99471670978E-02 -0.87078468797E-01  0.11245364903E+00  0.51100000000E-03 0. -1.
</event>
<event>
 8    1  0.1129602E+005  0.1043930E+01  0.7957747E-01            NaN
         13   -1    0    0    0    0  0.00000000000E+00  0.00000000000E+00  0.74505805969E-08  0.10566000000E+00  0.10566000000E+00 0.  1.
     999900   -1    0    0    0    0 -0.00000000000E+00 -0.00000000000E+00 -0.74505805969E-08  0.93827000000E+00  0.93827000000E+00 0.  1.
     999902    2    1    2    0    0  0.12370290096E-01 -0.17823911340E-01  0.92649467977E-02  0.10203385793E+01  0.10200658122E+01 0.  0.
     999903    2    3    3    0    0 -0.12208779250E+00 -0.26388019810E-01  0.30230722288E-01  0.12983766200E+00  0.18497708979E-01 0.  0.
         14    1    1    2    0    0 -0.12370290096E-01  0.17823911340E-01 -0.92649467977E-02  0.23591420722E-01  0.00000000000E+00 0. -1.
     999901    1    3    3    0    0  0.13445808259E+00  0.85641084704E-02 -0.20965775490E-01  0.89050091728E+00  0.88000000000E+00 0.  1.
        -11    1    4    4    0    0 -0.42120017671E-01 -0.11008076605E-01  0.17738276740E-02  0.43573859420E-01  0.51100000000E-03 0.  1.
         11    1    4    4    0    0 -0.79967774828E-01 -0.15379943205E-01  0.28456894614E-01  0.86263802582E-01  0.51100000000E-03 0. -1.
</event>
<event>
 8    1  0.1129602E+005  0.1043930E+01  0.7957747E-01            NaN
         13   -1    0    0    0    0  0.00000000000E+00  0.00000000000E+00  0.74505805969E-08  0.10566000000E+00  0.10566000000E+00 0. -1.
     999900   -1    0    0    0    0 -0.00000000000E+00 -0.00000000000E+00 -0.74505805969E-08  0.93827000000E+00  0.93827000000E+00 0. -1.
     999902    2    1    2    0    0 -0.12369552880E-01 -0.16991484065E-01 -0.11650986623E-01  0.10198995639E+01  0.10196164272E+01 0.  0.
     999903    2    3    3    0    0  0.22316339846E-02  0.37104998054E-01 -0.12348009239E+00  0.13105459828E+00  0.23371209711E-01 0.  0.
         14    1    1    2    0    0  0.12369552880E-01  0.16991484065E-01  0.11650986623E-01  0.24030436086E-01  0.00000000000E+00 0.  1.
     999901    1    3    3    0    0 -0.14601186864E-01 -0.54096482119E-01  0.11182910577E+00  0.88884496563E+00  0.88000000000E+00 0.  1.
        -11    1    4    4    0    0 -0.82298380831E-02  0.21631509878E-01 -0.87518452386E-01  0.90528410367E-01  0.51100000000E-03 0.  1.
         11    1    4    4    0    0  0.10461472068E-01  0.15473488176E-01 -0.35961640003E-01  0.40526187914E-01  0.51100000000E-03 0. -1.
</event>
<event>
 8    1  0.1129602E+005  0.1043930E+01  0.7957747E-01            NaN
         13   -1    0    0    0    0  0.00000000000E+00  0.00000000000E+00  0.74505805969E-08  0.10566000000E+00  0.10566000000E+00 0.  1.
     999900   -1    0    0    0    0 -0.00000000000E+00 -0.00000000000E+00 -0.74505805969E-08  0.93827000000E+00  0.93827000000E+00 0. -1.
     999902    2    1    2    0    0 -0.50867228433E-02  0.69191176945E-03  0.23045197758E-01  0.10203199464E+01  0.10200467432E+01 0.  0.
     999903    2    3    3    0    0 -0.13402308165E-01 -0.12686404356E+00 -0.16701852081E-01  0.13019664108E+00  0.19952595703E-01 0.  0.
         14    1    1    2    0    0  0.50867228433E-02 -0.69191176945E-03 -0.23045197758E-01  0.23610053598E-01  0.00000000000E+00 0. -1.
     999901    1    3    3    0    0  0.83155853219E-02  0.12755595533E+00  0.39747049839E-01  0.89012330532E+00  0.88000000000E+00 0. -1.
        -11    1    4    4    0    0  0.48144067869E-02 -0.16903882226E-01 -0.38296063258E-02  0.17995742625E-01  0.51100000000E-03 0. -1.
         11    1    4    4    0    0 -0.18216714952E-01 -0.10996016133E+00 -0.12872245756E-01  0.11220089846E+00  0.51100000000E-03 0.  1.
</event>
<event>
 7    1  0.1129602E+005  0.1043930E+01  0.7957747E-01            NaN
         13   -1    0    0    0    0  0.00000000000E+00  0.00000000000E+00  0.74505805969E-08  0.10566000000E+00  0.10566000000E+00 0. -1.
     999900   -1    0    0    0    0 -0.00000000000E+00 -0.00000000000E+00 -0.74505805969E-08  0.93827000000E+00  0.93827000000E+00 0. -1.
     999902    2    1    2    0    0 -0.10263018022E-01  0.15381950229E-01  0.11002819954E-01  0.10224126587E+01  0.10221862103E+01 0.  0.
         14    1    1    2    0    0  0.10263018022E-01 -0.15381950229E-01 -0.11002819954E-01  0.21517341348E-01  0.00000000000E+00 0.  1.
     999901    1    3    3    0    0 -0.61106700384E-01  0.44439689270E-01 -0.99422166048E-01  0.88881588752E+00  0.88000000000E+00 0. -1.
        -11    1    3    3    0    0  0.23340180863E-01 -0.39757374324E-02  0.85689218401E-01  0.88901483689E-01  0.51100000000E-03 0.  1.
         11    1    3    3    0    0  0.27503501499E-01 -0.25082001609E-01  0.24735767600E-01  0.44695287438E-01  0.51100000000E-03 0. -1.
</event>
<event>
 8    1  0.1129602E+005  0.1043930E+01  0.7957747E-01            NaN
         13   -1    0    0    0    0  0.00000000000E+00  0.00000000000E+00  0.74505805969E-08  0.10566000000E+00  0.10566000000E+00 0.  1.
     999900   -1    0    0    0    0 -0.00000000000E+00 -0.00000000000E+00 -0.74505805969E-08  0.93827000000E+00  0.93827000000E+00 0.  1.
     999902    2    1    2    0    0  0.17905414892E-01 -0.12901580574E-01  0.10205903950E-01  0.10196150840E+01  0.10193251220E+01 0.  0.
     999903    2    3    3    0    0 -0.20093706562E-01  0.10494768741E+00  0.69392500385E-01  0.12897742684E+00  0.20052017065E-01 0.  0.
         14    1    1    2    0    0 -0.17905414892E-01  0.12901580574E-01 -0.10205903950E-01  0.24314915982E-01  0.00000000000E+00 0. -1.
     999901    1    3    3    0    0  0.37999121454E-01 -0.11784926798E+00 -0.59186596435E-01  0.89063765718E+00  0.88000000000E+00 0. -1.
        -11    1    4    4    0    0 -0.22963679137E-01  0.91599668574E-01  0.64933282126E-01  0.11460550637E+00  0.51100000000E-03 0. -1.
         11    1    4    4    0    0  0.28699725755E-02  0.13348018832E-01  0.44592182593E-02  0.14371920463E-01  0.51100000000E-03 0.  1.
</event>
<event>
 8    1  0.1129602E+005  0.1043930E+01  0.7957747E-01            NaN
         13   -1    0    0    0    0  0.00000000000E+00  0.00000000000E+00  0.74505805969E-08  0.10566000000E+00  0.10566000000E+00 0. -1.
     999900   -1    0    0    0    0 -0.00000000000E+00 -0.00000000000E+00 -0.74505805969E-08  0.93827000000E+00  0.93827000000E+00 0. -1.
     999902    2    1    2    0    0  0.18818897016E-01  0.13585544292E-01 -0.76302529318E-02  0.10194976719E+01  0.10192048686E+01 0.  0.
     999903    2    3    3    0    0  0.11963709605E-02  0.32841373255E-02  0.12735261970E+00  0.12897139582E+00  0.20067743607E-01 0.  0.
         14    1    1    2    0    0 -0.18818897016E-01 -0.13585544292E-01  0.76302529318E-02  0.24432328141E-01  0.00000000000E+00 0. -1.
     999901    1    3    3    0    0  0.17622526055E-01  0.10301406966E-01 -0.13498287263E+00  0.89052627604E+00  0.88000000000E+00 0. -1.
        -11    1    4    4    0    0  0.97963500700E-02  0.14266379302E-02  0.92178712170E-01  0.92710192907E-01  0.51100000000E-03 0.  1.
         11    1    4    4    0    0 -0.85999791095E-02  0.18574993954E-02  0.35173907532E-01  0.36261202914E-01  0.51100000000E-03 0. -1.
</event>
<event>
 8    1  0.1129602E+005  0.1043930E+01  0.7957747E-01            NaN
         13   -1    0    0    0    0  0.00000000000E+00  0.00000000000E+00  0.74505805969E-08  0.10566000000E+00  0.10566000000E+00 0.  1.
     999900   -1    0    0    0    0 -0.00000000000E+00 -0.00000000000E+00 -0.74505805969E-08  0.93827000000E+00  0.93827000000E+00 0.  1.
     999902    2    1    2    0    0 -0.17381108811E-01 -0.44507648059E-02 -0.12390675203E-01  0.10221253885E+01  0.10218927873E+01 0.  0.
     999903    2    3    3    0    0 -0.91547854950E-01  0.59679058518E-01 -0.75692989967E-01  0.13442018770E+00  0.19918794106E-01 0.  0.
         14    1    1    2    0    0  0.17381108811E-01  0.44507648059E-02  0.12390675203E-01  0.21804611504E-01  0.00000000000E+00 0.  1.
     999901    1    3    3    0    0  0.74166746139E-01 -0.64129823324E-01  0.63302314764E-01  0.88770520080E+00  0.88000000000E+00 0.  1.
        -11    1    4    4    0    0 -0.48867857549E-01  0.29902286230E-01 -0.51465043575E-01  0.77013804311E-01  0.51100000000E-03 0.  1.
         11    1    4    4    0    0 -0.42679997401E-01  0.29776772289E-01 -0.24227946392E-01  0.57406383386E-01  0.51100000000E-03 0. -1.
</event>
<event>
 8    1  0.1129602E+005  0.1043930E+01  0.7957747E-01            NaN
         13   -1    0    0    0    0  0.00000000000E+00  0.00000000000E+00  0.74505805969E-08  0.10566000000E+00  0.10566000000E+00 0.  1.
     999900   -1    0    0    0    0 -0.00000000000E+00 -0.00000000000E+00 -0.74505805969E-08  0.93827000000E+00  0.93827000000E+00 0. -1.
     999902    2    1    2    0    0 -0.13812226559E-01 -0.90351724462E-02  0.15235500136E-01  0.10214682011E+01  0.10212212070E+01 0.  0.
     999903    2    3    3    0    0 -0.90949535025E-01  0.10773481958E-01  0.96028366491E-01  0.13418581407E+00  0.19912300027E-01 0.  0.
         14    1    1    2    0    0  0.13812226559E-01  0.90351724462E-02 -0.15235500136E-01  0.22461798861E-01  0.00000000000E+00 0. -1.
     999901    1    3    3    0    0  0.77137308465E-01 -0.19808654404E-01 -0.80792866355E-01  0.88728238707E+00  0.88000000000E+00 0. -1.
        -11    1    4    4    0    0 -0.23080967536E-01 -0.65460592828E-03  0.13605209533E-01  0.26805268489E-01  0.51100000000E-03 0.  1.
         11    1    4    4    0    0 -0.67868567489E-01  0.11428087887E-01  0.82423156958E-01  0.10738054558E+00  0.51100000000E-03 0. -1.
</event>
<event>
 8    1  0.1129602E+005  0.1043930E+01  0.7957747E-01            NaN
         13   -1    0    0    0    0  0.00000000000E+00  0.00000000000E+00  0.74505805969E-08  0.10566000000E+00  0.10566000000E+00 0.  1.
     999900   -1    0    0    0    0 -0.00000000000E+00 -0.00000000000E+00 -0.74505805969E-08  0.93827000000E+00  0.93827000000E+00 0. -1.
     999902    2    1    2    0    0  0.15710914444E-01  0.41424535717E-02  0.17526415744E-01  0.10200308786E+01  0.10197508643E+01 0.  0.
     999903    2    3    3    0    0 -0.10286326151E+00 -0.70629745652E-01 -0.20227770713E-01  0.12813621242E+00  0.20983676695E-01 0.  0.
         14    1    1    2    0    0 -0.15710914444E-01 -0.41424535717E-02 -0.17526415744E-01  0.23899121388E-01  0.00000000000E+00 0. -1.
     999901    1    3    3    0    0  0.11857417595E+00  0.74772199223E-01  0.37754186457E-01  0.89189466619E+00  0.88000000000E+00 0.  1.
        -11    1    4    4    0    0 -0.40682139107E-01 -0.38630712005E-01 -0.34002282241E-02  0.56206681323E-01  0.51100000000E-03 0.  1.
         11    1    4    4    0    0 -0.62181122401E-01 -0.31999033647E-01 -0.16827542489E-01  0.71929531102E-01  0.51100000000E-03 0. -1.
</event>
<event>
 8    1  0.1129602E+005  0.1043930E+01  0.7957747E-01            NaN
         13   -1    0    0    0    0  0.00000000000E+00  0.00000000000E+00  0.74505805969E-08  0.10566000000E+00  0.10566000000E+00 0. -1.
     999900   -1    0    0    0    0 -0.00000000000E+00 -0.00000000000E+00 -0.74505805969E-08  0.93827000000E+00  0.93827000000E+00 0.  1.
     999902    2    1    2    0    0 -0.19563524288E-01 -0.13710050481E-01  0.33256400459E-02  0.10198103638E+01  0.10195250960E+01 0.  0.
     999903    2    3    3    0    0 -0.11210870068E+00  0.58009587293E-01  0.32279438985E-01  0.13158368186E+00  0.18407339903E-01 0.  0.
         14    1    1    2    0    0  0.19563524288E-01  0.13710050481E-01 -0.33256400459E-02  0.24119636160E-01  0.00000000000E+00 0.  1.
     999901    1    3    3    0    0  0.92545176396E-01 -0.71719637774E-01 -0.28953798939E-01  0.88822668198E+00  0.88000000000E+00 0.  1.
        -11    1    4    4    0    0 -0.50449298832E-01  0.32862935584E-01  0.22498852268E-01  0.64277241402E-01  0.51100000000E-03 0.  1.
         11    1    4    4    0    0 -0.61659401853E-01  0.25146651709E-01  0.97805867172E-02  0.67306440454E-01  0.51100000000E-03 0. -1.
</event>
<event>
 8    1  0.1129602E+005  0.1043930E+01  0.7957747E-01            NaN
         13   -1    0    0    0    0  0.00000000000E+00  0.00000000000E+00  0.74505805969E-08  0.10566000000E+00  0.10566000000E+00 0.  1.
     999900   -1    0    0    0    0 -0.00000000000E+00 -0.00000000000E+00 -0.74505805969E-08  0.93827000000E+00  0.93827000000E+00 0. -1.
     999902    2    1    2    0    0 -0.14435697872E-01  0.16947451628E-01 -0.64619667686E-02  0.10207489193E+01  0.10204856656E+01 0.  0.
     999903    2    3    3    0    0 -0.86216071985E-01 -0.87572353864E-01 -0.39993763436E-01  0.13102919191E+00  0.21610640649E-01 0.  0.
         14    1    1    2    0    0  0.14435697872E-01 -0.16947451628E-01  0.64619667686E-02  0.23181080740E-01  0.00000000000E+00 0.  1.
     999901    1    3    3    0    0  0.71780374112E-01  0.10451980549E+00  0.33531796668E-01  0.88971972735E+00  0.88000000000E+00 0.  1.
        -11    1    4    4    0    0 -0.54671133451E-01 -0.58034078458E-01 -0.36441189544E-01  0.87664750680E-01  0.51100000000E-03 0.  1.
         11    1    4    4    0    0 -0.31544938533E-01 -0.29538275406E-01 -0.35525738920E-02  0.43364441231E-01  0.51100000000E-03 0. -1.
</event>
<event>
 8    1  0.1129602E+005  0.1043930E+01  0.7957747E-01            NaN
         13   -1    0    0    0    0  0.00000000000E+00  0.00000000000E+00  0.74505805969E-08  0.10566000000E+00  0.10566000000E+00 0. -1.
     999900   -1    0    0    0    0 -0.00000000000E+00 -0.00000000000E+00 -0.74505805969E-08  0.93827000000E+00  0.93827000000E+00 0. -1.
     999902    2    1    2    0    0 -0.10138197613E-01  0.12778765222E-01  0.17666741753E-01  0.10198843423E+01  0.10196008425E+01 0.  0.
     999903    2    3    3    0    0 -0.68463645682E-01 -0.61856098517E-01 -0.87934778266E-01  0.12852363986E+00  0.16503123025E-01 0.  0.
         14    1    1    2    0    0  0.10138197613E-01 -0.12778765222E-01 -0.17666741753E-01  0.24045657729E-01  0.00000000000E+00 0. -1.
     999901    1    3    3    0    0  0.58325448069E-01  0.74634863739E-01  0.10560152002E+00  0.89136070241E+00  0.88000000000E+00 0.  1.
        -11    1    4    4    0    0 -0.54921238943E-01 -0.44153130735E-01 -0.58433052322E-01  0.91545202853E-01  0.51100000000E-03 0. -1.
         11    1    4    4    0    0 -0.13542406739E-01 -0.17702967782E-01 -0.29501725944E-01  0.36978437004E-01  0.51100000000E-03 0.  1.
</event>
<event>
 8    1  0.1129602E+005  0.1043930E+01  0.7957747E-01            NaN
         13   -1    0    0    0    0  0.00000000000E+00  0.00000000000E+00  0.74505805969E-08  0.10566000000E+00  0.10566000000E+00 0. -1.
     999900   -1    0    0    0    0 -0.00000000000E+00 -0.00000000000E+00 -0.74505805969E-08  0.93827000000E+00  0.93827000000E+00 0.  1.
     999902    2    1    2    0    0 -0.28916229005E-02  0.14487639628E-01 -0.17177993072E-01  0.10212730666E+01  0.10210217137E+01 0.  0.
     999903    2    3    3    0    0  0.12064721226E-02  0.30171019590E-01  0.12468065045E+00  0.12976499736E+00  0.19543386185E-01 0.  0.
         14    1    1    2    0    0  0.28916229005E-02 -0.14487639628E-01  0.17177993072E-01  0.22656933397E-01  0.00000000000E+00 0. -1.
     999901    1    3    3    0    0 -0.40980950232E-02 -0.15683379962E-01 -0.14185864352E+00  0.89150806925E+00  0.88000000000E+00 0.  1.
        -11    1    4    4    0    0  0.10081044733E-01  0.15548784457E-01  0.56190645419E-01  0.59169602961E-01  0.51100000000E-03 0. -1.
         11    1    4    4    0    0 -0.88745726105E-02  0.14622235133E-01  0.68490005033E-01  0.70595394395E-01  0.51100000000E-03 0.  1.
</event>
<event>
 8    1  0.1129602E+005  0.1043930E+01  0.7957747E-01            NaN
         13   -1    0    0    0    0  0.00000000000E+00  0.00000000000E+00  0.74505805969E-08  0.10566000000E+00  0.10566000000E+00 0.  1.
     999900   -1    0    0    0    0 -0.00000000000E+00 -0.00000000000E+00 -0.74505805969E-08  0.93827000000E+00  0.93827000000E+00 0. -1.
     999902    2    1    2    0    0 -0.14988972515E-01 -0.17455148378E-01  0.59885005502E-02  0.10201557778E+01  0.10198787170E+01 0.  0.
     999903    2    3    3    0    0  0.84119665564E-01 -0.30439033007E-01 -0.90971940744E-01  0.12920548145E+00  0.20384051847E-01 0.  0.
         14    1    1    2    0    0  0.14988972515E-01  0.17455148378E-01 -0.59885005502E-02  0.23774222191E-01  0.00000000000E+00 0. -1.
     999901    1    3    3    0    0 -0.99108638078E-01  0.12983884629E-01  0.96960441294E-01  0.89095029636E+00  0.88000000000E+00 0.  1.
        -11    1    4    4    0    0  0.27466496528E-01 -0.19462016624E-01 -0.39245487951E-01  0.51707329926E-01  0.51100000000E-03 0. -1.
         11    1    4    4    0    0  0.56653169036E-01 -0.10977016384E-01 -0.51726452793E-01  0.77498151526E-01  0.51100000000E-03 0.  1.
</event>
<event>
 7    1  0.1129602E+005  0.1043930E+01  0.7957747E-01            NaN
         13   -1    0    0    0    0  0.00000000000E+00  0.00000000000E+00  0.74505805969E-08  0.10566000000E+00  0.10566000000E+00 0.  1.
     999900   -1    0    0    0    0 -0.00000000000E+00 -0.00000000000E+00 -0.74505805969E-08  0.93827000000E+00  0.93827000000E+00 0. -1.
     999903    2    1    2    0    0 -0.74538005237E-01 -0.71668055993E-01 -0.42985647739E-01  0.11374042174E+00  0.19922177395E-01 0.  0.
         14    1    1    2    0    0 -0.24271806605E-01  0.34795179880E-01 -0.42349819709E-02  0.42635199202E-01  0.00000000000E+00 0.  1.
     999901    1    1    2    0    0  0.98809811842E-01  0.36872876113E-01  0.47220629710E-01  0.88755437905E+00  0.88000000000E+00 0.  1.
        -11    1    3    3    0    0 -0.29539427851E-01 -0.21596031956E-01 -0.24102660535E-01  0.43819696027E-01  0.51100000000E-03 0. -1.
         11    1    3    3    0    0 -0.44998577386E-01 -0.50072024037E-01 -0.18882987204E-01  0.69920725716E-01  0.51100000000E-03 0.  1.
</event>
<event>
 8    1  0.1129602E+005  0.1043930E+01  0.7957747E-01            NaN
         13   -1    0    0    0    0  0.00000000000E+00  0.00000000000E+00  0.74505805969E-08  0.10566000000E+00  0.10566000000E+00 0.  1.
     999900   -1    0    0    0    0 -0.00000000000E+00 -0.00000000000E+00 -0.74505805969E-08  0.93827000000E+00  0.93827000000E+00 0. -1.
     999902    2    1    2    0    0  0.11656099294E-02  0.28476776125E-01 -0.10911826600E-01  0.10134119171E+01  0.10129522991E+01 0.  0.
     999903    2    3    3    0    0  0.11504147687E+00  0.43637460461E-01 -0.17136448478E-01  0.12592315359E+00  0.20596441151E-01 0.  0.
         14    1    1    2    0    0 -0.11656099294E-02 -0.28476776125E-01  0.10911826600E-01  0.30518082913E-01  0.00000000000E+00 0.  1.
     999901    1    3    3    0    0 -0.11387586694E+00 -0.15160684336E-01  0.62246218785E-02  0.88748876350E+00  0.88000000000E+00 0. -1.
        -11    1    4    4    0    0  0.55133039209E-01  0.21860460788E-01 -0.18604712435E-01  0.62160503570E-01  0.51100000000E-03 0.  1.
         11    1    4    4    0    0  0.59908437656E-01  0.21776999673E-01  0.14682639568E-02  0.63762650017E-01  0.51100000000E-03 0. -1.
</event>
<event>
 8    1  0.1129602E+005  0.1043930E+01  0.7957747E-01            NaN
         13   -1    0    0    0    0  0.00000000000E+00  0.00000000000E+00  0.74505805969E-08  0.10566000000E+00  0.10566000000E+00 0.  1.
     999900   -1    0    0    0    0 -0.00000000000E+00 -0.00000000000E+00 -0.74505805969E-08  0.93827000000E+00  0.93827000000E+00 0. -1.
     999902    2    1    2    0    0 -0.17949388801E-01  0.63895067127E-02  0.12620986644E-01  0.10210762113E+01  0.10208204218E+01 0.  0.
     999903    2    3    3    0    0 -0.73788350753E-01 -0.25448943459E-01 -0.10011130026E+00  0.13155935081E+00  0.34543029894E-01 0.  0.
         14    1    1    2    0    0  0.17949388801E-01 -0.63895067127E-02 -0.12620986644E-01  0.22853788706E-01  0.00000000000E+00 0.  1.
     999901    1    3    3    0    0  0.55838961951E-01  0.31838450172E-01  0.11273228691E+00  0.88951686049E+00  0.88000000000E+00 0.  1.
        -11    1    4    4    0    0 -0.61370092932E-01 -0.19120920488E-01 -0.55857998981E-01  0.85160290500E-01  0.51100000000E-03 0. -1.
         11    1    4    4    0    0 -0.12418257820E-01 -0.63280229714E-02 -0.44253301281E-01  0.46399060306E-01  0.51100000000E-03 0.  1.
</event>
<event>
 8    1  0.1129602E+005  0.1043930E+01  0.7957747E-01            NaN
         13   -1    0    0    0    0  0.00000000000E+00  0.00000000000E+00  0.74505805969E-08  0.10566000000E+00  0.10566000000E+00 0. -1.
     999900   -1    0    0    0    0 -0.00000000000E+00 -0.00000000000E+00 -0.74505805969E-08  0.93827000000E+00  0.93827000000E+00 0.  1.
     999902    2    1    2    0    0  0.38931602756E-02  0.17140332037E-01  0.12161462866E-01  0.10225559770E+01  0.10223325669E+01 0.  0.
     999903    2    3    3    0    0 -0.92539155766E-02 -0.82932657580E-01 -0.97742445446E-01  0.12999431645E+00  0.19531411148E-01 0.  0.
         14    1    1    2    0    0 -0.38931602756E-02 -0.17140332037E-01 -0.12161462866E-01  0.21374022979E-01  0.00000000000E+00 0.  1.
     999901    1    3    3    0    0  0.13147075852E-01  0.10007298962E+00  0.10990390831E+00  0.89256166057E+00  0.88000000000E+00 0. -1.
        -11    1    4    4    0    0 -0.11894433610E-01 -0.25622053567E-01 -0.34853835832E-01  0.44866671072E-01  0.51100000000E-03 0. -1.
         11    1    4    4    0    0  0.26405180334E-02 -0.57310604013E-01 -0.62888609614E-01  0.85127645381E-01  0.51100000000E-03 0.  1.
</event>
<event>
 8    1  0.1129602E+005  0.1043930E+01  0.7957747E-01            NaN
         13   -1    0    0    0    0  0.00000000000E+00  0.00000000000E+00  0.74505805969E-08  0.10566000000E+00  0.10566000000E+00 0.  1.
     999900   -1    0    0    0    0 -0.00000000000E+00 -0.00000000000E+00 -0.74505805969E-08  0.93827000000E+00  0.93827000000E+00 0.  1.
     999902    2    1    2    0    0 -0.17582451860E-02 -0.24939807335E-01  0.10600363096E-01  0.10167739120E+01  0.10164112037E+01 0.  0.
     999903    2    3    3    0    0  0.14098517614E-01 -0.84439361327E-01 -0.93614006414E-01  0.12848777082E+00  0.20414482938E-01 0.  0.
         14    1    1    2    0    0  0.17582451860E-02  0.24939807335E-01 -0.10600363096E-01  0.27156087969E-01  0.00000000000E+00 0. -1.
     999901    1    3    3    0    0 -0.15856762800E-01  0.59499553993E-01  0.10421436951E+00  0.88828614121E+00  0.88000000000E+00 0. -1.
        -11    1    4    4    0    0  0.70140499915E-02 -0.19177222046E-01 -0.34778847543E-01  0.40333510883E-01  0.51100000000E-03 0.  1.
         11    1    4    4    0    0  0.70844676222E-02 -0.65262139281E-01 -0.58835158870E-01  0.88154259939E-01  0.51100000000E-03 0. -1.
</event>
<event>
 8    1  0.1129602E+005  0.1043930E+01  0.7957747E-01            NaN
         13   -1    0    0    0    0  0.00000000000E+00  0.00000000000E+00  0.74505805969E-08  0.10566000000E+00  0.10566000000E+00 0.  1.
     999900   -1    0    0    0    0 -0.00000000000E+00 -0.00000000000E+00 -0.74505805969E-08  0.93827000000E+00  0.93827000000E+00 0. -1.
     999902    2    1    2    0    0  0.70858072957E-02  0.48703951481E-03 -0.22553545306E-01  0.10202845294E+01  0.10200104964E+01 0.  0.
     999903    2    3    3    0    0 -0.11205615142E+00 -0.43409835877E-01  0.42066045595E-01  0.12882649143E+00  0.19639699071E-01 0.  0.
         14    1    1    2    0    0 -0.70858072957E-02 -0.48703951481E-03  0.22553545306E-01  0.23645470568E-01  0.00000000000E+00 0.  1.
     999901    1    3    3    0    0  0.11914195871E+00  0.43896875392E-01 -0.64619590901E-01  0.89145803801E+00  0.88000000000E+00 0. -1.
        -11    1    4    4    0    0 -0.61522553385E-01 -0.29037858575E-01  0.32600630621E-01  0.75440599437E-01  0.51100000000E-03 0.  1.
         11    1    4    4    0    0 -0.50533598034E-01 -0.14371977302E-01  0.94654149747E-02  0.53385891989E-01  0.51100000000E-03 0. -1.
</event>
<event>
 8    1  0.1129602E+005  0.1043930E+01  0.7957747E-01            NaN
         13   -1    0    0    0    0  0.00000000000E+00  0.00000000000E+00  0.74505805969E-08  0.10566000000E+00  0.10566000000E+00 0. -1.
     999900   -1    0    0    0    0 -0.00000000000E+00 -0.00000000000E+00 -0.74505805969E-08  0.93827000000E+00  0.93827000000E+00 0. -1.
     999902    2    1    2    0    0 -0.11945796961E-01  0.15794517428E-01  0.12269711116E-01  0.10206337630E+01  0.10203678570E+01 0.  0.
     999903    2    3    3    0    0  0.86586855130E-02  0.12979462041E+00 -0.16286687401E-01  0.13258194243E+00  0.19776221881E-01 0.  0.
         14    1    1    2    0    0  0.11945796961E-01 -0.15794517428E-01 -0.12269711116E-01  0.23296236964E-01  0.00000000000E+00 0.  1.
     999901    1    3    3    0    0 -0.20604482474E-01 -0.11400010298E+00  0.28556398517E-01  0.88805182060E+00  0.88000000000E+00 0. -1.
        -11    1    4    4    0    0  0.57971039073E-02  0.76883013024E-01 -0.19376967521E-01  0.79500516330E-01  0.51100000000E-03 0.  1.
         11    1    4    4    0    0  0.28615816057E-02  0.52911607383E-01  0.30902801203E-02  0.53081426105E-01  0.51100000000E-03 0. -1.
</event>
<event>
 8    1  0.1129602E+005  0.1043930E+01  0.7957747E-01            NaN
         13   -1    0    0    0    0  0.00000000000E+00  0.00000000000E+00  0.74505805969E-08  0.10566000000E+00  0.10566000000E+00 0. -1.
     999900   -1    0    0    0    0 -0.00000000000E+00 -0.00000000000E+00 -0.74505805969E-08  0.93827000000E+00  0.93827000000E+00 0. -1.
     999902    2    1    2    0    0 -0.24801607248E-02 -0.16600598716E-01  0.16886645315E-01  0.10201205509E+01  0.10198426587E+01 0.  0.
     999903    2    3    3    0    0 -0.85229286933E-01  0.91609946164E-01 -0.23673615655E-01  0.12871599929E+00  0.18733787890E-01 0.  0.
         14    1    1    2    0    0  0.24801607248E-02  0.16600598716E-01 -0.16886645315E-01  0.23809449069E-01  0.00000000000E+00 0. -1.
     999901    1    3    3    0    0  0.82749126208E-01 -0.10821054488E+00  0.40560260970E-01  0.89140455164E+00  0.88000000000E+00 0.  1.
        -11    1    4    4    0    0 -0.50254144272E-01  0.66692573431E-01 -0.17590465703E-01  0.85340869295E-01  0.51100000000E-03 0. -1.
         11    1    4    4    0    0 -0.34975142660E-01  0.24917372733E-01 -0.60831499513E-02  0.43375129998E-01  0.51100000000E-03 0.  1.
</event>
<event>
 8    1  0.1129602E+005  0.1043930E+01  0.7957747E-01            NaN
         13   -1    0    0    0    0  0.00000000000E+00  0.00000000000E+00  0.74505805969E-08  0.10566000000E+00  0.10566000000E+00 0. -1.
     999900   -1    0    0    0    0 -0.00000000000E+00 -0.00000000000E+00 -0.74505805969E-08  0.93827000000E+00  0.93827000000E+00 0.  1.
     999902    2    1    2    0    0  0.11157370662E-01 -0.11881753714E-01 -0.17673424060E-01  0.10198881010E+01  0.10196046908E+01 0.  0.
     999903    2    3    3    0    0 -0.49737583355E-01 -0.11150431171E+00  0.40843717389E-01  0.13024935106E+00  0.19739439514E-01 0.  0.
         14    1    1    2    0    0 -0.11157370662E-01  0.11881753714E-01  0.17673424060E-01  0.24041899039E-01  0.00000000000E+00 0. -1.
     999901    1    3    3    0    0  0.60894954017E-01  0.99622557999E-01 -0.58517141449E-01  0.88963874990E+00  0.88000000000E+00 0.  1.
        -11    1    4    4    0    0 -0.44012635061E-01 -0.78057368679E-01  0.32275549603E-01  0.95247241815E-01  0.51100000000E-03 0. -1.
         11    1    4    4    0    0 -0.57249482939E-02 -0.33446943033E-01  0.85681677852E-02  0.35002109242E-01  0.51100000000E-03 0.  1.
</event>
<event>
 8    1  0.1129602E+005  0.1043930E+01  0.7957747E-01            NaN
         13   -1    0    0    0    0  0.00000000000E+00  0.00000000000E+00  0.74505805969E-08  0.10566000000E+00  0.10566000000E+00 0.  1.
     999900   -1    0    0    0    0 -0.00000000000E+00 -0.00000000000E+00 -0.74505805969E-08  0.93827000000E+00  0.93827000000E+00 0.  1.
     999902    2    1    2    0    0 -0.13723130037E-02 -0.22068083704E-01 -0.11973132809E-01  0.10187856275E+01  0.10184752895E+01 0.  0.
     999903    2    3    3    0    0 -0.62588455665E-01 -0.10576917643E+00 -0.43883256331E-01  0.13212247550E+00  0.20644003551E-01 0.  0.
         14    1    1    2    0    0  0.13723130037E-02  0.22068083704E-01  0.11973132809E-01  0.25144372544E-01  0.00000000000E+00 0.  1.
     999901    1    3    3    0    0  0.61216142661E-01  0.83701092723E-01  0.31910123522E-01  0.88666315195E+00  0.88000000000E+00 0. -1.
        -11    1    4    4    0    0 -0.43191557969E-01 -0.88550474735E-01 -0.37391093468E-01  0.10538051171E+00  0.51100000000E-03 0. -1.
         11    1    4    4    0    0 -0.19396897696E-01 -0.17218701693E-01 -0.64921628630E-02  0.26741963799E-01  0.51100000000E-03 0.  1.
</event>
<event>
 8    1  0.1129602E+005  0.1043930E+01  0.7957747E-01            NaN
         13   -1    0    0    0    0  0.00000000000E+00  0.00000000000E+00  0.74505805969E-08  0.10566000000E+00  0.10566000000E+00 0.  1.
     999900   -1    0    0    0    0 -0.00000000000E+00 -0.00000000000E+00 -0.74505805969E-08  0.93827000000E+00  0.93827000000E+00 0.  1.
     999902    2    1    2    0    0  0.20570226874E-01 -0.99266737538E-02 -0.11644640660E-01  0.10182927080E+01  0.10179699251E+01 0.  0.
     999903    2    3    3    0    0  0.88939334093E-01  0.11826564243E-01 -0.94197071906E-01  0.13152191343E+00  0.19361110128E-01 0.  0.
         14    1    1    2    0    0 -0.20570226874E-01  0.99266737538E-02  0.11644640660E-01  0.25637292009E-01  0.00000000000E+00 0.  1.
     999901    1    3    3    0    0 -0.68369107219E-01 -0.21753237997E-01  0.82552431246E-01  0.88677079456E+00  0.88000000000E+00 0. -1.
        -11    1    4    4    0    0  0.50155792870E-01  0.15287777359E-01 -0.47851933256E-01  0.70988649320E-01  0.51100000000E-03 0. -1.
         11    1    4    4    0    0  0.38783541223E-01 -0.34612131164E-02 -0.46345138650E-01  0.60533264107E-01  0.51100000000E-03 0.  1.
</event>
<event>
 8    1  0.1129602E+005  0.1043930E+01  0.7957747E-01            NaN
         13   -1    0    0    0    0  0.00000000000E+00  0.00000000000E+00  0.74505805969E-08  0.10566000000E+00  0.10566000000E+00 0.  1.
     999900   -1    0    0    0    0 -0.00000000000E+00 -0.00000000000E+00 -0.74505805969E-08  0.93827000000E+00  0.93827000000E+00 0. -1.
     999902    2    1    2    0    0  0.15966945444E-01  0.17695972053E-01  0.27611131734E-02  0.10199359482E+01  0.10196536785E+01 0.  0.
     999903    2    3    3    0    0  0.10112730125E+00  0.83335054809E-01 -0.12128427902E-01  0.13326663344E+00  0.21010340466E-01 0.  0.
         14    1    1    2    0    0 -0.15966945444E-01 -0.17695972053E-01 -0.27611131734E-02  0.23994051756E-01  0.00000000000E+00 0.  1.
     999901    1    3    3    0    0 -0.85160355805E-01 -0.65639082756E-01  0.14889541075E-01  0.88666931481E+00  0.88000000000E+00 0. -1.
        -11    1    4    4    0    0  0.84086414781E-01  0.67604927900E-01 -0.17883785816E-01  0.10936655039E+00  0.51100000000E-03 0.  1.
         11    1    4    4    0    0  0.17040886468E-01  0.15730126909E-01  0.57553579140E-02  0.23900083052E-01  0.51100000000E-03 0. -1.
</event>
<event>
 8    1  0.1129602E+005  0.1043930E+01  0.7957747E-01            NaN
         13   -1    0    0    0    0  0.00000000000E+00  0.00000000000E+00  0.74505805969E-08  0.10566000000E+00  0.10566000000E+00 0. -1.
     999900   -1    0    0    0    0 -0.00000000000E+00 -0.00000000000E+00 -0.74505805969E-08  0.93827000000E+00  0.93827000000E+00 0. -1.
     999902    2    1    2    0    0 -0.11785023416E-01  0.34407858588E-02 -0.20286731930E-01  0.10202176134E+01  0.10199420089E+01 0.  0.
     999903    2    3    3    0    0  0.27585879240E-01 -0.31460318395E-01 -0.12415280093E+00  0.13254857863E+00  0.20111572592E-01 0.  0.
         14    1    1    2    0    0  0.11785023416E-01 -0.34407858588E-02  0.20286731930E-01  0.23712386566E-01  0.00000000000E+00 0. -1.
     999901    1    3    3    0    0 -0.39370902656E-01  0.34901104254E-01  0.10386606900E+00  0.88766903480E+00  0.88000000000E+00 0.  1.
        -11    1    4    4    0    0  0.14339711037E-01 -0.29454044297E-01 -0.94109887643E-01  0.99649887664E-01  0.51100000000E-03 0.  1.
         11    1    4    4    0    0  0.13246168203E-01 -0.20062740980E-02 -0.30042913286E-01  0.32898690970E-01  0.51100000000E-03 0. -1.
</event>
<event>
 8    1  0.1129602E+005  0.1043930E+01  0.7957747E-01            NaN
         13   -1    0    0    0    0  0.00000000000E+00  0.00000000000E+00  0.74505805969E-08  0.10566000000E+00  0.10566000000E+00 0. -1.
     999900   -1    0    0    0    0 -0.00000000000E+00 -0.00000000000E+00 -0.74505805969E-08  0.93827000000E+00  0.93827000000E+00 0. -1.
     999902    2    1    2    0    0 -0.16428434724E-01 -0.17663887773E-01  0.35247812729E-02  0.10195511058E+01  0.10192595974E+01 0.  0.
     999903    2    3    3    0    0 -0.96618780598E-01  0.84129844064E-01  0.10044194201E-01  0.13003721713E+00  0.19894033670E-01 0.  0.
         14    1    1    2    0    0  0.16428434724E-01  0.17663887773E-01 -0.35247812729E-02  0.24378894187E-01  0.00000000000E+00 0. -1.
     999901    1    3    3    0    0  0.80190345873E-01 -0.10179373184E+00 -0.65194129286E-02  0.88951388868E+00  0.88000000000E+00 0.  1.
        -11    1    4    4    0    0 -0.78443564813E-01  0.57962930608E-01  0.40924537295E-02  0.97622248917E-01  0.51100000000E-03 0. -1.
         11    1    4    4    0    0 -0.18175215785E-01  0.26166913456E-01  0.59517404720E-02  0.32414968214E-01  0.51100000000E-03 0.  1.
</event>
<event>
 8    1  0.1129602E+005  0.1043930E+01  0.7957747E-01            NaN
         13   -1    0    0    0    0  0.00000000000E+00  0.00000000000E+00  0.74505805969E-08  0.10566000000E+00  0.10566000000E+00 0. -1.
     999900   -1    0    0    0    0 -0.00000000000E+00 -0.00000000000E+00 -0.74505805969E-08  0.93827000000E+00  0.93827000000E+00 0. -1.
     999902    2    1    2    0    0  0.48007977659E-02 -0.14657626274E-01 -0.17311560967E-01  0.10207441463E+01  0.10204807830E+01 0.  0.
     999903    2    3    3    0    0 -0.12784633501E+00  0.14771770325E-02 -0.16522701618E-01  0.13065638886E+00  0.21242053867E-01 0.  0.
         14    1    1    2    0    0 -0.48007977659E-02  0.14657626274E-01  0.17311560967E-01  0.23185853667E-01  0.00000000000E+00 0. -1.
     999901    1    3    3    0    0  0.13264713278E+00 -0.16134803306E-01 -0.78885934893E-03  0.89008775748E+00  0.88000000000E+00 0.  1.
        -11    1    4    4    0    0 -0.75091601303E-01  0.51113499506E-02 -0.47205874871E-04  0.75267109909E-01  0.51100000000E-03 0. -1.
         11    1    4    4    0    0 -0.52754733707E-01 -0.36341729181E-02 -0.16475495743E-01  0.55389278947E-01  0.51100000000E-03 0.  1.
</event>
<event>
 8    1  0.1129602E+005  0.1043930E+01  0.7957747E-01            NaN
         13   -1    0    0    0    0  0.00000000000E+00  0.00000000000E+00  0.74505805969E-08  0.10566000000E+00  0.10566000000E+00 0. -1.
     999900   -1    0    0    0    0 -0.00000000000E+00 -0.00000000000E+00 -0.74505805969E-08  0.93827000000E+00  0.93827000000E+00 0. -1.
     999902    2    1    2    0    0 -0.16298209979E-01  0.19225802271E-02  0.17978446871E-01  0.10195875984E+01  0.10192969726E+01 0.  0.
     999903    2    3    3    0    0 -0.10896280579E+00 -0.69330427191E-01 -0.12585708415E-01  0.13133206875E+00  0.20251198614E-01 0.  0.
         14    1    1    2    0    0  0.16298209979E-01 -0.19225802271E-02 -0.17978446871E-01  0.24342401590E-01  0.00000000000E+00 0.  1.
     999901    1    3    3    0    0  0.92664595813E-01  0.71253007418E-01  0.30564155287E-01  0.88825552966E+00  0.88000000000E+00 0.  1.
        -11    1    4    4    0    0 -0.59007217245E-01 -0.36214498097E-01  0.33355782875E-02  0.69316150809E-01  0.51100000000E-03 0.  1.
         11    1    4    4    0    0 -0.49955588547E-01 -0.33115929093E-01 -0.15921286703E-01  0.62015917941E-01  0.51100000000E-03 0. -1.
</event>
<event>
 8    1  0.1129602E+005  0.1043930E+01  0.7957747E-01            NaN
         13   -1    0    0    0    0  0.00000000000E+00  0.00000000000E+00  0.74505805969E-08  0.10566000000E+00  0.10566000000E+00 0. -1.
     999900   -1    0    0    0    0 -0.00000000000E+00 -0.00000000000E+00 -0.74505805969E-08  0.93827000000E+00  0.93827000000E+00 0.  1.
     999902    2    1    2    0    0 -0.22300706886E-02 -0.40167700782E-02  0.20824792651E-01  0.10226044368E+01  0.10223820492E+01 0.  0.
     999903    2    3    3    0    0  0.98344298729E-01  0.59085242699E-01 -0.59470831398E-01  0.13100786040E+00  0.21531667406E-01 0.  0.
         14    1    1    2    0    0  0.22300706886E-02  0.40167700782E-02 -0.20824792651E-01  0.21325563207E-01  0.00000000000E+00 0.  1.
     999901    1    3    3    0    0 -0.10057436942E+00 -0.63102012777E-01  0.80295624049E-01  0.89159657640E+00  0.88000000000E+00 0. -1.
        -11    1    4    4    0    0  0.63529064506E-01  0.26059179708E-01 -0.37283463863E-01  0.78136679496E-01  0.51100000000E-03 0. -1.
         11    1    4    4    0    0  0.34815234223E-01  0.33026062991E-01 -0.22187367535E-01  0.52871180901E-01  0.51100000000E-03 0.  1.
</event>
<event>
 8    1  0.1129602E+005  0.1043930E+01  0.7957747E-01            NaN
         13   -1    0    0    0    0  0.00000000000E+00  0.00000000000E+00  0.74505805969E-08  0.10566000000E+00  0.10566000000E+00 0.  1.
     999900   -1    0    0    0    0 -0.00000000000E+00 -0.00000000000E+00 -0.74505805969E-08  0.93827000000E+00  0.93827000000E+00 0. -1.
     999902    2    1    2    0    0  0.15372382722E-02 -0.17694043308E-01 -0.17955573399E-01  0.10186744088E+01  0.10183612848E+01 0.  0.
     999903    2    3    3    0    0 -0.98566927920E-01  0.68093641851E-01  0.37576254518E-01  0.12712286520E+00  0.19901372120E-01 0.  0.
         14    1    1    2    0    0 -0.15372382722E-02  0.17694043308E-01  0.17955573399E-01  0.25255591186E-01  0.00000000000E+00 0.  1.
     999901    1    3    3    0    0  0.10010416619E+00 -0.85787685159E-01 -0.55531827917E-01  0.89155154362E+00  0.88000000000E+00 0. -1.
        -11    1    4    4    0    0 -0.22255259075E-01  0.22259595284E-01  0.16913164970E-01  0.35736569632E-01  0.51100000000E-03 0. -1.
         11    1    4    4    0    0 -0.76311668844E-01  0.45834046566E-01  0.20663089548E-01  0.91386295565E-01  0.51100000000E-03 0.  1.
</event>
<event>
 8    1  0.1129602E+005  0.1043930E+01  0.7957747E-01            NaN
         13   -1    0    0    0    0  0.00000000000E+00  0.00000000000E+00  0.74505805969E-08  0.10566000000E+00  0.10566000000E+00 0.  1.
     999900   -1    0    0    0    0 -0.00000000000E+00 -0.00000000000E+00 -0.74505805969E-08  0.93827000000E+00  0.93827000000E+00 0.  1.
     999902    2    1    2    0    0  0.95486739608E-02 -0.28959386291E-02  0.16932689237E-01  0.10242760030E+01  0.10240874233E+01 0.  0.
     999903    2    3    3    0    0  0.88770518511E-01 -0.93411161923E-01 -0.33055925849E-01  0.13468735198E+00  0.21027087825E-01 0.  0.
         14    1    1    2    0    0 -0.95486739608E-02  0.28959386291E-02 -0.16932689237E-01  0.19653997042E-01  0.00000000000E+00 0. -1.
     999901    1    3    3    0    0 -0.79221844551E-01  0.90515223294E-01  0.49988615085E-01  0.88958865097E+00  0.88000000000E+00 0. -1.
        -11    1    4    4    0    0  0.39976524155E-01 -0.27607050244E-01 -0.14285756512E-01  0.50642034584E-01  0.51100000000E-03 0. -1.
         11    1    4    4    0    0  0.48793994357E-01 -0.65804111678E-01 -0.18770169337E-01  0.84045317401E-01  0.51100000000E-03 0.  1.
</event>
<event>
 8    1  0.1129602E+005  0.1043930E+01  0.7957747E-01            NaN
         13   -1    0    0    0    0  0.00000000000E+00  0.00000000000E+00  0.74505805969E-08  0.10566000000E+00  0.10566000000E+00 0. -1.
     999900   -1    0    0    0    0 -0.00000000000E+00 -0.00000000000E+00 -0.74505805969E-08  0.93827000000E+00  0.93827000000E+00 0.  1.
     999902    2    1    2    0    0 -0.76912534201E-02 -0.50028542556E-03  0.21499242789E-01  0.10210909303E+01  0.10208354739E+01 0.  0.
     999903    2    3    3    0    0 -0.93405924603E-02 -0.18313250424E-01 -0.12574714172E+00  0.12867761809E+00  0.17971197430E-01 0.  0.
         14    1    1    2    0    0  0.76912534201E-02  0.50028542556E-03 -0.21499242789E-01  0.22839069709E-01  0.00000000000E+00 0.  1.
     999901    1    3    3    0    0  0.16493390402E-02  0.17812964999E-01  0.14724638451E+00  0.89241331220E+00  0.88000000000E+00 0. -1.
        -11    1    4    4    0    0 -0.55230061768E-02 -0.21353746258E-01 -0.94061406055E-01  0.96614156864E-01  0.51100000000E-03 0. -1.
         11    1    4    4    0    0 -0.38175862835E-02  0.30404958336E-02 -0.31685735668E-01  0.32063461226E-01  0.51100000000E-03 0.  1.
</event>
<event>
 8    1  0.1129602E+005  0.1043930E+01  0.7957747E-01            NaN
         13   -1    0    0    0    0  0.00000000000E+00  0.00000000000E+00  0.74505805969E-08  0.10566000000E+00  0.10566000000E+00 0. -1.
     999900   -1    0    0    0    0 -0.00000000000E+00 -0.00000000000E+00 -0.74505805969E-08  0.93827000000E+00  0.93827000000E+00 0.  1.
     999902    2    1    2    0    0 -0.80331330361E-02 -0.89806502686E-02  0.20574579972E-01  0.10200868323E+01  0.10198081431E+01 0.  0.
     999903    2    3    3    0    0 -0.20864775214E-01  0.38521078967E-01 -0.11846958018E+00  0.12781201823E+00  0.19536074502E-01 0.  0.
         14    1    1    2    0    0  0.80331330361E-02  0.89806502686E-02 -0.20574579972E-01  0.23843167714E-01  0.00000000000E+00 0.  1.
     999901    1    3    3    0    0  0.12831642178E-01 -0.47501729236E-01  0.13904416015E+00  0.89227481405E+00  0.88000000000E+00 0. -1.
        -11    1    4    4    0    0 -0.23305368496E-01  0.38385139539E-01 -0.10644324469E+00  0.11552915043E+00  0.51100000000E-03 0.  1.
         11    1    4    4    0    0  0.24405932821E-02  0.13593942807E-03 -0.12026335488E-01  0.12282867799E-01  0.51100000000E-03 0. -1.
</event>
<event>
 8    1  0.1129602E+005  0.1043930E+01  0.7957747E-01            NaN
         13   -1    0    0    0    0  0.00000000000E+00  0.00000000000E+00  0.74505805969E-08  0.10566000000E+00  0.10566000000E+00 0. -1.
     999900   -1    0    0    0    0 -0.00000000000E+00 -0.00000000000E+00 -0.74505805969E-08  0.93827000000E+00  0.93827000000E+00 0.  1.
     999902    2    1    2    0    0 -0.48430027158E-02  0.61498685895E-02 -0.22594083297E-01  0.10200183259E+01  0.10197380139E+01 0.  0.
     999903    2    3    3    0    0  0.10402464615E+00 -0.69369647607E-01 -0.29963140374E-01  0.13006907716E+00  0.19669774733E-01 0.  0.
         14    1    1    2    0    0  0.48430027158E-02 -0.61498685895E-02  0.22594083297E-01  0.23911674116E-01  0.00000000000E+00 0. -1.
     999901    1    3    3    0    0 -0.10886764886E+00  0.75519516197E-01  0.73690570768E-02  0.88994924872E+00  0.88000000000E+00 0. -1.
        -11    1    4    4    0    0  0.76467690261E-01 -0.54429738645E-01 -0.30562712607E-01  0.98712940518E-01  0.51100000000E-03 0. -1.
         11    1    4    4    0    0  0.27556955886E-01 -0.14939908962E-01  0.59957223287E-03  0.31356136646E-01  0.51100000000E-03 0.  1.
</event>
<event>
 8    1  0.1129602E+005  0.1043930E+01  0.7957747E-01            NaN
         13   -1    0    0    0    0  0.00000000000E+00  0.00000000000E+00  0.74505805969E-08  0.10566000000E+00  0.10566000000E+00 0.  1.
     999900   -1    0    0    0    0 -0.00000000000E+00 -0.00000000000E+00 -0.74505805969E-08  0.93827000000E+00  0.93827000000E+00 0. -1.
     999902    2    1    2    0    0 -0.17404614813E-01 -0.10701399817E-01 -0.11181854467E-01  0.10206389192E+01  0.10203731322E+01 0.  0.
     999903    2    3    3    0    0  0.23830399960E-01 -0.71703465004E-01  0.10398094496E+00  0.13008625442E+00  0.20028025836E-01 0.  0.
         14    1    1    2    0    0  0.17404614813E-01  0.10701399817E-01  0.11181854467E-01  0.23291080785E-01  0.00000000000E+00 0.  1.
     999901    1    3    3    0    0 -0.41235014773E-01  0.61002065187E-01 -0.11516279943E+00  0.89055266479E+00  0.88000000000E+00 0. -1.
        -11    1    4    4    0    0  0.56530661401E-02 -0.15785499237E-01  0.38976579424E-01  0.42433171076E-01  0.51100000000E-03 0. -1.
         11    1    4    4    0    0  0.18177333820E-01 -0.55917965767E-01  0.65004365534E-01  0.87653083344E-01  0.51100000000E-03 0.  1.
</event>
<event>
 8    1  0.1129602E+005  0.1043930E+01  0.7957747E-01            NaN
         13   -1    0    0    0    0  0.00000000000E+00  0.00000000000E+00  0.74505805969E-08  0.10566000000E+00  0.10566000000E+00 0.  1.
     999900   -1    0    0    0    0 -0.00000000000E+00 -0.00000000000E+00 -0.74505805969E-08  0.93827000000E+00  0.93827000000E+00 0. -1.
     999902    2    1    2    0    0 -0.28952242819E-02  0.12945233543E-01 -0.18692374779E-01  0.10210091303E+01  0.10207518199E+01 0.  0.
     999903    2    3    3    0    0  0.48012298093E-01 -0.90443417855E-01  0.75671533147E-01  0.12849283562E+00  0.17292636416E-01 0.  0.
         14    1    1    2    0    0  0.28952242819E-02 -0.12945233543E-01  0.18692374779E-01  0.22920869748E-01  0.00000000000E+00 0.  1.
     999901    1    3    3    0    0 -0.50907522375E-01  0.10338865140E+00 -0.94363907926E-01  0.89251629464E+00  0.88000000000E+00 0. -1.
        -11    1    4    4    0    0  0.29220294067E-01 -0.48040108175E-01  0.31557072389E-01  0.64480908164E-01  0.51100000000E-03 0.  1.
         11    1    4    4    0    0  0.18792004026E-01 -0.42403309680E-01  0.44114460758E-01  0.64011927452E-01  0.51100000000E-03 0. -1.
</event>
<event>
 8    1  0.1129602E+005  0.1043930E+01  0.7957747E-01            NaN
         13   -1    0    0    0    0  0.00000000000E+00  0.00000000000E+00  0.74505805969E-08  0.10566000000E+00  0.10566000000E+00 0. -1.
     999900   -1    0    0    0    0 -0.00000000000E+00 -0.00000000000E+00 -0.74505805969E-08  0.93827000000E+00  0.93827000000E+00 0. -1.
     999902    2    1    2    0    0 -0.13406907854E-01 -0.49278297816E-02 -0.18914153980E-01  0.10202282299E+01  0.10199528750E+01 0.  0.
     999903    2    3    3    0    0 -0.96941867997E-01  0.30306818788E-01 -0.83932619151E-01  0.13318427901E+00  0.19420056146E-01 0.  0.
         14    1    1    2    0    0  0.13406907854E-01  0.49278297816E-02  0.18914153980E-01  0.23701770088E-01  0.00000000000E+00 0. -1.
     999901    1    3    3    0    0  0.83534960144E-01 -0.35234648570E-01  0.65018465171E-01  0.88704395091E+00  0.88000000000E+00 0.  1.
        -11    1    4    4    0    0 -0.38862724741E-01  0.13629355161E-01 -0.22158778104E-01  0.46769041731E-01  0.51100000000E-03 0. -1.
         11    1    4    4    0    0 -0.58079143257E-01  0.16677463627E-01 -0.61773841047E-01  0.86415237274E-01  0.51100000000E-03 0.  1.
</event>
<event>
 8    1  0.1129602E+005  0.1043930E+01  0.7957747E-01            NaN
         13   -1    0    0    0    0  0.00000000000E+00  0.00000000000E+00  0.74505805969E-08  0.10566000000E+00  0.10566000000E+00 0.  1.
     999900   -1    0    0    0    0 -0.00000000000E+00 -0.00000000000E+00 -0.74505805969E-08  0.93827000000E+00  0.93827000000E+00 0. -1.
     999902    2    1    2    0    0 -0.17467496133E-01  0.41667420306E-02 -0.12575340412E-01  0.10220070817E+01  0.10217719221E+01 0.  0.
     999903    2    3    3    0    0 -0.60320646792E-01  0.11634973587E+00 -0.17527852631E-01  0.13383708446E+00  0.20719509889E-01 0.  0.
         14    1    1    2    0    0  0.17467496133E-01 -0.41667420306E-02  0.12575340412E-01  0.21922918300E-01  0.00000000000E+00 0. -1.
     999901    1    3    3    0    0  0.42853150659E-01 -0.11218299384E+00  0.49525122192E-02  0.88816999725E+00  0.88000000000E+00 0. -1.
        -11    1    4    4    0    0 -0.65824269186E-02  0.31578482611E-01 -0.58848112274E-02  0.32793612676E-01  0.51100000000E-03 0. -1.
         11    1    4    4    0    0 -0.53738219873E-01  0.84771253263E-01 -0.11643041404E-01  0.10104347178E+00  0.51100000000E-03 0.  1.
</event>
<event>
 8    1  0.1129602E+005  0.1043930E+01  0.7957747E-01            NaN
         13   -1    0    0    0    0  0.00000000000E+00  0.00000000000E+00  0.74505805969E-08  0.10566000000E+00  0.10566000000E+00 0.  1.
     999900   -1    0    0    0    0 -0.00000000000E+00 -0.00000000000E+00 -0.74505805969E-08  0.93827000000E+00  0.93827000000E+00 0.  1.
     999902    2    1    2    0    0  0.18536260202E-01 -0.27506911851E-02  0.12401913254E-01  0.10214585359E+01  0.10212113268E+01 0.  0.
     999903    2    3    3    0    0  0.81163540116E-01 -0.57421696060E-01  0.87963256013E-01  0.13431671443E+00  0.20461523522E-01 0.  0.
         14    1    1    2    0    0 -0.18536260202E-01  0.27506911851E-02 -0.12401913254E-01  0.22471464052E-01  0.00000000000E+00 0. -1.
     999901    1    3    3    0    0 -0.62627279915E-01  0.54671004875E-01 -0.75561342759E-01  0.88714182152E+00  0.88000000000E+00 0.  1.
        -11    1    4    4    0    0  0.17598988240E-01 -0.19171573945E-01  0.32771317316E-01  0.41850854164E-01  0.51100000000E-03 0.  1.
         11    1    4    4    0    0  0.63564551877E-01 -0.38250122116E-01  0.55191938696E-01  0.92465860268E-01  0.51100000000E-03 0. -1.
</event>
<event>
 8    1  0.1129602E+005  0.1043930E+01  0.7957747E-01            NaN
         13   -1    0    0    0    0  0.00000000000E+00  0.00000000000E+00  0.74505805969E-08  0.10566000000E+00  0.10566000000E+00 0. -1.
     999900   -1    0    0    0    0 -0.00000000000E+00 -0.00000000000E+00 -0.74505805969E-08  0.93827000000E+00  0.93827000000E+00 0. -1.
     999902    2    1    2    0    0  0.21400087109E-01  0.40931164797E-02 -0.94710130943E-02  0.10201725292E+01  0.10198958632E+01 0.  0.
     999903    2    3    3    0    0  0.19989819104E-01 -0.11405813026E+00  0.55048547096E-01  0.12993408943E+00  0.21063596846E-01 0.  0.
         14    1    1    2    0    0 -0.21400087109E-01 -0.40931164797E-02  0.94710130943E-02  0.23757470821E-01  0.00000000000E+00 0. -1.
     999901    1    3    3    0    0  0.14102680055E-02  0.11815124674E+00 -0.64519560190E-01  0.89023843975E+00  0.88000000000E+00 0. -1.
        -11    1    4    4    0    0  0.19268302951E-01 -0.10048202076E+00  0.40563112246E-01  0.11006148823E+00  0.51100000000E-03 0. -1.
         11    1    4    4    0    0  0.72151615246E-03 -0.13576109497E-01  0.14485434850E-01  0.19872601199E-01  0.51100000000E-03 0.  1.
</event>
<event>
 8    1  0.1129602E+005  0.1043930E+01  0.7957747E-01            NaN
         13   -1    0    0    0    0  0.00000000000E+00  0.00000000000E+00  0.74505805969E-08  0.10566000000E+00  0.10566000000E+00 0. -1.
     999900   -1    0    0    0    0 -0.00000000000E+00 -0.00000000000E+00 -0.74505805969E-08  0.93827000000E+00  0.93827000000E+00 0.  1.
     999902    2    1    2    0    0 -0.25993048051E-01 -0.21637427823E-02  0.75986182925E-03  0.10178359831E+01  0.10175014451E+01 0.  0.
     999903    2    3    3    0    0 -0.48965386590E-01  0.67188762376E-02  0.11813723283E+00  0.12970081515E+00  0.20570446962E-01 0.  0.
         14    1    1    2    0    0  0.25993048051E-01  0.21637427823E-02 -0.75986182925E-03  0.26094016935E-01  0.00000000000E+00 0. -1.
     999901    1    3    3    0    0  0.22972338539E-01 -0.88826190200E-02 -0.11737737100E+00  0.88813516791E+00  0.88000000000E+00 0.  1.
        -11    1    4    4    0    0 -0.15105091930E-01 -0.13672145425E-02  0.60412106885E-01  0.62288978617E-01  0.51100000000E-03 0. -1.
         11    1    4    4    0    0 -0.33860294659E-01  0.80860907802E-02  0.57725125947E-01  0.67411836536E-01  0.51100000000E-03 0.  1.
</event>
<event>
 8    1  0.1129602E+005  0.1043930E+01  0.7957747E-01            NaN
         13   -1    0    0    0    0  0.00000000000E+00  0.00000000000E+00  0.74505805969E-08  0.10566000000E+00  0.10566000000E+00 0. -1.
     999900   -1    0    0    0    0 -0.00000000000E+00 -0.00000000000E+00 -0.74505805969E-08  0.93827000000E+00  0.93827000000E+00 0.  1.
     999902    2    1    2    0    0 -0.19318214704E-01 -0.11993130201E-01  0.26977168998E-02  0.10210322650E+01  0.10207754797E+01 0.  0.
     999903    2    3    3    0    0  0.54601134816E-01 -0.92551160186E-01 -0.73225478874E-01  0.13102215378E+00  0.16057174403E-01 0.  0.
         14    1    1    2    0    0  0.19318214704E-01  0.11993130201E-01 -0.26977168998E-02  0.22897734994E-01  0.00000000000E+00 0. -1.
     999901    1    3    3    0    0 -0.73919349521E-01  0.80558029985E-01  0.75923195773E-01  0.89001011123E+00  0.88000000000E+00 0. -1.
        -11    1    4    4    0    0  0.31010865032E-01 -0.42307490945E-01 -0.28257849551E-01  0.59584937043E-01  0.51100000000E-03 0. -1.
         11    1    4    4    0    0  0.23590269784E-01 -0.50243669241E-01 -0.44967629322E-01  0.71437216737E-01  0.51100000000E-03 0.  1.
</event>
<event>
 8    1  0.1129602E+005  0.1043930E+01  0.7957747E-01            NaN
         13   -1    0    0    0    0  0.00000000000E+00  0.00000000000E+00  0.74505805969E-08  0.10566000000E+00  0.10566000000E+00 0. -1.
     999900   -1    0    0    0    0 -0.00000000000E+00 -0.00000000000E+00 -0.74505805969E-08  0.93827000000E+00  0.93827000000E+00 0. -1.
     999902    2    1    2    0    0  0.17838570243E-01 -0.82869913079E-02 -0.14797383027E-01  0.10193159520E+01  0.10190187234E+01 0.  0.
     999903    2    3    3    0    0  0.81354071598E-01 -0.68032385864E-01 -0.77368093372E-01  0.13279532346E+00  0.20047083786E-01 0.  0.
         14    1    1    2    0    0 -0.17838570243E-01  0.82869913079E-02  0.14797383027E-01  0.24614047974E-01  0.00000000000E+00 0. -1.
     999901    1    3    3    0    0 -0.63515501355E-01  0.59745394556E-01  0.62570710345E-01  0.88652062857E+00  0.88000000000E+00 0.  1.
        -11    1    4    4    0    0  0.45369042226E-01 -0.34515339780E-01 -0.53296166385E-01  0.78041022193E-01  0.51100000000E-03 0.  1.
         11    1    4    4    0    0  0.35985029372E-01 -0.33517046083E-01 -0.24071926987E-01  0.54754301264E-01  0.51100000000E-03 0. -1.
</event>
<event>
 8    1  0.1129602E+005  0.1043930E+01  0.7957747E-01            NaN
         13   -1    0    0    0    0  0.00000000000E+00  0.00000000000E+00  0.74505805969E-08  0.10566000000E+00  0.10566000000E+00 0.  1.
     999900   -1    0    0    0    0 -0.00000000000E+00 -0.00000000000E+00 -0.74505805969E-08  0.93827000000E+00  0.93827000000E+00 0.  1.
     999902    2    1    2    0    0  0.12072202264E-01  0.33599629854E-02  0.19844609886E-01  0.10204601052E+01  0.10201901737E+01 0.  0.
     999903    2    3    3    0    0  0.96129763773E-02 -0.11703294826E+00  0.56362343234E-01  0.13150901225E+00  0.18132464650E-01 0.  0.
         14    1    1    2    0    0 -0.12072202264E-01 -0.33599629854E-02 -0.19844609886E-01  0.23469894765E-01  0.00000000000E+00 0. -1.
     999901    1    3    3    0    0  0.24592258867E-02  0.12039291125E+00 -0.36517733348E-01  0.88895109299E+00  0.88000000000E+00 0.  1.
        -11    1    4    4    0    0  0.21870841700E-02 -0.19115747887E-01  0.17117091976E-01  0.25757544781E-01  0.51100000000E-03 0. -1.
         11    1    4    4    0    0  0.74258922072E-02 -0.97917200375E-01  0.39245251258E-01  0.10575146747E+00  0.51100000000E-03 0.  1.
</event>
<event>
 8    1  0.1129602E+005  0.1043930E+01  0.7957747E-01            NaN
         13   -1    0    0    0    0  0.00000000000E+00  0.00000000000E+00  0.74505805969E-08  0.10566000000E+00  0.10566000000E+00 0. -1.
     999900   -1    0    0    0    0 -0.00000000000E+00 -0.00000000000E+00 -0.74505805969E-08  0.93827000000E+00  0.93827000000E+00 0.  1.
     999902    2    1    2    0    0 -0.52865018497E-03 -0.15518349594E-01  0.18420282714E-01  0.10198383944E+01  0.10195537971E+01 0.  0.
     999903    2    3    3    0    0 -0.43454673547E-01  0.70809773087E-02  0.12305991794E+00  0.13231215461E+00  0.20598882531E-01 0.  0.
         14    1    1    2    0    0  0.52865018497E-03  0.15518349594E-01 -0.18420282714E-01  0.24091605600E-01  0.00000000000E+00 0.  1.
     999901    1    3    3    0    0  0.42926023362E-01 -0.22599326902E-01 -0.10463963522E+00  0.88752623979E+00  0.88000000000E+00 0.  1.
        -11    1    4    4    0    0 -0.26987391057E-01 -0.47333544483E-02  0.83128195262E-01  0.87528748928E-01  0.51100000000E-03 0.  1.
         11    1    4    4    0    0 -0.16467282490E-01  0.11814331757E-01  0.39931722676E-01  0.44783405680E-01  0.51100000000E-03 0. -1.
</event>
<event>
 8    1  0.1129602E+005  0.1043930E+01  0.7957747E-01            NaN
         13   -1    0    0    0    0  0.00000000000E+00  0.00000000000E+00  0.74505805969E-08  0.10566000000E+00  0.10566000000E+00 0. -1.
     999900   -1    0    0    0    0 -0.00000000000E+00 -0.00000000000E+00 -0.74505805969E-08  0.93827000000E+00  0.93827000000E+00 0.  1.
     999902    2    1    2    0    0 -0.16627006813E-01 -0.54668930377E-02 -0.14836795009E-01  0.10209849622E+01  0.10207271027E+01 0.  0.
     999903    2    3    3    0    0  0.36210016980E-02 -0.20001065174E-01 -0.13007976184E+00  0.13312114073E+00  0.19680940197E-01 0.  0.
         14    1    1    2    0    0  0.16627006813E-01  0.54668930377E-02  0.14836795009E-01  0.22945037834E-01  0.00000000000E+00 0. -1.
     999901    1    3    3    0    0 -0.20248008511E-01  0.14534172136E-01  0.11524296683E+00  0.88786382143E+00  0.88000000000E+00 0. -1.
        -11    1    4    4    0    0  0.89019593562E-02 -0.46225934727E-02 -0.75604153091E-01  0.76268357373E-01  0.51100000000E-03 0. -1.
         11    1    4    4    0    0 -0.52809576582E-02 -0.15378471701E-01 -0.54475608752E-01  0.56852783358E-01  0.51100000000E-03 0.  1.
</event>
<event>
 8    1  0.1129602E+005  0.1043930E+01  0.7957747E-01            NaN
         13   -1    0    0    0    0  0.00000000000E+00  0.00000000000E+00  0.74505805969E-08  0.10566000000E+00  0.10566000000E+00 0.  1.
     999900   -1    0    0    0    0 -0.00000000000E+00 -0.00000000000E+00 -0.74505805969E-08  0.93827000000E+00  0.93827000000E+00 0.  1.
     999902    2    1    2    0    0  0.55770060441E-02  0.73564966243E-02  0.24375206429E-01  0.10178652397E+01  0.10175314612E+01 0.  0.
     999903    2    3    3    0    0 -0.50590026524E-01  0.11012985892E+00  0.42111642691E-01  0.12992848483E+00  0.20495953506E-01 0.  0.
         14    1    1    2    0    0 -0.55770060441E-02 -0.73564966243E-02 -0.24375206429E-01  0.26064760261E-01  0.00000000000E+00 0. -1.
     999901    1    3    3    0    0  0.56167032568E-01 -0.10277336230E+00 -0.17736436262E-01  0.88793675491E+00  0.88000000000E+00 0.  1.
        -11    1    4    4    0    0 -0.73077069604E-02  0.31862494644E-01  0.49086395105E-02  0.33060202795E-01  0.51100000000E-03 0. -1.
         11    1    4    4    0    0 -0.43282319564E-01  0.78267364279E-01  0.37203003181E-01  0.96868282036E-01  0.51100000000E-03 0.  1.
</event>
<event>
 8    1  0.1129602E+005  0.1043930E+01  0.7957747E-01            NaN
         13   -1    0    0    0    0  0.00000000000E+00  0.00000000000E+00  0.74505805969E-08  0.10566000000E+00  0.10566000000E+00 0.  1.
     999900   -1    0    0    0    0 -0.00000000000E+00 -0.00000000000E+00 -0.74505805969E-08  0.93827000000E+00  0.93827000000E+00 0.  1.
     999902    2    1    2    0    0 -0.19787062230E-01  0.11555583764E-01  0.89747545386E-02  0.10193209454E+01  0.10190238389E+01 0.  0.
     999903    2    3    3    0    0 -0.12969996781E+00  0.29401415529E-02  0.18094742656E-01  0.13239465377E+00  0.19240544474E-01 0.  0.
         14    1    1    2    0    0  0.19787062230E-01 -0.11555583764E-01 -0.89747545386E-02  0.24609054570E-01  0.00000000000E+00 0.  1.
     999901    1    3    3    0    0  0.10991290558E+00  0.86154422108E-02 -0.91199881171E-02  0.88692629166E+00  0.88000000000E+00 0. -1.
        -11    1    4    4    0    0 -0.54677314834E-01  0.10019371348E-01  0.11339452942E-01  0.56734829459E-01  0.51100000000E-03 0. -1.
         11    1    4    4    0    0 -0.75022652978E-01 -0.70792297949E-02  0.67552897132E-02  0.75659824309E-01  0.51100000000E-03 0.  1.
</event>
<event>
 8    1  0.1129602E+005  0.1043930E+01  0.7957747E-01            NaN
         13   -1    0    0    0    0  0.00000000000E+00  0.00000000000E+00  0.74505805969E-08  0.10566000000E+00  0.10566000000E+00 0.  1.
     999900   -1    0    0    0    0 -0.00000000000E+00 -0.00000000000E+00 -0.74505805969E-08  0.93827000000E+00  0.93827000000E+00 0.  1.
     999902    2    1    2    0    0 -0.67354617480E-02 -0.10283489599E-01 -0.21024213403E-01  0.10195756543E+01  0.10192847398E+01 0.  0.
     999903    2    3    3    0    0 -0.49161872159E-01 -0.10974346682E+00 -0.52058768055E-01  0.13241420852E+00  0.19049648340E-01 0.  0.
         14    1    1    2    0    0  0.67354617480E-02  0.10283489599E-01  0.21024213403E-01  0.24354345659E-01  0.00000000000E+00 0.  1.
     999901    1    3    3    0    0  0.42426410411E-01  0.99459977224E-01  0.31034554652E-01  0.88716144582E+00  0.88000000000E+00 0.  1.
        -11    1    4    4    0    0 -0.25534860412E-01 -0.35029262412E-01 -0.16975173528E-01  0.46556373986E-01  0.51100000000E-03 0. -1.
         11    1    4    4    0    0 -0.23627011747E-01 -0.74714204411E-01 -0.35083594527E-01  0.85857834533E-01  0.51100000000E-03 0.  1.
</event>
<event>
 8    1  0.1129602E+005  0.1043930E+01  0.7957747E-01            NaN
         13   -1    0    0    0    0  0.00000000000E+00  0.00000000000E+00  0.74505805969E-08  0.10566000000E+00  0.10566000000E+00 0.  1.
     999900   -1    0    0    0    0 -0.00000000000E+00 -0.00000000000E+00 -0.74505805969E-08  0.93827000000E+00  0.93827000000E+00 0.  1.
     999902    2    1    2    0    0  0.18556700095E-02 -0.18839741234E-01 -0.13428039889E-01  0.10207202689E+01  0.10204563566E+01 0.  0.
     999903    2    3    3    0    0 -0.30587078409E-01 -0.12013462046E+00  0.42386491990E-01  0.13256012208E+00  0.20190959955E-01 0.  0.
         14    1    1    2    0    0 -0.18556700095E-02  0.18839741234E-01  0.13428039889E-01  0.23209731067E-01  0.00000000000E+00 0.  1.
     999901    1    3    3    0    0  0.32442748419E-01  0.10129487923E+00 -0.55814531878E-01  0.88816014685E+00  0.88000000000E+00 0.  1.
        -11    1    4    4    0    0 -0.10101396525E-01 -0.12814232843E-01  0.47888405894E-02  0.17012844862E-01  0.51100000000E-03 0.  1.
         11    1    4    4    0    0 -0.20485681884E-01 -0.10732038762E+00  0.37597651400E-01  0.11554727722E+00  0.51100000000E-03 0. -1.
</event>
<event>
 8    1  0.1129602E+005  0.1043930E+01  0.7957747E-01            NaN
         13   -1    0    0    0    0  0.00000000000E+00  0.00000000000E+00  0.74505805969E-08  0.10566000000E+00  0.10566000000E+00 0. -1.
     999900   -1    0    0    0    0 -0.00000000000E+00 -0.00000000000E+00 -0.74505805969E-08  0.93827000000E+00  0.93827000000E+00 0.  1.
     999902    2    1    2    0    0 -0.90585173984E-02  0.12967729357E-01 -0.18766377606E-01  0.10193862499E+01  0.10190907372E+01 0.  0.
     999903    2    3    3    0    0  0.65569386469E-01  0.11075753768E+00  0.80237570910E-02  0.13042624966E+00  0.19494853869E-01 0.  0.
         14    1    1    2    0    0  0.90585173984E-02 -0.12967729357E-01  0.18766377606E-01  0.24543750133E-01  0.00000000000E+00 0. -1.
     999901    1    3    3    0    0 -0.74627903868E-01 -0.97789808326E-01 -0.26790134697E-01  0.88896000021E+00  0.88000000000E+00 0.  1.
        -11    1    4    4    0    0  0.54592031849E-01  0.98902994390E-01  0.14604430740E-02  0.11298002591E+00  0.51100000000E-03 0.  1.
         11    1    4    4    0    0  0.10977354620E-01  0.11854543293E-01  0.65633140170E-02  0.17446223747E-01  0.51100000000E-03 0. -1.
</event>
<event>
 8    1  0.1129602E+005  0.1043930E+01  0.7957747E-01            NaN
         13   -1    0    0    0    0  0.00000000000E+00  0.00000000000E+00  0.74505805969E-08  0.10566000000E+00  0.10566000000E+00 0.  1.
     999900   -1    0    0    0    0 -0.00000000000E+00 -0.00000000000E+00 -0.74505805969E-08  0.93827000000E+00  0.93827000000E+00 0.  1.
     999902    2    1    2    0    0  0.80011874915E-02 -0.81297840186E-02 -0.21724128076E-01  0.10193932902E+01  0.10190979491E+01 0.  0.
     999903    2    3    3    0    0 -0.47426353288E-01  0.69324422118E-01  0.92948916072E-01  0.12685686323E+00  0.19950645657E-01 0.  0.
         14    1    1    2    0    0 -0.80011874915E-02  0.81297840186E-02  0.21724128076E-01  0.24536709847E-01  0.00000000000E+00 0.  1.
     999901    1    3    3    0    0  0.55427540779E-01 -0.77454206136E-01 -0.11467304415E+00  0.89253642692E+00  0.88000000000E+00 0.  1.
        -11    1    4    4    0    0 -0.25134978500E-01  0.26101678100E-01  0.28431616312E-01  0.46061726747E-01  0.51100000000E-03 0.  1.
         11    1    4    4    0    0 -0.22291374788E-01  0.43222744018E-01  0.64517299760E-01  0.80795136486E-01  0.51100000000E-03 0. -1.
</event>
<event>
 8    1  0.1129602E+005  0.1043930E+01  0.7957747E-01            NaN
         13   -1    0    0    0    0  0.00000000000E+00  0.00000000000E+00  0.74505805969E-08  0.10566000000E+00  0.10566000000E+00 0.  1.
     999900   -1    0    0    0    0 -0.00000000000E+00 -0.00000000000E+00 -0.74505805969E-08  0.93827000000E+00  0.93827000000E+00 0. -1.
     999902    2    1    2    0    0 -0.12363398020E-01 -0.19705197753E-01 -0.16437754681E-03  0.10206668220E+01  0.10204016788E+01 0.  0.
     999903    2    3    3    0    0 -0.51882300394E-01 -0.12094415246E-01  0.11882120139E+00  0.13174768305E+00  0.20023139483E-01 0.  0.
         14    1    1    2    0    0  0.12363398020E-01  0.19705197753E-01  0.16437754681E-03  0.23263177965E-01  0.00000000000E+00 0. -1.
     999901    1    3    3    0    0  0.39518902374E-01 -0.76107825064E-02 -0.11898557894E+00  0.88891913898E+00  0.88000000000E+00 0. -1.
        -11    1    4    4    0    0 -0.18764651728E-01 -0.83350650414E-02  0.67460475246E-01  0.70517815516E-01  0.51100000000E-03 0. -1.
         11    1    4    4    0    0 -0.33117648666E-01 -0.37593502048E-02  0.51360726147E-01  0.61229867536E-01  0.51100000000E-03 0.  1.
</event>
<event>
 8    1  0.1129602E+005  0.1043930E+01  0.7957747E-01            NaN
         13   -1    0    0    0    0  0.00000000000E+00  0.00000000000E+00  0.74505805969E-08  0.10566000000E+00  0.10566000000E+00 0. -1.
     999900   -1    0    0    0    0 -0.00000000000E+00 -0.00000000000E+00 -0.74505805969E-08  0.93827000000E+00  0.93827000000E+00 0. -1.
     999902    2    1    2    0    0  0.14603436417E-01  0.77205191667E-02  0.12473058320E-01  0.10232311122E+01  0.10230217324E+01 0.  0.
     999903    2    3    3    0    0 -0.11170625179E+00 -0.46200479411E-01 -0.45526413698E-01  0.13069228944E+00  0.19875844289E-01 0.  0.
         14    1    1    2    0    0 -0.14603436417E-01 -0.77205191667E-02 -0.12473058320E-01  0.20698887778E-01  0.00000000000E+00 0.  1.
     999901    1    3    3    0    0  0.12630968821E+00  0.53920998578E-01  0.57999472019E-01  0.89253882278E+00  0.88000000000E+00 0.  1.
        -11    1    4    4    0    0 -0.28039949184E-01 -0.28171352515E-02 -0.85826712568E-02  0.29463509094E-01  0.51100000000E-03 0.  1.
         11    1    4    4    0    0 -0.83666302611E-01 -0.43383344160E-01 -0.36943742441E-01  0.10122878034E+00  0.51100000000E-03 0. -1.
</event>
<event>
 8    1  0.1129602E+005  0.1043930E+01  0.7957747E-01            NaN
         13   -1    0    0    0    0  0.00000000000E+00  0.00000000000E+00  0.74505805969E-08  0.10566000000E+00  0.10566000000E+00 0.  1.
     999900   -1    0    0    0    0 -0.00000000000E+00 -0.00000000000E+00 -0.74505805969E-08  0.93827000000E+00  0.93827000000E+00 0. -1.
     999902    2    1    2    0    0  0.24844501248E-02  0.21523515025E-01  0.60804872225E-02  0.10214265221E+01  0.10211786002E+01 0.  0.
     999903    2    3    3    0    0 -0.41404112478E-01  0.99280645354E-01 -0.75891048035E-01  0.13311818048E+00  0.19749727374E-01 0.  0.
         14    1    1    2    0    0 -0.24844501248E-02 -0.21523515025E-01 -0.60804872225E-02  0.22503477872E-01  0.00000000000E+00 0. -1.
     999901    1    3    3    0    0  0.43888562603E-01 -0.77757130328E-01  0.81971535257E-01  0.88830834165E+00  0.88000000000E+00 0.  1.
        -11    1    4    4    0    0 -0.14938014424E-01  0.16403854036E-01 -0.12483982195E-01  0.25462553576E-01  0.51100000000E-03 0.  1.
         11    1    4    4    0    0 -0.26466098054E-01  0.82876791317E-01 -0.63407065840E-01  0.10765562691E+00  0.51100000000E-03 0. -1.
</event>
<event>
 8    1  0.1129602E+005  0.1043930E+01  0.7957747E-01            NaN
         13   -1    0    0    0    0  0.00000000000E+00  0.00000000000E+00  0.74505805969E-08  0.10566000000E+00  0.10566000000E+00 0. -1.
     999900   -1    0    0    0    0 -0.00000000000E+00 -0.00000000000E+00 -0.74505805969E-08  0.93827000000E+00  0.93827000000E+00 0. -1.
     999902    2    1    2    0    0 -0.18700749741E-01  0.22677158924E-02 -0.13858688755E-01  0.10205435973E+01  0.10202756050E+01 0.  0.
     999903    2    3    3    0    0  0.86456441945E-01  0.34669037086E-01 -0.89177773304E-01  0.13049817990E+00  0.20011027437E-01 0.  0.
         14    1    1    2    0    0  0.18700749741E-01 -0.22677158924E-02  0.13858688755E-01  0.23386402678E-01  0.00000000000E+00 0. -1.
     999901    1    3    3    0    0 -0.10515719169E+00 -0.32401321194E-01  0.75319084549E-01  0.89004541742E+00  0.88000000000E+00 0.  1.
        -11    1    4    4    0    0  0.29740687113E-01  0.22163758379E-01 -0.37678717050E-01  0.52874261177E-01  0.51100000000E-03 0. -1.
         11    1    4    4    0    0  0.56715754832E-01  0.12505278707E-01 -0.51499056254E-01  0.77623918722E-01  0.51100000000E-03 0.  1.
</event>
<event>
 8    1  0.1129602E+005  0.1043930E+01  0.7957747E-01            NaN
         13   -1    0    0    0    0  0.00000000000E+00  0.00000000000E+00  0.74505805969E-08  0.10566000000E+00  0.10566000000E+00 0. -1.
     999900   -1    0    0    0    0 -0.00000000000E+00 -0.00000000000E+00 -0.74505805969E-08  0.93827000000E+00  0.93827000000E+00 0.  1.
     999902    2    1    2    0    0  0.21582756860E-01  0.79678554800E-04 -0.55558103626E-02  0.10216434845E+01  0.10214003724E+01 0.  0.
     999903    2    3    3    0    0  0.79796793469E-01 -0.96608631332E-01 -0.42438756554E-01  0.13366946744E+00  0.19123874431E-01 0.  0.
         14    1    1    2    0    0 -0.21582756860E-01 -0.79678554800E-04  0.55558103626E-02  0.22286515455E-01  0.00000000000E+00 0. -1.
     999901    1    3    3    0    0 -0.58214036609E-01  0.96688309886E-01  0.36882946192E-01  0.88797401710E+00  0.88000000000E+00 0.  1.
        -11    1    4    4    0    0  0.70945991053E-01 -0.76180700267E-01 -0.38844456543E-01  0.11111249104E+00  0.51100000000E-03 0.  1.
         11    1    4    4    0    0  0.88508024152E-02 -0.20427931065E-01 -0.35943000113E-02  0.22556976405E-01  0.51100000000E-03 0. -1.
</event>
<event>
 8    1  0.1129602E+005  0.1043930E+01  0.7957747E-01            NaN
         13   -1    0    0    0    0  0.00000000000E+00  0.00000000000E+00  0.74505805969E-08  0.10566000000E+00  0.10566000000E+00 0. -1.
     999900   -1    0    0    0    0 -0.00000000000E+00 -0.00000000000E+00 -0.74505805969E-08  0.93827000000E+00  0.93827000000E+00 0. -1.
     999902    2    1    2    0    0 -0.15382235221E-01  0.13256208941E-01 -0.11673604348E-01  0.10205075050E+01  0.10202386752E+01 0.  0.
     999903    2    3    3    0    0 -0.12369878502E+00 -0.31530335599E-02 -0.44780123866E-01  0.13309678841E+00  0.19954061109E-01 0.  0.
         14    1    1    2    0    0  0.15382235221E-01 -0.13256208941E-01  0.11673604348E-01  0.23422495050E-01  0.00000000000E+00 0. -1.
     999901    1    3    3    0    0  0.10831654980E+00  0.16409242501E-01  0.33106519518E-01  0.88741071654E+00  0.88000000000E+00 0.  1.
        -11    1    4    4    0    0 -0.68704045259E-01 -0.64071017756E-02 -0.34131297566E-01  0.76983786492E-01  0.51100000000E-03 0.  1.
         11    1    4    4    0    0 -0.54994739762E-01  0.32540682157E-02 -0.10648826300E-01  0.56113001916E-01  0.51100000000E-03 0. -1.
</event>
<event>
 8    1  0.1129602E+005  0.1043930E+01  0.7957747E-01            NaN
         13   -1    0    0    0    0  0.00000000000E+00  0.00000000000E+00  0.74505805969E-08  0.10566000000E+00  0.10566000000E+00 0. -1.
     999900   -1    0    0    0    0 -0.00000000000E+00 -0.00000000000E+00 -0.74505805969E-08  0.93827000000E+00  0.93827000000E+00 0. -1.
     999902    2    1    2    0    0 -0.10314317239E-01 -0.18322642802E-01  0.11254645890E-01  0.10200810706E+01  0.10198022451E+01 0.  0.
     999903    2    3    3    0    0 -0.65371327182E-01 -0.11209288944E+00  0.22784075505E-01  0.13331331000E+00  0.20373959977E-01 0.  0.
         14    1    1    2    0    0  0.10314317239E-01  0.18322642802E-01 -0.11254645890E-01  0.23848929399E-01  0.00000000000E+00 0.  1.
     999901    1    3    3    0    0  0.55057009943E-01  0.93770246639E-01 -0.11529429614E-01  0.88676776060E+00  0.88000000000E+00 0. -1.
        -11    1    4    4    0    0 -0.23174529693E-01 -0.59102981411E-01  0.81125742412E-02  0.64002314177E-01  0.51100000000E-03 0. -1.
         11    1    4    4    0    0 -0.42196797489E-01 -0.52989908030E-01  0.14671501264E-01  0.69310995821E-01  0.51100000000E-03 0.  1.
</event>
<event>
 8    1  0.1129602E+005  0.1043930E+01  0.7957747E-01            NaN
         13   -1    0    0    0    0  0.00000000000E+00  0.00000000000E+00  0.74505805969E-08  0.10566000000E+00  0.10566000000E+00 0. -1.
     999900   -1    0    0    0    0 -0.00000000000E+00 -0.00000000000E+00 -0.74505805969E-08  0.93827000000E+00  0.93827000000E+00 0. -1.
     999902    2    1    2    0    0 -0.13126819461E-01  0.19947910752E-01 -0.14225389720E-02  0.10200081240E+01  0.10197275700E+01 0.  0.
     999903    2    3    3    0    0 -0.85494128594E-01 -0.48131689741E-02 -0.97768055745E-01  0.13145165588E+00  0.19711227502E-01 0.  0.
         14    1    1    2    0    0  0.13126819461E-01 -0.19947910752E-01  0.14225389720E-02  0.23921875964E-01  0.00000000000E+00 0. -1.
     999901    1    3    3    0    0  0.72367309134E-01  0.24761079726E-01  0.96345516773E-01  0.88855646816E+00  0.88000000000E+00 0.  1.
        -11    1    4    4    0    0 -0.65925809506E-01  0.22754247591E-02 -0.64866416774E-01  0.92516501571E-01  0.51100000000E-03 0. -1.
         11    1    4    4    0    0 -0.19568319089E-01 -0.70885937332E-02 -0.32901638970E-01  0.38935154308E-01  0.51100000000E-03 0.  1.
</event>
<event>
 8    1  0.1129602E+005  0.1043930E+01  0.7957747E-01            NaN
         13   -1    0    0    0    0  0.00000000000E+00  0.00000000000E+00  0.74505805969E-08  0.10566000000E+00  0.10566000000E+00 0.  1.
     999900   -1    0    0    0    0 -0.00000000000E+00 -0.00000000000E+00 -0.74505805969E-08  0.93827000000E+00  0.93827000000E+00 0. -1.
     999902    2    1    2    0    0 -0.78428160029E-02 -0.15770950314E-01 -0.16078066441E-01  0.10200817955E+01  0.10198029872E+01 0.  0.
     999903    2    3    3    0    0  0.12735253378E+00 -0.14851052467E-01 -0.45401619162E-03  0.12961970213E+00  0.19022077435E-01 0.  0.
         14    1    1    2    0    0  0.78428160029E-02  0.15770950314E-01  0.16078066441E-01  0.23848204485E-01  0.00000000000E+00 0.  1.
     999901    1    3    3    0    0 -0.13519534978E+00 -0.91989784791E-03 -0.15624050249E-01  0.89046209339E+00  0.88000000000E+00 0.  1.
        -11    1    4    4    0    0  0.18879527544E-01 -0.76574774353E-02  0.41984148643E-02  0.20807722829E-01  0.51100000000E-03 0. -1.
         11    1    4    4    0    0  0.10847300623E+00 -0.71935750312E-02 -0.46524310559E-02  0.10881197930E+00  0.51100000000E-03 0.  1.
</event>
<event>
 8    1  0.1129602E+005  0.1043930E+01  0.7957747E-01            NaN
         13   -1    0    0    0    0  0.00000000000E+00  0.00000000000E+00  0.74505805969E-08  0.10566000000E+00  0.10566000000E+00 0. -1.
     999900   -1    0    0    0    0 -0.00000000000E+00 -0.00000000000E+00 -0.74505805969E-08  0.93827000000E+00  0.93827000000E+00 0.  1.
     999902    2    1    2    0    0 -0.69465795290E-02  0.21670070462E-01  0.28563858804E-02  0.10209951823E+01  0.10207375551E+01 0.  0.
     999903    2    3    3    0    0 -0.64641121470E-01 -0.54815399074E-01 -0.96886846573E-01  0.13019363337E+00  0.19496629722E-01 0.  0.
         14    1    1    2    0    0  0.69465795290E-02 -0.21670070462E-01 -0.28563858804E-02  0.22934817664E-01  0.00000000000E+00 0. -1.
     999901    1    3    3    0    0  0.57694541941E-01  0.76485469537E-01  0.99743232453E-01  0.89080154897E+00  0.88000000000E+00 0. -1.
        -11    1    4    4    0    0 -0.33458045028E-01 -0.18027903482E-01 -0.34441666902E-01  0.51292646852E-01  0.51100000000E-03 0.  1.
         11    1    4    4    0    0 -0.31183076442E-01 -0.36787495593E-01 -0.62445179671E-01  0.78900986518E-01  0.51100000000E-03 0. -1.
</event>
<event>
 8    1  0.1129602E+005  0.1043930E+01  0.7957747E-01            NaN
         13   -1    0    0    0    0  0.00000000000E+00  0.00000000000E+00  0.74505805969E-08  0.10566000000E+00  0.10566000000E+00 0.  1.
     999900   -1    0    0    0    0 -0.00000000000E+00 -0.00000000000E+00 -0.74505805969E-08  0.93827000000E+00  0.93827000000E+00 0.  1.
     999902    2    1    2    0    0 -0.79488241625E-02  0.22103304616E-01 -0.11884989327E-02  0.10204108076E+01  0.10201397276E+01 0.  0.
     999903    2    3    3    0    0 -0.30252462788E-01  0.88904224635E-01 -0.91750854619E-01  0.13296427093E+00  0.21026301588E-01 0.  0.
         14    1    1    2    0    0  0.79488241625E-02 -0.22103304616E-01  0.11884989327E-02  0.23519192381E-01  0.00000000000E+00 0.  1.
     999901    1    3    3    0    0  0.22303638625E-01 -0.66800920018E-01  0.90562355686E-01  0.88744653669E+00  0.88000000000E+00 0. -1.
        -11    1    4    4    0    0 -0.60922461449E-02  0.46623716998E-01 -0.51937721985E-01  0.70061933571E-01  0.51100000000E-03 0. -1.
         11    1    4    4    0    0 -0.24160216643E-01  0.42280507637E-01 -0.39813132634E-01  0.62902337360E-01  0.51100000000E-03 0.  1.
</event>
<event>
 8    1  0.1129602E+005  0.1043930E+01  0.7957747E-01            NaN
         13   -1    0    0    0    0  0.00000000000E+00  0.00000000000E+00  0.74505805969E-08  0.10566000000E+00  0.10566000000E+00 0. -1.
     999900   -1    0    0    0    0 -0.00000000000E+00 -0.00000000000E+00 -0.74505805969E-08  0.93827000000E+00  0.93827000000E+00 0.  1.
     999902    2    1    2    0    0 -0.16883478057E-01  0.16209441523E-01 -0.29406320460E-02  0.10203409105E+01  0.10200681980E+01 0.  0.
     999903    2    3    3    0    0  0.11443309103E+00  0.50893046173E-01  0.25922604873E-01  0.12945366726E+00  0.20030877491E-01 0.  0.
         14    1    1    2    0    0  0.16883478057E-01 -0.16209441523E-01  0.29406320460E-02  0.23589089483E-01  0.00000000000E+00 0. -1.
     999901    1    3    3    0    0 -0.13131656909E+00 -0.34683604650E-01 -0.28863236919E-01  0.89088724325E+00  0.88000000000E+00 0. -1.
        -11    1    4    4    0    0  0.24418122386E-01  0.27383564062E-02  0.24162026263E-02  0.24694988415E-01  0.51100000000E-03 0.  1.
         11    1    4    4    0    0  0.90014968643E-01  0.48154689767E-01  0.23506402246E-01  0.10475867885E+00  0.51100000000E-03 0. -1.
</event>
<event>
 8    1  0.1129602E+005  0.1043930E+01  0.7957747E-01            NaN
         13   -1    0    0    0    0  0.00000000000E+00  0.00000000000E+00  0.74505805969E-08  0.10566000000E+00  0.10566000000E+00 0.  1.
     999900   -1    0    0    0    0 -0.00000000000E+00 -0.00000000000E+00 -0.74505805969E-08  0.93827000000E+00  0.93827000000E+00 0. -1.
     999902    2    1    2    0    0 -0.67298047780E-02  0.16831091282E-01 -0.14967287194E-01  0.10204226481E+01  0.10201518442E+01 0.  0.
     999903    2    3    3    0    0 -0.12268108118E+00  0.25276987586E-02 -0.44807084920E-01  0.13219987254E+00  0.20300110887E-01 0.  0.
         14    1    1    2    0    0  0.67298047780E-02 -0.16831091282E-01  0.14967287194E-01  0.23507351872E-01  0.00000000000E+00 0.  1.
     999901    1    3    3    0    0  0.11595127640E+00  0.14303392524E-01  0.29839797726E-01  0.88822277558E+00  0.88000000000E+00 0.  1.
        -11    1    4    4    0    0 -0.10261473177E+00  0.85307291447E-02 -0.32883130470E-01  0.10809309833E+00  0.51100000000E-03 0.  1.
         11    1    4    4    0    0 -0.20066349408E-01 -0.60030303861E-02 -0.11923954450E-01  0.24106774217E-01  0.51100000000E-03 0. -1.
</event>
<event>
 8    1  0.1129602E+005  0.1043930E+01  0.7957747E-01            NaN
         13   -1    0    0    0    0  0.00000000000E+00  0.00000000000E+00  0.74505805969E-08  0.10566000000E+00  0.10566000000E+00 0.  1.
     999900   -1    0    0    0    0 -0.00000000000E+00 -0.00000000000E+00 -0.74505805969E-08  0.93827000000E+00  0.93827000000E+00 0. -1.
     999902    2    1    2    0    0 -0.14056949373E-01 -0.18448554376E-01 -0.81908455094E-02  0.10193325015E+01  0.10190356773E+01 0.  0.
     999903    2    3    3    0    0  0.12120256004E+00 -0.24855307554E-03  0.34154354164E-01  0.12780600670E+00  0.21857106418E-01 0.  0.
         14    1    1    2    0    0  0.14056949373E-01  0.18448554376E-01  0.81908455094E-02  0.24597498539E-01  0.00000000000E+00 0.  1.
     999901    1    3    3    0    0 -0.13525950941E+00 -0.18200001300E-01 -0.42345199673E-01  0.89152649477E+00  0.88000000000E+00 0. -1.
        -11    1    4    4    0    0  0.10241615142E+00 -0.44112943104E-02  0.35562596455E-01  0.10850570021E+00  0.51100000000E-03 0. -1.
         11    1    4    4    0    0  0.18786408616E-01  0.41627412349E-02 -0.14082422913E-02  0.19300306490E-01  0.51100000000E-03 0.  1.
</event>
<event>
 8    1  0.1129602E+005  0.1043930E+01  0.7957747E-01            NaN
         13   -1    0    0    0    0  0.00000000000E+00  0.00000000000E+00  0.74505805969E-08  0.10566000000E+00  0.10566000000E+00 0.  1.
     999900   -1    0    0    0    0 -0.00000000000E+00 -0.00000000000E+00 -0.74505805969E-08  0.93827000000E+00  0.93827000000E+00 0.  1.
     999902    2    1    2    0    0  0.20071451235E-01 -0.86242648018E-02  0.12908174733E-01  0.10185555626E+01  0.10182394473E+01 0.  0.
     999903    2    3    3    0    0  0.37131901860E-01  0.46524768612E-01 -0.11143621851E+00  0.12794116625E+00  0.20188585786E-01 0.  0.
         14    1    1    2    0    0 -0.20071451235E-01  0.86242648018E-02 -0.12908174733E-01  0.25374437393E-01  0.00000000000E+00 0. -1.
     999901    1    3    3    0    0 -0.17060450625E-01 -0.55149033414E-01  0.12434439324E+00  0.89061439635E+00  0.88000000000E+00 0. -1.
        -11    1    4    4    0    0  0.34871895777E-02  0.16429950688E-01 -0.40636666986E-01  0.43973896751E-01  0.51100000000E-03 0. -1.
         11    1    4    4    0    0  0.33644712283E-01  0.30094817924E-01 -0.70799551525E-01  0.83967269502E-01  0.51100000000E-03 0.  1.
</event>
<event>
 8    1  0.1129602E+005  0.1043930E+01  0.7957747E-01            NaN
         13   -1    0    0    0    0  0.00000000000E+00  0.00000000000E+00  0.74505805969E-08  0.10566000000E+00  0.10566000000E+00 0. -1.
     999900   -1    0    0    0    0 -0.00000000000E+00 -0.00000000000E+00 -0.74505805969E-08  0.93827000000E+00  0.93827000000E+00 0.  1.
     999902    2    1    2    0    0  0.11062645834E-01  0.16817724820E-01  0.12915753180E-01  0.10200127535E+01  0.10197323093E+01 0.  0.
     999903    2    3    3    0    0  0.12032851517E+00  0.35356872314E-01 -0.35726981949E-01  0.13172853890E+00  0.18626076810E-01 0.  0.
         14    1    1    2    0    0 -0.11062645834E-01 -0.16817724820E-01 -0.12915753180E-01  0.23917246522E-01  0.00000000000E+00 0.  1.
     999901    1    3    3    0    0 -0.10926586934E+00 -0.18539147493E-01  0.48642735128E-01  0.88828421458E+00  0.88000000000E+00 0. -1.
        -11    1    4    4    0    0  0.65915508493E-01  0.24384956957E-01 -0.28117049440E-01  0.75698810928E-01  0.51100000000E-03 0.  1.
         11    1    4    4    0    0  0.54413006680E-01  0.10971915357E-01 -0.76099325089E-02  0.56029727970E-01  0.51100000000E-03 0. -1.
</event>
<event>
 8    1  0.1129602E+005  0.1043930E+01  0.7957747E-01            NaN
         13   -1    0    0    0    0  0.00000000000E+00  0.00000000000E+00  0.74505805969E-08  0.10566000000E+00  0.10566000000E+00 0. -1.
     999900   -1    0    0    0    0 -0.00000000000E+00 -0.00000000000E+00 -0.74505805969E-08  0.93827000000E+00  0.93827000000E+00 0. -1.
     999902    2    1    2    0    0 -0.87179410385E-03  0.19624318875E-01 -0.12907961976E-01  0.10204249070E+01  0.10201541557E+01 0.  0.
     999903    2    3    3    0    0  0.73484030672E-01 -0.71311298395E-01  0.74687352434E-01  0.12830887512E+00  0.19994068587E-01 0.  0.
         14    1    1    2    0    0  0.87179410385E-03 -0.19624318875E-01  0.12907961976E-01  0.23505093036E-01  0.00000000000E+00 0. -1.
     999901    1    3    3    0    0 -0.74355824775E-01  0.90935617270E-01 -0.87595314409E-01  0.89211603184E+00  0.88000000000E+00 0. -1.
        -11    1    4    4    0    0  0.63804456444E-01 -0.67673805120E-01  0.61337775878E-01  0.11141515351E+00  0.51100000000E-03 0. -1.
         11    1    4    4    0    0  0.96795742275E-02 -0.36374932746E-02  0.13349576556E-01  0.16893721608E-01  0.51100000000E-03 0.  1.
</event>
<event>
 8    1  0.1129602E+005  0.1043930E+01  0.7957747E-01            NaN
         13   -1    0    0    0    0  0.00000000000E+00  0.00000000000E+00  0.74505805969E-08  0.10566000000E+00  0.10566000000E+00 0.  1.
     999900   -1    0    0    0    0 -0.00000000000E+00 -0.00000000000E+00 -0.74505805969E-08  0.93827000000E+00  0.93827000000E+00 0. -1.
     999902    2    1    2    0    0 -0.14620883078E-01  0.12256047977E-01 -0.13488591191E-01  0.10205650043E+01  0.10202975080E+01 0.  0.
     999903    2    3    3    0    0  0.31056547660E-01 -0.10728089760E+00  0.59842419177E-01  0.12829097341E+00  0.20093744837E-01 0.  0.
         14    1    1    2    0    0  0.14620883078E-01 -0.12256047977E-01  0.13488591191E-01  0.23364995748E-01  0.00000000000E+00 0.  1.
     999901    1    3    3    0    0 -0.45677430738E-01  0.11953694558E+00 -0.73331010368E-01  0.89227403084E+00  0.88000000000E+00 0.  1.
        -11    1    4    4    0    0  0.25555053637E-01 -0.81573762276E-01  0.54732363605E-01  0.10150483833E+00  0.51100000000E-03 0.  1.
         11    1    4    4    0    0  0.55014940229E-02 -0.25707135328E-01  0.51100555717E-02  0.26786135074E-01  0.51100000000E-03 0. -1.
</event>
<event>
 8    1  0.1129602E+005  0.1043930E+01  0.7957747E-01            NaN
         13   -1    0    0    0    0  0.00000000000E+00  0.00000000000E+00  0.74505805969E-08  0.10566000000E+00  0.10566000000E+00 0. -1.
     999900   -1    0    0    0    0 -0.00000000000E+00 -0.00000000000E+00 -0.74505805969E-08  0.93827000000E+00  0.93827000000E+00 0.  1.
     999902    2    1    2    0    0 -0.92362202238E-02  0.12846049495E-01  0.15907293787E-01  0.10214940746E+01  0.10212476554E+01 0.  0.
     999903    2    3    3    0    0 -0.80145146941E-01 -0.28744909451E-01 -0.96908223549E-01  0.13049170387E+00  0.19681630746E-01 0.  0.
         14    1    1    2    0    0  0.92362202238E-02 -0.12846049495E-01 -0.15907293787E-01  0.22435925371E-01  0.00000000000E+00 0.  1.
     999901    1    3    3    0    0  0.70908926717E-01  0.41590958946E-01  0.11281551734E+00  0.89100237076E+00  0.88000000000E+00 0.  1.
        -11    1    4    4    0    0 -0.38928091273E-01 -0.24363291786E-01 -0.49925455936E-01  0.67836410196E-01  0.51100000000E-03 0. -1.
         11    1    4    4    0    0 -0.41217055668E-01 -0.43816176645E-02 -0.46982767613E-01  0.62655293670E-01  0.51100000000E-03 0.  1.
</event>
<event>
 8    1  0.1129602E+005  0.1043930E+01  0.7957747E-01            NaN
         13   -1    0    0    0    0  0.00000000000E+00  0.00000000000E+00  0.74505805969E-08  0.10566000000E+00  0.10566000000E+00 0. -1.
     999900   -1    0    0    0    0 -0.00000000000E+00 -0.00000000000E+00 -0.74505805969E-08  0.93827000000E+00  0.93827000000E+00 0.  1.
     999902    2    1    2    0    0 -0.34768602605E-02  0.32223145198E-02  0.23512986353E-01  0.10199439125E+01  0.10196618323E+01 0.  0.
     999903    2    3    3    0    0  0.59176742907E-01 -0.69973401855E-01  0.92875312974E-01  0.13197194261E+00  0.19814287990E-01 0.  0.
         14    1    1    2    0    0  0.34768602605E-02 -0.32223145198E-02 -0.23512986353E-01  0.23986087538E-01  0.00000000000E+00 0.  1.
     999901    1    3    3    0    0 -0.62653603167E-01  0.73195716374E-01 -0.69362326620E-01  0.88797196985E+00  0.88000000000E+00 0.  1.
        -11    1    4    4    0    0  0.84021438007E-02 -0.14928699803E-01  0.84162454045E-02  0.19093360259E-01  0.51100000000E-03 0.  1.
         11    1    4    4    0    0  0.50774599106E-01 -0.55044702051E-01  0.84459067569E-01  0.11287858235E+00  0.51100000000E-03 0. -1.
</event>
<event>
 8    1  0.1129602E+005  0.1043930E+01  0.7957747E-01            NaN
         13   -1    0    0    0    0  0.00000000000E+00  0.00000000000E+00  0.74505805969E-08  0.10566000000E+00  0.10566000000E+00 0.  1.
     999900   -1    0    0    0    0 -0.00000000000E+00 -0.00000000000E+00 -0.74505805969E-08  0.93827000000E+00  0.93827000000E+00 0. -1.
     999902    2    1    2    0    0 -0.59589543235E-02  0.11148085971E-01  0.19639589493E-01  0.10205740065E+01  0.10203067187E+01 0.  0.
     999903    2    3    3    0    0 -0.26566311771E-01 -0.70161107271E-01 -0.10227069209E+00  0.12821871579E+00  0.18772179524E-01 0.  0.
         14    1    1    2    0    0  0.59589543235E-02 -0.11148085971E-01 -0.19639589493E-01  0.23355993512E-01  0.00000000000E+00 0. -1.
     999901    1    3    3    0    0  0.20607357448E-01  0.81309193243E-01  0.12191028158E+00  0.89235529070E+00  0.88000000000E+00 0.  1.
        -11    1    4    4    0    0 -0.18003159565E-01 -0.27148483110E-01 -0.53390610209E-01  0.62545761399E-01  0.51100000000E-03 0.  1.
         11    1    4    4    0    0 -0.85631522058E-02 -0.43012624161E-01 -0.48880081876E-01  0.65672954388E-01  0.51100000000E-03 0. -1.
</event>
<event>
 8    1  0.1129602E+005  0.1043930E+01  0.7957747E-01            NaN
         13   -1    0    0    0    0  0.00000000000E+00  0.00000000000E+00  0.74505805969E-08  0.10566000000E+00  0.10566000000E+00 0. -1.
     999900   -1    0    0    0    0 -0.00000000000E+00 -0.00000000000E+00 -0.74505805969E-08  0.93827000000E+00  0.93827000000E+00 0.  1.
     999902    2    1    2    0    0 -0.17763030234E-01  0.16341996728E-01  0.43719992340E-02  0.10194004163E+01  0.10191052489E+01 0.  0.
     999903    2    3    3    0    0  0.52217544680E-01 -0.10834732188E+00  0.36465256330E-01  0.12728232758E+00  0.20131116776E-01 0.  0.
         14    1    1    2    0    0  0.17763030234E-01 -0.16341996728E-01 -0.43719992340E-02  0.24529583719E-01  0.00000000000E+00 0. -1.
     999901    1    3    3    0    0 -0.69980574914E-01  0.12468931861E+00 -0.32093257096E-01  0.89211808870E+00  0.88000000000E+00 0. -1.
        -11    1    4    4    0    0  0.42916564899E-01 -0.93044301216E-01  0.38036885417E-01  0.10929839571E+00  0.51100000000E-03 0.  1.
         11    1    4    4    0    0  0.93009797818E-02 -0.15303020666E-01 -0.15716290873E-02  0.17983931867E-01  0.51100000000E-03 0. -1.
</event>
<event>
 8    1  0.1129602E+005  0.1043930E+01  0.7957747E-01            NaN
         13   -1    0    0    0    0  0.00000000000E+00  0.00000000000E+00  0.74505805969E-08  0.10566000000E+00  0.10566000000E+00 0. -1.
     999900   -1    0    0    0    0 -0.00000000000E+00 -0.00000000000E+00 -0.74505805969E-08  0.93827000000E+00  0.93827000000E+00 0.  1.
     999902    2    1    2    0    0 -0.14174938837E-01  0.15465871377E-01  0.10386431072E-01  0.10205205998E+01  0.10202520740E+01 0.  0.
     999903    2    3    3    0    0 -0.96798603320E-01 -0.74741593304E-01  0.43792941461E-01  0.13143114896E+00  0.20001245474E-01 0.  0.
         14    1    1    2    0    0  0.14174938837E-01 -0.15465871377E-01 -0.10386431072E-01  0.23409400225E-01  0.00000000000E+00 0.  1.
     999901    1    3    3    0    0  0.82623664483E-01  0.90207464681E-01 -0.33406510389E-01  0.88908945082E+00  0.88000000000E+00 0.  1.
        -11    1    4    4    0    0 -0.73503905179E-02 -0.49480560025E-02 -0.19726703072E-02  0.90919771288E-02  0.51100000000E-03 0. -1.
         11    1    4    4    0    0 -0.89448212802E-01 -0.69793537302E-01  0.45765611768E-01  0.12233917183E+00  0.51100000000E-03 0.  1.
</event>
<event>
 8    1  0.1129602E+005  0.1043930E+01  0.7957747E-01            NaN
         13   -1    0    0    0    0  0.00000000000E+00  0.00000000000E+00  0.74505805969E-08  0.10566000000E+00  0.10566000000E+00 0.  1.
     999900   -1    0    0    0    0 -0.00000000000E+00 -0.00000000000E+00 -0.74505805969E-08  0.93827000000E+00  0.93827000000E+00 0.  1.
     999902    2    1    2    0    0 -0.20063079221E-01  0.81405451066E-02  0.80086357745E-02  0.10208446395E+01  0.10205835802E+01 0.  0.
     999903    2    3    3    0    0 -0.16227539207E-01  0.64042836089E-01 -0.11141664550E+00  0.13101197247E+00  0.19637977303E-01 0.  0.
         14    1    1    2    0    0  0.20063079221E-01 -0.81405451066E-02 -0.80086357745E-02  0.23085360500E-01  0.00000000000E+00 0. -1.
     999901    1    3    3    0    0 -0.38355400136E-02 -0.55902290982E-01  0.11942528128E+00  0.88983266703E+00  0.88000000000E+00 0. -1.
        -11    1    4    4    0    0  0.14109798556E-02  0.34175719508E-01 -0.53569165597E-01  0.63560107707E-01  0.51100000000E-03 0. -1.
         11    1    4    4    0    0 -0.17638519063E-01  0.29867116581E-01 -0.57847479906E-01  0.67451864763E-01  0.51100000000E-03 0.  1.
</event>
<event>
 8    1  0.1129602E+005  0.1043930E+01  0.7957747E-01            NaN
         13   -1    0    0    0    0  0.00000000000E+00  0.00000000000E+00  0.74505805969E-08  0.10566000000E+00  0.10566000000E+00 0.  1.
     999900   -1    0    0    0    0 -0.00000000000E+00 -0.00000000000E+00 -0.74505805969E-08  0.93827000000E+00  0.93827000000E+00 0. -1.
     999902    2    1    2    0    0 -0.34393913483E-02  0.22398093558E-01  0.51391920706E-02  0.10206939224E+01  0.10204294037E+01 0.  0.
     999903    2    3    3    0    0 -0.70134851789E-01  0.90650310304E-05 -0.10825938711E+00  0.13063280605E+00  0.20638255784E-01 0.  0.
         14    1    1    2    0    0  0.34393913483E-02 -0.22398093558E-01 -0.51391920706E-02  0.23236077617E-01  0.00000000000E+00 0.  1.
     999901    1    3    3    0    0  0.66695460441E-01  0.22389028527E-01  0.11339857918E+00  0.89006111633E+00  0.88000000000E+00 0.  1.
        -11    1    4    4    0    0 -0.65182775306E-02  0.86237364529E-03 -0.24948952610E-01  0.25805871185E-01  0.51100000000E-03 0.  1.
         11    1    4    4    0    0 -0.63616574259E-01 -0.85330861426E-03 -0.83310434502E-01  0.10482693487E+00  0.51100000000E-03 0. -1.
</event>
<event>
 8    1  0.1129602E+005  0.1043930E+01  0.7957747E-01            NaN
         13   -1    0    0    0    0  0.00000000000E+00  0.00000000000E+00  0.74505805969E-08  0.10566000000E+00  0.10566000000E+00 0. -1.
     999900   -1    0    0    0    0 -0.00000000000E+00 -0.00000000000E+00 -0.74505805969E-08  0.93827000000E+00  0.93827000000E+00 0. -1.
     999902    2    1    2    0    0 -0.21286132544E-01  0.99904708046E-02  0.54667365530E-02  0.10197888701E+01  0.10195030875E+01 0.  0.
     999903    2    3    3    0    0 -0.12420622395E+00  0.42070071098E-01 -0.11481250170E-01  0.13304827654E+00  0.19311857335E-01 0.  0.
         14    1    1    2    0    0  0.21286132544E-01 -0.99904708046E-02 -0.54667365530E-02  0.24141129927E-01  0.00000000000E+00 0.  1.
     999901    1    3    3    0    0  0.10292009141E+00 -0.32079600293E-01  0.16947986723E-01  0.88674059354E+00  0.88000000000E+00 0.  1.
        -11    1    4    4    0    0 -0.74906059860E-01  0.21965213263E-01 -0.15743171363E-01  0.79633516581E-01  0.51100000000E-03 0.  1.
         11    1    4    4    0    0 -0.49300164091E-01  0.20104857835E-01  0.42619211929E-02  0.53414759957E-01  0.51100000000E-03 0. -1.
</event>
<event>
 8    1  0.1129602E+005  0.1043930E+01  0.7957747E-01            NaN
         13   -1    0    0    0    0  0.00000000000E+00  0.00000000000E+00  0.74505805969E-08  0.10566000000E+00  0.10566000000E+00 0.  1.
     999900   -1    0    0    0    0 -0.00000000000E+00 -0.00000000000E+00 -0.74505805969E-08  0.93827000000E+00  0.93827000000E+00 0.  1.
     999902    2    1    2    0    0 -0.12727773438E-01 -0.15750715031E-01  0.12383378493E-01  0.10201933342E+01  0.10199171583E+01 0.  0.
     999903    2    3    3    0    0 -0.11336059640E+00  0.47413008722E-01 -0.39577768302E-01  0.13068977499E+00  0.20366622996E-01 0.  0.
         14    1    1    2    0    0  0.12727773438E-01  0.15750715031E-01 -0.12383378493E-01  0.23736665806E-01  0.00000000000E+00 0. -1.
     999901    1    3    3    0    0  0.10063282296E+00 -0.63163723753E-01  0.51961146795E-01  0.88950355920E+00  0.88000000000E+00 0.  1.
        -11    1    4    4    0    0 -0.57461137345E-01  0.22013710243E-01 -0.30300974310E-01  0.68591514845E-01  0.51100000000E-03 0.  1.
         11    1    4    4    0    0 -0.55899459053E-01  0.25399298478E-01 -0.92767939918E-02  0.62098260148E-01  0.51100000000E-03 0. -1.
</event>
<event>
 8    1  0.1129602E+005  0.1043930E+01  0.7957747E-01            NaN
         13   -1    0    0    0    0  0.00000000000E+00  0.00000000000E+00  0.74505805969E-08  0.10566000000E+00  0.10566000000E+00 0.  1.
     999900   -1    0    0    0    0 -0.00000000000E+00 -0.00000000000E+00 -0.74505805969E-08  0.93827000000E+00  0.93827000000E+00 0.  1.
     999902    2    1    2    0    0 -0.10073761936E-01 -0.21008885254E-01  0.30628201756E-02  0.10204303233E+01  0.10201596982E+01 0.  0.
     999903    2    3    3    0    0  0.64181165106E-01  0.10875443686E+00  0.30570425047E-02  0.12782049025E+00  0.19544378469E-01 0.  0.
         14    1    1    2    0    0  0.10073761936E-01  0.21008885254E-01 -0.30628201756E-02  0.23499676734E-01  0.00000000000E+00 0. -1.
     999901    1    3    3    0    0 -0.74254927042E-01 -0.12976332211E+00  0.57776708890E-05  0.89260983301E+00  0.88000000000E+00 0.  1.
        -11    1    4    4    0    0  0.31500385307E-01  0.38024808392E-01 -0.42456524302E-02  0.49562556566E-01  0.51100000000E-03 0. -1.
         11    1    4    4    0    0  0.32680779798E-01  0.70729628465E-01  0.73026949349E-02  0.78257933689E-01  0.51100000000E-03 0.  1.
</event>
<event>
 8    1  0.1129602E+005  0.1043930E+01  0.7957747E-01            NaN
         13   -1    0    0    0    0  0.00000000000E+00  0.00000000000E+00  0.74505805969E-08  0.10566000000E+00  0.10566000000E+00 0. -1.
     999900   -1    0    0    0    0 -0.00000000000E+00 -0.00000000000E+00 -0.74505805969E-08  0.93827000000E+00  0.93827000000E+00 0.  1.
     999902    2    1    2    0    0  0.21478084505E-01  0.81150723224E-03 -0.48616136100E-02  0.10218936222E+01  0.10216559955E+01 0.  0.
     999903    2    3    3    0    0 -0.10203276332E+00 -0.73212481420E-01  0.25637571463E-01  0.12966905369E+00  0.19647549164E-01 0.  0.
         14    1    1    2    0    0 -0.21478084505E-01 -0.81150723224E-03  0.48616136100E-02  0.22036377763E-01  0.00000000000E+00 0. -1.
     999901    1    3    3    0    0  0.12351084783E+00  0.74023988652E-01 -0.30499185073E-01  0.89222456855E+00  0.88000000000E+00 0.  1.
        -11    1    4    4    0    0 -0.52043936173E-01 -0.26742127267E-01  0.71116177150E-02  0.58945304229E-01  0.51100000000E-03 0. -1.
         11    1    4    4    0    0 -0.49988827148E-01 -0.46470354153E-01  0.18525953748E-01  0.70723749462E-01  0.51100000000E-03 0.  1.
</event>
<event>
 8    1  0.1129602E+005  0.1043930E+01  0.7957747E-01            NaN
         13   -1    0    0    0    0  0.00000000000E+00  0.00000000000E+00  0.74505805969E-08  0.10566000000E+00  0.10566000000E+00 0. -1.
     999900   -1    0    0    0    0 -0.00000000000E+00 -0.00000000000E+00 -0.74505805969E-08  0.93827000000E+00  0.93827000000E+00 0.  1.
     999902    2    1    2    0    0 -0.14135741117E-01 -0.18666351785E-01 -0.26401195760E-03  0.10205137328E+01  0.10202450477E+01 0.  0.
     999903    2    3    3    0    0 -0.31763718930E-01  0.11686449851E-01  0.12514437788E+00  0.13092995240E+00  0.18331125719E-01 0.  0.
         14    1    1    2    0    0  0.14135741117E-01  0.18666351785E-01  0.26401195760E-03  0.23416267171E-01  0.00000000000E+00 0. -1.
     999901    1    3    3    0    0  0.17627977813E-01 -0.30352801636E-01 -0.12540838983E+00  0.88958378043E+00  0.88000000000E+00 0.  1.
        -11    1    4    4    0    0 -0.28863578797E-01  0.26553213751E-02  0.94780219086E-01  0.99114620332E-01  0.51100000000E-03 0.  1.
         11    1    4    4    0    0 -0.29001401334E-02  0.90311284756E-02  0.30364158790E-01  0.31815332064E-01  0.51100000000E-03 0. -1.
</event>
<event>
 8    1  0.1129602E+005  0.1043930E+01  0.7957747E-01            NaN
         13   -1    0    0    0    0  0.00000000000E+00  0.00000000000E+00  0.74505805969E-08  0.10566000000E+00  0.10566000000E+00 0.  1.
     999900   -1    0    0    0    0 -0.00000000000E+00 -0.00000000000E+00 -0.74505805969E-08  0.93827000000E+00  0.93827000000E+00 0. -1.
     999902    2    1    2    0    0  0.22946840542E-01  0.35621268450E-02 -0.43718176166E-02  0.10203003782E+01  0.10200267166E+01 0.  0.
     999903    2    3    3    0    0 -0.24521714548E-01 -0.30698806192E-01  0.12155048119E+00  0.12941121526E+00  0.20712604147E-01 0.  0.
         14    1    1    2    0    0 -0.22946840542E-01 -0.35621268450E-02  0.43718176166E-02  0.23629621829E-01  0.00000000000E+00 0.  1.
     999901    1    3    3    0    0  0.47468555090E-01  0.34260933037E-01 -0.12592229881E+00  0.89088916291E+00  0.88000000000E+00 0. -1.
        -11    1    4    4    0    0 -0.26100289681E-01 -0.21257752987E-01  0.80494307001E-01  0.87250855377E-01  0.51100000000E-03 0. -1.
         11    1    4    4    0    0  0.15785751327E-02 -0.94410532047E-02  0.41056174193E-01  0.42160359882E-01  0.51100000000E-03 0.  1.
</event>
<event>
 8    1  0.1129602E+005  0.1043930E+01  0.7957747E-01            NaN
         13   -1    0    0    0    0  0.00000000000E+00  0.00000000000E+00  0.74505805969E-08  0.10566000000E+00  0.10566000000E+00 0.  1.
     999900   -1    0    0    0    0 -0.00000000000E+00 -0.00000000000E+00 -0.74505805969E-08  0.93827000000E+00  0.93827000000E+00 0. -1.
     999902    2    1    2    0    0  0.12695683070E-01 -0.69655851279E-03 -0.21285669350E-01  0.10191359426E+01  0.10188342967E+01 0.  0.
     999903    2    3    3    0    0 -0.27492917970E-01 -0.87583403079E-01 -0.91555799827E-01  0.13115940088E+00  0.19839630163E-01 0.  0.
         14    1    1    2    0    0 -0.12695683070E-01  0.69655851279E-03  0.21285669350E-01  0.24794057393E-01  0.00000000000E+00 0.  1.
     999901    1    3    3    0    0  0.40188601039E-01  0.86886844566E-01  0.70270130477E-01  0.88797654172E+00  0.88000000000E+00 0.  1.
        -11    1    4    4    0    0 -0.19079819244E-01 -0.54951191148E-01 -0.70575949171E-01  0.91459819775E-01  0.51100000000E-03 0. -1.
         11    1    4    4    0    0 -0.84130987256E-02 -0.32632211931E-01 -0.20979850656E-01  0.39699581109E-01  0.51100000000E-03 0.  1.
</event>
<event>
 8    1  0.1129602E+005  0.1043930E+01  0.7957747E-01            NaN
         13   -1    0    0    0    0  0.00000000000E+00  0.00000000000E+00  0.74505805969E-08  0.10566000000E+00  0.10566000000E+00 0.  1.
     999900   -1    0    0    0    0 -0.00000000000E+00 -0.00000000000E+00 -0.74505805969E-08  0.93827000000E+00  0.93827000000E+00 0.  1.
     999902    2    1    2    0    0 -0.11491565640E-01 -0.20001516304E-01  0.42033382324E-02  0.10204825100E+01  0.10202130995E+01 0.  0.
     999903    2    3    3    0    0  0.11719111034E+00 -0.52973916420E-01  0.14608521577E-01  0.13045179249E+00  0.16256355598E-01 0.  0.
         14    1    1    2    0    0  0.11491565640E-01  0.20001516304E-01 -0.42033382324E-02  0.23447490007E-01  0.00000000000E+00 0. -1.
     999901    1    3    3    0    0 -0.12868267598E+00  0.32972400115E-01 -0.10405183344E-01  0.89003071751E+00  0.88000000000E+00 0.  1.
        -11    1    4    4    0    0  0.66360638758E-01 -0.23899941656E-01  0.20764317227E-02  0.70565673505E-01  0.51100000000E-03 0.  1.
         11    1    4    4    0    0  0.50830471579E-01 -0.29073974764E-01  0.12532089854E-01  0.59886118981E-01  0.51100000000E-03 0. -1.
</event>
<event>
 8    1  0.1129602E+005  0.1043930E+01  0.7957747E-01            NaN
         13   -1    0    0    0    0  0.00000000000E+00  0.00000000000E+00  0.74505805969E-08  0.10566000000E+00  0.10566000000E+00 0.  1.
     999900   -1    0    0    0    0 -0.00000000000E+00 -0.00000000000E+00 -0.74505805969E-08  0.93827000000E+00  0.93827000000E+00 0.  1.
     999902    2    1    2    0    0 -0.69071005286E-02 -0.19703667868E-01 -0.10234743920E-01  0.10206772034E+01  0.10204122995E+01 0.  0.
     999903    2    3    3    0    0  0.62853774924E-01 -0.62911112274E-01 -0.96410476900E-01  0.13266835215E+00  0.19937565974E-01 0.  0.
         14    1    1    2    0    0  0.69071005286E-02  0.19703667868E-01  0.10234743920E-01  0.23252796569E-01  0.00000000000E+00 0.  1.
     999901    1    3    3    0    0 -0.69760875452E-01  0.43207444406E-01  0.86175732980E-01  0.88800885128E+00  0.88000000000E+00 0. -1.
        -11    1    4    4    0    0  0.29557963102E-01 -0.19064112704E-01 -0.28707649998E-01  0.45403786905E-01  0.51100000000E-03 0. -1.
         11    1    4    4    0    0  0.33295811821E-01 -0.43846999570E-01 -0.67702826903E-01  0.87264565247E-01  0.51100000000E-03 0.  1.
</event>
<event>
 8    1  0.1129602E+005  0.1043930E+01  0.7957747E-01            NaN
         13   -1    0    0    0    0  0.00000000000E+00  0.00000000000E+00  0.74505805969E-08  0.10566000000E+00  0.10566000000E+00 0.  1.
     999900   -1    0    0    0    0 -0.00000000000E+00 -0.00000000000E+00 -0.74505805969E-08  0.93827000000E+00  0.93827000000E+00 0.  1.
     999902    2    1    2    0    0 -0.16286072421E-01  0.12023237527E-01  0.11984866342E-01  0.10204048769E+01  0.10201336586E+01 0.  0.
     999903    2    3    3    0    0 -0.10526450465E-01 -0.25020369080E-01  0.12772623297E+00  0.13203475922E+00  0.19554079500E-01 0.  0.
         14    1    1    2    0    0  0.16286072421E-01 -0.12023237527E-01 -0.11984866342E-01  0.23525123098E-01  0.00000000000E+00 0. -1.
     999901    1    3    3    0    0 -0.57596219558E-02  0.37043606607E-01 -0.11574136663E+00  0.88837011768E+00  0.88000000000E+00 0.  1.
        -11    1    4    4    0    0 -0.35168041931E-02 -0.25505053668E-01  0.88070216174E-01  0.91757832213E-01  0.51100000000E-03 0.  1.
         11    1    4    4    0    0 -0.70096462722E-02  0.48468458804E-03  0.39656016799E-01  0.40276927010E-01  0.51100000000E-03 0. -1.
</event>
<event>
 8    1  0.1129602E+005  0.1043930E+01  0.7957747E-01            NaN
         13   -1    0    0    0    0  0.00000000000E+00  0.00000000000E+00  0.74505805969E-08  0.10566000000E+00  0.10566000000E+00 0.  1.
     999900   -1    0    0    0    0 -0.00000000000E+00 -0.00000000000E+00 -0.74505805969E-08  0.93827000000E+00  0.93827000000E+00 0. -1.
     999902    2    1    2    0    0 -0.10188856301E-01 -0.21147705166E-01  0.40934705872E-03  0.10204522277E+01  0.10201821128E+01 0.  0.
     999903    2    3    3    0    0  0.71445586212E-01 -0.15513616160E-01  0.10702055695E+00  0.13024895023E+00  0.12893616688E-01 0.  0.
         14    1    1    2    0    0  0.10188856301E-01  0.21147705166E-01 -0.40934705872E-03  0.23477772286E-01  0.00000000000E+00 0.  1.
     999901    1    3    3    0    0 -0.81634442513E-01 -0.56340890054E-02 -0.10661120989E+00  0.89020327748E+00  0.88000000000E+00 0. -1.
        -11    1    4    4    0    0  0.23752390415E-01 -0.11440952300E-01  0.38103202672E-01  0.46337745034E-01  0.51100000000E-03 0. -1.
         11    1    4    4    0    0  0.47693195797E-01 -0.40726638604E-02  0.68917354277E-01  0.83911205199E-01  0.51100000000E-03 0.  1.
</event>
<event>
 8    1  0.1129602E+005  0.1043930E+01  0.7957747E-01            NaN
         13   -1    0    0    0    0  0.00000000000E+00  0.00000000000E+00  0.74505805969E-08  0.10566000000E+00  0.10566000000E+00 0. -1.
     999900   -1    0    0    0    0 -0.00000000000E+00 -0.00000000000E+00 -0.74505805969E-08  0.93827000000E+00  0.93827000000E+00 0. -1.
     999902    2    1    2    0    0  0.12709532549E-01 -0.43405384058E-02 -0.19278946611E-01  0.10204342499E+01  0.10201637163E+01 0.  0.
     999903    2    3    3    0    0 -0.11674246278E+00  0.44386135428E-01 -0.29289713356E-01  0.12957381003E+00  0.18236044050E-01 0.  0.
         14    1    1    2    0    0 -0.12709532549E-01  0.43405384058E-02  0.19278946611E-01  0.23495750120E-01  0.00000000000E+00 0. -1.
     999901    1    3    3    0    0  0.12945199533E+00 -0.48726673834E-01  0.10010766744E-01  0.89086043985E+00  0.88000000000E+00 0. -1.
        -11    1    4    4    0    0 -0.54606843705E-01  0.11367352088E-01 -0.10743353590E-01  0.56804971967E-01  0.51100000000E-03 0.  1.
         11    1    4    4    0    0 -0.62135619078E-01  0.33018783340E-01 -0.18546359766E-01  0.72768838063E-01  0.51100000000E-03 0. -1.
</event>
<event>
 8    1  0.1129602E+005  0.1043930E+01  0.7957747E-01            NaN
         13   -1    0    0    0    0  0.00000000000E+00  0.00000000000E+00  0.74505805969E-08  0.10566000000E+00  0.10566000000E+00 0. -1.
     999900   -1    0    0    0    0 -0.00000000000E+00 -0.00000000000E+00 -0.74505805969E-08  0.93827000000E+00  0.93827000000E+00 0.  1.
     999902    2    1    2    0    0 -0.14966729533E-01  0.18002791556E-01 -0.10115281313E-02  0.10204965477E+01  0.10202274635E+01 0.  0.
     999903    2    3    3    0    0  0.17091697853E-01 -0.12200760455E+00  0.31304076126E-01  0.12826622316E+00  0.17155090100E-01 0.  0.
         14    1    1    2    0    0  0.14966729533E-01 -0.18002791556E-01  0.10115281313E-02  0.23433452282E-01  0.00000000000E+00 0. -1.
     999901    1    3    3    0    0 -0.32058427386E-01  0.14001039611E+00 -0.32315604257E-01  0.89223032456E+00  0.88000000000E+00 0.  1.
        -11    1    4    4    0    0  0.64176833467E-03 -0.99578245708E-02  0.76164681385E-02  0.12563512434E-01  0.51100000000E-03 0. -1.
         11    1    4    4    0    0  0.16449929518E-01 -0.11204977998E+00  0.23687607987E-01  0.11570271072E+00  0.51100000000E-03 0.  1.
</event>
<event>
 8    1  0.1129602E+005  0.1043930E+01  0.7957747E-01            NaN
         13   -1    0    0    0    0  0.00000000000E+00  0.00000000000E+00  0.74505805969E-08  0.10566000000E+00  0.10566000000E+00 0.  1.
     999900   -1    0    0    0    0 -0.00000000000E+00 -0.00000000000E+00 -0.74505805969E-08  0.93827000000E+00  0.93827000000E+00 0. -1.
     999902    2    1    2    0    0 -0.20375614556E-02 -0.22183515177E-01 -0.77525506312E-02  0.10203426720E+01  0.10200700006E+01 0.  0.
     999903    2    3    3    0    0  0.21243726850E-01 -0.22746375087E-01  0.12354203825E+00  0.13029738983E+00  0.27314484620E-01 0.  0.
         14    1    1    2    0    0  0.20375614556E-02  0.22183515177E-01  0.77525506312E-02  0.23587328030E-01  0.00000000000E+00 0. -1.
     999901    1    3    3    0    0 -0.23281288306E-01  0.56285991054E-03 -0.13129458888E+00  0.89004528214E+00  0.88000000000E+00 0. -1.
        -11    1    4    4    0    0  0.46542332568E-02 -0.69164216928E-02  0.85276060854E-01  0.85684108515E-01  0.51100000000E-03 0.  1.
         11    1    4    4    0    0  0.16589493594E-01 -0.15829953394E-01  0.38265977398E-01  0.44613281311E-01  0.51100000000E-03 0. -1.
</event>
<event>
 8    1  0.1129602E+005  0.1043930E+01  0.7957747E-01            NaN
         13   -1    0    0    0    0  0.00000000000E+00  0.00000000000E+00  0.74505805969E-08  0.10566000000E+00  0.10566000000E+00 0. -1.
     999900   -1    0    0    0    0 -0.00000000000E+00 -0.00000000000E+00 -0.74505805969E-08  0.93827000000E+00  0.93827000000E+00 0.  1.
     999902    2    1    2    0    0 -0.20020101228E-01 -0.11659846668E-01  0.64622342109E-02  0.10198776207E+01  0.10195939605E+01 0.  0.
     999903    2    3    3    0    0 -0.34286399532E-01  0.12320432607E+00 -0.39812898467E-02  0.12942776838E+00  0.19514953342E-01 0.  0.
         14    1    1    2    0    0  0.20020101228E-01  0.11659846668E-01 -0.64622342109E-02  0.24052379269E-01  0.00000000000E+00 0. -1.
     999901    1    3    3    0    0  0.14266298304E-01 -0.13486417274E+00  0.10443524058E-01  0.89044985235E+00  0.88000000000E+00 0.  1.
        -11    1    4    4    0    0 -0.13828099667E-01  0.82420453118E-01  0.52348318742E-03  0.83575610008E-01  0.51100000000E-03 0.  1.
         11    1    4    4    0    0 -0.20458299865E-01  0.40783872952E-01 -0.45047730342E-02  0.45852158372E-01  0.51100000000E-03 0. -1.
</event>
<event>
 8    1  0.1136689E+005  0.1043930E+01  0.7957747E-01            NaN
         13   -1    0    0    0    0  0.00000000000E+00  0.00000000000E+00  0.74505805969E-08  0.10566000000E+00  0.10566000000E+00 0. -1.
     999900   -1    0    0    0    0 -0.00000000000E+00 -0.00000000000E+00 -0.74505805969E-08  0.93827000000E+00  0.93827000000E+00 0.  1.
     999902    2    1    2    0    0 -0.23104805565E-01  0.45742468806E-02  0.99122656243E-02  0.10183759634E+01  0.10180553001E+01 0.  0.
     999903    2    3    3    0    0  0.34421925310E-01 -0.30340905065E-01  0.11869835888E+00  0.12912751296E+00  0.21890060309E-01 0.  0.
         14    1    1    2    0    0  0.23104805565E-01 -0.45742468806E-02 -0.99122656243E-02  0.25554036560E-01  0.00000000000E+00 0.  1.
     999901    1    3    3    0    0 -0.57526730875E-01  0.34915151946E-01 -0.10878609325E+00  0.88924845048E+00  0.88000000000E+00 0.  1.
        -11    1    4    4    0    0  0.20555449974E-01 -0.26861421593E-01  0.61737580703E-01  0.70397815915E-01  0.51100000000E-03 0. -1.
         11    1    4    4    0    0  0.13866475336E-01 -0.34794834725E-02  0.56960778174E-01  0.58729697042E-01  0.51100000000E-03 0.  1.
</event>
<event>
 8    1  0.1129602E+005  0.1043930E+01  0.7957747E-01            NaN
         13   -1    0    0    0    0  0.00000000000E+00  0.00000000000E+00  0.74505805969E-08  0.10566000000E+00  0.10566000000E+00 0. -1.
     999900   -1    0    0    0    0 -0.00000000000E+00 -0.00000000000E+00 -0.74505805969E-08  0.93827000000E+00  0.93827000000E+00 0. -1.
     999902    2    1    2    0    0  0.21387382046E-01 -0.25399179552E-02  0.10196340503E-01  0.10201006766E+01  0.10198223148E+01 0.  0.
     999903    2    3    3    0    0  0.73716930745E-01  0.60811108443E-01  0.89981585434E-01  0.13267889440E+00  0.19360436823E-01 0.  0.
         14    1    1    2    0    0 -0.21387382046E-01  0.25399179552E-02 -0.10196340503E-01  0.23829323399E-01  0.00000000000E+00 0.  1.
     999901    1    3    3    0    0 -0.52329548699E-01 -0.63351026398E-01 -0.79785244931E-01  0.88742178220E+00  0.88000000000E+00 0. -1.
        -11    1    4    4    0    0  0.28582751705E-01  0.12080246070E-01  0.30560659625E-01  0.43555953415E-01  0.51100000000E-03 0.  1.
         11    1    4    4    0    0  0.45134179040E-01  0.48730862373E-01  0.59420925809E-01  0.89122940987E-01  0.51100000000E-03 0. -1.
</event>
<event>
 8    1  0.1129602E+005  0.1043930E+01  0.7957747E-01            NaN
         13   -1    0    0    0    0  0.00000000000E+00  0.00000000000E+00  0.74505805969E-08  0.10566000000E+00  0.10566000000E+00 0. -1.
     999900   -1    0    0    0    0 -0.00000000000E+00 -0.00000000000E+00 -0.74505805969E-08  0.93827000000E+00  0.93827000000E+00 0.  1.
     999902    2    1    2    0    0 -0.57332042365E-03 -0.18269028413E-01  0.24777056867E-01  0.10131405758E+01  0.10126726212E+01 0.  0.
     999903    2    3    3    0    0 -0.92555320540E-01 -0.25304900048E-01  0.80158417445E-01  0.12658697509E+00  0.19800632532E-01 0.  0.
         14    1    1    2    0    0  0.57332042365E-03  0.18269028413E-01 -0.24777056867E-01  0.30789424198E-01  0.00000000000E+00 0.  1.
     999901    1    3    3    0    0  0.91982000116E-01  0.70358716352E-02 -0.55381360578E-01  0.88655360071E+00  0.88000000000E+00 0.  1.
        -11    1    4    4    0    0 -0.57493804512E-01 -0.24451782289E-01  0.45628984062E-01  0.77367257428E-01  0.51100000000E-03 0.  1.
         11    1    4    4    0    0 -0.35061516028E-01 -0.85311775974E-03  0.34529433383E-01  0.49219717663E-01  0.51100000000E-03 0. -1.
</event>
<event>
 8    1  0.1129602E+005  0.1043930E+01  0.7957747E-01            NaN
         13   -1    0    0    0    0  0.00000000000E+00  0.00000000000E+00  0.74505805969E-08  0.10566000000E+00  0.10566000000E+00 0.  1.
     999900   -1    0    0    0    0 -0.00000000000E+00 -0.00000000000E+00 -0.74505805969E-08  0.93827000000E+00  0.93827000000E+00 0.  1.
     999902    2    1    2    0    0 -0.96730916303E-02  0.20758675743E-01  0.61386689693E-02  0.10202197791E+01  0.10199442254E+01 0.  0.
     999903    2    3    3    0    0  0.26060511107E-01 -0.12394117003E+00 -0.31625413669E-02  0.12763843921E+00  0.15524356007E-01 0.  0.
         14    1    1    2    0    0  0.96730916303E-02 -0.20758675743E-01 -0.61386689693E-02  0.23710220939E-01  0.00000000000E+00 0. -1.
     999901    1    3    3    0    0 -0.35733602737E-01  0.14469984577E+00  0.93012103362E-02  0.89258133985E+00  0.88000000000E+00 0.  1.
        -11    1    4    4    0    0  0.25985586749E-01 -0.10507099830E+00  0.12804264153E-02  0.10824539720E+00  0.51100000000E-03 0. -1.
         11    1    4    4    0    0  0.74924357955E-04 -0.18870171734E-01 -0.44429677822E-02  0.19393042016E-01  0.51100000000E-03 0.  1.
</event>
<event>
 8    1  0.1129602E+005  0.1043930E+01  0.7957747E-01            NaN
         13   -1    0    0    0    0  0.00000000000E+00  0.00000000000E+00  0.74505805969E-08  0.10566000000E+00  0.10566000000E+00 0. -1.
     999900   -1    0    0    0    0 -0.00000000000E+00 -0.00000000000E+00 -0.74505805969E-08  0.93827000000E+00  0.93827000000E+00 0. -1.
     999902    2    1    2    0    0  0.94470160515E-02 -0.65991966555E-02 -0.20296980155E-01  0.10205898434E+01  0.10203229221E+01 0.  0.
     999903    2    3    3    0    0 -0.20162540084E-01  0.54255212026E-02 -0.13016190552E+00  0.13318259666E+00  0.18960962608E-01 0.  0.
         14    1    1    2    0    0 -0.94470160515E-02  0.65991966555E-02  0.20296980155E-01  0.23340156644E-01  0.00000000000E+00 0. -1.
     999901    1    3    3    0    0  0.29609556135E-01 -0.12024717858E-01  0.10986492536E+00  0.88740724669E+00  0.88000000000E+00 0.  1.
        -11    1    4    4    0    0 -0.12645319610E-01 -0.33573485614E-02 -0.35902478738E-01  0.38215507297E-01  0.51100000000E-03 0. -1.
         11    1    4    4    0    0 -0.75172204739E-02  0.87828697640E-02 -0.94259426781E-01  0.94967089368E-01  0.51100000000E-03 0.  1.
</event>
<event>
 8    1  0.1129602E+005  0.1043930E+01  0.7957747E-01            NaN
         13   -1    0    0    0    0  0.00000000000E+00  0.00000000000E+00  0.74505805969E-08  0.10566000000E+00  0.10566000000E+00 0.  1.
     999900   -1    0    0    0    0 -0.00000000000E+00 -0.00000000000E+00 -0.74505805969E-08  0.93827000000E+00  0.93827000000E+00 0.  1.
     999902    2    1    2    0    0 -0.20482335847E-01 -0.75761674778E-02  0.99758252331E-02  0.10199208042E+01  0.10196381737E+01 0.  0.
     999903    2    3    3    0    0  0.18195972782E-01  0.66199943331E-01 -0.10665242738E+00  0.12832612305E+00  0.19476336168E-01 0.  0.
         14    1    1    2    0    0  0.20482335847E-01  0.75761674778E-02 -0.99758252331E-02  0.24009195832E-01  0.00000000000E+00 0. -1.
     999901    1    3    3    0    0 -0.38678308629E-01 -0.73776110809E-01  0.11662825261E+00  0.89159468111E+00  0.88000000000E+00 0. -1.
        -11    1    4    4    0    0  0.12389395788E-01  0.14254620103E-01 -0.32694191066E-01  0.37760595503E-01  0.51100000000E-03 0.  1.
         11    1    4    4    0    0  0.58065769942E-02  0.51945323229E-01 -0.73958236309E-01  0.90565527552E-01  0.51100000000E-03 0. -1.
</event>
<event>
 8    1  0.1129602E+005  0.1043930E+01  0.7957747E-01            NaN
         13   -1    0    0    0    0  0.00000000000E+00  0.00000000000E+00  0.74505805969E-08  0.10566000000E+00  0.10566000000E+00 0.  1.
     999900   -1    0    0    0    0 -0.00000000000E+00 -0.00000000000E+00 -0.74505805969E-08  0.93827000000E+00  0.93827000000E+00 0. -1.
     999902    2    1    2    0    0  0.10869418132E-01  0.16212395337E-01  0.12518580955E-01  0.10207416218E+01  0.10204782005E+01 0.  0.
     999903    2    3    3    0    0 -0.85398312894E-01  0.35524707226E-01 -0.88506072671E-01  0.12953658253E+00  0.19786981717E-01 0.  0.
         14    1    1    2    0    0 -0.10869418132E-01 -0.16212395337E-01 -0.12518580955E-01  0.23188378172E-01  0.00000000000E+00 0. -1.
     999901    1    3    3    0    0  0.96267731027E-01 -0.19312311888E-01  0.10102465363E+00  0.89120503930E+00  0.88000000000E+00 0. -1.
        -11    1    4    4    0    0 -0.61392674496E-01  0.20151580635E-01 -0.50418034090E-01  0.81959660604E-01  0.51100000000E-03 0.  1.
         11    1    4    4    0    0 -0.24005638399E-01  0.15373126591E-01 -0.38088038581E-01  0.47576921927E-01  0.51100000000E-03 0. -1.
</event>
<event>
 8    1  0.1129602E+005  0.1043930E+01  0.7957747E-01            NaN
         13   -1    0    0    0    0  0.00000000000E+00  0.00000000000E+00  0.74505805969E-08  0.10566000000E+00  0.10566000000E+00 0.  1.
     999900   -1    0    0    0    0 -0.00000000000E+00 -0.00000000000E+00 -0.74505805969E-08  0.93827000000E+00  0.93827000000E+00 0.  1.
     999902    2    1    2    0    0 -0.52293736603E-02 -0.63993967430E-02 -0.22650271065E-01  0.10198191434E+01  0.10195340856E+01 0.  0.
     999903    2    3    3    0    0  0.71195764111E-01 -0.50461777514E-01  0.89774565984E-01  0.12829144383E+00  0.27999893664E-01 0.  0.
         14    1    1    2    0    0  0.52293736603E-02  0.63993967430E-02  0.22650271065E-01  0.24110856618E-01  0.00000000000E+00 0.  1.
     999901    1    3    3    0    0 -0.76425137771E-01  0.44062380771E-01 -0.11242483705E+00  0.89152769955E+00  0.88000000000E+00 0.  1.
        -11    1    4    4    0    0  0.66995755408E-01 -0.53923628196E-01  0.82349323358E-01  0.11907082388E+00  0.51100000000E-03 0. -1.
         11    1    4    4    0    0  0.42000087030E-02  0.34618506816E-02  0.74252426256E-02  0.92206199518E-02  0.51100000000E-03 0.  1.
</event>
<event>
 8    1  0.1129602E+005  0.1043930E+01  0.7957747E-01            NaN
         13   -1    0    0    0    0  0.00000000000E+00  0.00000000000E+00  0.74505805969E-08  0.10566000000E+00  0.10566000000E+00 0.  1.
     999900   -1    0    0    0    0 -0.00000000000E+00 -0.00000000000E+00 -0.74505805969E-08  0.93827000000E+00  0.93827000000E+00 0.  1.
     999902    2    1    2    0    0  0.85614255832E-02 -0.34745211844E-02 -0.24082032469E-01  0.10181363071E+01  0.10178095231E+01 0.  0.
     999903    2    3    3    0    0  0.48648648738E-01  0.10914548350E+00  0.40318428896E-01  0.12772198200E+00  0.20196568648E-01 0.  0.
         14    1    1    2    0    0 -0.85614255832E-02  0.34745211844E-02  0.24082032469E-01  0.25793692898E-01  0.00000000000E+00 0.  1.
     999901    1    3    3    0    0 -0.40087223155E-01 -0.11262000469E+00 -0.64400461364E-01  0.89041432510E+00  0.88000000000E+00 0. -1.
        -11    1    4    4    0    0  0.11077503719E-01  0.49149549610E-01  0.17764843442E-01  0.53425088667E-01  0.51100000000E-03 0.  1.
         11    1    4    4    0    0  0.37571145018E-01  0.59995933893E-01  0.22553585454E-01  0.74296893337E-01  0.51100000000E-03 0. -1.
</event>
<event>
 8    1  0.1129602E+005  0.1043930E+01  0.7957747E-01            NaN
         13   -1    0    0    0    0  0.00000000000E+00  0.00000000000E+00  0.74505805969E-08  0.10566000000E+00  0.10566000000E+00 0.  1.
     999900   -1    0    0    0    0 -0.00000000000E+00 -0.00000000000E+00 -0.74505805969E-08  0.93827000000E+00  0.93827000000E+00 0. -1.
     999902    2    1    2    0    0  0.18857400221E-01  0.12072795775E-01 -0.11702839035E-01  0.10186651948E+01  0.10183518393E+01 0.  0.
     999903    2    3    3    0    0 -0.32448138932E-01  0.11725815621E+00 -0.44497642247E-01  0.13031182055E+00  0.14098705335E-01 0.  0.
         14    1    1    2    0    0 -0.18857400221E-01 -0.12072795775E-01  0.11702839035E-01  0.25264805212E-01  0.00000000000E+00 0. -1.
     999901    1    3    3    0    0  0.51305539153E-01 -0.10518536044E+00  0.32794803212E-01  0.88835337424E+00  0.88000000000E+00 0. -1.
        -11    1    4    4    0    0 -0.24202115754E-01  0.61178164813E-01 -0.23737110799E-01  0.69944419413E-01  0.51100000000E-03 0.  1.
         11    1    4    4    0    0 -0.82460231777E-02  0.56079991398E-01 -0.20760531448E-01  0.60367401140E-01  0.51100000000E-03 0. -1.
</event>
<event>
 8    1  0.1129602E+005  0.1043930E+01  0.7957747E-01            NaN
         13   -1    0    0    0    0  0.00000000000E+00  0.00000000000E+00  0.74505805969E-08  0.10566000000E+00  0.10566000000E+00 0.  1.
     999900   -1    0    0    0    0 -0.00000000000E+00 -0.00000000000E+00 -0.74505805969E-08  0.93827000000E+00  0.93827000000E+00 0.  1.
     999902    2    1    2    0    0 -0.16488620085E-02 -0.19432832193E-01  0.11940660374E-01  0.10210622698E+01  0.10208061646E+01 0.  0.
     999903    2    3    3    0    0  0.13592172073E-02  0.10712582878E+00  0.70810664524E-01  0.13005619769E+00  0.20559029252E-01 0.  0.
         14    1    1    2    0    0  0.16488620085E-02  0.19432832193E-01 -0.11940660374E-01  0.22867730170E-01  0.00000000000E+00 0. -1.
     999901    1    3    3    0    0 -0.30080792158E-02 -0.12655866097E+00 -0.58870004150E-01  0.89100607214E+00  0.88000000000E+00 0. -1.
        -11    1    4    4    0    0 -0.35926495536E-02  0.99552746387E-01  0.67817476046E-01  0.12051193975E+00  0.51100000000E-03 0.  1.
         11    1    4    4    0    0  0.49518667609E-02  0.75730823902E-02  0.29931884787E-02  0.95442579374E-02  0.51100000000E-03 0. -1.
</event>
<event>
 8    1  0.1129602E+005  0.1043930E+01  0.7957747E-01            NaN
         13   -1    0    0    0    0  0.00000000000E+00  0.00000000000E+00  0.74505805969E-08  0.10566000000E+00  0.10566000000E+00 0.  1.
     999900   -1    0    0    0    0 -0.00000000000E+00 -0.00000000000E+00 -0.74505805969E-08  0.93827000000E+00  0.93827000000E+00 0.  1.
     999902    2    1    2    0    0 -0.19911720177E-02  0.14930524620E-01  0.18727336894E-01  0.10198967214E+01  0.10196135169E+01 0.  0.
     999903    2    3    3    0    0  0.31263588722E-01  0.31778450704E-01 -0.11879172716E+00  0.12843655704E+00  0.19929697256E-01 0.  0.
         14    1    1    2    0    0  0.19911720177E-02 -0.14930524620E-01 -0.18727336894E-01  0.24033278565E-01  0.00000000000E+00 0. -1.
     999901    1    3    3    0    0 -0.33254760739E-01 -0.16847926084E-01  0.13751906406E+00  0.89146016440E+00  0.88000000000E+00 0. -1.
        -11    1    4    4    0    0  0.15118025982E-01  0.26691490598E-02 -0.32546017137E-01  0.35988656807E-01  0.51100000000E-03 0.  1.
         11    1    4    4    0    0  0.16145562740E-01  0.29109301644E-01 -0.86245710027E-01  0.92447900232E-01  0.51100000000E-03 0. -1.
</event>
<event>
 8    1  0.1129602E+005  0.1043930E+01  0.7957747E-01            NaN
         13   -1    0    0    0    0  0.00000000000E+00  0.00000000000E+00  0.74505805969E-08  0.10566000000E+00  0.10566000000E+00 0. -1.
     999900   -1    0    0    0    0 -0.00000000000E+00 -0.00000000000E+00 -0.74505805969E-08  0.93827000000E+00  0.93827000000E+00 0. -1.
     999902    2    1    2    0    0 -0.11434384027E-01 -0.19119724859E-01  0.98357138550E-02  0.10195773762E+01  0.10192865033E+01 0.  0.
     999903    2    3    3    0    0 -0.61296751976E-01  0.59795734378E-01 -0.93775542479E-01  0.12859522273E+00  0.20249871326E-01 0.  0.
         14    1    1    2    0    0  0.11434384027E-01  0.19119724859E-01 -0.98357138550E-02  0.24352623756E-01  0.00000000000E+00 0.  1.
     999901    1    3    3    0    0  0.49862367949E-01 -0.78915459236E-01  0.10361125633E+00  0.89098215352E+00  0.88000000000E+00 0.  1.
        -11    1    4    4    0    0 -0.33571895989E-02 -0.43598178570E-04 -0.95622655737E-02  0.10147446315E-01  0.51100000000E-03 0.  1.
         11    1    4    4    0    0 -0.57939562377E-01  0.59839332556E-01 -0.84213276906E-01  0.11844777641E+00  0.51100000000E-03 0. -1.
</event>
<event>
 8    1  0.1129602E+005  0.1043930E+01  0.7957747E-01            NaN
         13   -1    0    0    0    0  0.00000000000E+00  0.00000000000E+00  0.74505805969E-08  0.10566000000E+00  0.10566000000E+00 0. -1.
     999900   -1    0    0    0    0 -0.00000000000E+00 -0.00000000000E+00 -0.74505805969E-08  0.93827000000E+00  0.93827000000E+00 0.  1.
     999902    2    1    2    0    0  0.17090170695E-01  0.54324886864E-02  0.16261454792E-01  0.10197221339E+01  0.10194347501E+01 0.  0.
     999903    2    3    3    0    0 -0.48174144638E-01  0.39168015795E-02  0.11997721455E+00  0.13122976650E+00  0.22150170631E-01 0.  0.
         14    1    1    2    0    0 -0.17090170695E-01 -0.54324886864E-02 -0.16261454792E-01  0.24207866070E-01  0.00000000000E+00 0.  1.
     999901    1    3    3    0    0  0.65264315333E-01  0.15156871069E-02 -0.10371575975E+00  0.88849236743E+00  0.88000000000E+00 0.  1.
        -11    1    4    4    0    0 -0.10407253179E-01 -0.74945589080E-02  0.40709298164E-01  0.42684744464E-01  0.51100000000E-03 0.  1.
         11    1    4    4    0    0 -0.37766891459E-01  0.11411360487E-01  0.79267916381E-01  0.88545022034E-01  0.51100000000E-03 0. -1.
</event>
<event>
 8    1  0.1129602E+005  0.1043930E+01  0.7957747E-01            NaN
         13   -1    0    0    0    0  0.00000000000E+00  0.00000000000E+00  0.74505805969E-08  0.10566000000E+00  0.10566000000E+00 0.  1.
     999900   -1    0    0    0    0 -0.00000000000E+00 -0.00000000000E+00 -0.74505805969E-08  0.93827000000E+00  0.93827000000E+00 0.  1.
     999902    2    1    2    0    0  0.97637130986E-02 -0.12750811141E-01 -0.17160578592E-01  0.10204268356E+01  0.10201561293E+01 0.  0.
     999903    2    3    3    0    0 -0.60905100187E-01 -0.69765280681E-01 -0.92656768491E-01  0.13253922697E+00  0.20118258399E-01 0.  0.
         14    1    1    2    0    0 -0.97637130986E-02  0.12750811141E-01  0.17160578592E-01  0.23503164379E-01  0.00000000000E+00 0.  1.
     999901    1    3    3    0    0  0.70668813286E-01  0.57014469540E-01  0.75496189898E-01  0.88788760865E+00  0.88000000000E+00 0. -1.
        -11    1    4    4    0    0 -0.28189894159E-01 -0.41238016152E-01 -0.60826384978E-01  0.78710573238E-01  0.51100000000E-03 0.  1.
         11    1    4    4    0    0 -0.32715206028E-01 -0.28527264528E-01 -0.31830383513E-01  0.53828653731E-01  0.51100000000E-03 0. -1.
</event>
<event>
 8    1  0.1129602E+005  0.1043930E+01  0.7957747E-01            NaN
         13   -1    0    0    0    0  0.00000000000E+00  0.00000000000E+00  0.74505805969E-08  0.10566000000E+00  0.10566000000E+00 0.  1.
     999900   -1    0    0    0    0 -0.00000000000E+00 -0.00000000000E+00 -0.74505805969E-08  0.93827000000E+00  0.93827000000E+00 0.  1.
     999902    2    1    2    0    0 -0.17145696237E-01  0.24495394382E-02 -0.15861134322E-01  0.10204448829E+01  0.10201745970E+01 0.  0.
     999903    2    3    3    0    0 -0.26979383392E-01  0.12338472626E-01  0.12435086313E+00  0.12923565010E+00  0.18936500775E-01 0.  0.
         14    1    1    2    0    0  0.17145696237E-01 -0.24495394382E-02  0.15861134322E-01  0.23485117094E-01  0.00000000000E+00 0.  1.
     999901    1    3    3    0    0  0.98336871547E-02 -0.98889331874E-02 -0.14021199745E+00  0.89120923280E+00  0.88000000000E+00 0.  1.
        -11    1    4    4    0    0 -0.17609607038E-01 -0.16365608707E-02  0.51126632294E-01  0.54101480961E-01  0.51100000000E-03 0.  1.
         11    1    4    4    0    0 -0.93697763543E-02  0.13975033496E-01  0.73224230836E-01  0.75134169143E-01  0.51100000000E-03 0. -1.
</event>
<event>
 8    1  0.1129602E+005  0.1043930E+01  0.7957747E-01            NaN
         13   -1    0    0    0    0  0.00000000000E+00  0.00000000000E+00  0.74505805969E-08  0.10566000000E+00  0.10566000000E+00 0. -1.
     999900   -1    0    0    0    0 -0.00000000000E+00 -0.00000000000E+00 -0.74505805969E-08  0.93827000000E+00  0.93827000000E+00 0.  1.
     999902    2    1    2    0    0  0.78737895392E-02 -0.11472896319E-01 -0.18774433887E-01  0.10205611472E+01  0.10202935617E+01 0.  0.
     999903    2    3    3    0    0 -0.12021789087E+00 -0.41775983710E-01 -0.19653560372E-01  0.13077098739E+00  0.22742352720E-01 0.  0.
         14    1    1    2    0    0 -0.78737895392E-02  0.11472896319E-01  0.18774433887E-01  0.23368852762E-01  0.00000000000E+00 0. -1.
     999901    1    3    3    0    0  0.12809168041E+00  0.30303087391E-01  0.87912648554E-03  0.88979015985E+00  0.88000000000E+00 0. -1.
        -11    1    4    4    0    0 -0.59209179177E-01 -0.26229046044E-01 -0.20101929160E-01  0.67808837419E-01  0.51100000000E-03 0. -1.
         11    1    4    4    0    0 -0.61008711696E-01 -0.15546937666E-01  0.44836878802E-03  0.62962149972E-01  0.51100000000E-03 0.  1.
</event>
<event>
 7    1  0.1316615E+005  0.1043930E+01  0.7957747E-01            NaN
         13   -1    0    0    0    0  0.00000000000E+00  0.00000000000E+00  0.74505805969E-08  0.10566000000E+00  0.10566000000E+00 0.  1.
     999900   -1    0    0    0    0 -0.00000000000E+00 -0.00000000000E+00 -0.74505805969E-08  0.93827000000E+00  0.93827000000E+00 0. -1.
     999903    2    1    2    0    0  0.38005932795E-01 -0.54015749839E-01 -0.86909124226E-01  0.11064004800E+00  0.18051930364E-01 0.  0.
         14    1    1    2    0    0  0.35216797378E-01  0.14479463693E-01  0.28264249661E-01  0.47420939418E-01  0.00000000000E+00 0.  1.
     999901    1    1    2    0    0 -0.73222730173E-01  0.39536286146E-01  0.58644874565E-01  0.88586901258E+00  0.88000000000E+00 0. -1.
        -11    1    3    3    0    0  0.13643786406E-01 -0.34737802902E-01 -0.44869288211E-01  0.58364218521E-01  0.51100000000E-03 0. -1.
         11    1    3    3    0    0  0.24362146389E-01 -0.19277946937E-01 -0.42039836015E-01  0.52275829482E-01  0.51100000000E-03 0.  1.
</event>
<event>
 8    1  0.1129602E+005  0.1043930E+01  0.7957747E-01            NaN
         13   -1    0    0    0    0  0.00000000000E+00  0.00000000000E+00  0.74505805969E-08  0.10566000000E+00  0.10566000000E+00 0. -1.
     999900   -1    0    0    0    0 -0.00000000000E+00 -0.00000000000E+00 -0.74505805969E-08  0.93827000000E+00  0.93827000000E+00 0.  1.
     999902    2    1    2    0    0 -0.17577764218E-01  0.16016029763E-01 -0.30312803935E-02  0.10199575228E+01  0.10196757664E+01 0.  0.
     999903    2    3    3    0    0 -0.44275240935E-01 -0.77285930958E-01  0.92011815220E-01  0.12953559965E+00  0.19490647799E-01 0.  0.
         14    1    1    2    0    0  0.17577764218E-01 -0.16016029763E-01  0.30312803935E-02  0.23972477241E-01  0.00000000000E+00 0.  1.
     999901    1    3    3    0    0  0.26697476717E-01  0.93301960721E-01 -0.95043095613E-01  0.89042192311E+00  0.88000000000E+00 0. -1.
        -11    1    4    4    0    0 -0.56203068723E-02 -0.24517938921E-01  0.19147150949E-01  0.31616319975E-01  0.51100000000E-03 0. -1.
         11    1    4    4    0    0 -0.38654934062E-01 -0.52767992037E-01  0.72864664270E-01  0.97919279671E-01  0.51100000000E-03 0.  1.
</event>
<event>
 8    1  0.1129602E+005  0.1043930E+01  0.7957747E-01            NaN
         13   -1    0    0    0    0  0.00000000000E+00  0.00000000000E+00  0.74505805969E-08  0.10566000000E+00  0.10566000000E+00 0.  1.
     999900   -1    0    0    0    0 -0.00000000000E+00 -0.00000000000E+00 -0.74505805969E-08  0.93827000000E+00  0.93827000000E+00 0. -1.
     999902    2    1    2    0    0 -0.16521541147E-01  0.68656655481E-02  0.13304771924E-01  0.10216339097E+01  0.10213905863E+01 0.  0.
     999903    2    3    3    0    0  0.81587339658E-01  0.51455738006E-01 -0.84270734491E-01  0.12970644267E+00  0.20445478994E-01 0.  0.
         14    1    1    2    0    0  0.16521541147E-01 -0.68656655481E-02 -0.13304771924E-01  0.22296090268E-01  0.00000000000E+00 0. -1.
     999901    1    3    3    0    0 -0.98108880805E-01 -0.44590072458E-01  0.97575506415E-01  0.89192746707E+00  0.88000000000E+00 0.  1.
        -11    1    4    4    0    0  0.35699195509E-01  0.32657500829E-01 -0.34343099264E-01  0.59335103509E-01  0.51100000000E-03 0.  1.
         11    1    4    4    0    0  0.45888144149E-01  0.18798237176E-01 -0.49927635227E-01  0.70371339157E-01  0.51100000000E-03 0. -1.
</event>
<event>
 8    1  0.1129602E+005  0.1043930E+01  0.7957747E-01            NaN
         13   -1    0    0    0    0  0.00000000000E+00  0.00000000000E+00  0.74505805969E-08  0.10566000000E+00  0.10566000000E+00 0.  1.
     999900   -1    0    0    0    0 -0.00000000000E+00 -0.00000000000E+00 -0.74505805969E-08  0.93827000000E+00  0.93827000000E+00 0. -1.
     999902    2    1    2    0    0 -0.87282696356E-02  0.15935192864E-01  0.19697722128E-01  0.10171323635E+01  0.10167792935E+01 0.  0.
     999903    2    3    3    0    0  0.11810957349E+00 -0.38611550127E-01  0.10793144699E-01  0.12632235175E+00  0.20003035383E-01 0.  0.
         14    1    1    2    0    0  0.87282696356E-02 -0.15935192864E-01 -0.19697722128E-01  0.26797636453E-01  0.00000000000E+00 0. -1.
     999901    1    3    3    0    0 -0.12683784313E+00  0.54546742991E-01  0.89045774299E-02  0.89081001180E+00  0.88000000000E+00 0.  1.
        -11    1    4    4    0    0  0.32593562220E-01 -0.14723051558E-01  0.11360799323E-01  0.37529154369E-01  0.51100000000E-03 0.  1.
         11    1    4    4    0    0  0.85516011274E-01 -0.23888498569E-01 -0.56765462444E-03  0.88793197379E-01  0.51100000000E-03 0. -1.
</event>
<event>
 8    1  0.1129602E+005  0.1043930E+01  0.7957747E-01            NaN
         13   -1    0    0    0    0  0.00000000000E+00  0.00000000000E+00  0.74505805969E-08  0.10566000000E+00  0.10566000000E+00 0.  1.
     999900   -1    0    0    0    0 -0.00000000000E+00 -0.00000000000E+00 -0.74505805969E-08  0.93827000000E+00  0.93827000000E+00 0. -1.
     999902    2    1    2    0    0 -0.12358145776E-01 -0.19333620344E-01 -0.61165452889E-02  0.10201828998E+01  0.10199064782E+01 0.  0.
     999903    2    3    3    0    0 -0.47947025750E-02  0.63214137994E-01  0.11001045822E+00  0.12869155432E+00  0.20980915649E-01 0.  0.
         14    1    1    2    0    0  0.12358145776E-01  0.19333620344E-01  0.61165452889E-02  0.23747100221E-01  0.00000000000E+00 0.  1.
     999901    1    3    3    0    0 -0.75634432014E-02 -0.82547758338E-01 -0.11612700351E+00  0.89149134546E+00  0.88000000000E+00 0. -1.
        -11    1    4    4    0    0 -0.80994462094E-02  0.45654070659E-01  0.93458809224E-01  0.10432979123E+00  0.51100000000E-03 0.  1.
         11    1    4    4    0    0  0.33047436344E-02  0.17560067335E-01  0.16551648995E-01  0.24361763088E-01  0.51100000000E-03 0. -1.
</event>
<event>
 8    1  0.1129602E+005  0.1043930E+01  0.7957747E-01            NaN
         13   -1    0    0    0    0  0.00000000000E+00  0.00000000000E+00  0.74505805969E-08  0.10566000000E+00  0.10566000000E+00 0.  1.
     999900   -1    0    0    0    0 -0.00000000000E+00 -0.00000000000E+00 -0.74505805969E-08  0.93827000000E+00  0.93827000000E+00 0. -1.
     999902    2    1    2    0    0  0.17390819467E-01  0.12710139852E-01  0.15351919869E-01  0.10174787297E+01  0.10171348464E+01 0.  0.
     999903    2    3    3    0    0  0.14861239169E-01 -0.87106431966E-01 -0.87378091476E-01  0.12589407190E+00  0.20149430542E-01 0.  0.
         14    1    1    2    0    0 -0.17390819467E-01 -0.12710139852E-01 -0.15351919869E-01  0.26451270300E-01  0.00000000000E+00 0. -1.
     999901    1    3    3    0    0  0.25295802976E-02  0.99816571818E-01  0.10273001135E+00  0.89158465780E+00  0.88000000000E+00 0.  1.
        -11    1    4    4    0    0  0.14766648926E-01 -0.29420876222E-01 -0.33108508836E-01  0.46691287801E-01  0.51100000000E-03 0.  1.
         11    1    4    4    0    0  0.94590243573E-04 -0.57685555744E-01 -0.54269582641E-01  0.79202784104E-01  0.51100000000E-03 0. -1.
</event>
<event>
 8    1  0.1129602E+005  0.1043930E+01  0.7957747E-01            NaN
         13   -1    0    0    0    0  0.00000000000E+00  0.00000000000E+00  0.74505805969E-08  0.10566000000E+00  0.10566000000E+00 0. -1.
     999900   -1    0    0    0    0 -0.00000000000E+00 -0.00000000000E+00 -0.74505805969E-08  0.93827000000E+00  0.93827000000E+00 0.  1.
     999902    2    1    2    0    0 -0.23780224064E-01 -0.22160786391E-02 -0.39439410778E-02  0.10197232916E+01  0.10194359355E+01 0.  0.
     999903    2    3    3    0    0  0.88753149718E-01 -0.85273289025E-01  0.30603226000E-01  0.12800822097E+00  0.17346232675E-01 0.  0.
         14    1    1    2    0    0  0.23780224064E-01  0.22160786391E-02  0.39439410778E-02  0.24206708415E-01  0.00000000000E+00 0. -1.
     999901    1    3    3    0    0 -0.11253337378E+00  0.83057210386E-01 -0.34547167078E-01  0.89171507062E+00  0.88000000000E+00 0.  1.
        -11    1    4    4    0    0  0.27619280755E-01 -0.38141087689E-01  0.10915685176E-01  0.48342326624E-01  0.51100000000E-03 0.  1.
         11    1    4    4    0    0  0.61133868962E-01 -0.47132201336E-01  0.19687540824E-01  0.79665894345E-01  0.51100000000E-03 0. -1.
</event>
<event>
 8    1  0.1129602E+005  0.1043930E+01  0.7957747E-01            NaN
         13   -1    0    0    0    0  0.00000000000E+00  0.00000000000E+00  0.74505805969E-08  0.10566000000E+00  0.10566000000E+00 0.  1.
     999900   -1    0    0    0    0 -0.00000000000E+00 -0.00000000000E+00 -0.74505805969E-08  0.93827000000E+00  0.93827000000E+00 0. -1.
     999902    2    1    2    0    0 -0.87501143501E-02 -0.97840907159E-02  0.18363664037E-01  0.10213575148E+01  0.10211080530E+01 0.  0.
     999903    2    3    3    0    0  0.88367335974E-01 -0.91558540625E-01 -0.25851325815E-01  0.13114752542E+00  0.18429051799E-01 0.  0.
         14    1    1    2    0    0  0.87501143501E-02  0.97840907159E-02 -0.18363664037E-01  0.22572485223E-01  0.00000000000E+00 0. -1.
     999901    1    3    3    0    0 -0.97117450324E-01  0.81774449909E-01  0.44214989851E-01  0.89020998935E+00  0.88000000000E+00 0.  1.
        -11    1    4    4    0    0  0.60890658113E-01 -0.73848283468E-01 -0.22147200876E-01  0.98244597024E-01  0.51100000000E-03 0.  1.
         11    1    4    4    0    0  0.27476677861E-01 -0.17710257156E-01 -0.37041249389E-02  0.32902928401E-01  0.51100000000E-03 0. -1.
</event>
<event>
 7    1  0.1129602E+005  0.1043930E+01  0.7957747E-01            NaN
         13   -1    0    0    0    0  0.00000000000E+00  0.00000000000E+00  0.74505805969E-08  0.10566000000E+00  0.10566000000E+00 0. -1.
     999900   -1    0    0    0    0 -0.00000000000E+00 -0.00000000000E+00 -0.74505805969E-08  0.93827000000E+00  0.93827000000E+00 0.  1.
     999903    2    1    2    0    0  0.82721293260E-01 -0.47247689902E-01  0.57930904914E-01  0.11322494504E+00  0.19716538098E-01 0.  0.
         14    1    1    2    0    0  0.34369628614E-01 -0.42078028440E-02  0.16486790078E-01  0.38350895985E-01  0.00000000000E+00 0. -1.
     999901    1    1    2    0    0 -0.11709092187E+00  0.51455492746E-01 -0.74417694991E-01  0.89235415898E+00  0.88000000000E+00 0.  1.
        -11    1    3    3    0    0  0.41167318102E-01 -0.18620771179E-01  0.37738244634E-01  0.58872042839E-01  0.51100000000E-03 0.  1.
         11    1    3    3    0    0  0.41553975158E-01 -0.28626918723E-01  0.20192660279E-01  0.54352902197E-01  0.51100000000E-03 0. -1.
</event>
<event>
 8    1  0.1129602E+005  0.1043930E+01  0.7957747E-01            NaN
         13   -1    0    0    0    0  0.00000000000E+00  0.00000000000E+00  0.74505805969E-08  0.10566000000E+00  0.10566000000E+00 0. -1.
     999900   -1    0    0    0    0 -0.00000000000E+00 -0.00000000000E+00 -0.74505805969E-08  0.93827000000E+00  0.93827000000E+00 0.  1.
     999902    2    1    2    0    0 -0.14665568467E-01  0.17149793383E-01  0.11785408196E-01  0.10184723851E+01  0.10181541676E+01 0.  0.
     999903    2    3    3    0    0  0.80065681549E-01  0.61427309517E-01 -0.76108039154E-01  0.12793335378E+00  0.19765668951E-01 0.  0.
         14    1    1    2    0    0  0.14665568467E-01 -0.17149793383E-01 -0.11785408196E-01  0.25457614930E-01  0.00000000000E+00 0. -1.
     999901    1    3    3    0    0 -0.94731250017E-01 -0.44277516134E-01  0.87893447350E-01  0.89053903129E+00  0.88000000000E+00 0. -1.
        -11    1    4    4    0    0  0.45594012506E-01  0.46587573449E-01 -0.45417839006E-01  0.79449714897E-01  0.51100000000E-03 0. -1.
         11    1    4    4    0    0  0.34471669043E-01  0.14839736068E-01 -0.30690200147E-01  0.48483638883E-01  0.51100000000E-03 0.  1.
</event>
<event>
 8    1  0.1129602E+005  0.1043930E+01  0.7957747E-01            NaN
         13   -1    0    0    0    0  0.00000000000E+00  0.00000000000E+00  0.74505805969E-08  0.10566000000E+00  0.10566000000E+00 0. -1.
     999900   -1    0    0    0    0 -0.00000000000E+00 -0.00000000000E+00 -0.74505805969E-08  0.93827000000E+00  0.93827000000E+00 0. -1.
     999902    2    1    2    0    0 -0.13164842825E-01 -0.11852324935E-01  0.18169248129E-01  0.10185545735E+01  0.10182384332E+01 0.  0.
     999903    2    3    3    0    0 -0.33574279958E-02 -0.11648818578E+00 -0.53817043570E-01  0.12938255698E+00  0.16211172755E-01 0.  0.
         14    1    1    2    0    0  0.13164842825E-01  0.11852324935E-01 -0.18169248129E-01  0.25375426510E-01  0.00000000000E+00 0.  1.
     999901    1    3    3    0    0 -0.98074148297E-02  0.10463586084E+00  0.71986291699E-01  0.88917201651E+00  0.88000000000E+00 0. -1.
        -11    1    4    4    0    0  0.53334523951E-02 -0.49972590609E-01 -0.27766572318E-01  0.57419066397E-01  0.51100000000E-03 0. -1.
         11    1    4    4    0    0 -0.86908803909E-02 -0.66515595170E-01 -0.26050471252E-01  0.71963490579E-01  0.51100000000E-03 0.  1.
</event>
<event>
 8    1  0.1129602E+005  0.1043930E+01  0.7957747E-01            NaN
         13   -1    0    0    0    0  0.00000000000E+00  0.00000000000E+00  0.74505805969E-08  0.10566000000E+00  0.10566000000E+00 0.  1.
     999900   -1    0    0    0    0 -0.00000000000E+00 -0.00000000000E+00 -0.74505805969E-08  0.93827000000E+00  0.93827000000E+00 0. -1.
     999902    2    1    2    0    0  0.14562057306E-01  0.78439748621E-02  0.16100460668E-01  0.10208474029E+01  0.10205864068E+01 0.  0.
     999903    2    3    3    0    0  0.66297646926E-01 -0.10476899837E+00  0.40430752486E-01  0.13183097108E+00  0.19309018124E-01 0.  0.
         14    1    1    2    0    0 -0.14562057306E-01 -0.78439748621E-02 -0.16100460668E-01  0.23082597088E-01  0.00000000000E+00 0. -1.
     999901    1    3    3    0    0 -0.51735589620E-01  0.11261297323E+00 -0.24330291817E-01  0.88901643184E+00  0.88000000000E+00 0. -1.
        -11    1    4    4    0    0  0.42574867058E-01 -0.82921632256E-01  0.29319666027E-01  0.97716530525E-01  0.51100000000E-03 0. -1.
         11    1    4    4    0    0  0.23722779868E-01 -0.21847366115E-01  0.11111086458E-01  0.34114440551E-01  0.51100000000E-03 0.  1.
</event>
<event>
 8    1  0.1129602E+005  0.1043930E+01  0.7957747E-01            NaN
         13   -1    0    0    0    0  0.00000000000E+00  0.00000000000E+00  0.74505805969E-08  0.10566000000E+00  0.10566000000E+00 0. -1.
     999900   -1    0    0    0    0 -0.00000000000E+00 -0.00000000000E+00 -0.74505805969E-08  0.93827000000E+00  0.93827000000E+00 0. -1.
     999902    2    1    2    0    0  0.48713986508E-02 -0.19586679050E-01 -0.13537242769E-01  0.10196272129E+01  0.10193375436E+01 0.  0.
     999903    2    3    3    0    0 -0.65606615826E-01 -0.60305227593E-01 -0.95292233851E-01  0.13209747855E+00  0.20692643407E-01 0.  0.
         14    1    1    2    0    0 -0.48713986508E-02  0.19586679050E-01  0.13537242769E-01  0.24302787141E-01  0.00000000000E+00 0.  1.
     999901    1    3    3    0    0  0.70478014477E-01  0.40718548542E-01  0.81754991082E-01  0.88752973431E+00  0.88000000000E+00 0.  1.
        -11    1    4    4    0    0 -0.47528248832E-01 -0.39756308190E-01 -0.78397078194E-01  0.99929282337E-01  0.51100000000E-03 0.  1.
         11    1    4    4    0    0 -0.18078366994E-01 -0.20548919403E-01 -0.16895155656E-01  0.32168196211E-01  0.51100000000E-03 0. -1.
</event>
<event>
 8    1  0.1129602E+005  0.1043930E+01  0.7957747E-01            NaN
         13   -1    0    0    0    0  0.00000000000E+00  0.00000000000E+00  0.74505805969E-08  0.10566000000E+00  0.10566000000E+00 0.  1.
     999900   -1    0    0    0    0 -0.00000000000E+00 -0.00000000000E+00 -0.74505805969E-08  0.93827000000E+00  0.93827000000E+00 0.  1.
     999902    2    1    2    0    0 -0.10775768518E-01 -0.20358285366E-01 -0.95370577018E-02  0.10189994477E+01  0.10186944301E+01 0.  0.
     999903    2    3    3    0    0  0.22328657979E-01 -0.30365863113E-02 -0.12684791897E+00  0.13042880754E+00  0.20334440382E-01 0.  0.
         14    1    1    2    0    0  0.10775768518E-01  0.20358285366E-01  0.95370577018E-02  0.24930552337E-01  0.00000000000E+00 0. -1.
     999901    1    3    3    0    0 -0.33104426498E-01 -0.17321699055E-01  0.11731086127E+00  0.88857064012E+00  0.88000000000E+00 0.  1.
        -11    1    4    4    0    0  0.21882024472E-01  0.46860498781E-02 -0.86972660968E-01  0.89806942578E-01  0.51100000000E-03 0. -1.
         11    1    4    4    0    0  0.44663350770E-03 -0.77226361893E-02 -0.39875258006E-01  0.40621864965E-01  0.51100000000E-03 0.  1.
</event>
<event>
 8    1  0.1129602E+005  0.1043930E+01  0.7957747E-01            NaN
         13   -1    0    0    0    0  0.00000000000E+00  0.00000000000E+00  0.74505805969E-08  0.10566000000E+00  0.10566000000E+00 0. -1.
     999900   -1    0    0    0    0 -0.00000000000E+00 -0.00000000000E+00 -0.74505805969E-08  0.93827000000E+00  0.93827000000E+00 0. -1.
     999902    2    1    2    0    0 -0.16794454950E-01  0.11353546505E-01 -0.11959721304E-01  0.10203929724E+01  0.10201214763E+01 0.  0.
     999903    2    3    3    0    0  0.12385843251E+00  0.30988641875E-01 -0.41709139671E-02  0.12897307288E+00  0.17760905812E-01 0.  0.
         14    1    1    2    0    0  0.16794454950E-01 -0.11353546505E-01  0.11959721304E-01  0.23537027616E-01  0.00000000000E+00 0. -1.
     999901    1    3    3    0    0 -0.14065288746E+00 -0.19635095370E-01 -0.77888073367E-02  0.89141989951E+00  0.88000000000E+00 0. -1.
        -11    1    4    4    0    0  0.64456057311E-01  0.23827327180E-01  0.25078214315E-02  0.68766817099E-01  0.51100000000E-03 0. -1.
         11    1    4    4    0    0  0.59402375196E-01  0.71613146956E-02 -0.66787353986E-02  0.60206255776E-01  0.51100000000E-03 0.  1.
</event>
<event>
 8    1  0.1129602E+005  0.1043930E+01  0.7957747E-01            NaN
         13   -1    0    0    0    0  0.00000000000E+00  0.00000000000E+00  0.74505805969E-08  0.10566000000E+00  0.10566000000E+00 0.  1.
     999900   -1    0    0    0    0 -0.00000000000E+00 -0.00000000000E+00 -0.74505805969E-08  0.93827000000E+00  0.93827000000E+00 0.  1.
     999902    2    1    2    0    0  0.19455490765E-01  0.98994075157E-02 -0.12430450137E-01  0.10188096799E+01  0.10184999428E+01 0.  0.
     999903    2    3    3    0    0 -0.83303901608E-01  0.35826036345E-01 -0.89676263191E-01  0.12909141079E+00  0.19992880128E-01 0.  0.
         14    1    1    2    0    0 -0.19455490765E-01 -0.98994075157E-02  0.12430450137E-01  0.25120320075E-01  0.00000000000E+00 0.  1.
     999901    1    3    3    0    0  0.10275939237E+00 -0.25926628830E-01  0.77245813054E-01  0.88971826914E+00  0.88000000000E+00 0. -1.
        -11    1    4    4    0    0 -0.31810701397E-02  0.51137212716E-02 -0.18889490721E-02  0.63323457008E-02  0.51100000000E-03 0.  1.
         11    1    4    4    0    0 -0.80122831468E-01  0.30712315074E-01 -0.87787314119E-01  0.12275906509E+00  0.51100000000E-03 0. -1.
</event>
<event>
 8    1  0.1129602E+005  0.1043930E+01  0.7957747E-01            NaN
         13   -1    0    0    0    0  0.00000000000E+00  0.00000000000E+00  0.74505805969E-08  0.10566000000E+00  0.10566000000E+00 0. -1.
     999900   -1    0    0    0    0 -0.00000000000E+00 -0.00000000000E+00 -0.74505805969E-08  0.93827000000E+00  0.93827000000E+00 0.  1.
     999902    2    1    2    0    0 -0.17578920529E-01  0.14920445347E-01 -0.51868886580E-03  0.10208668871E+01  0.10206063365E+01 0.  0.
     999903    2    3    3    0    0 -0.73873500544E-01 -0.90127823089E-01 -0.56628887104E-01  0.13106209238E+00  0.19751522163E-01 0.  0.
         14    1    1    2    0    0  0.17578920529E-01 -0.14920445347E-01  0.51868886580E-03  0.23063112852E-01  0.00000000000E+00 0.  1.
     999901    1    3    3    0    0  0.56294580015E-01  0.10504826844E+00  0.56110198239E-01  0.88980479476E+00  0.88000000000E+00 0. -1.
        -11    1    4    4    0    0 -0.69216391432E-01 -0.74144166475E-01 -0.46651821905E-01  0.11164640555E+00  0.51100000000E-03 0. -1.
         11    1    4    4    0    0 -0.46571091117E-02 -0.15983656614E-01 -0.99770651998E-02  0.19415686828E-01  0.51100000000E-03 0.  1.
</event>
<event>
 8    1  0.1129602E+005  0.1043930E+01  0.7957747E-01            NaN
         13   -1    0    0    0    0  0.00000000000E+00  0.00000000000E+00  0.74505805969E-08  0.10566000000E+00  0.10566000000E+00 0.  1.
     999900   -1    0    0    0    0 -0.00000000000E+00 -0.00000000000E+00 -0.74505805969E-08  0.93827000000E+00  0.93827000000E+00 0. -1.
     999902    2    1    2    0    0  0.17707893980E-01 -0.15753708953E-01 -0.14148160755E-02  0.10201865681E+01  0.10199102329E+01 0.  0.
     999903    2    3    3    0    0  0.27192163650E-01 -0.12745014819E+00  0.15672278754E-01  0.13291095435E+00  0.20898502980E-01 0.  0.
         14    1    1    2    0    0 -0.17707893980E-01  0.15753708953E-01  0.14148160755E-02  0.23743431924E-01  0.00000000000E+00 0.  1.
     999901    1    3    3    0    0 -0.94842696696E-02  0.11169643924E+00 -0.17087094829E-01  0.88727561373E+00  0.88000000000E+00 0. -1.
        -11    1    4    4    0    0  0.21804109894E-02 -0.42221281075E-01  0.12254080647E-01  0.44020613140E-01  0.51100000000E-03 0.  1.
         11    1    4    4    0    0  0.25011752660E-01 -0.85228867113E-01  0.34181981065E-02  0.88890341207E-01  0.51100000000E-03 0. -1.
</event>
<event>
 8    1  0.1129602E+005  0.1043930E+01  0.7957747E-01            NaN
         13   -1    0    0    0    0  0.00000000000E+00  0.00000000000E+00  0.74505805969E-08  0.10566000000E+00  0.10566000000E+00 0. -1.
     999900   -1    0    0    0    0 -0.00000000000E+00 -0.00000000000E+00 -0.74505805969E-08  0.93827000000E+00  0.93827000000E+00 0.  1.
     999902    2    1    2    0    0 -0.36401457139E-02  0.21335526074E-01  0.10021390322E-01  0.10200787192E+01  0.10197998381E+01 0.  0.
     999903    2    3    3    0    0  0.98024426162E-01  0.24515474277E-01  0.80385657661E-01  0.13142978546E+00  0.24538499255E-01 0.  0.
         14    1    1    2    0    0  0.36401457139E-02 -0.21335526074E-01 -0.10021390322E-01  0.23851280839E-01  0.00000000000E+00 0. -1.
     999901    1    3    3    0    0 -0.10166457188E+00 -0.31799482033E-02 -0.70364267339E-01  0.88864893370E+00  0.88000000000E+00 0.  1.
        -11    1    4    4    0    0  0.55838328006E-01  0.26362382129E-01  0.47829335367E-01  0.78107621323E-01  0.51100000000E-03 0.  1.
         11    1    4    4    0    0  0.42186098156E-01 -0.18469078523E-02  0.32556322294E-01  0.53322164140E-01  0.51100000000E-03 0. -1.
</event>
<event>
 7    1  0.1129602E+005  0.1043930E+01  0.7957747E-01            NaN
         13   -1    0    0    0    0  0.00000000000E+00  0.00000000000E+00  0.74505805969E-08  0.10566000000E+00  0.10566000000E+00 0.  1.
     999900   -1    0    0    0    0 -0.00000000000E+00 -0.00000000000E+00 -0.74505805969E-08  0.93827000000E+00  0.93827000000E+00 0. -1.
     999903    2    1    2    0    0  0.67745502807E-01  0.67110793253E-01  0.60569219853E-01  0.11458394930E+00  0.19171315099E-01 0.  0.
         14    1    1    2    0    0  0.37826214341E-01 -0.55197593660E-02 -0.97275319015E-02  0.39445089831E-01  0.00000000000E+00 0.  1.
     999901    1    1    2    0    0 -0.10557171715E+00 -0.61591033887E-01 -0.50841687952E-01  0.88990096087E+00  0.88000000000E+00 0. -1.
        -11    1    3    3    0    0  0.32457452460E-01  0.38489714493E-01  0.21855858066E-01  0.54889743985E-01  0.51100000000E-03 0.  1.
         11    1    3    3    0    0  0.35288050347E-01  0.28621078760E-01  0.38713361787E-01  0.59694205318E-01  0.51100000000E-03 0. -1.
</event>
<event>
 8    1  0.1129602E+005  0.1043930E+01  0.7957747E-01            NaN
         13   -1    0    0    0    0  0.00000000000E+00  0.00000000000E+00  0.74505805969E-08  0.10566000000E+00  0.10566000000E+00 0.  1.
     999900   -1    0    0    0    0 -0.00000000000E+00 -0.00000000000E+00 -0.74505805969E-08  0.93827000000E+00  0.93827000000E+00 0. -1.
     999902    2    1    2    0    0 -0.14970352473E-01 -0.82849605719E-02 -0.16197687460E-01  0.10203690768E+01  0.10200970227E+01 0.  0.
     999903    2    3    3    0    0 -0.12872877044E+00  0.98755343125E-02 -0.23575124250E-01  0.13283022814E+00  0.20480735060E-01 0.  0.
         14    1    1    2    0    0  0.14970352473E-01  0.82849605719E-02  0.16197687460E-01  0.23560923239E-01  0.00000000000E+00 0.  1.
     999901    1    3    3    0    0  0.11375841797E+00 -0.18160494884E-01  0.73774367899E-02  0.88753884862E+00  0.88000000000E+00 0.  1.
        -11    1    4    4    0    0 -0.30953650811E-01 -0.36439355951E-03 -0.14236804579E-01  0.34076516941E-01  0.51100000000E-03 0.  1.
         11    1    4    4    0    0 -0.97775119627E-01  0.10239927872E-01 -0.93383196709E-02  0.98753711202E-01  0.51100000000E-03 0. -1.
</event>
<event>
 8    1  0.1129602E+005  0.1043930E+01  0.7957747E-01            NaN
         13   -1    0    0    0    0  0.00000000000E+00  0.00000000000E+00  0.74505805969E-08  0.10566000000E+00  0.10566000000E+00 0.  1.
     999900   -1    0    0    0    0 -0.00000000000E+00 -0.00000000000E+00 -0.74505805969E-08  0.93827000000E+00  0.93827000000E+00 0.  1.
     999902    2    1    2    0    0 -0.12984560371E-01  0.17715858424E-01 -0.85259787093E-02  0.10203685323E+01  0.10200964655E+01 0.  0.
     999903    2    3    3    0    0 -0.38880304556E-01 -0.32035046730E-01 -0.11971955088E+00  0.13159986012E+00  0.21161994732E-01 0.  0.
         14    1    1    2    0    0  0.12984560371E-01 -0.17715858424E-01  0.85259787093E-02  0.23561467710E-01  0.00000000000E+00 0.  1.
     999901    1    3    3    0    0  0.25895744185E-01  0.49750905153E-01  0.11119357217E+00  0.88876867217E+00  0.88000000000E+00 0. -1.
        -11    1    4    4    0    0 -0.30332767447E-01 -0.31511260650E-01 -0.82216695304E-01  0.93128311681E-01  0.51100000000E-03 0.  1.
         11    1    4    4    0    0 -0.85475371089E-02 -0.52378607988E-03 -0.37502855574E-01  0.38471548444E-01  0.51100000000E-03 0. -1.
</event>
<event>
 8    1  0.1129602E+005  0.1043930E+01  0.7957747E-01            NaN
         13   -1    0    0    0    0  0.00000000000E+00  0.00000000000E+00  0.74505805969E-08  0.10566000000E+00  0.10566000000E+00 0. -1.
     999900   -1    0    0    0    0 -0.00000000000E+00 -0.00000000000E+00 -0.74505805969E-08  0.93827000000E+00  0.93827000000E+00 0.  1.
     999902    2    1    2    0    0 -0.18161406531E-01  0.14758389602E-01  0.69531315579E-02  0.10195170364E+01  0.10192247028E+01 0.  0.
     999903    2    3    3    0    0 -0.76690982279E-01  0.59978189243E-01 -0.86304576242E-01  0.13150378115E+00  0.19127849583E-01 0.  0.
         14    1    1    2    0    0  0.18161406531E-01 -0.14758389602E-01 -0.69531315579E-02  0.24412963550E-01  0.00000000000E+00 0.  1.
     999901    1    3    3    0    0  0.58529575748E-01 -0.45219799641E-01  0.93257707800E-01  0.88801325530E+00  0.88000000000E+00 0. -1.
        -11    1    4    4    0    0 -0.57160888999E-01  0.54215241584E-01 -0.66576586907E-01  0.10314728642E+00  0.51100000000E-03 0.  1.
         11    1    4    4    0    0 -0.19530093281E-01  0.57629476594E-02 -0.19727989335E-01  0.28356494732E-01  0.51100000000E-03 0. -1.
</event>
<event>
 8    1  0.1129602E+005  0.1043930E+01  0.7957747E-01            NaN
         13   -1    0    0    0    0  0.00000000000E+00  0.00000000000E+00  0.74505805969E-08  0.10566000000E+00  0.10566000000E+00 0. -1.
     999900   -1    0    0    0    0 -0.00000000000E+00 -0.00000000000E+00 -0.74505805969E-08  0.93827000000E+00  0.93827000000E+00 0.  1.
     999902    2    1    2    0    0 -0.17241785265E-01 -0.16004361848E-01  0.34102378284E-02  0.10201592516E+01  0.10198822727E+01 0.  0.
     999903    2    3    3    0    0 -0.11309702585E+00  0.49215678614E-01 -0.40666334068E-01  0.13146097603E+00  0.20374425495E-01 0.  0.
         14    1    1    2    0    0  0.17241785265E-01  0.16004361848E-01 -0.34102378284E-02  0.23770748397E-01  0.00000000000E+00 0.  1.
     999901    1    3    3    0    0  0.95855240582E-01 -0.65220040462E-01  0.44076571897E-01  0.88869827558E+00  0.88000000000E+00 0.  1.
        -11    1    4    4    0    0 -0.10624066983E+00  0.51053524816E-01 -0.37744049284E-01  0.12376759147E+00  0.51100000000E-03 0. -1.
         11    1    4    4    0    0 -0.68563560179E-02 -0.18378462019E-02 -0.29222847844E-02  0.76933845521E-02  0.51100000000E-03 0.  1.
</event>
<event>
 8    1  0.1129602E+005  0.1043930E+01  0.7957747E-01            NaN
         13   -1    0    0    0    0  0.00000000000E+00  0.00000000000E+00  0.74505805969E-08  0.10566000000E+00  0.10566000000E+00 0.  1.
     999900   -1    0    0    0    0 -0.00000000000E+00 -0.00000000000E+00 -0.74505805969E-08  0.93827000000E+00  0.93827000000E+00 0. -1.
     999902    2    1    2    0    0  0.86529673779E-02  0.39496846044E-02 -0.21659196552E-01  0.10202742470E+01  0.10199999728E+01 0.  0.
     999903    2    3    3    0    0  0.11013028903E+00 -0.60961412604E-01 -0.38751878317E-01  0.13190312126E+00  0.71938122849E-02 0.  0.
         14    1    1    2    0    0 -0.86529673779E-02 -0.39496846044E-02  0.21659196552E-01  0.23655752962E-01  0.00000000000E+00 0.  1.
     999901    1    3    3    0    0 -0.10147732165E+00  0.64911097209E-01  0.17092681764E-01  0.88837112578E+00  0.88000000000E+00 0.  1.
        -11    1    4    4    0    0  0.68953657186E-01 -0.36858407874E-01 -0.27459472111E-01  0.82869975262E-01  0.51100000000E-03 0. -1.
         11    1    4    4    0    0  0.41176631847E-01 -0.24103004730E-01 -0.11292406206E-01  0.49033145995E-01  0.51100000000E-03 0.  1.
</event>
<event>
 8    1  0.1129602E+005  0.1043930E+01  0.7957747E-01            NaN
         13   -1    0    0    0    0  0.00000000000E+00  0.00000000000E+00  0.74505805969E-08  0.10566000000E+00  0.10566000000E+00 0. -1.
     999900   -1    0    0    0    0 -0.00000000000E+00 -0.00000000000E+00 -0.74505805969E-08  0.93827000000E+00  0.93827000000E+00 0. -1.
     999902    2    1    2    0    0  0.20694298820E-01  0.96157334525E-02 -0.14139536422E-01  0.10170852086E+01  0.10167308783E+01 0.  0.
     999903    2    3    3    0    0  0.62365986353E-01  0.10351339964E+00 -0.45238366071E-01  0.13056367000E+00  0.19895275801E-01 0.  0.
         14    1    1    2    0    0 -0.20694298820E-01 -0.96157334525E-02  0.14139536422E-01  0.26844791371E-01  0.00000000000E+00 0. -1.
     999901    1    3    3    0    0 -0.41671687533E-01 -0.93897666186E-01  0.31098829649E-01  0.88652153863E+00  0.88000000000E+00 0.  1.
        -11    1    4    4    0    0  0.46224084302E-01  0.88879658374E-01 -0.41563765819E-01  0.10846228558E+00  0.51100000000E-03 0.  1.
         11    1    4    4    0    0  0.16141902051E-01  0.14633741265E-01 -0.36746002521E-02  0.22101384419E-01  0.51100000000E-03 0. -1.
</event>
<event>
 8    1  0.1129602E+005  0.1043930E+01  0.7957747E-01            NaN
         13   -1    0    0    0    0  0.00000000000E+00  0.00000000000E+00  0.74505805969E-08  0.10566000000E+00  0.10566000000E+00 0.  1.
     999900   -1    0    0    0    0 -0.00000000000E+00 -0.00000000000E+00 -0.74505805969E-08  0.93827000000E+00  0.93827000000E+00 0.  1.
     999902    2    1    2    0    0 -0.12399584909E-01 -0.37949361665E-02 -0.19845392406E-01  0.10202236539E+01  0.10199481914E+01 0.  0.
     999903    2    3    3    0    0 -0.75027314556E-01 -0.77248942929E-01 -0.76103130717E-01  0.13315958813E+00  0.18528148675E-01 0.  0.
         14    1    1    2    0    0  0.12399584909E-01  0.37949361665E-02  0.19845392406E-01  0.23706346116E-01  0.00000000000E+00 0.  1.
     999901    1    3    3    0    0  0.62627729646E-01  0.73454006762E-01  0.56257738311E-01  0.88706406575E+00  0.88000000000E+00 0. -1.
        -11    1    4    4    0    0 -0.40460074501E-01 -0.29919733749E-01 -0.29979745437E-01  0.58576909732E-01  0.51100000000E-03 0. -1.
         11    1    4    4    0    0 -0.34567240055E-01 -0.47329209180E-01 -0.46123385280E-01  0.74582678400E-01  0.51100000000E-03 0.  1.
</event>
<event>
 8    1  0.1129602E+005  0.1043930E+01  0.7957747E-01            NaN
         13   -1    0    0    0    0  0.00000000000E+00  0.00000000000E+00  0.74505805969E-08  0.10566000000E+00  0.10566000000E+00 0. -1.
     999900   -1    0    0    0    0 -0.00000000000E+00 -0.00000000000E+00 -0.74505805969E-08  0.93827000000E+00  0.93827000000E+00 0.  1.
     999902    2    1    2    0    0  0.18307621034E-01  0.29692132012E-02  0.15114369938E-01  0.10200045033E+01  0.10197238633E+01 0.  0.
     999903    2    3    3    0    0 -0.60929594448E-01  0.54110218587E-01  0.10047347764E+00  0.13085878067E+00  0.19717239536E-01 0.  0.
         14    1    1    2    0    0 -0.18307621034E-01 -0.29692132012E-02 -0.15114369938E-01  0.23925496725E-01  0.00000000000E+00 0.  1.
     999901    1    3    3    0    0  0.79237215481E-01 -0.51141005386E-01 -0.85359107705E-01  0.88914572260E+00  0.88000000000E+00 0.  1.
        -11    1    4    4    0    0 -0.30109616016E-01  0.32124649772E-01  0.67825192294E-01  0.80864701386E-01  0.51100000000E-03 0. -1.
         11    1    4    4    0    0 -0.30819978432E-01  0.21985568815E-01  0.32648285349E-01  0.49994079289E-01  0.51100000000E-03 0.  1.
</event>
<event>
 8    1  0.1129602E+005  0.1043930E+01  0.7957747E-01            NaN
         13   -1    0    0    0    0  0.00000000000E+00  0.00000000000E+00  0.74505805969E-08  0.10566000000E+00  0.10566000000E+00 0. -1.
     999900   -1    0    0    0    0 -0.00000000000E+00 -0.00000000000E+00 -0.74505805969E-08  0.93827000000E+00  0.93827000000E+00 0. -1.
     999902    2    1    2    0    0  0.20307737854E-01 -0.75089468463E-02 -0.57168352821E-02  0.10215364584E+01  0.10212909797E+01 0.  0.
     999903    2    3    3    0    0 -0.94320937769E-01 -0.35045148423E-01 -0.80389162892E-01  0.13054042464E+00  0.21302188279E-01 0.  0.
         14    1    1    2    0    0 -0.20307737854E-01  0.75089468463E-02  0.57168352821E-02  0.22393541594E-01  0.00000000000E+00 0. -1.
     999901    1    3    3    0    0  0.11462867562E+00  0.27536201577E-01  0.74672327609E-01  0.89099603376E+00  0.88000000000E+00 0.  1.
        -11    1    4    4    0    0 -0.56025463947E-01 -0.20562117981E-01 -0.34085302402E-01  0.68729340657E-01  0.51100000000E-03 0.  1.
         11    1    4    4    0    0 -0.38295473822E-01 -0.14483030442E-01 -0.46303860490E-01  0.61811083984E-01  0.51100000000E-03 0. -1.
</event>
<event>
 8    1  0.1129602E+005  0.1043930E+01  0.7957747E-01            NaN
         13   -1    0    0    0    0  0.00000000000E+00  0.00000000000E+00  0.74505805969E-08  0.10566000000E+00  0.10566000000E+00 0. -1.
     999900   -1    0    0    0    0 -0.00000000000E+00 -0.00000000000E+00 -0.74505805969E-08  0.93827000000E+00  0.93827000000E+00 0. -1.
     999902    2    1    2    0    0  0.21749022995E-01  0.11148701912E-02 -0.47251854351E-02  0.10216456935E+01  0.10214026301E+01 0.  0.
     999903    2    3    3    0    0 -0.71089698115E-01  0.10351194351E+00  0.28171590378E-01  0.13024994158E+00  0.20073394081E-01 0.  0.
         14    1    1    2    0    0 -0.21749022995E-01 -0.11148701912E-02  0.47251854351E-02  0.22284306455E-01  0.00000000000E+00 0. -1.
     999901    1    3    3    0    0  0.92838721110E-01 -0.10239707332E+00 -0.32896775813E-01  0.89139575196E+00  0.88000000000E+00 0. -1.
        -11    1    4    4    0    0 -0.44362584318E-01  0.60508044577E-01  0.69634893668E-02  0.75352595516E-01  0.51100000000E-03 0.  1.
         11    1    4    4    0    0 -0.26727113797E-01  0.43003898933E-01  0.21208101011E-01  0.54897346064E-01  0.51100000000E-03 0. -1.
</event>
<event>
 8    1  0.1129602E+005  0.1043930E+01  0.7957747E-01            NaN
         13   -1    0    0    0    0  0.00000000000E+00  0.00000000000E+00  0.74505805969E-08  0.10566000000E+00  0.10566000000E+00 0. -1.
     999900   -1    0    0    0    0 -0.00000000000E+00 -0.00000000000E+00 -0.74505805969E-08  0.93827000000E+00  0.93827000000E+00 0. -1.
     999902    2    1    2    0    0  0.38260295778E-02  0.98364282621E-02  0.20470454449E-01  0.10208988618E+01  0.10206390413E+01 0.  0.
     999903    2    3    3    0    0  0.70028785632E-01  0.28889211146E-01  0.10844437773E+00  0.13383334861E+00  0.20311691243E-01 0.  0.
         14    1    1    2    0    0 -0.38260295778E-02 -0.98364282621E-02 -0.20470454449E-01  0.23031138240E-01  0.00000000000E+00 0.  1.
     999901    1    3    3    0    0 -0.66202756054E-01 -0.19052782883E-01 -0.87973923281E-01  0.88706551315E+00  0.88000000000E+00 0. -1.
        -11    1    4    4    0    0  0.36431624729E-01  0.59198404242E-02  0.42020388697E-01  0.55931046640E-01  0.51100000000E-03 0.  1.
         11    1    4    4    0    0  0.33597160903E-01  0.22969370721E-01  0.66423989033E-01  0.77902301969E-01  0.51100000000E-03 0. -1.
</event>
<event>
 7    1  0.1129602E+005  0.1043930E+01  0.7957747E-01            NaN
         13   -1    0    0    0    0  0.00000000000E+00  0.00000000000E+00  0.74505805969E-08  0.10566000000E+00  0.10566000000E+00 0.  1.
     999900   -1    0    0    0    0 -0.00000000000E+00 -0.00000000000E+00 -0.74505805969E-08  0.93827000000E+00  0.93827000000E+00 0.  1.
     999903    2    1    2    0    0 -0.33412217627E-03 -0.33116865396E-01 -0.84721557829E-01  0.93182825929E-01  0.20210350711E-01 0.  0.
         14    1    1    2    0    0  0.22609611198E-01  0.20278959088E-01 -0.51604991244E-01  0.59879093359E-01  0.00000000000E+00 0.  1.
     999901    1    1    2    0    0 -0.22275489022E-01  0.12837906309E-01  0.13632654907E+00  0.89086808071E+00  0.88000000000E+00 0. -1.
        -11    1    3    3    0    0  0.90964372029E-02 -0.11808081630E-01 -0.41140648673E-01  0.43760599354E-01  0.51100000000E-03 0. -1.
         11    1    3    3    0    0 -0.94305593791E-02 -0.21308783766E-01 -0.43580909156E-01  0.49422226575E-01  0.51100000000E-03 0.  1.
</event>
<event>
 8    1  0.1129602E+005  0.1043930E+01  0.7957747E-01            NaN
         13   -1    0    0    0    0  0.00000000000E+00  0.00000000000E+00  0.74505805969E-08  0.10566000000E+00  0.10566000000E+00 0.  1.
     999900   -1    0    0    0    0 -0.00000000000E+00 -0.00000000000E+00 -0.74505805969E-08  0.93827000000E+00  0.93827000000E+00 0.  1.
     999902    2    1    2    0    0  0.82167275202E-02  0.79085998498E-02  0.21228893308E-01  0.10198317330E+01  0.10195469764E+01 0.  0.
     999903    2    3    3    0    0  0.11052770995E+00  0.21087202396E-01  0.67229423617E-01  0.13261289780E+00  0.20133069602E-01 0.  0.
         14    1    1    2    0    0 -0.82167275202E-02 -0.79085998498E-02 -0.21228893308E-01  0.24098267030E-01  0.00000000000E+00 0. -1.
     999901    1    3    3    0    0 -0.10231098243E+00 -0.13178602546E-01 -0.46000530309E-01  0.88721883517E+00  0.88000000000E+00 0.  1.
        -11    1    4    4    0    0  0.16829255256E-01  0.81093376782E-02  0.18120219105E-01  0.26030533062E-01  0.51100000000E-03 0. -1.
         11    1    4    4    0    0  0.93698454693E-01  0.12977864718E-01  0.49109204512E-01  0.10658236474E+00  0.51100000000E-03 0.  1.
</event>
<event>
 8    1  0.1129602E+005  0.1043930E+01  0.7957747E-01            NaN
         13   -1    0    0    0    0  0.00000000000E+00  0.00000000000E+00  0.74505805969E-08  0.10566000000E+00  0.10566000000E+00 0.  1.
     999900   -1    0    0    0    0 -0.00000000000E+00 -0.00000000000E+00 -0.74505805969E-08  0.93827000000E+00  0.93827000000E+00 0. -1.
     999902    2    1    2    0    0 -0.96647690299E-03  0.53406256352E-02  0.24073036593E-01  0.10192527341E+01  0.10189539580E+01 0.  0.
     999903    2    3    3    0    0  0.80721471071E-01  0.41286268453E-02  0.10238552052E+00  0.13200573644E+00  0.20241496698E-01 0.  0.
         14    1    1    2    0    0  0.96647690299E-03 -0.53406256352E-02 -0.24073036593E-01  0.24677265866E-01  0.00000000000E+00 0. -1.
     999901    1    3    3    0    0 -0.81687947974E-01  0.12119987900E-02 -0.78312483926E-01  0.88724699770E+00  0.88000000000E+00 0.  1.
        -11    1    4    4    0    0  0.18382189511E-01 -0.43494860836E-02  0.35263069088E-01  0.40007100406E-01  0.51100000000E-03 0. -1.
         11    1    4    4    0    0  0.62339281560E-01  0.84781129289E-02  0.67122451432E-01  0.91998636030E-01  0.51100000000E-03 0.  1.
</event>
<event>
 8    1  0.1129602E+005  0.1043930E+01  0.7957747E-01            NaN
         13   -1    0    0    0    0  0.00000000000E+00  0.00000000000E+00  0.74505805969E-08  0.10566000000E+00  0.10566000000E+00 0.  1.
     999900   -1    0    0    0    0 -0.00000000000E+00 -0.00000000000E+00 -0.74505805969E-08  0.93827000000E+00  0.93827000000E+00 0. -1.
     999902    2    1    2    0    0 -0.12546952428E-01  0.10252112448E-01 -0.91898415055E-02  0.10253024663E+01  0.10251332413E+01 0.  0.
     999903    2    3    3    0    0  0.11056660681E+00 -0.59367568845E-01  0.37134799026E-01  0.13280606809E+00  0.22560488749E-01 0.  0.
         14    1    1    2    0    0  0.12546952428E-01 -0.10252112448E-01  0.91898415055E-02  0.18627533701E-01  0.00000000000E+00 0. -1.
     999901    1    3    3    0    0 -0.12311355923E+00  0.69619681293E-01 -0.46324640532E-01  0.89249639821E+00  0.88000000000E+00 0. -1.
        -11    1    4    4    0    0  0.22780474285E-01 -0.60350300317E-02 -0.28113364309E-04  0.23571879592E-01  0.51100000000E-03 0. -1.
         11    1    4    4    0    0  0.87786132520E-01 -0.53332538813E-01  0.37162912390E-01  0.10923418850E+00  0.51100000000E-03 0.  1.
</event>
<event>
 8    1  0.1129602E+005  0.1043930E+01  0.7957747E-01            NaN
         13   -1    0    0    0    0  0.00000000000E+00  0.00000000000E+00  0.74505805969E-08  0.10566000000E+00  0.10566000000E+00 0. -1.
     999900   -1    0    0    0    0 -0.00000000000E+00 -0.00000000000E+00 -0.74505805969E-08  0.93827000000E+00  0.93827000000E+00 0. -1.
     999902    2    1    2    0    0  0.13983854596E-01 -0.21414052464E-01  0.78146171519E-02  0.10171871865E+01  0.10168355788E+01 0.  0.
     999903    2    3    3    0    0 -0.87168439078E-02  0.10091484236E-01 -0.12447035624E+00  0.12645308772E+00  0.17879943770E-01 0.  0.
         14    1    1    2    0    0 -0.13983854596E-01  0.21414052464E-01 -0.78146171519E-02  0.26742813493E-01  0.00000000000E+00 0.  1.
     999901    1    3    3    0    0  0.22700698503E-01 -0.31505536701E-01  0.13228497339E+00  0.89073409879E+00  0.88000000000E+00 0.  1.
        -11    1    4    4    0    0  0.49765215436E-02  0.50528722751E-02 -0.55555756758E-01  0.56008932455E-01  0.51100000000E-03 0.  1.
         11    1    4    4    0    0 -0.13693365451E-01  0.50386119613E-02 -0.68914599484E-01  0.70444155265E-01  0.51100000000E-03 0. -1.
</event>
<event>
 8    1  0.1129602E+005  0.1043930E+01  0.7957747E-01            NaN
         13   -1    0    0    0    0  0.00000000000E+00  0.00000000000E+00  0.74505805969E-08  0.10566000000E+00  0.10566000000E+00 0.  1.
     999900   -1    0    0    0    0 -0.00000000000E+00 -0.00000000000E+00 -0.74505805969E-08  0.93827000000E+00  0.93827000000E+00 0.  1.
     999902    2    1    2    0    0 -0.19729018153E-02 -0.20590852895E-01 -0.10640419409E-01  0.10206685708E+01  0.10204034679E+01 0.  0.
     999903    2    3    3    0    0  0.11650191349E+00  0.52093280590E-01 -0.12272087554E-01  0.12975784154E+00  0.20002189348E-01 0.  0.
         14    1    1    2    0    0  0.19729018153E-02  0.20590852895E-01  0.10640419409E-01  0.23261429228E-01  0.00000000000E+00 0.  1.
     999901    1    3    3    0    0 -0.11847481530E+00 -0.72684133485E-01  0.16316681450E-02  0.89091072923E+00  0.88000000000E+00 0.  1.
        -11    1    4    4    0    0  0.82633726494E-01  0.35471636073E-01 -0.17660244522E-01  0.91644503804E-01  0.51100000000E-03 0. -1.
         11    1    4    4    0    0  0.33868186995E-01  0.16621644517E-01  0.53881569674E-02  0.38113337735E-01  0.51100000000E-03 0.  1.
</event>
<event>
 8    1  0.1129602E+005  0.1043930E+01  0.7957747E-01            NaN
         13   -1    0    0    0    0  0.00000000000E+00  0.00000000000E+00  0.74505805969E-08  0.10566000000E+00  0.10566000000E+00 0.  1.
     999900   -1    0    0    0    0 -0.00000000000E+00 -0.00000000000E+00 -0.74505805969E-08  0.93827000000E+00  0.93827000000E+00 0. -1.
     999902    2    1    2    0    0 -0.18182573463E-01  0.14859189320E-01  0.26730061271E-02  0.10202964127E+01  0.10200226583E+01 0.  0.
     999903    2    3    3    0    0  0.37390069938E-01 -0.11799516085E+00 -0.20448524577E-01  0.12829125455E+00  0.26825892772E-01 0.  0.
         14    1    1    2    0    0  0.18182573463E-01 -0.14859189320E-01 -0.26730061271E-02  0.23633587259E-01  0.00000000000E+00 0. -1.
     999901    1    3    3    0    0 -0.55572643401E-01  0.13285435017E+00  0.23121530704E-01  0.89200515819E+00  0.88000000000E+00 0. -1.
        -11    1    4    4    0    0  0.12992473640E-01 -0.27354005686E-01  0.57656242839E-02  0.30830983486E-01  0.51100000000E-03 0. -1.
         11    1    4    4    0    0  0.24397596298E-01 -0.90641155164E-01 -0.26214148860E-01  0.97460271065E-01  0.51100000000E-03 0.  1.
</event>
<event>
 8    1  0.1129602E+005  0.1043930E+01  0.7957747E-01            NaN
         13   -1    0    0    0    0  0.00000000000E+00  0.00000000000E+00  0.74505805969E-08  0.10566000000E+00  0.10566000000E+00 0. -1.
     999900   -1    0    0    0    0 -0.00000000000E+00 -0.00000000000E+00 -0.74505805969E-08  0.93827000000E+00  0.93827000000E+00 0. -1.
     999902    2    1    2    0    0 -0.21482062898E-01  0.45840003394E-02  0.10063750559E-01  0.10197686432E+01  0.10194823758E+01 0.  0.
     999903    2    3    3    0    0  0.17378442745E-01 -0.11504870704E+00  0.53318331085E-01  0.12977252958E+00  0.21444107388E-01 0.  0.
         14    1    1    2    0    0  0.21482062898E-01 -0.45840003394E-02 -0.10063750559E-01  0.24161356767E-01  0.00000000000E+00 0. -1.
     999901    1    3    3    0    0 -0.38860505643E-01  0.11963270738E+00 -0.43254580526E-01  0.88999611365E+00  0.88000000000E+00 0. -1.
        -11    1    4    4    0    0  0.20156218500E-02 -0.78498778822E-01  0.38351151817E-01  0.87391034864E-01  0.51100000000E-03 0. -1.
         11    1    4    4    0    0  0.15362820895E-01 -0.36549928217E-01  0.14967179268E-01  0.42381494720E-01  0.51100000000E-03 0.  1.
</event>
<event>
 8    1  0.1129602E+005  0.1043930E+01  0.7957747E-01            NaN
         13   -1    0    0    0    0  0.00000000000E+00  0.00000000000E+00  0.74505805969E-08  0.10566000000E+00  0.10566000000E+00 0. -1.
     999900   -1    0    0    0    0 -0.00000000000E+00 -0.00000000000E+00 -0.74505805969E-08  0.93827000000E+00  0.93827000000E+00 0. -1.
     999902    2    1    2    0    0  0.11531646558E-01 -0.11771062206E-01 -0.17695646144E-01  0.10197499944E+01  0.10194632796E+01 0.  0.
     999903    2    3    3    0    0  0.26799524823E-01 -0.11193689061E+00  0.58422999184E-01  0.13067162359E+00  0.20340707172E-01 0.  0.
         14    1    1    2    0    0 -0.11531646558E-01  0.11771062206E-01  0.17695646144E-01  0.24180005589E-01  0.00000000000E+00 0. -1.
     999901    1    3    3    0    0 -0.15267878265E-01  0.10016582841E+00 -0.76118645329E-01  0.88907837082E+00  0.88000000000E+00 0. -1.
        -11    1    4    4    0    0  0.25300378067E-01 -0.64049010562E-01  0.37139675709E-01  0.78243220263E-01  0.51100000000E-03 0.  1.
         11    1    4    4    0    0  0.14991467565E-02 -0.47887880051E-01  0.21283323476E-01  0.52428403332E-01  0.51100000000E-03 0. -1.
</event>
<event>
 8    1  0.1129602E+005  0.1043930E+01  0.7957747E-01            NaN
         13   -1    0    0    0    0  0.00000000000E+00  0.00000000000E+00  0.74505805969E-08  0.10566000000E+00  0.10566000000E+00 0.  1.
     999900   -1    0    0    0    0 -0.00000000000E+00 -0.00000000000E+00 -0.74505805969E-08  0.93827000000E+00  0.93827000000E+00 0.  1.
     999902    2    1    2    0    0  0.48403602116E-02  0.16728027453E-01  0.16057545057E-01  0.10202424349E+01  0.10199674138E+01 0.  0.
     999903    2    3    3    0    0  0.57063898865E-01  0.28283203565E-01 -0.11147479107E+00  0.12944205494E+00  0.16504192956E-01 0.  0.
         14    1    1    2    0    0 -0.48403602116E-02 -0.16728027453E-01 -0.16057545057E-01  0.23687565149E-01  0.00000000000E+00 0. -1.
     999901    1    3    3    0    0 -0.52223538654E-01 -0.11555176112E-01  0.12753233613E+00  0.89080037991E+00  0.88000000000E+00 0. -1.
        -11    1    4    4    0    0  0.12594165628E-01  0.54535778175E-02 -0.12552184527E-01  0.18605724288E-01  0.51100000000E-03 0. -1.
         11    1    4    4    0    0  0.44469733238E-01  0.22829625747E-01 -0.98922606548E-01  0.11083633066E+00  0.51100000000E-03 0.  1.
</event>
<event>
 8    1  0.1129602E+005  0.1043930E+01  0.7957747E-01            NaN
         13   -1    0    0    0    0  0.00000000000E+00  0.00000000000E+00  0.74505805969E-08  0.10566000000E+00  0.10566000000E+00 0.  1.
     999900   -1    0    0    0    0 -0.00000000000E+00 -0.00000000000E+00 -0.74505805969E-08  0.93827000000E+00  0.93827000000E+00 0.  1.
     999902    2    1    2    0    0  0.13968309081E-01 -0.80424799399E-02  0.16375494033E-01  0.10209527951E+01  0.10206942039E+01 0.  0.
     999903    2    3    3    0    0  0.96202442162E-01 -0.84672502842E-01  0.32198704934E-01  0.13366198193E+00  0.20110350543E-01 0.  0.
         14    1    1    2    0    0 -0.13968309081E-01  0.80424799399E-02 -0.16375494033E-01  0.22977204943E-01  0.00000000000E+00 0. -1.
     999901    1    3    3    0    0 -0.82234133081E-01  0.76630022903E-01 -0.15823210901E-01  0.88729081313E+00  0.88000000000E+00 0.  1.
        -11    1    4    4    0    0  0.23649384771E-01 -0.27292644471E-01  0.17005800986E-01  0.39920423726E-01  0.51100000000E-03 0.  1.
         11    1    4    4    0    0  0.72553057391E-01 -0.57379858371E-01  0.15192903948E-01  0.93741558206E-01  0.51100000000E-03 0. -1.
</event>
<event>
 8    1  0.1223178E+005  0.1043930E+01  0.7957747E-01            NaN
         13   -1    0    0    0    0  0.00000000000E+00  0.00000000000E+00  0.74505805969E-08  0.10566000000E+00  0.10566000000E+00 0. -1.
     999900   -1    0    0    0    0 -0.00000000000E+00 -0.00000000000E+00 -0.74505805969E-08  0.93827000000E+00  0.93827000000E+00 0.  1.
     999902    2    1    2    0    0 -0.16109222053E-01 -0.91428172509E-02 -0.16892334198E-01  0.10188611130E+01  0.10185526586E+01 0.  0.
     999903    2    3    3    0    0  0.10781327494E+00  0.26793557739E-01  0.57215284572E-01  0.12637013404E+00  0.18820866034E-01 0.  0.
         14    1    1    2    0    0  0.16109222053E-01  0.91428172509E-02  0.16892334198E-01  0.25068887034E-01  0.00000000000E+00 0. -1.
     999901    1    3    3    0    0 -0.12392249699E+00 -0.35936374990E-01 -0.74107618771E-01  0.89249097893E+00  0.88000000000E+00 0.  1.
        -11    1    4    4    0    0  0.57980874043E-01  0.14152453234E-01  0.41184797120E-01  0.72515669494E-01  0.51100000000E-03 0.  1.
         11    1    4    4    0    0  0.49832400898E-01  0.12641104505E-01  0.16030487452E-01  0.53854464544E-01  0.51100000000E-03 0. -1.
</event>
<event>
 8    1  0.1129602E+005  0.1043930E+01  0.7957747E-01            NaN
         13   -1    0    0    0    0  0.00000000000E+00  0.00000000000E+00  0.74505805969E-08  0.10566000000E+00  0.10566000000E+00 0. -1.
     999900   -1    0    0    0    0 -0.00000000000E+00 -0.00000000000E+00 -0.74505805969E-08  0.93827000000E+00  0.93827000000E+00 0. -1.
     999902    2    1    2    0    0  0.62823564890E-02 -0.22664858306E-01  0.33224231202E-02  0.10201770570E+01  0.10199004978E+01 0.  0.
     999903    2    3    3    0    0 -0.11702682124E-01 -0.11775480432E+00 -0.57000922291E-01  0.13281891880E+00  0.19713278305E-01 0.  0.
         14    1    1    2    0    0 -0.62823564890E-02  0.22664858306E-01 -0.33224231202E-02  0.23752942985E-01  0.00000000000E+00 0.  1.
     999901    1    3    3    0    0  0.17985038613E-01  0.95089946012E-01  0.60323345411E-01  0.88735813821E+00  0.88000000000E+00 0.  1.
        -11    1    4    4    0    0  0.41251652080E-02 -0.50715513073E-01 -0.27980985695E-01  0.58071309058E-01  0.51100000000E-03 0. -1.
         11    1    4    4    0    0 -0.15827847332E-01 -0.67039291244E-01 -0.29019936596E-01  0.74747609746E-01  0.51100000000E-03 0.  1.
</event>
<event>
 8    1  0.1129602E+005  0.1043930E+01  0.7957747E-01            NaN
         13   -1    0    0    0    0  0.00000000000E+00  0.00000000000E+00  0.74505805969E-08  0.10566000000E+00  0.10566000000E+00 0.  1.
     999900   -1    0    0    0    0 -0.00000000000E+00 -0.00000000000E+00 -0.74505805969E-08  0.93827000000E+00  0.93827000000E+00 0.  1.
     999902    2    1    2    0    0 -0.19917867941E-01  0.19720530367E-02 -0.12150256892E-01  0.10205154917E+01  0.10202468474E+01 0.  0.
     999903    2    3    3    0    0 -0.63175541944E-01  0.11105558326E+00 -0.29069514747E-01  0.13256464609E+00  0.20096194499E-01 0.  0.
         14    1    1    2    0    0  0.19917867941E-01 -0.19720530367E-02  0.12150256892E-01  0.23414508302E-01  0.00000000000E+00 0.  1.
     999901    1    3    3    0    0  0.43257674003E-01 -0.10908353022E+00  0.16919257855E-01  0.88795084561E+00  0.88000000000E+00 0. -1.
        -11    1    4    4    0    0 -0.47553171622E-01  0.76574909457E-01 -0.11646088723E-01  0.90889567021E-01  0.51100000000E-03 0.  1.
         11    1    4    4    0    0 -0.15622370322E-01  0.34480673801E-01 -0.17423426023E-01  0.41675079071E-01  0.51100000000E-03 0. -1.
</event>
<event>
 8    1  0.1129602E+005  0.1043930E+01  0.7957747E-01            NaN
         13   -1    0    0    0    0  0.00000000000E+00  0.00000000000E+00  0.74505805969E-08  0.10566000000E+00  0.10566000000E+00 0. -1.
     999900   -1    0    0    0    0 -0.00000000000E+00 -0.00000000000E+00 -0.74505805969E-08  0.93827000000E+00  0.93827000000E+00 0.  1.
     999902    2    1    2    0    0 -0.87030917797E-02  0.21481542902E-01  0.54983100860E-02  0.10201091708E+01  0.10198310097E+01 0.  0.
     999903    2    3    3    0    0 -0.72942193464E-01  0.11000504408E+00  0.71642474093E-03  0.13332512778E+00  0.18799019251E-01 0.  0.
         14    1    1    2    0    0  0.87030917797E-02 -0.21481542902E-01 -0.54983100860E-02  0.23820829242E-01  0.00000000000E+00 0.  1.
     999901    1    3    3    0    0  0.64239101684E-01 -0.88523501175E-01  0.47818853451E-02  0.88678404297E+00  0.88000000000E+00 0. -1.
        -11    1    4    4    0    0 -0.17615539996E-01  0.24614333912E-01 -0.76755867759E-02  0.31230568945E-01  0.51100000000E-03 0. -1.
         11    1    4    4    0    0 -0.55326653468E-01  0.85390710164E-01  0.83920115169E-02  0.10209455884E+00  0.51100000000E-03 0.  1.
</event>
<event>
 8    1  0.1129602E+005  0.1043930E+01  0.7957747E-01            NaN
         13   -1    0    0    0    0  0.00000000000E+00  0.00000000000E+00  0.74505805969E-08  0.10566000000E+00  0.10566000000E+00 0. -1.
     999900   -1    0    0    0    0 -0.00000000000E+00 -0.00000000000E+00 -0.74505805969E-08  0.93827000000E+00  0.93827000000E+00 0.  1.
     999902    2    1    2    0    0  0.74795545606E-02  0.67749086286E-03 -0.22401624451E-01  0.10203029920E+01  0.10200293917E+01 0.  0.
     999903    2    3    3    0    0 -0.10388627861E+00  0.74533566611E-01  0.87590410675E-02  0.12966947823E+00  0.19744400459E-01 0.  0.
         14    1    1    2    0    0 -0.74795545606E-02 -0.67749086286E-03  0.22401624451E-01  0.23627008028E-01  0.00000000000E+00 0. -1.
     999901    1    3    3    0    0  0.11136583317E+00 -0.73856075748E-01 -0.31160665519E-01  0.89063351374E+00  0.88000000000E+00 0.  1.
        -11    1    4    4    0    0 -0.69853977572E-01  0.38436819090E-01  0.40815335893E-02  0.79836628698E-01  0.51100000000E-03 0.  1.
         11    1    4    4    0    0 -0.34032301037E-01  0.36096747521E-01  0.46775074782E-02  0.49832849534E-01  0.51100000000E-03 0. -1.
</event>
<event>
 8    1  0.1129602E+005  0.1043930E+01  0.7957747E-01            NaN
         13   -1    0    0    0    0  0.00000000000E+00  0.00000000000E+00  0.74505805969E-08  0.10566000000E+00  0.10566000000E+00 0. -1.
     999900   -1    0    0    0    0 -0.00000000000E+00 -0.00000000000E+00 -0.74505805969E-08  0.93827000000E+00  0.93827000000E+00 0. -1.
     999902    2    1    2    0    0  0.77426152923E-02  0.20033654462E-01  0.21746352237E-01  0.10133653270E+01  0.10129042831E+01 0.  0.
     999903    2    3    3    0    0 -0.63490344042E-01 -0.84914473868E-01 -0.55161062953E-01  0.12095118843E+00  0.18572976523E-01 0.  0.
         14    1    1    2    0    0 -0.77426152923E-02 -0.20033654462E-01 -0.21746352237E-01  0.30564673044E-01  0.00000000000E+00 0.  1.
     999901    1    3    3    0    0  0.71232959335E-01  0.10494812833E+00  0.76907415191E-01  0.89241413853E+00  0.88000000000E+00 0.  1.
        -11    1    4    4    0    0 -0.35990652095E-01 -0.44921809067E-01 -0.19705603116E-01  0.60842977271E-01  0.51100000000E-03 0. -1.
         11    1    4    4    0    0 -0.27499691947E-01 -0.39992664801E-01 -0.35455459837E-01  0.60108211156E-01  0.51100000000E-03 0.  1.
</event>
<event>
 8    1  0.1129602E+005  0.1043930E+01  0.7957747E-01            NaN
         13   -1    0    0    0    0  0.00000000000E+00  0.00000000000E+00  0.74505805969E-08  0.10566000000E+00  0.10566000000E+00 0.  1.
     999900   -1    0    0    0    0 -0.00000000000E+00 -0.00000000000E+00 -0.74505805969E-08  0.93827000000E+00  0.93827000000E+00 0. -1.
     999902    2    1    2    0    0 -0.22064528556E-01 -0.96018791315E-02  0.83255929914E-02  0.10184671839E+01  0.10181488348E+01 0.  0.
     999903    2    3    3    0    0 -0.65897941344E-01 -0.24954831863E-01 -0.10724541157E+00  0.12969626951E+00  0.18821841444E-01 0.  0.
         14    1    1    2    0    0  0.22064528556E-01  0.96018791315E-02 -0.83255929914E-02  0.25462816064E-01  0.00000000000E+00 0.  1.
     999901    1    3    3    0    0  0.43833412789E-01  0.15352952731E-01  0.11557100456E+00  0.88877091443E+00  0.88000000000E+00 0.  1.
        -11    1    4    4    0    0 -0.28978287849E-01 -0.14084352199E-02 -0.39046978843E-01  0.48648253147E-01  0.51100000000E-03 0. -1.
         11    1    4    4    0    0 -0.36919653495E-01 -0.23546396643E-01 -0.68198432727E-01  0.81048016364E-01  0.51100000000E-03 0.  1.
</event>
<event>
 8    1  0.1129602E+005  0.1043930E+01  0.7957747E-01            NaN
         13   -1    0    0    0    0  0.00000000000E+00  0.00000000000E+00  0.74505805969E-08  0.10566000000E+00  0.10566000000E+00 0.  1.
     999900   -1    0    0    0    0 -0.00000000000E+00 -0.00000000000E+00 -0.74505805969E-08  0.93827000000E+00  0.93827000000E+00 0. -1.
     999902    2    1    2    0    0 -0.88519975287E-02 -0.16285766618E-01  0.17961153255E-01  0.10181193998E+01  0.10177921818E+01 0.  0.
     999903    2    3    3    0    0 -0.95238252147E-01  0.76976859637E-01  0.34032082219E-01  0.12883947923E+00  0.21110831231E-01 0.  0.
         14    1    1    2    0    0  0.88519975287E-02  0.16285766618E-01 -0.17961153255E-01  0.25810600164E-01  0.00000000000E+00 0. -1.
     999901    1    3    3    0    0  0.86386254619E-01 -0.93262626255E-01 -0.16070928964E-01  0.88927992061E+00  0.88000000000E+00 0. -1.
        -11    1    4    4    0    0 -0.13649791160E-01  0.21714171707E-01  0.53334285026E-02  0.26201691400E-01  0.51100000000E-03 0. -1.
         11    1    4    4    0    0 -0.81588460988E-01  0.55262687930E-01  0.28698653716E-01  0.10263778783E+00  0.51100000000E-03 0.  1.
</event>
<event>
 8    1  0.1129602E+005  0.1043930E+01  0.7957747E-01            NaN
         13   -1    0    0    0    0  0.00000000000E+00  0.00000000000E+00  0.74505805969E-08  0.10566000000E+00  0.10566000000E+00 0. -1.
     999900   -1    0    0    0    0 -0.00000000000E+00 -0.00000000000E+00 -0.74505805969E-08  0.93827000000E+00  0.93827000000E+00 0. -1.
     999902    2    1    2    0    0  0.86934649080E-02  0.11420709614E-01 -0.18139860582E-01  0.10207985607E+01  0.10205364463E+01 0.  0.
     999903    2    3    3    0    0 -0.10841304713E+00 -0.10634802786E-01  0.66732124472E-01  0.12872029364E+00  0.15787645134E-01 0.  0.
         14    1    1    2    0    0 -0.86934649080E-02 -0.11420709614E-01  0.18139860582E-01  0.23131439257E-01  0.00000000000E+00 0. -1.
     999901    1    3    3    0    0  0.11710651204E+00  0.22055512400E-01 -0.84871985054E-01  0.89207826710E+00  0.88000000000E+00 0.  1.
        -11    1    4    4    0    0 -0.38210037154E-01 -0.57365408726E-02  0.15329296919E-01  0.41571183595E-01  0.51100000000E-03 0.  1.
         11    1    4    4    0    0 -0.70203009981E-01 -0.48982619135E-02  0.51402827553E-01  0.87149110045E-01  0.51100000000E-03 0. -1.
</event>
<event>
 8    1  0.1129602E+005  0.1043930E+01  0.7957747E-01            NaN
         13   -1    0    0    0    0  0.00000000000E+00  0.00000000000E+00  0.74505805969E-08  0.10566000000E+00  0.10566000000E+00 0.  1.
     999900   -1    0    0    0    0 -0.00000000000E+00 -0.00000000000E+00 -0.74505805969E-08  0.93827000000E+00  0.93827000000E+00 0. -1.
     999902    2    1    2    0    0  0.37095116418E-02  0.42819274709E-02  0.23493493389E-01  0.10197630885E+01  0.10194766879E+01 0.  0.
     999903    2    3    3    0    0 -0.16227704275E-01 -0.12310148096E-03 -0.12389227037E+00  0.12727249460E+00  0.24199993464E-01 0.  0.
         14    1    1    2    0    0 -0.37095116418E-02 -0.42819274709E-02 -0.23493493389E-01  0.24166911493E-01  0.00000000000E+00 0. -1.
     999901    1    3    3    0    0  0.19937215917E-01  0.44050289518E-02  0.14738576376E+00  0.89249059391E+00  0.88000000000E+00 0.  1.
        -11    1    4    4    0    0 -0.23077552166E-02 -0.68442605885E-02 -0.10063196932E-01  0.12397527602E-01  0.51100000000E-03 0. -1.
         11    1    4    4    0    0 -0.13919949058E-01  0.67211591076E-02 -0.11382907344E+00  0.11487496700E+00  0.51100000000E-03 0.  1.
</event>
<event>
 8    1  0.1129602E+005  0.1043930E+01  0.7957747E-01            NaN
         13   -1    0    0    0    0  0.00000000000E+00  0.00000000000E+00  0.74505805969E-08  0.10566000000E+00  0.10566000000E+00 0.  1.
     999900   -1    0    0    0    0 -0.00000000000E+00 -0.00000000000E+00 -0.74505805969E-08  0.93827000000E+00  0.93827000000E+00 0. -1.
     999902    2    1    2    0    0 -0.32380141335E-02  0.23201918087E-01  0.53684914284E-02  0.10198959733E+01  0.10196127510E+01 0.  0.
     999903    2    3    3    0    0  0.42349474320E-01  0.10432304431E+00 -0.66353150704E-01  0.13208808296E+00  0.19176691645E-01 0.  0.
         14    1    1    2    0    0  0.32380141335E-02 -0.23201918087E-01 -0.53684914284E-02  0.24034026685E-01  0.00000000000E+00 0. -1.
     999901    1    3    3    0    0 -0.45587488454E-01 -0.81121126225E-01  0.71721642133E-01  0.88780789035E+00  0.88000000000E+00 0.  1.
        -11    1    4    4    0    0  0.31213397713E-01  0.92066341516E-01 -0.60567256220E-01  0.11453881911E+00  0.51100000000E-03 0. -1.
         11    1    4    4    0    0  0.11136076607E-01  0.12256702796E-01 -0.57858944844E-02  0.17549263849E-01  0.51100000000E-03 0.  1.
</event>
<event>
 8    1  0.1129602E+005  0.1043930E+01  0.7957747E-01            NaN
         13   -1    0    0    0    0  0.00000000000E+00  0.00000000000E+00  0.74505805969E-08  0.10566000000E+00  0.10566000000E+00 0. -1.
     999900   -1    0    0    0    0 -0.00000000000E+00 -0.00000000000E+00 -0.74505805969E-08  0.93827000000E+00  0.93827000000E+00 0.  1.
     999902    2    1    2    0    0 -0.13048641157E-01  0.13043188330E-01 -0.15253006717E-01  0.10199916205E+01  0.10197106746E+01 0.  0.
     999903    2    3    3    0    0  0.10577888168E+00  0.46124204698E-01 -0.56998358841E-01  0.13040912955E+00  0.21002716280E-01 0.  0.
         14    1    1    2    0    0  0.13048641157E-01 -0.13043188330E-01  0.15253006717E-01  0.23938379473E-01  0.00000000000E+00 0. -1.
     999901    1    3    3    0    0 -0.11882752284E+00 -0.33081016367E-01  0.41745352124E-01  0.88958249098E+00  0.88000000000E+00 0. -1.
        -11    1    4    4    0    0  0.47946866188E-01  0.21109255061E-01 -0.37571885481E-01  0.64470228214E-01  0.51100000000E-03 0. -1.
         11    1    4    4    0    0  0.57832015492E-01  0.25014949637E-01 -0.19426473361E-01  0.65938901336E-01  0.51100000000E-03 0.  1.
</event>
<event>
 8    1  0.1129602E+005  0.1043930E+01  0.7957747E-01            NaN
         13   -1    0    0    0    0  0.00000000000E+00  0.00000000000E+00  0.74505805969E-08  0.10566000000E+00  0.10566000000E+00 0. -1.
     999900   -1    0    0    0    0 -0.00000000000E+00 -0.00000000000E+00 -0.74505805969E-08  0.93827000000E+00  0.93827000000E+00 0. -1.
     999902    2    1    2    0    0  0.23547335029E-01  0.10622194744E-02 -0.10064986657E-02  0.10203372397E+01  0.10200644413E+01 0.  0.
     999903    2    3    3    0    0  0.68936977408E-01 -0.10338314016E+00 -0.41579201005E-01  0.13207196576E+00  0.16546711411E-01 0.  0.
         14    1    1    2    0    0 -0.23547335029E-01 -0.10622194744E-02  0.10064986657E-02  0.23592760261E-01  0.00000000000E+00 0. -1.
     999901    1    3    3    0    0 -0.45389642379E-01  0.10444535964E+00  0.40572702340E-01  0.88826527398E+00  0.88000000000E+00 0.  1.
        -11    1    4    4    0    0  0.45085431746E-01 -0.58308364286E-01 -0.31138911539E-01  0.80015338744E-01  0.51100000000E-03 0.  1.
         11    1    4    4    0    0  0.23851545662E-01 -0.45074775878E-01 -0.10440289466E-01  0.52056627014E-01  0.51100000000E-03 0. -1.
</event>
<event>
 8    1  0.1129602E+005  0.1043930E+01  0.7957747E-01            NaN
         13   -1    0    0    0    0  0.00000000000E+00  0.00000000000E+00  0.74505805969E-08  0.10566000000E+00  0.10566000000E+00 0.  1.
     999900   -1    0    0    0    0 -0.00000000000E+00 -0.00000000000E+00 -0.74505805969E-08  0.93827000000E+00  0.93827000000E+00 0.  1.
     999902    2    1    2    0    0  0.69153946501E-02 -0.52220176609E-02  0.21513312386E-01  0.10207370105E+01  0.10204734832E+01 0.  0.
     999903    2    3    3    0    0 -0.52571833037E-01  0.68732604818E-01  0.98251580583E-01  0.13231325000E+00  0.19116862797E-01 0.  0.
         14    1    1    2    0    0 -0.69153946501E-02  0.52220176609E-02 -0.21513312386E-01  0.23192989489E-01  0.00000000000E+00 0. -1.
     999901    1    3    3    0    0  0.59487227687E-01 -0.73954622478E-01 -0.76738268198E-01  0.88842376052E+00  0.88000000000E+00 0.  1.
        -11    1    4    4    0    0 -0.20486568758E-01  0.13342478333E-01  0.30697595806E-01  0.39246971053E-01  0.51100000000E-03 0. -1.
         11    1    4    4    0    0 -0.32085264279E-01  0.55390126485E-01  0.67553984778E-01  0.93066278942E-01  0.51100000000E-03 0.  1.
</event>
<event>
 8    1  0.1129602E+005  0.1043930E+01  0.7957747E-01            NaN
         13   -1    0    0    0    0  0.00000000000E+00  0.00000000000E+00  0.74505805969E-08  0.10566000000E+00  0.10566000000E+00 0.  1.
     999900   -1    0    0    0    0 -0.00000000000E+00 -0.00000000000E+00 -0.74505805969E-08  0.93827000000E+00  0.93827000000E+00 0.  1.
     999902    2    1    2    0    0 -0.17886006306E-01  0.14955110618E-01 -0.40655196820E-02  0.10202637159E+01  0.10199891945E+01 0.  0.
     999903    2    3    3    0    0  0.51666801496E-01  0.30578950917E-01 -0.11419641472E+00  0.13053875189E+00  0.19874958980E-01 0.  0.
         14    1    1    2    0    0  0.17886006306E-01 -0.14955110618E-01  0.40655196820E-02  0.23666284149E-01  0.00000000000E+00 0. -1.
     999901    1    3    3    0    0 -0.69552807802E-01 -0.15623840299E-01  0.11013089503E+00  0.88972496396E+00  0.88000000000E+00 0. -1.
        -11    1    4    4    0    0  0.31172890506E-01  0.85995052774E-02 -0.48508828010E-01  0.58301527505E-01  0.51100000000E-03 0.  1.
         11    1    4    4    0    0  0.20493910990E-01  0.21979445639E-01 -0.65687586705E-01  0.72237224382E-01  0.51100000000E-03 0. -1.
</event>
<event>
 8    1  0.1129602E+005  0.1043930E+01  0.7957747E-01            NaN
         13   -1    0    0    0    0  0.00000000000E+00  0.00000000000E+00  0.74505805969E-08  0.10566000000E+00  0.10566000000E+00 0.  1.
     999900   -1    0    0    0    0 -0.00000000000E+00 -0.00000000000E+00 -0.74505805969E-08  0.93827000000E+00  0.93827000000E+00 0.  1.
     999902    2    1    2    0    0  0.19739025877E-01 -0.11954778070E-01  0.56536189154E-02  0.10201705962E+01  0.10198938847E+01 0.  0.
     999903    2    3    3    0    0 -0.55863395523E-01 -0.11592538548E+00 -0.12489568197E-01  0.13064556084E+00  0.18784549403E-01 0.  0.
         14    1    1    2    0    0 -0.19739025877E-01  0.11954778070E-01 -0.56536189154E-02  0.23759403783E-01  0.00000000000E+00 0. -1.
     999901    1    3    3    0    0  0.75602421400E-01  0.10397060741E+00  0.18143187112E-01  0.88952503538E+00  0.88000000000E+00 0.  1.
        -11    1    4    4    0    0 -0.10366798243E-01 -0.27549438529E-01 -0.10400157157E-01  0.31222851551E-01  0.51100000000E-03 0.  1.
         11    1    4    4    0    0 -0.45496597280E-01 -0.88375946946E-01 -0.20894110395E-02  0.99422709288E-01  0.51100000000E-03 0. -1.
</event>
<event>
 8    1  0.1129602E+005  0.1043930E+01  0.7957747E-01            NaN
         13   -1    0    0    0    0  0.00000000000E+00  0.00000000000E+00  0.74505805969E-08  0.10566000000E+00  0.10566000000E+00 0.  1.
     999900   -1    0    0    0    0 -0.00000000000E+00 -0.00000000000E+00 -0.74505805969E-08  0.93827000000E+00  0.93827000000E+00 0. -1.
     999902    2    1    2    0    0 -0.11282903989E-01 -0.78701222377E-02 -0.19264053959E-01  0.10202583604E+01  0.10199837133E+01 0.  0.
     999903    2    3    3    0    0  0.65298518155E-01  0.58640636211E-01  0.90577025373E-01  0.12764788661E+00  0.19676502292E-01 0.  0.
         14    1    1    2    0    0  0.11282903989E-01  0.78701222377E-02  0.19264053959E-01  0.23671639601E-01  0.00000000000E+00 0. -1.
     999901    1    3    3    0    0 -0.76581422144E-01 -0.66510758448E-01 -0.10984107933E+00  0.89261047379E+00  0.88000000000E+00 0. -1.
        -11    1    4    4    0    0  0.34862565189E-01  0.27637511650E-01  0.59195025265E-01  0.74050946239E-01  0.51100000000E-03 0.  1.
         11    1    4    4    0    0  0.30435952966E-01  0.31003124561E-01  0.31382000108E-01  0.53596940372E-01  0.51100000000E-03 0. -1.
</event>
<event>
 8    1  0.1129602E+005  0.1043930E+01  0.7957747E-01            NaN
         13   -1    0    0    0    0  0.00000000000E+00  0.00000000000E+00  0.74505805969E-08  0.10566000000E+00  0.10566000000E+00 0.  1.
     999900   -1    0    0    0    0 -0.00000000000E+00 -0.00000000000E+00 -0.74505805969E-08  0.93827000000E+00  0.93827000000E+00 0. -1.
     999902    2    1    2    0    0  0.62825579859E-02  0.79940085771E-02  0.21611942819E-01  0.10200458885E+01  0.10197662300E+01 0.  0.
     999903    2    3    3    0    0 -0.87981717080E-02 -0.10155753501E+00 -0.74692372852E-01  0.12791165518E+00  0.19776254094E-01 0.  0.
         14    1    1    2    0    0 -0.62825579859E-02 -0.79940085771E-02 -0.21611942819E-01  0.23884111463E-01  0.00000000000E+00 0. -1.
     999901    1    3    3    0    0  0.15080729694E-01  0.10955154359E+00  0.96304315672E-01  0.89213423336E+00  0.88000000000E+00 0.  1.
        -11    1    4    4    0    0  0.35383583633E-02 -0.54620540351E-01 -0.46229354467E-01  0.71647314978E-01  0.51100000000E-03 0. -1.
         11    1    4    4    0    0 -0.12336530071E-01 -0.46936994658E-01 -0.28463018386E-01  0.56264340202E-01  0.51100000000E-03 0.  1.
</event>
<event>
 8    1  0.1129602E+005  0.1043930E+01  0.7957747E-01            NaN
         13   -1    0    0    0    0  0.00000000000E+00  0.00000000000E+00  0.74505805969E-08  0.10566000000E+00  0.10566000000E+00 0.  1.
     999900   -1    0    0    0    0 -0.00000000000E+00 -0.00000000000E+00 -0.74505805969E-08  0.93827000000E+00  0.93827000000E+00 0. -1.
     999902    2    1    2    0    0  0.20237945971E-01 -0.21641213675E-02  0.90446690360E-02  0.10216575076E+01  0.10214147047E+01 0.  0.
     999903    2    3    3    0    0 -0.14101436341E-01  0.20903775907E-01  0.12818284042E+00  0.13266638003E+00  0.23102152722E-01 0.  0.
         14    1    1    2    0    0 -0.20237945971E-01  0.21641213675E-02 -0.90446690360E-02  0.22272492371E-01  0.00000000000E+00 0.  1.
     999901    1    3    3    0    0  0.34339382312E-01 -0.23067897274E-01 -0.11913817138E+00  0.88899112759E+00  0.88000000000E+00 0. -1.
        -11    1    4    4    0    0 -0.88589242554E-02  0.14448087659E-01  0.32827456315E-01  0.36947676315E-01  0.51100000000E-03 0.  1.
         11    1    4    4    0    0 -0.52425120851E-02  0.64556882474E-02  0.95355384101E-01  0.95718703720E-01  0.51100000000E-03 0. -1.
</event>
<event>
 8    1  0.1129602E+005  0.1043930E+01  0.7957747E-01            NaN
         13   -1    0    0    0    0  0.00000000000E+00  0.00000000000E+00  0.74505805969E-08  0.10566000000E+00  0.10566000000E+00 0.  1.
     999900   -1    0    0    0    0 -0.00000000000E+00 -0.00000000000E+00 -0.74505805969E-08  0.93827000000E+00  0.93827000000E+00 0.  1.
     999902    2    1    2    0    0 -0.10013321854E-02  0.13041752168E-01  0.57300773630E-02  0.10296498126E+01  0.10295507821E+01 0.  0.
     999903    2    3    3    0    0 -0.13717455522E+00  0.61096003791E-02  0.10640054458E-01  0.13913574237E+00  0.19782776033E-01 0.  0.
         14    1    1    2    0    0  0.10013321854E-02 -0.13041752168E-01 -0.57300773630E-02  0.14280187405E-01  0.00000000000E+00 0. -1.
     999901    1    3    3    0    0  0.13617322304E+00  0.69321517884E-02 -0.49099770950E-02  0.89051407023E+00  0.88000000000E+00 0. -1.
        -11    1    4    4    0    0 -0.89100010799E-01 -0.44833817409E-02  0.25921812505E-02  0.89251852423E-01  0.51100000000E-03 0. -1.
         11    1    4    4    0    0 -0.48074544423E-01  0.10592982120E-01  0.80478732075E-02  0.49883889943E-01  0.51100000000E-03 0.  1.
</event>
<event>
 8    1  0.1129602E+005  0.1043930E+01  0.7957747E-01            NaN
         13   -1    0    0    0    0  0.00000000000E+00  0.00000000000E+00  0.74505805969E-08  0.10566000000E+00  0.10566000000E+00 0.  1.
     999900   -1    0    0    0    0 -0.00000000000E+00 -0.00000000000E+00 -0.74505805969E-08  0.93827000000E+00  0.93827000000E+00 0.  1.
     999902    2    1    2    0    0  0.66504100867E-02 -0.86145159076E-02  0.20929596048E-01  0.10203400481E+01  0.10200673154E+01 0.  0.
     999903    2    3    3    0    0 -0.59797043398E-01 -0.76874000324E-01 -0.82488269189E-01  0.12917795505E+00  0.19933168140E-01 0.  0.
         14    1    1    2    0    0 -0.66504100867E-02  0.86145159076E-02 -0.20929596048E-01  0.23589951873E-01  0.00000000000E+00 0.  1.
     999901    1    3    3    0    0  0.66447453485E-01  0.68259484417E-01  0.10341786524E+00  0.89116209308E+00  0.88000000000E+00 0. -1.
        -11    1    4    4    0    0 -0.13819430958E-01 -0.22040989838E-01 -0.11729379733E-01  0.28541572749E-01  0.51100000000E-03 0. -1.
         11    1    4    4    0    0 -0.45977612440E-01 -0.54833010486E-01 -0.70758889456E-01  0.10063638230E+00  0.51100000000E-03 0.  1.
</event>
<event>
 8    1  0.1129602E+005  0.1043930E+01  0.7957747E-01            NaN
         13   -1    0    0    0    0  0.00000000000E+00  0.00000000000E+00  0.74505805969E-08  0.10566000000E+00  0.10566000000E+00 0. -1.
     999900   -1    0    0    0    0 -0.00000000000E+00 -0.00000000000E+00 -0.74505805969E-08  0.93827000000E+00  0.93827000000E+00 0.  1.
     999902    2    1    2    0    0  0.16343660325E-01 -0.13992040937E-01  0.10639834840E-01  0.10199279474E+01  0.10196454871E+01 0.  0.
     999903    2    3    3    0    0 -0.71069801075E-01  0.92668976186E-01  0.49353771999E-01  0.12834707351E+00  0.19967991755E-01 0.  0.
         14    1    1    2    0    0 -0.16343660325E-01  0.13992040937E-01 -0.10639834840E-01  0.24002052575E-01  0.00000000000E+00 0.  1.
     999901    1    3    3    0    0  0.87413461400E-01 -0.10666101712E+00 -0.38713937159E-01  0.89158087392E+00  0.88000000000E+00 0. -1.
        -11    1    4    4    0    0 -0.61221296388E-02  0.19972768031E-01  0.67472563880E-02  0.21958563794E-01  0.51100000000E-03 0. -1.
         11    1    4    4    0    0 -0.64947671437E-01  0.72696208155E-01  0.42606515611E-01  0.10638850971E+00  0.51100000000E-03 0.  1.
</event>
<event>
 8    1  0.1129602E+005  0.1043930E+01  0.7957747E-01            NaN
         13   -1    0    0    0    0  0.00000000000E+00  0.00000000000E+00  0.74505805969E-08  0.10566000000E+00  0.10566000000E+00 0.  1.
     999900   -1    0    0    0    0 -0.00000000000E+00 -0.00000000000E+00 -0.74505805969E-08  0.93827000000E+00  0.93827000000E+00 0. -1.
     999902    2    1    2    0    0  0.34726276175E-02  0.23463486099E-01  0.18741541991E-01  0.10137002180E+01  0.10132493732E+01 0.  0.
     999903    2    3    3    0    0  0.45359795755E-01  0.11044623951E+00  0.42837459352E-01  0.12809243379E+00  0.17797212669E-01 0.  0.
         14    1    1    2    0    0 -0.34726276175E-02 -0.23463486099E-01 -0.18741541991E-01  0.30229781983E-01  0.00000000000E+00 0. -1.
     999901    1    3    3    0    0 -0.41887168138E-01 -0.86982753409E-01 -0.24095917361E-01  0.88560778422E+00  0.88000000000E+00 0. -1.
        -11    1    4    4    0    0  0.65236639152E-02  0.36283067303E-01  0.10367940910E-01  0.38298491922E-01  0.51100000000E-03 0. -1.
         11    1    4    4    0    0  0.38836131840E-01  0.74163172205E-01  0.32469518443E-01  0.89793941871E-01  0.51100000000E-03 0.  1.
</event>
<event>
 8    1  0.1129602E+005  0.1043930E+01  0.7957747E-01            NaN
         13   -1    0    0    0    0  0.00000000000E+00  0.00000000000E+00  0.74505805969E-08  0.10566000000E+00  0.10566000000E+00 0.  1.
     999900   -1    0    0    0    0 -0.00000000000E+00 -0.00000000000E+00 -0.74505805969E-08  0.93827000000E+00  0.93827000000E+00 0. -1.
     999902    2    1    2    0    0  0.23504234331E-01 -0.27406183678E-02 -0.26567121228E-03  0.10202650343E+01  0.10199905439E+01 0.  0.
     999903    2    3    3    0    0  0.12019626564E-01  0.12114767000E+00 -0.44201686997E-01  0.13042764595E+00  0.15373754513E-01 0.  0.
         14    1    1    2    0    0 -0.23504234331E-01  0.27406183678E-02  0.26567121228E-03  0.23664965703E-01  0.00000000000E+00 0. -1.
     999901    1    3    3    0    0  0.11484607766E-01 -0.12388828836E+00  0.43936015785E-01  0.88983738834E+00  0.88000000000E+00 0.  1.
        -11    1    4    4    0    0  0.60718776193E-02  0.92471618151E-01 -0.27297348502E-01  0.96608872354E-01  0.51100000000E-03 0.  1.
         11    1    4    4    0    0  0.59477489450E-02  0.28676051845E-01 -0.16904338495E-01  0.33818773601E-01  0.51100000000E-03 0. -1.
</event>
<event>
 8    1  0.1129602E+005  0.1043930E+01  0.7957747E-01            NaN
         13   -1    0    0    0    0  0.00000000000E+00  0.00000000000E+00  0.74505805969E-08  0.10566000000E+00  0.10566000000E+00 0.  1.
     999900   -1    0    0    0    0 -0.00000000000E+00 -0.00000000000E+00 -0.74505805969E-08  0.93827000000E+00  0.93827000000E+00 0.  1.
     999902    2    1    2    0    0  0.49737836951E-02 -0.22265522267E-01  0.54467469347E-02  0.10204745303E+01  0.10202049343E+01 0.  0.
     999903    2    3    3    0    0 -0.86764824922E-01 -0.95857386368E-01 -0.19296071282E-01  0.13230566021E+00  0.20388133574E-01 0.  0.
         14    1    1    2    0    0 -0.49737836951E-02  0.22265522267E-01 -0.54467469347E-02  0.23455469687E-01  0.00000000000E+00 0.  1.
     999901    1    3    3    0    0  0.91738608618E-01  0.73591864101E-01  0.24742818217E-01  0.88816887011E+00  0.88000000000E+00 0.  1.
        -11    1    4    4    0    0 -0.76264926295E-01 -0.72419329428E-01 -0.16655941232E-01  0.10648276742E+00  0.51100000000E-03 0.  1.
         11    1    4    4    0    0 -0.10499898627E-01 -0.23438056939E-01 -0.26401300503E-02  0.25822892788E-01  0.51100000000E-03 0. -1.
</event>
<event>
 8    1  0.1129602E+005  0.1043930E+01  0.7957747E-01            NaN
         13   -1    0    0    0    0  0.00000000000E+00  0.00000000000E+00  0.74505805969E-08  0.10566000000E+00  0.10566000000E+00 0.  1.
     999900   -1    0    0    0    0 -0.00000000000E+00 -0.00000000000E+00 -0.74505805969E-08  0.93827000000E+00  0.93827000000E+00 0.  1.
     999902    2    1    2    0    0 -0.71997393838E-02 -0.20783711898E-01  0.12676596057E-01  0.10185430936E+01  0.10182266636E+01 0.  0.
     999903    2    3    3    0    0 -0.42024679707E-01 -0.69216760098E-01 -0.97845095640E-01  0.12962601034E+00  0.25926940303E-01 0.  0.
         14    1    1    2    0    0  0.71997393838E-02  0.20783711898E-01 -0.12676596057E-01  0.25386906370E-01  0.00000000000E+00 0. -1.
     999901    1    3    3    0    0  0.34824940323E-01  0.48433048200E-01  0.11052169170E+00  0.88891708329E+00  0.88000000000E+00 0. -1.
        -11    1    4    4    0    0 -0.25143734441E-01 -0.30188328025E-01 -0.29509409686E-01  0.49138670227E-01  0.51100000000E-03 0.  1.
         11    1    4    4    0    0 -0.16880945266E-01 -0.39028432073E-01 -0.68335685953E-01  0.80487340115E-01  0.51100000000E-03 0. -1.
</event>
<event>
 8    1  0.1272225E+005  0.1043930E+01  0.7957747E-01            NaN
         13   -1    0    0    0    0  0.00000000000E+00  0.00000000000E+00  0.74505805969E-08  0.10566000000E+00  0.10566000000E+00 0. -1.
     999900   -1    0    0    0    0 -0.00000000000E+00 -0.00000000000E+00 -0.74505805969E-08  0.93827000000E+00  0.93827000000E+00 0.  1.
     999902    2    1    2    0    0 -0.16367746170E-03  0.44590590491E-03 -0.23901084178E-01  0.10200241964E+01  0.10197440236E+01 0.  0.
     999903    2    3    3    0    0  0.97243577553E-01  0.83814037772E-01  0.79918448221E-02  0.13016152288E+00  0.19926016985E-01 0.  0.
         14    1    1    2    0    0  0.16367746170E-03 -0.44590590491E-03  0.23901084178E-01  0.23905803632E-01  0.00000000000E+00 0. -1.
     999901    1    3    3    0    0 -0.97407255014E-01 -0.83368131867E-01 -0.31892929000E-01  0.88986267348E+00  0.88000000000E+00 0.  1.
        -11    1    4    4    0    0  0.35589097211E-01  0.34869210329E-01  0.12297899417E-01  0.51321975024E-01  0.51100000000E-03 0.  1.
         11    1    4    4    0    0  0.61654480341E-01  0.48944827443E-01 -0.43060545945E-02  0.78839547860E-01  0.51100000000E-03 0. -1.
</event>
<event>
 8    1  0.1129602E+005  0.1043930E+01  0.7957747E-01            NaN
         13   -1    0    0    0    0  0.00000000000E+00  0.00000000000E+00  0.74505805969E-08  0.10566000000E+00  0.10566000000E+00 0. -1.
     999900   -1    0    0    0    0 -0.00000000000E+00 -0.00000000000E+00 -0.74505805969E-08  0.93827000000E+00  0.93827000000E+00 0. -1.
     999902    2    1    2    0    0  0.16483575236E-01 -0.16200635145E-01 -0.13393607627E-02  0.10207791314E+01  0.10205165713E+01 0.  0.
     999903    2    3    3    0    0 -0.20885710729E-01 -0.58672529840E-01 -0.11438440758E+00  0.13174622534E+00  0.19864453796E-01 0.  0.
         14    1    1    2    0    0 -0.16483575236E-01  0.16200635145E-01  0.13393607627E-02  0.23150868643E-01  0.00000000000E+00 0.  1.
     999901    1    3    3    0    0  0.37369285965E-01  0.42471894695E-01  0.11304504681E+00  0.88903290602E+00  0.88000000000E+00 0.  1.
        -11    1    4    4    0    0 -0.14379397348E-01 -0.55999720867E-01 -0.96149330970E-01  0.11219487855E+00  0.51100000000E-03 0. -1.
         11    1    4    4    0    0 -0.65063133812E-02 -0.26728089729E-02 -0.18235076605E-01  0.19551346793E-01  0.51100000000E-03 0.  1.
</event>
<event>
 8    1  0.1129602E+005  0.1043930E+01  0.7957747E-01            NaN
         13   -1    0    0    0    0  0.00000000000E+00  0.00000000000E+00  0.74505805969E-08  0.10566000000E+00  0.10566000000E+00 0.  1.
     999900   -1    0    0    0    0 -0.00000000000E+00 -0.00000000000E+00 -0.74505805969E-08  0.93827000000E+00  0.93827000000E+00 0. -1.
     999902    2    1    2    0    0 -0.28322417802E-02 -0.21477467868E-01  0.94757208005E-02  0.10202848630E+01  0.10200108378E+01 0.  0.
     999903    2    3    3    0    0  0.84142913647E-02 -0.43706026356E-02  0.12996754857E+00  0.13183823550E+00  0.19996354419E-01 0.  0.
         14    1    1    2    0    0  0.28322417802E-02  0.21477467868E-01 -0.94757208005E-02  0.23645137010E-01  0.00000000000E+00 0. -1.
     999901    1    3    3    0    0 -0.11246533145E-01 -0.17106865233E-01 -0.12049182777E+00  0.88844662749E+00  0.88000000000E+00 0. -1.
        -11    1    4    4    0    0  0.10864847684E-01 -0.10603946667E-01  0.98233110006E-01  0.99400672143E-01  0.51100000000E-03 0. -1.
         11    1    4    4    0    0 -0.24505563197E-02  0.62333440312E-02  0.31734438567E-01  0.32437563353E-01  0.51100000000E-03 0.  1.
</event>
<event>
 8    1  0.1129602E+005  0.1043930E+01  0.7957747E-01            NaN
         13   -1    0    0    0    0  0.00000000000E+00  0.00000000000E+00  0.74505805969E-08  0.10566000000E+00  0.10566000000E+00 0. -1.
     999900   -1    0    0    0    0 -0.00000000000E+00 -0.00000000000E+00 -0.74505805969E-08  0.93827000000E+00  0.93827000000E+00 0.  1.
     999902    2    1    2    0    0  0.71193938792E-02 -0.30426611178E-02  0.23697518096E-01  0.10189997790E+01  0.10186947696E+01 0.  0.
     999903    2    3    3    0    0 -0.14963736748E-01  0.99011140392E-01 -0.76660961700E-01  0.12716208774E+00  0.16314845093E-01 0.  0.
         14    1    1    2    0    0 -0.71193938792E-02  0.30426611178E-02 -0.23697518096E-01  0.24930221014E-01  0.00000000000E+00 0.  1.
     999901    1    3    3    0    0  0.22083130627E-01 -0.10205380151E+00  0.10035847980E+00  0.89183769125E+00  0.88000000000E+00 0.  1.
        -11    1    4    4    0    0 -0.12214483940E-01  0.56380750114E-01 -0.34934065364E-01  0.67443551546E-01  0.51100000000E-03 0. -1.
         11    1    4    4    0    0 -0.27492528077E-02  0.42630390278E-01 -0.41726896336E-01  0.59718536193E-01  0.51100000000E-03 0.  1.
</event>
<event>
 8    1  0.1129602E+005  0.1043930E+01  0.7957747E-01            NaN
         13   -1    0    0    0    0  0.00000000000E+00  0.00000000000E+00  0.74505805969E-08  0.10566000000E+00  0.10566000000E+00 0.  1.
     999900   -1    0    0    0    0 -0.00000000000E+00 -0.00000000000E+00 -0.74505805969E-08  0.93827000000E+00  0.93827000000E+00 0. -1.
     999902    2    1    2    0    0  0.23426016847E-02  0.22185492178E-01 -0.14303954731E-01  0.10174293025E+01  0.10170841158E+01 0.  0.
     999903    2    3    3    0    0 -0.31547795465E-01  0.12288021801E+00  0.21883334985E-01  0.13030050310E+00  0.20112915749E-01 0.  0.
         14    1    1    2    0    0 -0.23426016847E-02 -0.22185492178E-01  0.14303954731E-01  0.26500697478E-01  0.00000000000E+00 0.  1.
     999901    1    3    3    0    0  0.33890397150E-01 -0.10069472584E+00 -0.36187289716E-01  0.88712879942E+00  0.88000000000E+00 0. -1.
        -11    1    4    4    0    0 -0.60399515094E-02  0.15216832380E-01 -0.35730198068E-02  0.16764861869E-01  0.51100000000E-03 0.  1.
         11    1    4    4    0    0 -0.25507843956E-01  0.10766338563E+00  0.25456354792E-01  0.11353564123E+00  0.51100000000E-03 0. -1.
</event>
<event>
 8    1  0.1129602E+005  0.1043930E+01  0.7957747E-01            NaN
         13   -1    0    0    0    0  0.00000000000E+00  0.00000000000E+00  0.74505805969E-08  0.10566000000E+00  0.10566000000E+00 0. -1.
     999900   -1    0    0    0    0 -0.00000000000E+00 -0.00000000000E+00 -0.74505805969E-08  0.93827000000E+00  0.93827000000E+00 0. -1.
     999902    2    1    2    0    0 -0.18453598953E-02 -0.66373081214E-02  0.20236351318E-01  0.10225531638E+01  0.10223296942E+01 0.  0.
     999903    2    3    3    0    0  0.11080624596E+00 -0.50831965517E-01 -0.45956374299E-01  0.13180907653E+00  0.19993285204E-01 0.  0.
         14    1    1    2    0    0  0.18453598953E-02  0.66373081214E-02 -0.20236351318E-01  0.21376836223E-01  0.00000000000E+00 0.  1.
     999901    1    3    3    0    0 -0.11265160586E+00  0.44194657396E-01  0.66192725617E-01  0.89074408725E+00  0.88000000000E+00 0.  1.
        -11    1    4    4    0    0  0.54797017219E-01 -0.14225673370E-01 -0.20247544840E-01  0.60127423627E-01  0.51100000000E-03 0. -1.
         11    1    4    4    0    0  0.56009228745E-01 -0.36606292147E-01 -0.25708829459E-01  0.71681652900E-01  0.51100000000E-03 0.  1.
</event>
<event>
 8    1  0.1129602E+005  0.1043930E+01  0.7957747E-01            NaN
         13   -1    0    0    0    0  0.00000000000E+00  0.00000000000E+00  0.74505805969E-08  0.10566000000E+00  0.10566000000E+00 0. -1.
     999900   -1    0    0    0    0 -0.00000000000E+00 -0.00000000000E+00 -0.74505805969E-08  0.93827000000E+00  0.93827000000E+00 0. -1.
     999902    2    1    2    0    0 -0.55670955620E-02  0.11786153689E-01 -0.20946522685E-01  0.10192589079E+01  0.10189602831E+01 0.  0.
     999903    2    3    3    0    0 -0.11036455229E-01  0.12712360873E+00 -0.14682363517E-01  0.13169376546E+00  0.29076808996E-01 0.  0.
         14    1    1    2    0    0  0.55670955620E-02 -0.11786153689E-01  0.20946522685E-01  0.24671092079E-01  0.00000000000E+00 0. -1.
     999901    1    3    3    0    0  0.54693596669E-02 -0.11533745504E+00 -0.62641591681E-02  0.88756514247E+00  0.88000000000E+00 0.  1.
        -11    1    4    4    0    0  0.60682008059E-02  0.39378787455E-01  0.49866447123E-02  0.40157685553E-01  0.51100000000E-03 0. -1.
         11    1    4    4    0    0 -0.17104656035E-01  0.87744821273E-01 -0.19669008229E-01  0.91536079903E-01  0.51100000000E-03 0.  1.
</event>
<event>
 8    1  0.1129602E+005  0.1043930E+01  0.7957747E-01            NaN
         13   -1    0    0    0    0  0.00000000000E+00  0.00000000000E+00  0.74505805969E-08  0.10566000000E+00  0.10566000000E+00 0.  1.
     999900   -1    0    0    0    0 -0.00000000000E+00 -0.00000000000E+00 -0.74505805969E-08  0.93827000000E+00  0.93827000000E+00 0.  1.
     999902    2    1    2    0    0 -0.33892561771E-02 -0.53770396235E-02  0.23566209525E-01  0.10195216849E+01  0.10192294640E+01 0.  0.
     999903    2    3    3    0    0 -0.12055465518E+00 -0.26059872568E-01  0.41064466817E-01  0.13134281821E+00  0.18764424206E-01 0.  0.
         14    1    1    2    0    0  0.33892561771E-02  0.53770396235E-02 -0.23566209525E-01  0.24408315057E-01  0.00000000000E+00 0. -1.
     999901    1    3    3    0    0  0.11716539901E+00  0.20682832945E-01 -0.17498257293E-01  0.88817886673E+00  0.88000000000E+00 0. -1.
        -11    1    4    4    0    0 -0.52806622858E-01 -0.18828026875E-01  0.12377351234E-01  0.57415102180E-01  0.51100000000E-03 0. -1.
         11    1    4    4    0    0 -0.67748032325E-01 -0.72318456928E-02  0.28687115583E-01  0.73927716031E-01  0.51100000000E-03 0.  1.
</event>
<event>
 8    1  0.1129602E+005  0.1043930E+01  0.7957747E-01            NaN
         13   -1    0    0    0    0  0.00000000000E+00  0.00000000000E+00  0.74505805969E-08  0.10566000000E+00  0.10566000000E+00 0.  1.
     999900   -1    0    0    0    0 -0.00000000000E+00 -0.00000000000E+00 -0.74505805969E-08  0.93827000000E+00  0.93827000000E+00 0.  1.
     999902    2    1    2    0    0  0.37667246814E-02  0.44424301647E-02 -0.23875414121E-01  0.10193544268E+01  0.10190581380E+01 0.  0.
     999903    2    3    3    0    0 -0.53661781555E-01 -0.33757026352E-01  0.10815732943E+00  0.12683558821E+00  0.19238890259E-01 0.  0.
         14    1    1    2    0    0 -0.37667246814E-02 -0.44424301647E-02  0.23875414121E-01  0.24575573239E-01  0.00000000000E+00 0.  1.
     999901    1    3    3    0    0  0.57428506237E-01  0.38199456517E-01 -0.13203274355E+00  0.89251883856E+00  0.88000000000E+00 0.  1.
        -11    1    4    4    0    0 -0.36401966525E-01 -0.20157969360E-01  0.52477572328E-01  0.66974649040E-01  0.51100000000E-03 0. -1.
         11    1    4    4    0    0 -0.17259815031E-01 -0.13599056992E-01  0.55679757100E-01  0.59860939165E-01  0.51100000000E-03 0.  1.
</event>
<event>
 8    1  0.1129602E+005  0.1043930E+01  0.7957747E-01            NaN
         13   -1    0    0    0    0  0.00000000000E+00  0.00000000000E+00  0.74505805969E-08  0.10566000000E+00  0.10566000000E+00 0. -1.
     999900   -1    0    0    0    0 -0.00000000000E+00 -0.00000000000E+00 -0.74505805969E-08  0.93827000000E+00  0.93827000000E+00 0.  1.
     999902    2    1    2    0    0  0.14094231247E-01  0.17896236964E-01  0.60899995550E-02  0.10203501199E+01  0.10200776227E+01 0.  0.
     999903    2    3    3    0    0  0.58079389925E-01 -0.55217895265E-02 -0.11521905402E+00  0.13063163371E+00  0.19633838741E-01 0.  0.
         14    1    1    2    0    0 -0.14094231247E-01 -0.17896236964E-01 -0.60899995550E-02  0.23579880121E-01  0.00000000000E+00 0.  1.
     999901    1    3    3    0    0 -0.43985158678E-01  0.23418026491E-01  0.12130905357E+00  0.88971848617E+00  0.88000000000E+00 0. -1.
        -11    1    4    4    0    0  0.42070034726E-01 -0.62502375801E-02 -0.99350240623E-01  0.10807259007E+00  0.51100000000E-03 0.  1.
         11    1    4    4    0    0  0.16009355198E-01  0.72844805366E-03 -0.15868813396E-01  0.22559043642E-01  0.51100000000E-03 0. -1.
</event>
<event>
 8    1  0.1129602E+005  0.1043930E+01  0.7957747E-01            NaN
         13   -1    0    0    0    0  0.00000000000E+00  0.00000000000E+00  0.74505805969E-08  0.10566000000E+00  0.10566000000E+00 0.  1.
     999900   -1    0    0    0    0 -0.00000000000E+00 -0.00000000000E+00 -0.74505805969E-08  0.93827000000E+00  0.93827000000E+00 0. -1.
     999902    2    1    2    0    0 -0.98553652128E-02 -0.14826626042E-01 -0.15405467702E-01  0.10203867314E+01  0.10201150896E+01 0.  0.
     999903    2    3    3    0    0 -0.12551168853E-01  0.11998186902E+00 -0.43298705265E-01  0.12967991629E+00  0.19721107431E-01 0.  0.
         14    1    1    2    0    0  0.98553652128E-02  0.14826626042E-01  0.15405467702E-01  0.23543268643E-01  0.00000000000E+00 0.  1.
     999901    1    3    3    0    0  0.26958036401E-02 -0.13480849507E+00  0.27893237562E-01  0.89070681506E+00  0.88000000000E+00 0. -1.
        -11    1    4    4    0    0 -0.79134946090E-02  0.52412244429E-01 -0.29122277134E-01  0.60481690696E-01  0.51100000000E-03 0.  1.
         11    1    4    4    0    0 -0.46376742439E-02  0.67569624595E-01 -0.14176428131E-01  0.69198225597E-01  0.51100000000E-03 0. -1.
</event>
<event>
 8    1  0.1129602E+005  0.1043930E+01  0.7957747E-01            NaN
         13   -1    0    0    0    0  0.00000000000E+00  0.00000000000E+00  0.74505805969E-08  0.10566000000E+00  0.10566000000E+00 0.  1.
     999900   -1    0    0    0    0 -0.00000000000E+00 -0.00000000000E+00 -0.74505805969E-08  0.93827000000E+00  0.93827000000E+00 0.  1.
     999902    2    1    2    0    0  0.31089618863E-02 -0.96702554592E-03  0.23687659583E-01  0.10200196257E+01  0.10197393446E+01 0.  0.
     999903    2    3    3    0    0  0.12580223723E+00 -0.51431763029E-02 -0.26021147881E-01  0.13010836856E+00  0.19960768505E-01 0.  0.
         14    1    1    2    0    0 -0.31089618863E-02  0.96702554592E-03 -0.23687659583E-01  0.23910374295E-01  0.00000000000E+00 0. -1.
     999901    1    3    3    0    0 -0.12269327534E+00  0.41761507570E-02  0.49708807464E-01  0.88991125714E+00  0.88000000000E+00 0.  1.
        -11    1    4    4    0    0  0.11597100713E+00  0.16521076715E-03 -0.21042487673E-01  0.11786581013E+00  0.51100000000E-03 0.  1.
         11    1    4    4    0    0  0.98312300979E-02 -0.53083870700E-02 -0.49786602077E-02  0.12242558433E-01  0.51100000000E-03 0. -1.
</event>
<event>
 8    1  0.1129602E+005  0.1043930E+01  0.7957747E-01            NaN
         13   -1    0    0    0    0  0.00000000000E+00  0.00000000000E+00  0.74505805969E-08  0.10566000000E+00  0.10566000000E+00 0. -1.
     999900   -1    0    0    0    0 -0.00000000000E+00 -0.00000000000E+00 -0.74505805969E-08  0.93827000000E+00  0.93827000000E+00 0. -1.
     999902    2    1    2    0    0 -0.12724677296E-01  0.19211565911E-01  0.52636516520E-02  0.10202930013E+01  0.10200191669E+01 0.  0.
     999903    2    3    3    0    0  0.87493527477E-01 -0.24962963330E-02  0.93960527533E-01  0.12990990646E+00  0.19663525034E-01 0.  0.
         14    1    1    2    0    0  0.12724677296E-01 -0.19211565911E-01 -0.52636516520E-02  0.23636998662E-01  0.00000000000E+00 0. -1.
     999901    1    3    3    0    0 -0.10021820477E+00  0.21707862244E-01 -0.88696875881E-01  0.89038309488E+00  0.88000000000E+00 0.  1.
        -11    1    4    4    0    0  0.14884275321E-01 -0.77925153958E-02  0.20062205965E-01  0.26172851912E-01  0.51100000000E-03 0.  1.
         11    1    4    4    0    0  0.72609252156E-01  0.52962190629E-02  0.73898321568E-01  0.10373705455E+00  0.51100000000E-03 0. -1.
</event>
<event>
 8    1  0.1129602E+005  0.1043930E+01  0.7957747E-01            NaN
         13   -1    0    0    0    0  0.00000000000E+00  0.00000000000E+00  0.74505805969E-08  0.10566000000E+00  0.10566000000E+00 0. -1.
     999900   -1    0    0    0    0 -0.00000000000E+00 -0.00000000000E+00 -0.74505805969E-08  0.93827000000E+00  0.93827000000E+00 0.  1.
     999902    2    1    2    0    0 -0.57850879975E-02 -0.17687944426E-02  0.22535383821E-01  0.10205967747E+01  0.10203300139E+01 0.  0.
     999903    2    3    3    0    0 -0.41527299025E-01 -0.11874233511E+00  0.34763872841E-01  0.13205310626E+00  0.20130506861E-01 0.  0.
         14    1    1    2    0    0  0.57850879975E-02  0.17687944426E-02 -0.22535383821E-01  0.23333225257E-01  0.00000000000E+00 0.  1.
     999901    1    3    3    0    0  0.35742211028E-01  0.11697354066E+00 -0.12228489020E-01  0.88854366849E+00  0.88000000000E+00 0.  1.
        -11    1    4    4    0    0 -0.35354857644E-01 -0.87563800327E-01  0.18063481597E-01  0.96145387696E-01  0.51100000000E-03 0. -1.
         11    1    4    4    0    0 -0.61724413811E-02 -0.31178534778E-01  0.16700391244E-01  0.35907718561E-01  0.51100000000E-03 0.  1.
</event>
<event>
 8    1  0.1129602E+005  0.1043930E+01  0.7957747E-01            NaN
         13   -1    0    0    0    0  0.00000000000E+00  0.00000000000E+00  0.74505805969E-08  0.10566000000E+00  0.10566000000E+00 0.  1.
     999900   -1    0    0    0    0 -0.00000000000E+00 -0.00000000000E+00 -0.74505805969E-08  0.93827000000E+00  0.93827000000E+00 0. -1.
     999902    2    1    2    0    0 -0.10106056054E-01 -0.57508551591E-02  0.19912968404E-01  0.10208707065E+01  0.10206102432E+01 0.  0.
     999903    2    3    3    0    0 -0.12102757408E+00 -0.36601756561E-01  0.37181807359E-01  0.13320321583E+00  0.19319617895E-01 0.  0.
         14    1    1    2    0    0  0.10106056054E-01  0.57508551591E-02 -0.19912968404E-01  0.23059293456E-01  0.00000000000E+00 0. -1.
     999901    1    3    3    0    0  0.11092151803E+00  0.30850901402E-01 -0.17268838955E-01  0.88766749072E+00  0.88000000000E+00 0.  1.
        -11    1    4    4    0    0 -0.97105111808E-01 -0.36951470601E-01  0.28382827633E-01  0.10770635981E+00  0.51100000000E-03 0. -1.
         11    1    4    4    0    0 -0.23922462276E-01  0.34971403980E-03  0.87989797259E-02  0.25496856012E-01  0.51100000000E-03 0.  1.
</event>
<event>
 8    1  0.1129602E+005  0.1043930E+01  0.7957747E-01            NaN
         13   -1    0    0    0    0  0.00000000000E+00  0.00000000000E+00  0.74505805969E-08  0.10566000000E+00  0.10566000000E+00 0. -1.
     999900   -1    0    0    0    0 -0.00000000000E+00 -0.00000000000E+00 -0.74505805969E-08  0.93827000000E+00  0.93827000000E+00 0.  1.
     999902    2    1    2    0    0 -0.21097436931E-01  0.91255591025E-02 -0.36594543653E-02  0.10206540622E+01  0.10203886247E+01 0.  0.
     999903    2    3    3    0    0  0.16028580102E-01  0.18587601550E-01 -0.12730007900E+00  0.13118518954E+00  0.20045686056E-01 0.  0.
         14    1    1    2    0    0  0.21097436931E-01 -0.91255591025E-02  0.36594543653E-02  0.23275937795E-01  0.00000000000E+00 0. -1.
     999901    1    3    3    0    0 -0.37126017033E-01 -0.94620424474E-02  0.12364062463E+00  0.88946887267E+00  0.88000000000E+00 0. -1.
        -11    1    4    4    0    0  0.20849861733E-02  0.37176449633E-02 -0.73895325417E-01  0.74019918204E-01  0.51100000000E-03 0. -1.
         11    1    4    4    0    0  0.13943593928E-01  0.14869956587E-01 -0.53404753580E-01  0.57165271332E-01  0.51100000000E-03 0.  1.
</event>
<event>
 8    1  0.1129602E+005  0.1043930E+01  0.7957747E-01            NaN
         13   -1    0    0    0    0  0.00000000000E+00  0.00000000000E+00  0.74505805969E-08  0.10566000000E+00  0.10566000000E+00 0.  1.
     999900   -1    0    0    0    0 -0.00000000000E+00 -0.00000000000E+00 -0.74505805969E-08  0.93827000000E+00  0.93827000000E+00 0.  1.
     999902    2    1    2    0    0  0.92356159502E-02  0.12911278460E-01 -0.14110208527E-01  0.10226909864E+01  0.10224704191E+01 0.  0.
     999903    2    3    3    0    0  0.22660871576E-01  0.12968297526E+00 -0.23330330636E-01  0.13482789037E+00  0.17408805866E-01 0.  0.
         14    1    1    2    0    0 -0.92356159502E-02 -0.12911278460E-01  0.14110208527E-01  0.21239013586E-01  0.00000000000E+00 0.  1.
     999901    1    3    3    0    0 -0.13425255626E-01 -0.11677169680E+00  0.92201221092E-02  0.88786309604E+00  0.88000000000E+00 0.  1.
        -11    1    4    4    0    0  0.16895140875E-01  0.56942878649E-01 -0.15840025796E-01  0.61474423562E-01  0.51100000000E-03 0. -1.
         11    1    4    4    0    0  0.57657307014E-02  0.72740096610E-01 -0.74903048397E-02  0.73353466810E-01  0.51100000000E-03 0.  1.
</event>
<event>
 8    1  0.1129602E+005  0.1043930E+01  0.7957747E-01            NaN
         13   -1    0    0    0    0  0.00000000000E+00  0.00000000000E+00  0.74505805969E-08  0.10566000000E+00  0.10566000000E+00 0.  1.
     999900   -1    0    0    0    0 -0.00000000000E+00 -0.00000000000E+00 -0.74505805969E-08  0.93827000000E+00  0.93827000000E+00 0.  1.
     999902    2    1    2    0    0  0.20239727074E-01  0.22887266481E-02 -0.11674644013E-01  0.10204527315E+01  0.10201826283E+01 0.  0.
     999903    2    3    3    0    0  0.41224604660E-01  0.28567846131E-01 -0.12154039000E+00  0.13298361131E+00  0.19924472787E-01 0.  0.
         14    1    1    2    0    0 -0.20239727074E-01 -0.22887266481E-02  0.11674644013E-01  0.23477268464E-01  0.00000000000E+00 0. -1.
     999901    1    3    3    0    0 -0.20984877586E-01 -0.26279119483E-01  0.10986574598E+00  0.88746912022E+00  0.88000000000E+00 0. -1.
        -11    1    4    4    0    0  0.22158353823E-01  0.25642348672E-01 -0.87803439530E-01  0.94118158736E-01  0.51100000000E-03 0.  1.
         11    1    4    4    0    0  0.19066250837E-01  0.29254974591E-02 -0.33736950465E-01  0.38865452578E-01  0.51100000000E-03 0. -1.
</event>
<event>
 8    1  0.1129602E+005  0.1043930E+01  0.7957747E-01            NaN
         13   -1    0    0    0    0  0.00000000000E+00  0.00000000000E+00  0.74505805969E-08  0.10566000000E+00  0.10566000000E+00 0.  1.
     999900   -1    0    0    0    0 -0.00000000000E+00 -0.00000000000E+00 -0.74505805969E-08  0.93827000000E+00  0.93827000000E+00 0. -1.
     999902    2    1    2    0    0 -0.11280987860E-01  0.13162582313E-02  0.20085672882E-01  0.10208556099E+01  0.10205948015E+01 0.  0.
     999903    2    3    3    0    0  0.55853063728E-01  0.11653121893E+00  0.34655026250E-03  0.13059098576E+00  0.18836022739E-01 0.  0.
         14    1    1    2    0    0  0.11280987860E-01 -0.13162582313E-02 -0.20085672882E-01  0.23074390089E-01  0.00000000000E+00 0. -1.
     999901    1    3    3    0    0 -0.67134051589E-01 -0.11521496070E+00  0.19739122619E-01  0.89026462415E+00  0.88000000000E+00 0.  1.
        -11    1    4    4    0    0  0.16023090035E-01  0.50326597449E-01  0.57940663165E-02  0.53135093399E-01  0.51100000000E-03 0. -1.
         11    1    4    4    0    0  0.39829973694E-01  0.66204621478E-01 -0.54475160540E-02  0.77455892362E-01  0.51100000000E-03 0.  1.
</event>
<event>
 8    1  0.1129602E+005  0.1043930E+01  0.7957747E-01            NaN
         13   -1    0    0    0    0  0.00000000000E+00  0.00000000000E+00  0.74505805969E-08  0.10566000000E+00  0.10566000000E+00 0. -1.
     999900   -1    0    0    0    0 -0.00000000000E+00 -0.00000000000E+00 -0.74505805969E-08  0.93827000000E+00  0.93827000000E+00 0. -1.
     999902    2    1    2    0    0 -0.16461792672E-01  0.13192534267E-01 -0.93855915018E-02  0.10208405456E+01  0.10205793926E+01 0.  0.
     999903    2    3    3    0    0  0.60237828464E-02 -0.58524090245E-01  0.11327230831E+00  0.12916020165E+00  0.19758207414E-01 0.  0.
         14    1    1    2    0    0  0.16461792672E-01 -0.13192534267E-01  0.93855915018E-02  0.23089454437E-01  0.00000000000E+00 0.  1.
     999901    1    3    3    0    0 -0.22485575519E-01  0.71716624511E-01 -0.12265789982E+00  0.89168034392E+00  0.88000000000E+00 0. -1.
        -11    1    4    4    0    0 -0.66080816986E-02 -0.16326775849E-01  0.26118825746E-01  0.31506896590E-01  0.51100000000E-03 0.  1.
         11    1    4    4    0    0  0.12631864545E-01 -0.42197314395E-01  0.87153482568E-01  0.97653305058E-01  0.51100000000E-03 0. -1.
</event>
<event>
 8    1  0.1129602E+005  0.1043930E+01  0.7957747E-01            NaN
         13   -1    0    0    0    0  0.00000000000E+00  0.00000000000E+00  0.74505805969E-08  0.10566000000E+00  0.10566000000E+00 0. -1.
     999900   -1    0    0    0    0 -0.00000000000E+00 -0.00000000000E+00 -0.74505805969E-08  0.93827000000E+00  0.93827000000E+00 0.  1.
     999902    2    1    2    0    0 -0.19728450778E-01  0.42274323262E-02 -0.43356684698E-02  0.10232931161E+01  0.10230850016E+01 0.  0.
     999903    2    3    3    0    0 -0.34843839343E-01  0.30977578824E-01  0.12337544799E+00  0.13354361512E+00  0.20944986120E-01 0.  0.
         14    1    1    2    0    0  0.19728450778E-01 -0.42274323262E-02  0.43356684698E-02  0.20636883855E-01  0.00000000000E+00 0.  1.
     999901    1    3    3    0    0  0.15115388564E-01 -0.26750146498E-01 -0.12771111645E+00  0.88974950103E+00  0.88000000000E+00 0.  1.
        -11    1    4    4    0    0 -0.13501791498E-01  0.18084280969E-01  0.34452097790E-01  0.41189170360E-01  0.51100000000E-03 0. -1.
         11    1    4    4    0    0 -0.21342047845E-01  0.12893297855E-01  0.88923350195E-01  0.92354444759E-01  0.51100000000E-03 0.  1.
</event>
<event>
 8    1  0.1129602E+005  0.1043930E+01  0.7957747E-01            NaN
         13   -1    0    0    0    0  0.00000000000E+00  0.00000000000E+00  0.74505805969E-08  0.10566000000E+00  0.10566000000E+00 0.  1.
     999900   -1    0    0    0    0 -0.00000000000E+00 -0.00000000000E+00 -0.74505805969E-08  0.93827000000E+00  0.93827000000E+00 0. -1.
     999902    2    1    2    0    0 -0.30978956689E-02 -0.23413948644E-01 -0.33629156603E-02  0.10200737817E+01  0.10197947838E+01 0.  0.
     999903    2    3    3    0    0  0.58837934785E-01  0.10765022228E+00 -0.31755343693E-01  0.12776218034E+00  0.16257304413E-01 0.  0.
         14    1    1    2    0    0  0.30978956689E-02  0.23413948644E-01  0.33629156603E-02  0.23856218276E-01  0.00000000000E+00 0.  1.
     999901    1    3    3    0    0 -0.61935830454E-01 -0.13106417092E+00  0.28392428033E-01  0.89231160138E+00  0.88000000000E+00 0. -1.
        -11    1    4    4    0    0  0.71139926554E-02  0.18041034727E-01  0.43088260209E-03  0.19404499641E-01  0.51100000000E-03 0. -1.
         11    1    4    4    0    0  0.51723942129E-01  0.89609187548E-01 -0.32186226295E-01  0.10835768070E+00  0.51100000000E-03 0.  1.
</event>
<event>
 8    1  0.1129602E+005  0.1043930E+01  0.7957747E-01            NaN
         13   -1    0    0    0    0  0.00000000000E+00  0.00000000000E+00  0.74505805969E-08  0.10566000000E+00  0.10566000000E+00 0. -1.
     999900   -1    0    0    0    0 -0.00000000000E+00 -0.00000000000E+00 -0.74505805969E-08  0.93827000000E+00  0.93827000000E+00 0. -1.
     999902    2    1    2    0    0  0.12461898309E-01  0.17506937802E-01  0.10823828733E-01  0.10198686815E+01  0.10195848079E+01 0.  0.
     999903    2    3    3    0    0  0.10196481984E+00 -0.36938187832E-01  0.71605180955E-01  0.13157288758E+00  0.20563769176E-01 0.  0.
         14    1    1    2    0    0 -0.12461898309E-01 -0.17506937802E-01 -0.10823828733E-01  0.24061318524E-01  0.00000000000E+00 0. -1.
     999901    1    3    3    0    0 -0.89502921530E-01  0.54445125634E-01 -0.60781352222E-01  0.88829579389E+00  0.88000000000E+00 0.  1.
        -11    1    4    4    0    0  0.42779607438E-01 -0.48963876314E-02  0.29026030260E-01  0.51931117628E-01  0.51100000000E-03 0.  1.
         11    1    4    4    0    0  0.59185212400E-01 -0.32041800200E-01  0.42579150695E-01  0.79641769957E-01  0.51100000000E-03 0. -1.
</event>
<event>
 8    1  0.1129602E+005  0.1043930E+01  0.7957747E-01            NaN
         13   -1    0    0    0    0  0.00000000000E+00  0.00000000000E+00  0.74505805969E-08  0.10566000000E+00  0.10566000000E+00 0. -1.
     999900   -1    0    0    0    0 -0.00000000000E+00 -0.00000000000E+00 -0.74505805969E-08  0.93827000000E+00  0.93827000000E+00 0.  1.
     999902    2    1    2    0    0  0.10183005772E-01  0.13996199717E-01 -0.16755268974E-01  0.10198400384E+01  0.10195554804E+01 0.  0.
     999903    2    3    3    0    0  0.78277085019E-02  0.12797634759E+00  0.21524610308E-01  0.13166079368E+00  0.20785504079E-01 0.  0.
         14    1    1    2    0    0 -0.10183005772E-01 -0.13996199717E-01  0.16755268974E-01  0.24089961633E-01  0.00000000000E+00 0. -1.
     999901    1    3    3    0    0  0.23552972699E-02 -0.11398014788E+00 -0.38279879282E-01  0.88817924469E+00  0.88000000000E+00 0. -1.
        -11    1    4    4    0    0  0.14764686919E-01  0.83236585222E-01  0.16140849296E-01  0.86064587585E-01  0.51100000000E-03 0.  1.
         11    1    4    4    0    0 -0.69369784166E-02  0.44739762372E-01  0.53837610121E-02  0.45596206095E-01  0.51100000000E-03 0. -1.
</event>
<event>
 8    1  0.1129602E+005  0.1043930E+01  0.7957747E-01            NaN
         13   -1    0    0    0    0  0.00000000000E+00  0.00000000000E+00  0.74505805969E-08  0.10566000000E+00  0.10566000000E+00 0. -1.
     999900   -1    0    0    0    0 -0.00000000000E+00 -0.00000000000E+00 -0.74505805969E-08  0.93827000000E+00  0.93827000000E+00 0.  1.
     999902    2    1    2    0    0  0.92762261878E-02 -0.34596607829E-02  0.17742270194E-01  0.10236123777E+01  0.10234107162E+01 0.  0.
     999903    2    3    3    0    0 -0.11457298889E+00  0.40812412689E-01  0.50589266167E-01  0.13323180191E+00  0.19970387483E-01 0.  0.
         14    1    1    2    0    0 -0.92762261878E-02  0.34596607829E-02 -0.17742270194E-01  0.20317622318E-01  0.00000000000E+00 0.  1.
     999901    1    3    3    0    0  0.12384921508E+00 -0.44272073472E-01 -0.32846995973E-01  0.89038057577E+00  0.88000000000E+00 0.  1.
        -11    1    4    4    0    0 -0.57822282290E-01  0.10757193633E-01  0.20241623066E-01  0.62202234441E-01  0.51100000000E-03 0. -1.
         11    1    4    4    0    0 -0.56750706601E-01  0.30055219056E-01  0.30347643102E-01  0.71029567470E-01  0.51100000000E-03 0.  1.
</event>
<event>
 8    1  0.1129602E+005  0.1043930E+01  0.7957747E-01            NaN
         13   -1    0    0    0    0  0.00000000000E+00  0.00000000000E+00  0.74505805969E-08  0.10566000000E+00  0.10566000000E+00 0.  1.
     999900   -1    0    0    0    0 -0.00000000000E+00 -0.00000000000E+00 -0.74505805969E-08  0.93827000000E+00  0.93827000000E+00 0.  1.
     999902    2    1    2    0    0  0.63419203291E-02 -0.31870543562E-03  0.22842332504E-01  0.10202214851E+01  0.10199459716E+01 0.  0.
     999903    2    3    3    0    0  0.96639969924E-01 -0.86403679984E-01  0.45914422348E-02  0.13123472722E+00  0.19914632465E-01 0.  0.
         14    1    1    2    0    0 -0.63419203291E-02  0.31870543562E-03 -0.22842332504E-01  0.23708514944E-01  0.00000000000E+00 0. -1.
     999901    1    3    3    0    0 -0.90298049595E-01  0.86084974549E-01  0.18250890270E-01  0.88898675783E+00  0.88000000000E+00 0. -1.
        -11    1    4    4    0    0  0.44018875517E-01 -0.31190094508E-01  0.95888538252E-02  0.54796812278E-01  0.51100000000E-03 0.  1.
         11    1    4    4    0    0  0.52621094407E-01 -0.55213585476E-01 -0.49974115904E-02  0.76437914946E-01  0.51100000000E-03 0. -1.
</event>
<event>
 8    1  0.1129602E+005  0.1043930E+01  0.7957747E-01            NaN
         13   -1    0    0    0    0  0.00000000000E+00  0.00000000000E+00  0.74505805969E-08  0.10566000000E+00  0.10566000000E+00 0.  1.
     999900   -1    0    0    0    0 -0.00000000000E+00 -0.00000000000E+00 -0.74505805969E-08  0.93827000000E+00  0.93827000000E+00 0. -1.
     999902    2    1    2    0    0 -0.10925353535E-01  0.94845073779E-02  0.18680264015E-01  0.10203022305E+01  0.10200286123E+01 0.  0.
     999903    2    3    3    0    0  0.10028008087E+00 -0.60766735910E-01 -0.47591489868E-01  0.12806132622E+00  0.19648474558E-01 0.  0.
         14    1    1    2    0    0  0.10925353535E-01 -0.94845073779E-02 -0.18680264015E-01  0.23627769547E-01  0.00000000000E+00 0. -1.
     999901    1    3    3    0    0 -0.11120543441E+00  0.70251243288E-01  0.66271753883E-01  0.89224090423E+00  0.88000000000E+00 0.  1.
        -11    1    4    4    0    0  0.70637061955E-01 -0.48199786984E-01 -0.26344617488E-01  0.89482478612E-01  0.51100000000E-03 0.  1.
         11    1    4    4    0    0  0.29643018917E-01 -0.12566948926E-01 -0.21246872380E-01  0.38578847608E-01  0.51100000000E-03 0. -1.
</event>
<event>
 8    1  0.1129602E+005  0.1043930E+01  0.7957747E-01            NaN
         13   -1    0    0    0    0  0.00000000000E+00  0.00000000000E+00  0.74505805969E-08  0.10566000000E+00  0.10566000000E+00 0.  1.
     999900   -1    0    0    0    0 -0.00000000000E+00 -0.00000000000E+00 -0.74505805969E-08  0.93827000000E+00  0.93827000000E+00 0. -1.
     999902    2    1    2    0    0  0.18101344114E-01  0.63373100115E-03 -0.14332401658E-01  0.10208328571E+01  0.10205715282E+01 0.  0.
     999903    2    3    3    0    0 -0.80872921250E-01  0.91402707200E-02 -0.10071768590E+00  0.13104036231E+00  0.20088562905E-01 0.  0.
         14    1    1    2    0    0 -0.18101344114E-01 -0.63373100115E-03  0.14332401658E-01  0.23097142919E-01  0.00000000000E+00 0.  1.
     999901    1    3    3    0    0  0.98974265364E-01 -0.85065397189E-02  0.86385284246E-01  0.88979249477E+00  0.88000000000E+00 0.  1.
        -11    1    4    4    0    0 -0.55484536915E-01  0.17776850343E-02 -0.80361370531E-01  0.97672437235E-01  0.51100000000E-03 0.  1.
         11    1    4    4    0    0 -0.25388384335E-01  0.73625856857E-02 -0.20356315373E-01  0.33367925073E-01  0.51100000000E-03 0. -1.
</event>
<event>
 8    1  0.1129602E+005  0.1043930E+01  0.7957747E-01            NaN
         13   -1    0    0    0    0  0.00000000000E+00  0.00000000000E+00  0.74505805969E-08  0.10566000000E+00  0.10566000000E+00 0.  1.
     999900   -1    0    0    0    0 -0.00000000000E+00 -0.00000000000E+00 -0.74505805969E-08  0.93827000000E+00  0.93827000000E+00 0. -1.
     999902    2    1    2    0    0 -0.21105007289E-02  0.20146193099E-01  0.12774277325E-01  0.10199820257E+01  0.10197008519E+01 0.  0.
     999903    2    3    3    0    0  0.11881725940E+00  0.20951919344E-01 -0.43804304022E-01  0.12991163065E+00  0.20042222178E-01 0.  0.
         14    1    1    2    0    0  0.21105007289E-02 -0.20146193099E-01 -0.12774277325E-01  0.23947974254E-01  0.00000000000E+00 0.  1.
     999901    1    3    3    0    0 -0.12092776013E+00 -0.80572624518E-03  0.56578581348E-01  0.89007039510E+00  0.88000000000E+00 0.  1.
        -11    1    4    4    0    0  0.18395032338E-01 -0.31678547404E-02 -0.32406964839E-02  0.18951932700E-01  0.51100000000E-03 0. -1.
         11    1    4    4    0    0  0.10042222707E+00  0.24119774084E-01 -0.40563607538E-01  0.11095969795E+00  0.51100000000E-03 0.  1.
</event>
<event>
 8    1  0.1129602E+005  0.1043930E+01  0.7957747E-01            NaN
         13   -1    0    0    0    0  0.00000000000E+00  0.00000000000E+00  0.74505805969E-08  0.10566000000E+00  0.10566000000E+00 0.  1.
     999900   -1    0    0    0    0 -0.00000000000E+00 -0.00000000000E+00 -0.74505805969E-08  0.93827000000E+00  0.93827000000E+00 0. -1.
     999902    2    1    2    0    0 -0.73905140864E-02  0.20361444871E-03 -0.22753066110E-01  0.10200058872E+01  0.10197252800E+01 0.  0.
     999903    2    3    3    0    0 -0.32576600929E-01 -0.12339622255E+00 -0.18836673443E-01  0.13100273936E+00  0.22782334963E-01 0.  0.
         14    1    1    2    0    0  0.73905140864E-02 -0.20361444871E-03  0.22753066110E-01  0.23924112830E-01  0.00000000000E+00 0.  1.
     999901    1    3    3    0    0  0.25186086843E-01  0.12359983700E+00 -0.39163926671E-02  0.88900314781E+00  0.88000000000E+00 0.  1.
        -11    1    4    4    0    0 -0.17640114561E-01 -0.96012054902E-01 -0.78812891709E-02  0.97938062919E-01  0.51100000000E-03 0. -1.
         11    1    4    4    0    0 -0.14936486369E-01 -0.27384167649E-01 -0.10955384272E-01  0.33064676445E-01  0.51100000000E-03 0.  1.
</event>
<event>
 8    1  0.1129602E+005  0.1043930E+01  0.7957747E-01            NaN
         13   -1    0    0    0    0  0.00000000000E+00  0.00000000000E+00  0.74505805969E-08  0.10566000000E+00  0.10566000000E+00 0. -1.
     999900   -1    0    0    0    0 -0.00000000000E+00 -0.00000000000E+00 -0.74505805969E-08  0.93827000000E+00  0.93827000000E+00 0.  1.
     999902    2    1    2    0    0 -0.12882432608E-01  0.13912798399E-01  0.13126055148E-01  0.10208688562E+01  0.10206083506E+01 0.  0.
     999903    2    3    3    0    0  0.33521881887E-01 -0.12135106071E+00 -0.21409770774E-02  0.12919472613E+00  0.28929171690E-01 0.  0.
         14    1    1    2    0    0  0.12882432608E-01 -0.13912798399E-01 -0.13126055148E-01  0.23061143791E-01  0.00000000000E+00 0.  1.
     999901    1    3    3    0    0 -0.46404314495E-01  0.13526385911E+00  0.15267032225E-01  0.89167413008E+00  0.88000000000E+00 0.  1.
        -11    1    4    4    0    0  0.33569909991E-01 -0.68309522380E-01 -0.18204681795E-03  0.76114545040E-01  0.51100000000E-03 0.  1.
         11    1    4    4    0    0 -0.48028104210E-04 -0.53041538333E-01 -0.19589302594E-02  0.53080181087E-01  0.51100000000E-03 0. -1.
</event>
<event>
 8    1  0.1129602E+005  0.1043930E+01  0.7957747E-01            NaN
         13   -1    0    0    0    0  0.00000000000E+00  0.00000000000E+00  0.74505805969E-08  0.10566000000E+00  0.10566000000E+00 0. -1.
     999900   -1    0    0    0    0 -0.00000000000E+00 -0.00000000000E+00 -0.74505805969E-08  0.93827000000E+00  0.93827000000E+00 0.  1.
     999902    2    1    2    0    0 -0.18479181368E-01 -0.10349376353E-01 -0.11140818911E-01  0.10199986904E+01  0.10197179123E+01 0.  0.
     999903    2    3    3    0    0 -0.60469535527E-01 -0.88820963291E-01 -0.76448352138E-01  0.13310182280E+00  0.18055925370E-01 0.  0.
         14    1    1    2    0    0  0.18479181368E-01  0.10349376353E-01  0.11140818911E-01  0.23931309638E-01  0.00000000000E+00 0. -1.
     999901    1    3    3    0    0  0.41990354158E-01  0.78471586937E-01  0.65307533226E-01  0.88689686756E+00  0.88000000000E+00 0. -1.
        -11    1    4    4    0    0 -0.14260813991E-01 -0.98876959807E-02 -0.14650257498E-01  0.22716260988E-01  0.51100000000E-03 0. -1.
         11    1    4    4    0    0 -0.46208721535E-01 -0.78933267310E-01 -0.61798094639E-01  0.11038556181E+00  0.51100000000E-03 0.  1.
</event>
<event>
 8    1  0.1129602E+005  0.1043930E+01  0.7957747E-01            NaN
         13   -1    0    0    0    0  0.00000000000E+00  0.00000000000E+00  0.74505805969E-08  0.10566000000E+00  0.10566000000E+00 0.  1.
     999900   -1    0    0    0    0 -0.00000000000E+00 -0.00000000000E+00 -0.74505805969E-08  0.93827000000E+00  0.93827000000E+00 0.  1.
     999902    2    1    2    0    0 -0.10680506397E-01  0.17299142621E-01 -0.92665932315E-02  0.10215871420E+01  0.10213427855E+01 0.  0.
     999903    2    3    3    0    0  0.12070128327E+00  0.30024345113E-01 -0.36981124962E-01  0.13131122934E+00  0.20119002583E-01 0.  0.
         14    1    1    2    0    0  0.10680506397E-01 -0.17299142621E-01  0.92665932315E-02  0.22342857974E-01  0.00000000000E+00 0.  1.
     999901    1    3    3    0    0 -0.13138178967E+00 -0.12725202492E-01  0.27714531731E-01  0.89027591268E+00  0.88000000000E+00 0.  1.
        -11    1    4    4    0    0  0.11970424496E-01  0.89241082061E-02 -0.73824583828E-02  0.16664110617E-01  0.51100000000E-03 0. -1.
         11    1    4    4    0    0  0.10873085878E+00  0.21100236907E-01 -0.29598666579E-01  0.11464711873E+00  0.51100000000E-03 0.  1.
</event>
<event>
 8    1  0.1129602E+005  0.1043930E+01  0.7957747E-01            NaN
         13   -1    0    0    0    0  0.00000000000E+00  0.00000000000E+00  0.74505805969E-08  0.10566000000E+00  0.10566000000E+00 0.  1.
     999900   -1    0    0    0    0 -0.00000000000E+00 -0.00000000000E+00 -0.74505805969E-08  0.93827000000E+00  0.93827000000E+00 0. -1.
     999902    2    1    2    0    0 -0.12902300940E-01 -0.16812712931E-01 -0.11231651282E-01  0.10199448655E+01  0.10196628080E+01 0.  0.
     999903    2    3    3    0    0 -0.11677325964E+00  0.54541052244E-01  0.78038708780E-02  0.13076384516E+00  0.20677578485E-01 0.  0.
         14    1    1    2    0    0  0.12902300940E-01  0.16812712931E-01  0.11231651282E-01  0.23985134483E-01  0.00000000000E+00 0.  1.
     999901    1    3    3    0    0  0.10387095870E+00 -0.71353765175E-01 -0.19035522160E-01  0.88918102036E+00  0.88000000000E+00 0. -1.
        -11    1    4    4    0    0 -0.10382588274E+00  0.43591514399E-01  0.13545419270E-02  0.11261496330E+00  0.51100000000E-03 0.  1.
         11    1    4    4    0    0 -0.12947376898E-01  0.10949537845E-01  0.64493289510E-02  0.18148881852E-01  0.51100000000E-03 0. -1.
</event>
<event>
 8    1  0.1129602E+005  0.1043930E+01  0.7957747E-01            NaN
         13   -1    0    0    0    0  0.00000000000E+00  0.00000000000E+00  0.74505805969E-08  0.10566000000E+00  0.10566000000E+00 0.  1.
     999900   -1    0    0    0    0 -0.00000000000E+00 -0.00000000000E+00 -0.74505805969E-08  0.93827000000E+00  0.93827000000E+00 0. -1.
     999902    2    1    2    0    0 -0.15424641533E-01  0.22757852085E-02 -0.21349592615E-01  0.10174932099E+01  0.10171497079E+01 0.  0.
     999903    2    3    3    0    0 -0.10977974233E+00  0.32021382559E-01 -0.59255091698E-01  0.13113858988E+00  0.24682039961E-01 0.  0.
         14    1    1    2    0    0  0.15424641533E-01 -0.22757852085E-02  0.21349592615E-01  0.26436790077E-01  0.00000000000E+00 0.  1.
     999901    1    3    3    0    0  0.94355100798E-01 -0.29745597351E-01  0.37905499084E-01  0.88635462004E+00  0.88000000000E+00 0.  1.
        -11    1    4    4    0    0 -0.90861550866E-01  0.17091392039E-01 -0.51412544532E-01  0.10578964015E+00  0.51100000000E-03 0.  1.
         11    1    4    4    0    0 -0.18918191466E-01  0.14929990520E-01 -0.78425471661E-02  0.25348949728E-01  0.51100000000E-03 0. -1.
</event>
<event>
 8    1  0.1129602E+005  0.1043930E+01  0.7957747E-01            NaN
         13   -1    0    0    0    0  0.00000000000E+00  0.00000000000E+00  0.74505805969E-08  0.10566000000E+00  0.10566000000E+00 0. -1.
     999900   -1    0    0    0    0 -0.00000000000E+00 -0.00000000000E+00 -0.74505805969E-08  0.93827000000E+00  0.93827000000E+00 0. -1.
     999902    2    1    2    0    0  0.16319465860E-01  0.12349918002E-01  0.97518300872E-02  0.10212596751E+01  0.10210080217E+01 0.  0.
     999903    2    3    3    0    0  0.27510317947E-01  0.60244181474E-01 -0.11178190721E+00  0.13154649383E+00  0.20569547013E-01 0.  0.
         14    1    1    2    0    0 -0.16319465860E-01 -0.12349918002E-01 -0.97518300872E-02  0.22670324891E-01  0.00000000000E+00 0.  1.
     999901    1    3    3    0    0 -0.11190852088E-01 -0.47894263472E-01  0.12153373730E+00  0.88971318128E+00  0.88000000000E+00 0.  1.
        -11    1    4    4    0    0  0.51906372445E-03  0.23869296010E-01 -0.34288453952E-01  0.41784828761E-01  0.51100000000E-03 0.  1.
         11    1    4    4    0    0  0.26991254223E-01  0.36374885464E-01 -0.77493453256E-01  0.89761665067E-01  0.51100000000E-03 0. -1.
</event>
<event>
 8    1  0.1129602E+005  0.1043930E+01  0.7957747E-01            NaN
         13   -1    0    0    0    0  0.00000000000E+00  0.00000000000E+00  0.74505805969E-08  0.10566000000E+00  0.10566000000E+00 0.  1.
     999900   -1    0    0    0    0 -0.00000000000E+00 -0.00000000000E+00 -0.74505805969E-08  0.93827000000E+00  0.93827000000E+00 0. -1.
     999902    2    1    2    0    0  0.58456326123E-02  0.11342618720E-01  0.22613481638E-01  0.10179647160E+01  0.10176335132E+01 0.  0.
     999903    2    3    3    0    0  0.61684862201E-01 -0.10542544705E+00  0.34091714677E-01  0.12842295164E+00  0.20264806669E-01 0.  0.
         14    1    1    2    0    0 -0.58456326123E-02 -0.11342618720E-01 -0.22613481638E-01  0.25965283974E-01  0.00000000000E+00 0. -1.
     999901    1    3    3    0    0 -0.55839229589E-01  0.11676806577E+00 -0.11478233039E-01  0.88954176438E+00  0.88000000000E+00 0.  1.
        -11    1    4    4    0    0  0.33664852388E-01 -0.52938476134E-01  0.72736199476E-02  0.63158302778E-01  0.51100000000E-03 0. -1.
         11    1    4    4    0    0  0.28020009813E-01 -0.52486970915E-01  0.26818094729E-01  0.65264648866E-01  0.51100000000E-03 0.  1.
</event>
<event>
 8    1  0.1129602E+005  0.1043930E+01  0.7957747E-01            NaN
         13   -1    0    0    0    0  0.00000000000E+00  0.00000000000E+00  0.74505805969E-08  0.10566000000E+00  0.10566000000E+00 0.  1.
     999900   -1    0    0    0    0 -0.00000000000E+00 -0.00000000000E+00 -0.74505805969E-08  0.93827000000E+00  0.93827000000E+00 0. -1.
     999902    2    1    2    0    0  0.11252864250E-01  0.99335851450E-02  0.17896024041E-01  0.10205725441E+01  0.10203052225E+01 0.  0.
     999903    2    3    3    0    0 -0.12752511443E+00  0.14580763106E-02 -0.71543640844E-02  0.12930452409E+00  0.20092143460E-01 0.  0.
         14    1    1    2    0    0 -0.11252864250E-01 -0.99335851450E-02 -0.17896024041E-01  0.23357455858E-01  0.00000000000E+00 0. -1.
     999901    1    3    3    0    0  0.13877797868E+00  0.84755088344E-02  0.25050388125E-01  0.89126802005E+00  0.88000000000E+00 0.  1.
        -11    1    4    4    0    0 -0.21046969716E-01  0.67333853030E-02  0.25668293087E-02  0.22252261583E-01  0.51100000000E-03 0.  1.
         11    1    4    4    0    0 -0.10647814471E+00 -0.52753089924E-02 -0.97211933930E-02  0.10705226251E+00  0.51100000000E-03 0. -1.
</event>
<event>
 8    1  0.1129602E+005  0.1043930E+01  0.7957747E-01            NaN
         13   -1    0    0    0    0  0.00000000000E+00  0.00000000000E+00  0.74505805969E-08  0.10566000000E+00  0.10566000000E+00 0. -1.
     999900   -1    0    0    0    0 -0.00000000000E+00 -0.00000000000E+00 -0.74505805969E-08  0.93827000000E+00  0.93827000000E+00 0. -1.
     999902    2    1    2    0    0 -0.12388959485E-01 -0.18933365382E-01 -0.61570881739E-02  0.10204807276E+01  0.10202112757E+01 0.  0.
     999903    2    3    3    0    0 -0.12426786876E+00 -0.27128500549E-01 -0.26848008843E-01  0.13311825105E+00  0.28656490287E-01 0.  0.
         14    1    1    2    0    0  0.12388959485E-01  0.18933365382E-01  0.61570881739E-02  0.23449272410E-01  0.00000000000E+00 0. -1.
     999901    1    3    3    0    0  0.11187890927E+00  0.81951351671E-02  0.20690920670E-01  0.88736247654E+00  0.88000000000E+00 0. -1.
        -11    1    4    4    0    0 -0.73508156648E-01 -0.17842092136E-02 -0.12396319995E-01  0.74569178396E-01  0.51100000000E-03 0.  1.
         11    1    4    4    0    0 -0.50759712108E-01 -0.25344291335E-01 -0.14451688848E-01  0.58549072650E-01  0.51100000000E-03 0. -1.
</event>
<event>
 7    1  0.1129602E+005  0.1043930E+01  0.7957747E-01            NaN
         13   -1    0    0    0    0  0.00000000000E+00  0.00000000000E+00  0.74505805969E-08  0.10566000000E+00  0.10566000000E+00 0.  1.
     999900   -1    0    0    0    0 -0.00000000000E+00 -0.00000000000E+00 -0.74505805969E-08  0.93827000000E+00  0.93827000000E+00 0.  1.
     999903    2    1    2    0    0  0.48981801413E-01 -0.29183705588E-01 -0.42607797438E-01  0.74697491305E-01  0.22658006604E-01 0.  0.
         14    1    1    2    0    0  0.10606813960E-01  0.33108154814E-01 -0.71844290775E-01  0.79813886852E-01  0.00000000000E+00 0. -1.
     999901    1    1    2    0    0 -0.59588615373E-01 -0.39244492261E-02  0.11445208821E+00  0.88941862184E+00  0.88000000000E+00 0. -1.
        -11    1    3    3    0    0  0.12902536055E-01 -0.22538177652E-02 -0.60328450976E-03  0.13121745477E-01  0.51100000000E-03 0. -1.
         11    1    3    3    0    0  0.36079265358E-01 -0.26929887823E-01 -0.42004512928E-01  0.61575745828E-01  0.51100000000E-03 0.  1.
</event>
<event>
 8    1  0.1129602E+005  0.1043930E+01  0.7957747E-01            NaN
         13   -1    0    0    0    0  0.00000000000E+00  0.00000000000E+00  0.74505805969E-08  0.10566000000E+00  0.10566000000E+00 0.  1.
     999900   -1    0    0    0    0 -0.00000000000E+00 -0.00000000000E+00 -0.74505805969E-08  0.93827000000E+00  0.93827000000E+00 0.  1.
     999902    2    1    2    0    0 -0.20291699939E-01  0.74855195758E-02 -0.90446527023E-02  0.10204866250E+01  0.10202173102E+01 0.  0.
     999903    2    3    3    0    0 -0.62446608887E-01  0.11007460636E+00 -0.37664524628E-01  0.13306302030E+00  0.16466724912E-01 0.  0.
         14    1    1    2    0    0  0.20291699939E-01 -0.74855195758E-02  0.90446527023E-02  0.23443375018E-01  0.00000000000E+00 0.  1.
     999901    1    3    3    0    0  0.42154908948E-01 -0.10258908678E+00  0.28619871926E-01  0.88742360468E+00  0.88000000000E+00 0.  1.
        -11    1    4    4    0    0 -0.35867579313E-01  0.46980123214E-01 -0.15672411139E-01  0.61151457995E-01  0.51100000000E-03 0.  1.
         11    1    4    4    0    0 -0.26579029573E-01  0.63094483147E-01 -0.21992113489E-01  0.71911562306E-01  0.51100000000E-03 0. -1.
</event>
<event>
 8    1  0.1129602E+005  0.1043930E+01  0.7957747E-01            NaN
         13   -1    0    0    0    0  0.00000000000E+00  0.00000000000E+00  0.74505805969E-08  0.10566000000E+00  0.10566000000E+00 0. -1.
     999900   -1    0    0    0    0 -0.00000000000E+00 -0.00000000000E+00 -0.74505805969E-08  0.93827000000E+00  0.93827000000E+00 0.  1.
     999902    2    1    2    0    0  0.18808630639E-01 -0.52690687311E-02 -0.13068123866E-01  0.10204288610E+01  0.10201582019E+01 0.  0.
     999903    2    3    3    0    0  0.56656551889E-02 -0.36903042604E-01 -0.12564497233E+00  0.13259611049E+00  0.20028360962E-01 0.  0.
         14    1    1    2    0    0 -0.18808630639E-01  0.52690687311E-02  0.13068123866E-01  0.23501138976E-01  0.00000000000E+00 0. -1.
     999901    1    3    3    0    0  0.13142975450E-01  0.31633973873E-01  0.11257684847E+00  0.88783275053E+00  0.88000000000E+00 0. -1.
        -11    1    4    4    0    0  0.78093873077E-02 -0.34957258027E-01 -0.90553272886E-01  0.97381480633E-01  0.51100000000E-03 0.  1.
         11    1    4    4    0    0 -0.21437321188E-02 -0.19457845770E-02 -0.35091699447E-01  0.35214629859E-01  0.51100000000E-03 0. -1.
</event>
<event>
 8    1  0.1129602E+005  0.1043930E+01  0.7957747E-01            NaN
         13   -1    0    0    0    0  0.00000000000E+00  0.00000000000E+00  0.74505805969E-08  0.10566000000E+00  0.10566000000E+00 0.  1.
     999900   -1    0    0    0    0 -0.00000000000E+00 -0.00000000000E+00 -0.74505805969E-08  0.93827000000E+00  0.93827000000E+00 0. -1.
     999902    2    1    2    0    0  0.15576750240E-01  0.82464550546E-02  0.14537402264E-01  0.10210832227E+01  0.10208275919E+01 0.  0.
     999903    2    3    3    0    0 -0.51193643760E-01  0.99531042284E-01 -0.63916486291E-01  0.13038340007E+00  0.19679843863E-01 0.  0.
         14    1    1    2    0    0 -0.15576750240E-01 -0.82464550546E-02 -0.14537402264E-01  0.22846777313E-01  0.00000000000E+00 0. -1.
     999901    1    3    3    0    0  0.66770394000E-01 -0.91284587229E-01  0.78453888555E-01  0.89069982262E+00  0.88000000000E+00 0.  1.
        -11    1    4    4    0    0 -0.36388748779E-01  0.68431624348E-01 -0.33527693142E-01  0.84447590712E-01  0.51100000000E-03 0.  1.
         11    1    4    4    0    0 -0.14804894981E-01  0.31099417935E-01 -0.30388793148E-01  0.45935809358E-01  0.51100000000E-03 0. -1.
</event>
<event>
 8    1  0.1129602E+005  0.1043930E+01  0.7957747E-01            NaN
         13   -1    0    0    0    0  0.00000000000E+00  0.00000000000E+00  0.74505805969E-08  0.10566000000E+00  0.10566000000E+00 0. -1.
     999900   -1    0    0    0    0 -0.00000000000E+00 -0.00000000000E+00 -0.74505805969E-08  0.93827000000E+00  0.93827000000E+00 0. -1.
     999902    2    1    2    0    0 -0.85961299902E-02  0.92617833103E-02 -0.16377549078E-01  0.10232442998E+01  0.10230351894E+01 0.  0.
     999903    2    3    3    0    0  0.66655060235E-01  0.11492375814E+00 -0.13360970441E-01  0.13372966002E+00  0.73985943032E-02 0.  0.
         14    1    1    2    0    0  0.85961299902E-02 -0.92617833103E-02  0.16377549078E-01  0.20685700247E-01  0.00000000000E+00 0. -1.
     999901    1    3    3    0    0 -0.75251190225E-01 -0.10566197483E+00 -0.30165786376E-02  0.88951463973E+00  0.88000000000E+00 0.  1.
        -11    1    4    4    0    0  0.32449295871E-01  0.56984123663E-01 -0.29502061733E-02  0.65643826744E-01  0.51100000000E-03 0. -1.
         11    1    4    4    0    0  0.34205764364E-01  0.57939634477E-01 -0.10410764268E-01  0.68085833275E-01  0.51100000000E-03 0.  1.
</event>
<event>
 8    1  0.1129602E+005  0.1043930E+01  0.7957747E-01            NaN
         13   -1    0    0    0    0  0.00000000000E+00  0.00000000000E+00  0.74505805969E-08  0.10566000000E+00  0.10566000000E+00 0.  1.
     999900   -1    0    0    0    0 -0.00000000000E+00 -0.00000000000E+00 -0.74505805969E-08  0.93827000000E+00  0.93827000000E+00 0.  1.
     999902    2    1    2    0    0 -0.20791032448E-02 -0.19552665333E-01 -0.16472788643E-01  0.10182788371E+01  0.10179557004E+01 0.  0.
     999903    2    3    3    0    0  0.29347969573E-02  0.12459130602E+00  0.81148334295E-04  0.12638385646E+00  0.21006332890E-01 0.  0.
         14    1    1    2    0    0  0.20791032448E-02  0.19552665333E-01  0.16472788643E-01  0.25651162890E-01  0.00000000000E+00 0. -1.
     999901    1    3    3    0    0 -0.50139002021E-02 -0.14414397135E+00 -0.16553936977E-01  0.89189498065E+00  0.88000000000E+00 0.  1.
        -11    1    4    4    0    0 -0.86844371086E-02  0.38942639275E-01 -0.15697248161E-02  0.39933366482E-01  0.51100000000E-03 0.  1.
         11    1    4    4    0    0  0.11619234066E-01  0.85648666742E-01  0.16508731504E-02  0.86450489982E-01  0.51100000000E-03 0. -1.
</event>
<event>
 8    1  0.1129602E+005  0.1043930E+01  0.7957747E-01            NaN
         13   -1    0    0    0    0  0.00000000000E+00  0.00000000000E+00  0.74505805969E-08  0.10566000000E+00  0.10566000000E+00 0.  1.
     999900   -1    0    0    0    0 -0.00000000000E+00 -0.00000000000E+00 -0.74505805969E-08  0.93827000000E+00  0.93827000000E+00 0. -1.
     999902    2    1    2    0    0  0.49349536613E-02  0.16480318809E-01  0.15877666035E-01  0.10205194264E+01  0.10202508735E+01 0.  0.
     999903    2    3    3    0    0  0.11988700316E+00  0.31236122212E-01  0.42691638590E-01  0.13251565587E+00  0.19729018917E-01 0.  0.
         14    1    1    2    0    0 -0.49349536613E-02 -0.16480318809E-01 -0.15877666035E-01  0.23410573560E-01  0.00000000000E+00 0. -1.
     999901    1    3    3    0    0 -0.11495204950E+00 -0.14755803403E-01 -0.26813972555E-01  0.88800377057E+00  0.88000000000E+00 0.  1.
        -11    1    4    4    0    0  0.69938303010E-01  0.84816969132E-02  0.21263714192E-01  0.73591521744E-01  0.51100000000E-03 0. -1.
         11    1    4    4    0    0  0.49948700153E-01  0.22754425299E-01  0.21427924398E-01  0.58924134128E-01  0.51100000000E-03 0.  1.
</event>
<event>
 8    1  0.1129602E+005  0.1043930E+01  0.7957747E-01            NaN
         13   -1    0    0    0    0  0.00000000000E+00  0.00000000000E+00  0.74505805969E-08  0.10566000000E+00  0.10566000000E+00 0. -1.
     999900   -1    0    0    0    0 -0.00000000000E+00 -0.00000000000E+00 -0.74505805969E-08  0.93827000000E+00  0.93827000000E+00 0.  1.
     999902    2    1    2    0    0 -0.98735976247E-02  0.15996105132E-01 -0.14224183828E-01  0.10203569070E+01  0.10200845685E+01 0.  0.
     999903    2    3    3    0    0 -0.39323666937E-01  0.11603901951E+00 -0.48920644262E-01  0.13351997964E+00  0.20565765231E-01 0.  0.
         14    1    1    2    0    0  0.98735976247E-02 -0.15996105132E-01  0.14224183828E-01  0.23573093031E-01  0.00000000000E+00 0. -1.
     999901    1    3    3    0    0  0.29450069312E-01 -0.10004291438E+00  0.34696460434E-01  0.88683692732E+00  0.88000000000E+00 0.  1.
        -11    1    4    4    0    0 -0.26053560873E-01  0.80474030777E-01 -0.23362608399E-01  0.87754944338E-01  0.51100000000E-03 0. -1.
         11    1    4    4    0    0 -0.13270106064E-01  0.35564988732E-01 -0.25558035863E-01  0.45765035307E-01  0.51100000000E-03 0.  1.
</event>
<event>
 8    1  0.1129602E+005  0.1043930E+01  0.7957747E-01            NaN
         13   -1    0    0    0    0  0.00000000000E+00  0.00000000000E+00  0.74505805969E-08  0.10566000000E+00  0.10566000000E+00 0.  1.
     999900   -1    0    0    0    0 -0.00000000000E+00 -0.00000000000E+00 -0.74505805969E-08  0.93827000000E+00  0.93827000000E+00 0. -1.
     999902    2    1    2    0    0  0.15380145679E-01 -0.25476687896E-02 -0.17954275303E-01  0.10201519534E+01  0.10198748024E+01 0.  0.
     999903    2    3    3    0    0 -0.10405974797E+00  0.24427705010E-01  0.67140965461E-01  0.12760797188E+00  0.18728089175E-01 0.  0.
         14    1    1    2    0    0 -0.15380145679E-01  0.25476687896E-02  0.17954275303E-01  0.23778046577E-01  0.00000000000E+00 0.  1.
     999901    1    3    3    0    0  0.11943989365E+00 -0.26975373800E-01 -0.85095240764E-01  0.89254398154E+00  0.88000000000E+00 0. -1.
        -11    1    4    4    0    0 -0.52869530883E-01  0.58375262419E-02  0.41195793431E-01  0.67280149567E-01  0.51100000000E-03 0. -1.
         11    1    4    4    0    0 -0.51190217090E-01  0.18590178768E-01  0.25945172030E-01  0.60327822313E-01  0.51100000000E-03 0.  1.
</event>
<event>
 8    1  0.1129602E+005  0.1043930E+01  0.7957747E-01            NaN
         13   -1    0    0    0    0  0.00000000000E+00  0.00000000000E+00  0.74505805969E-08  0.10566000000E+00  0.10566000000E+00 0. -1.
     999900   -1    0    0    0    0 -0.00000000000E+00 -0.00000000000E+00 -0.74505805969E-08  0.93827000000E+00  0.93827000000E+00 0. -1.
     999902    2    1    2    0    0 -0.54696373791E-02 -0.15776709282E-01  0.17551284628E-01  0.10197046191E+01  0.10194168142E+01 0.  0.
     999903    2    3    3    0    0 -0.14101396807E-01 -0.87126059295E-01 -0.92951739957E-01  0.12988657281E+00  0.20992766253E-01 0.  0.
         14    1    1    2    0    0  0.54696373791E-02  0.15776709282E-01 -0.17551284628E-01  0.24225380924E-01  0.00000000000E+00 0.  1.
     999901    1    3    3    0    0  0.86317594276E-02  0.71349350013E-01  0.11050302459E+00  0.88981804627E+00  0.88000000000E+00 0.  1.
        -11    1    4    4    0    0 -0.28606307031E-02 -0.39638807748E-01 -0.27883613130E-01  0.48550749633E-01  0.51100000000E-03 0.  1.
         11    1    4    4    0    0 -0.11240766104E-01 -0.47487251547E-01 -0.65068126827E-01  0.81335823177E-01  0.51100000000E-03 0. -1.
</event>
<event>
 8    1  0.1129602E+005  0.1043930E+01  0.7957747E-01            NaN
         13   -1    0    0    0    0  0.00000000000E+00  0.00000000000E+00  0.74505805969E-08  0.10566000000E+00  0.10566000000E+00 0.  1.
     999900   -1    0    0    0    0 -0.00000000000E+00 -0.00000000000E+00 -0.74505805969E-08  0.93827000000E+00  0.93827000000E+00 0.  1.
     999902    2    1    2    0    0  0.89340618287E-02 -0.27606530399E-02 -0.22504529539E-01  0.10195600900E+01  0.10192687989E+01 0.  0.
     999903    2    3    3    0    0 -0.63617236602E-01  0.99374169575E-01  0.45683985191E-01  0.12807543701E+00  0.19847233811E-01 0.  0.
         14    1    1    2    0    0 -0.89340618287E-02  0.27606530399E-02  0.22504529539E-01  0.24369910048E-01  0.00000000000E+00 0.  1.
     999901    1    3    3    0    0  0.72551298431E-01 -0.10213482262E+00 -0.68188514730E-01  0.89148465294E+00  0.88000000000E+00 0.  1.
        -11    1    4    4    0    0 -0.59737171662E-01  0.96365721833E-01  0.39284607453E-01  0.11999343118E+00  0.51100000000E-03 0. -1.
         11    1    4    4    0    0 -0.38800649402E-02  0.30084477422E-02  0.63993777381E-02  0.80820058273E-02  0.51100000000E-03 0.  1.
</event>
<event>
 8    1  0.1172402E+005  0.1043930E+01  0.7957747E-01            NaN
         13   -1    0    0    0    0  0.00000000000E+00  0.00000000000E+00  0.74505805969E-08  0.10566000000E+00  0.10566000000E+00 0. -1.
     999900   -1    0    0    0    0 -0.00000000000E+00 -0.00000000000E+00 -0.74505805969E-08  0.93827000000E+00  0.93827000000E+00 0. -1.
     999902    2    1    2    0    0 -0.11438480615E-01  0.17720498398E-02 -0.19898340165E-01  0.10209099448E+01  0.10206503772E+01 0.  0.
     999903    2    3    3    0    0 -0.12335019004E+00  0.40162604064E-01 -0.19013540747E-01  0.13299167818E+00  0.22292769776E-01 0.  0.
         14    1    1    2    0    0  0.11438480615E-01 -0.17720498398E-02  0.19898340165E-01  0.23020055186E-01  0.00000000000E+00 0. -1.
     999901    1    3    3    0    0  0.11191170942E+00 -0.38390554224E-01 -0.88479941864E-03  0.88791826664E+00  0.88000000000E+00 0.  1.
        -11    1    4    4    0    0 -0.53609147088E-01  0.27330384932E-01 -0.27601673807E-02  0.60239274872E-01  0.51100000000E-03 0. -1.
         11    1    4    4    0    0 -0.69741042951E-01  0.12832219132E-01 -0.16253373366E-01  0.72752403304E-01  0.51100000000E-03 0.  1.
</event>
<event>
 8    1  0.1129602E+005  0.1043930E+01  0.7957747E-01            NaN
         13   -1    0    0    0    0  0.00000000000E+00  0.00000000000E+00  0.74505805969E-08  0.10566000000E+00  0.10566000000E+00 0.  1.
     999900   -1    0    0    0    0 -0.00000000000E+00 -0.00000000000E+00 -0.74505805969E-08  0.93827000000E+00  0.93827000000E+00 0.  1.
     999902    2    1    2    0    0 -0.12735107817E-01  0.38709156892E-02  0.18577602570E-01  0.10210762415E+01  0.10208204527E+01 0.  0.
     999903    2    3    3    0    0  0.77770725024E-01 -0.96622699470E-01 -0.30671985250E-01  0.12938358462E+00  0.20374237826E-01 0.  0.
         14    1    1    2    0    0  0.12735107817E-01 -0.38709156892E-02 -0.18577602570E-01  0.22853758479E-01  0.00000000000E+00 0. -1.
     999901    1    3    3    0    0 -0.90505832841E-01  0.10049361516E+00  0.49249587820E-01  0.89169265690E+00  0.88000000000E+00 0.  1.
        -11    1    4    4    0    0  0.39747435183E-01 -0.57710291633E-01 -0.26121276404E-01  0.74785817946E-01  0.51100000000E-03 0.  1.
         11    1    4    4    0    0  0.38023289841E-01 -0.38912407837E-01 -0.45507088466E-02  0.54597766677E-01  0.51100000000E-03 0. -1.
</event>
<event>
 8    1  0.1129602E+005  0.1043930E+01  0.7957747E-01            NaN
         13   -1    0    0    0    0  0.00000000000E+00  0.00000000000E+00  0.74505805969E-08  0.10566000000E+00  0.10566000000E+00 0. -1.
     999900   -1    0    0    0    0 -0.00000000000E+00 -0.00000000000E+00 -0.74505805969E-08  0.93827000000E+00  0.93827000000E+00 0. -1.
     999902    2    1    2    0    0 -0.16503493551E-02  0.22964693717E-01  0.25998794848E-02  0.10207597565E+01  0.10204967517E+01 0.  0.
     999903    2    3    3    0    0 -0.47736476662E-01  0.99285880053E-01 -0.72274581992E-01  0.13309144029E+00  0.18795188090E-01 0.  0.
         14    1    1    2    0    0  0.16503493551E-02 -0.22964693717E-01 -0.25998794848E-02  0.23170243500E-01  0.00000000000E+00 0.  1.
     999901    1    3    3    0    0  0.46086127307E-01 -0.76321186336E-01  0.74874461477E-01  0.88766831621E+00  0.88000000000E+00 0.  1.
        -11    1    4    4    0    0 -0.32096874977E-01  0.47132179395E-01 -0.32250828283E-01  0.65513576942E-01  0.51100000000E-03 0. -1.
         11    1    4    4    0    0 -0.15639601685E-01  0.52153700659E-01 -0.40023753709E-01  0.67577863352E-01  0.51100000000E-03 0.  1.
</event>
<event>
 8    1  0.1129602E+005  0.1043930E+01  0.7957747E-01            NaN
         13   -1    0    0    0    0  0.00000000000E+00  0.00000000000E+00  0.74505805969E-08  0.10566000000E+00  0.10566000000E+00 0. -1.
     999900   -1    0    0    0    0 -0.00000000000E+00 -0.00000000000E+00 -0.74505805969E-08  0.93827000000E+00  0.93827000000E+00 0.  1.
     999902    2    1    2    0    0  0.69239673634E-02  0.22479620136E-01  0.40493162915E-02  0.10200622056E+01  0.10197829336E+01 0.  0.
     999903    2    3    3    0    0 -0.97409578439E-01 -0.32832521463E-01  0.77175966269E-01  0.12916803194E+00  0.12714175864E-01 0.  0.
         14    1    1    2    0    0 -0.69239673634E-02 -0.22479620136E-01 -0.40493162915E-02  0.23867794366E-01  0.00000000000E+00 0.  1.
     999901    1    3    3    0    0  0.10433354580E+00  0.55312141599E-01 -0.73126649978E-01  0.89089417370E+00  0.88000000000E+00 0.  1.
        -11    1    4    4    0    0 -0.45611720694E-01 -0.10612500472E-01  0.29549949177E-01  0.55376121643E-01  0.51100000000E-03 0.  1.
         11    1    4    4    0    0 -0.51797857745E-01 -0.22220020992E-01  0.47626017093E-01  0.73791910295E-01  0.51100000000E-03 0. -1.
</event>
<event>
 8    1  0.1129602E+005  0.1043930E+01  0.7957747E-01            NaN
         13   -1    0    0    0    0  0.00000000000E+00  0.00000000000E+00  0.74505805969E-08  0.10566000000E+00  0.10566000000E+00 0.  1.
     999900   -1    0    0    0    0 -0.00000000000E+00 -0.00000000000E+00 -0.74505805969E-08  0.93827000000E+00  0.93827000000E+00 0. -1.
     999902    2    1    2    0    0  0.45294092959E-02 -0.18988612000E-01  0.10521066367E-01  0.10217539821E+01  0.10215133010E+01 0.  0.
     999903    2    3    3    0    0 -0.36691804293E-01 -0.12521916897E+00  0.24280196121E-01  0.13430064056E+00  0.20518414920E-01 0.  0.
         14    1    1    2    0    0 -0.45294092959E-02  0.18988612000E-01 -0.10521066367E-01  0.22176017941E-01  0.00000000000E+00 0. -1.
     999901    1    3    3    0    0  0.41221213589E-01  0.10623055697E+00 -0.13759129754E-01  0.88745334150E+00  0.88000000000E+00 0.  1.
        -11    1    4    4    0    0 -0.29756678362E-02 -0.30563925961E-01  0.12389204915E-01  0.33117392540E-01  0.51100000000E-03 0. -1.
         11    1    4    4    0    0 -0.33716136457E-01 -0.94655243011E-01  0.11890991207E-01  0.10118324802E+00  0.51100000000E-03 0.  1.
</event>
<event>
 8    1  0.1129602E+005  0.1043930E+01  0.7957747E-01            NaN
         13   -1    0    0    0    0  0.00000000000E+00  0.00000000000E+00  0.74505805969E-08  0.10566000000E+00  0.10566000000E+00 0. -1.
     999900   -1    0    0    0    0 -0.00000000000E+00 -0.00000000000E+00 -0.74505805969E-08  0.93827000000E+00  0.93827000000E+00 0.  1.
     999902    2    1    2    0    0  0.22030741486E-01 -0.41981534608E-02 -0.85665626025E-02  0.10199224167E+01  0.10196398246E+01 0.  0.
     999903    2    3    3    0    0  0.12690470563E+00 -0.32184410195E-01  0.11646785935E-01  0.13302312228E+00  0.20466139520E-01 0.  0.
         14    1    1    2    0    0 -0.22030741486E-01  0.41981534608E-02  0.85665626025E-02  0.24007583338E-01  0.00000000000E+00 0.  1.
     999901    1    3    3    0    0 -0.10487396415E+00  0.27986256734E-01 -0.20213348538E-01  0.88689929438E+00  0.88000000000E+00 0.  1.
        -11    1    4    4    0    0  0.14348996689E-01 -0.10344726646E-01 -0.65702017126E-03  0.17708751279E-01  0.51100000000E-03 0. -1.
         11    1    4    4    0    0  0.11255570894E+00 -0.21839683549E-01  0.12303806107E-01  0.11531437100E+00  0.51100000000E-03 0.  1.
</event>
<event>
 8    1  0.1129602E+005  0.1043930E+01  0.7957747E-01            NaN
         13   -1    0    0    0    0  0.00000000000E+00  0.00000000000E+00  0.74505805969E-08  0.10566000000E+00  0.10566000000E+00 0.  1.
     999900   -1    0    0    0    0 -0.00000000000E+00 -0.00000000000E+00 -0.74505805969E-08  0.93827000000E+00  0.93827000000E+00 0.  1.
     999902    2    1    2    0    0 -0.10145225978E-01 -0.49627522554E-02 -0.21561088241E-01  0.10195900114E+01  0.10192994439E+01 0.  0.
     999903    2    3    3    0    0 -0.12643354584E+00  0.22393981462E-01  0.15804383612E-01  0.13073257472E+00  0.18822742396E-01 0.  0.
         14    1    1    2    0    0  0.10145225978E-01  0.49627522554E-02  0.21561088241E-01  0.24339988624E-01  0.00000000000E+00 0.  1.
     999901    1    3    3    0    0  0.11628831986E+00 -0.27356733717E-01 -0.37365471853E-01  0.88885743666E+00  0.88000000000E+00 0.  1.
        -11    1    4    4    0    0 -0.45009197775E-01  0.15013216695E-01 -0.49674967827E-04  0.47449848772E-01  0.51100000000E-03 0.  1.
         11    1    4    4    0    0 -0.81424348066E-01  0.73807647673E-02  0.15854058580E-01  0.83282725946E-01  0.51100000000E-03 0. -1.
</event>
<event>
 8    1  0.1129602E+005  0.1043930E+01  0.7957747E-01            NaN
         13   -1    0    0    0    0  0.00000000000E+00  0.00000000000E+00  0.74505805969E-08  0.10566000000E+00  0.10566000000E+00 0. -1.
     999900   -1    0    0    0    0 -0.00000000000E+00 -0.00000000000E+00 -0.74505805969E-08  0.93827000000E+00  0.93827000000E+00 0.  1.
     999902    2    1    2    0    0 -0.21802002127E-01  0.85866370570E-02 -0.24383712460E-02  0.10203714923E+01  0.10200994946E+01 0.  0.
     999903    2    3    3    0    0 -0.88888200313E-01 -0.73819605435E-01  0.60110349482E-01  0.13177502071E+00  0.20023877397E-01 0.  0.
         14    1    1    2    0    0  0.21802002127E-01 -0.85866370570E-02  0.24383712460E-02  0.23558507742E-01  0.00000000000E+00 0. -1.
     999901    1    3    3    0    0  0.67086198186E-01  0.82406242492E-01 -0.62548720728E-01  0.88859647155E+00  0.88000000000E+00 0.  1.
        -11    1    4    4    0    0 -0.19733884227E-01 -0.26623164628E-01  0.22020601461E-01  0.39791796783E-01  0.51100000000E-03 0.  1.
         11    1    4    4    0    0 -0.69154316086E-01 -0.47196440807E-01  0.38089748021E-01  0.91983223924E-01  0.51100000000E-03 0. -1.
</event>
<event>
 8    1  0.1129602E+005  0.1043930E+01  0.7957747E-01            NaN
         13   -1    0    0    0    0  0.00000000000E+00  0.00000000000E+00  0.74505805969E-08  0.10566000000E+00  0.10566000000E+00 0.  1.
     999900   -1    0    0    0    0 -0.00000000000E+00 -0.00000000000E+00 -0.74505805969E-08  0.93827000000E+00  0.93827000000E+00 0.  1.
     999902    2    1    2    0    0 -0.18734159363E-01  0.17641771906E-01  0.52306132791E-02  0.10176705225E+01  0.10173316727E+01 0.  0.
     999903    2    3    3    0    0 -0.45468983755E-01  0.84659240659E-01  0.86647423663E-01  0.13097170726E+00  0.20277982180E-01 0.  0.
         14    1    1    2    0    0  0.18734159363E-01 -0.17641771906E-01 -0.52306132791E-02  0.26259477494E-01  0.00000000000E+00 0.  1.
     999901    1    3    3    0    0  0.26734824392E-01 -0.67017468753E-01 -0.81416810384E-01  0.88669881525E+00  0.88000000000E+00 0.  1.
        -11    1    4    4    0    0 -0.34857560288E-02  0.23495420671E-01  0.25279080986E-01  0.34691185395E-01  0.51100000000E-03 0.  1.
         11    1    4    4    0    0 -0.41983227726E-01  0.61163819988E-01  0.61368342677E-01  0.96280521860E-01  0.51100000000E-03 0. -1.
</event>
<event>
 8    1  0.1129602E+005  0.1043930E+01  0.7957747E-01            NaN
         13   -1    0    0    0    0  0.00000000000E+00  0.00000000000E+00  0.74505805969E-08  0.10566000000E+00  0.10566000000E+00 0. -1.
     999900   -1    0    0    0    0 -0.00000000000E+00 -0.00000000000E+00 -0.74505805969E-08  0.93827000000E+00  0.93827000000E+00 0.  1.
     999902    2    1    2    0    0  0.24344138006E-01 -0.47775012496E-02  0.77210796030E-02  0.10179477629E+01  0.10176161218E+01 0.  0.
     999903    2    3    3    0    0  0.88603817781E-01 -0.11790759094E-01 -0.92285822817E-01  0.12992756452E+00  0.19360795545E-01 0.  0.
         14    1    1    2    0    0 -0.24344138006E-01  0.47775012496E-02 -0.77210796030E-02  0.25982237080E-01  0.00000000000E+00 0.  1.
     999901    1    3    3    0    0 -0.64259679775E-01  0.70132578446E-02  0.10000690242E+00  0.88802019840E+00  0.88000000000E+00 0. -1.
        -11    1    4    4    0    0  0.68019762165E-01 -0.14033180096E-01 -0.79591977630E-01  0.10563504254E+00  0.51100000000E-03 0.  1.
         11    1    4    4    0    0  0.20584055616E-01  0.22424210017E-02 -0.12693845187E-01  0.24292521981E-01  0.51100000000E-03 0. -1.
</event>
<event>
 8    1  0.1129602E+005  0.1043930E+01  0.7957747E-01            NaN
         13   -1    0    0    0    0  0.00000000000E+00  0.00000000000E+00  0.74505805969E-08  0.10566000000E+00  0.10566000000E+00 0. -1.
     999900   -1    0    0    0    0 -0.00000000000E+00 -0.00000000000E+00 -0.74505805969E-08  0.93827000000E+00  0.93827000000E+00 0. -1.
     999902    2    1    2    0    0  0.14984092266E-01 -0.16769050179E-01  0.51721787329E-02  0.10208545694E+01  0.10205937372E+01 0.  0.
     999903    2    3    3    0    0  0.87090428416E-01 -0.90848387626E-01  0.42364925066E-01  0.13402292115E+00  0.18143435748E-01 0.  0.
         14    1    1    2    0    0 -0.14984092266E-01  0.16769050179E-01 -0.51721787329E-02  0.23075430609E-01  0.00000000000E+00 0.  1.
     999901    1    3    3    0    0 -0.72106336151E-01  0.74079337447E-01 -0.37192746333E-01  0.88683164825E+00  0.88000000000E+00 0. -1.
        -11    1    4    4    0    0  0.45142831835E-01 -0.54518484003E-01  0.31487437077E-01  0.77471673396E-01  0.51100000000E-03 0. -1.
         11    1    4    4    0    0  0.41947596581E-01 -0.36329903624E-01  0.10877487989E-01  0.56551247751E-01  0.51100000000E-03 0.  1.
</event>
<event>
 8    1  0.1129602E+005  0.1043930E+01  0.7957747E-01            NaN
         13   -1    0    0    0    0  0.00000000000E+00  0.00000000000E+00  0.74505805969E-08  0.10566000000E+00  0.10566000000E+00 0.  1.
     999900   -1    0    0    0    0 -0.00000000000E+00 -0.00000000000E+00 -0.74505805969E-08  0.93827000000E+00  0.93827000000E+00 0.  1.
     999902    2    1    2    0    0 -0.80266077288E-02 -0.33774156142E-02  0.21028560105E-01  0.10211696461E+01  0.10209159674E+01 0.  0.
     999903    2    3    3    0    0  0.26962500520E-01 -0.93621571457E-01 -0.83365350887E-01  0.12972905136E+00  0.19694414501E-01 0.  0.
         14    1    1    2    0    0  0.80266077288E-02  0.33774156142E-02 -0.21028560105E-01  0.22760353863E-01  0.00000000000E+00 0. -1.
     999901    1    3    3    0    0 -0.34989108249E-01  0.90244155843E-01  0.10439391099E+00  0.89144059477E+00  0.88000000000E+00 0.  1.
        -11    1    4    4    0    0  0.20538375615E-01 -0.72223168677E-01 -0.74231207660E-01  0.10558666714E+00  0.51100000000E-03 0.  1.
         11    1    4    4    0    0  0.64241249051E-02 -0.21398402780E-01 -0.91341432272E-02  0.24142384220E-01  0.51100000000E-03 0. -1.
</event>
<event>
 8    1  0.1129602E+005  0.1043930E+01  0.7957747E-01            NaN
         13   -1    0    0    0    0  0.00000000000E+00  0.00000000000E+00  0.74505805969E-08  0.10566000000E+00  0.10566000000E+00 0.  1.
     999900   -1    0    0    0    0 -0.00000000000E+00 -0.00000000000E+00 -0.74505805969E-08  0.93827000000E+00  0.93827000000E+00 0. -1.
     999902    2    1    2    0    0  0.98416620907E-02  0.92177739135E-02 -0.20232167800E-01  0.10196160887E+01  0.10193261510E+01 0.  0.
     999903    2    3    3    0    0 -0.55746419589E-01 -0.13515726349E-01  0.11105670549E+00  0.12717260212E+00  0.23429484414E-01 0.  0.
         14    1    1    2    0    0 -0.98416620907E-02 -0.92177739135E-02  0.20232167800E-01  0.24313911296E-01  0.00000000000E+00 0.  1.
     999901    1    3    3    0    0  0.65588081679E-01  0.22733500263E-01 -0.13128887329E+00  0.89244348658E+00  0.88000000000E+00 0. -1.
        -11    1    4    4    0    0 -0.30894176830E-01 -0.17904650110E-01  0.53494985946E-01  0.64319525029E-01  0.51100000000E-03 0. -1.
         11    1    4    4    0    0 -0.24852242758E-01  0.43889237607E-02  0.57561719547E-01  0.62853077093E-01  0.51100000000E-03 0.  1.
</event>
<event>
 8    1  0.1129602E+005  0.1043930E+01  0.7957747E-01            NaN
         13   -1    0    0    0    0  0.00000000000E+00  0.00000000000E+00  0.74505805969E-08  0.10566000000E+00  0.10566000000E+00 0.  1.
     999900   -1    0    0    0    0 -0.00000000000E+00 -0.00000000000E+00 -0.74505805969E-08  0.93827000000E+00  0.93827000000E+00 0. -1.
     999902    2    1    2    0    0 -0.63425105854E-02  0.13124066093E-01 -0.21739329865E-01  0.10177562151E+01  0.10174196019E+01 0.  0.
     999903    2    3    3    0    0 -0.62703662594E-01  0.42236333403E-01 -0.10534103036E+00  0.13152072279E+00  0.22029768129E-01 0.  0.
         14    1    1    2    0    0  0.63425105854E-02 -0.13124066093E-01  0.21739329865E-01  0.26173784868E-01  0.00000000000E+00 0.  1.
     999901    1    3    3    0    0  0.56361152008E-01 -0.29112267310E-01  0.83601700493E-01  0.88623549234E+00  0.88000000000E+00 0.  1.
        -11    1    4    4    0    0 -0.15514700754E-01  0.14206811656E-01 -0.46576405317E-01  0.51109315102E-01  0.51100000000E-03 0.  1.
         11    1    4    4    0    0 -0.47188961840E-01  0.28029521747E-01 -0.58764625041E-01  0.80411407687E-01  0.51100000000E-03 0. -1.
</event>
<event>
 8    1  0.1129602E+005  0.1043930E+01  0.7957747E-01            NaN
         13   -1    0    0    0    0  0.00000000000E+00  0.00000000000E+00  0.74505805969E-08  0.10566000000E+00  0.10566000000E+00 0.  1.
     999900   -1    0    0    0    0 -0.00000000000E+00 -0.00000000000E+00 -0.74505805969E-08  0.93827000000E+00  0.93827000000E+00 0. -1.
     999902    2    1    2    0    0 -0.54130524214E-02 -0.85998403915E-02 -0.21735905823E-01  0.10199360842E+01  0.10196538177E+01 0.  0.
     999903    2    3    3    0    0 -0.10626714361E+00 -0.42200081525E-01  0.58442379277E-01  0.12991974658E+00  0.19750345913E-01 0.  0.
         14    1    1    2    0    0  0.54130524214E-02  0.85998403915E-02  0.21735905823E-01  0.23993915754E-01  0.00000000000E+00 0.  1.
     999901    1    3    3    0    0  0.10085409119E+00  0.33600241134E-01 -0.80178285099E-01  0.89001633767E+00  0.88000000000E+00 0. -1.
        -11    1    4    4    0    0 -0.29691387117E-01 -0.21524518647E-01  0.20014076528E-01  0.41781667657E-01  0.51100000000E-03 0.  1.
         11    1    4    4    0    0 -0.76575756493E-01 -0.20675562878E-01  0.38428302748E-01  0.88138078921E-01  0.51100000000E-03 0. -1.
</event>
<event>
 8    1  0.1129602E+005  0.1043930E+01  0.7957747E-01            NaN
         13   -1    0    0    0    0  0.00000000000E+00  0.00000000000E+00  0.74505805969E-08  0.10566000000E+00  0.10566000000E+00 0.  1.
     999900   -1    0    0    0    0 -0.00000000000E+00 -0.00000000000E+00 -0.74505805969E-08  0.93827000000E+00  0.93827000000E+00 0.  1.
     999902    2    1    2    0    0 -0.22210784025E-01 -0.11008901835E-02 -0.70177967011E-02  0.10206109015E+01  0.10203444672E+01 0.  0.
     999903    2    3    3    0    0 -0.69684120076E-01 -0.95320144028E-01 -0.57441695759E-01  0.13287583117E+00  0.20362505945E-01 0.  0.
         14    1    1    2    0    0  0.22210784025E-01  0.11008901835E-02  0.70177967011E-02  0.23319098541E-01  0.00000000000E+00 0.  1.
     999901    1    3    3    0    0  0.47473336051E-01  0.94219253845E-01  0.50423899058E-01  0.88773507029E+00  0.88000000000E+00 0.  1.
        -11    1    4    4    0    0 -0.62269695805E-01 -0.82798055319E-01 -0.42405121570E-01  0.11194413087E+00  0.51100000000E-03 0. -1.
         11    1    4    4    0    0 -0.74144242711E-02 -0.12522088709E-01 -0.15036574189E-01  0.20931700295E-01  0.51100000000E-03 0.  1.
</event>
<event>
 8    1  0.1129602E+005  0.1043930E+01  0.7957747E-01            NaN
         13   -1    0    0    0    0  0.00000000000E+00  0.00000000000E+00  0.74505805969E-08  0.10566000000E+00  0.10566000000E+00 0. -1.
     999900   -1    0    0    0    0 -0.00000000000E+00 -0.00000000000E+00 -0.74505805969E-08  0.93827000000E+00  0.93827000000E+00 0.  1.
     999902    2    1    2    0    0 -0.96489904399E-02 -0.17164312287E-01  0.13406903482E-01  0.10201085455E+01  0.10198303697E+01 0.  0.
     999903    2    3    3    0    0 -0.11065334062E-01  0.96404710631E-01  0.84239828842E-01  0.12998651326E+00  0.19591707832E-01 0.  0.
         14    1    1    2    0    0  0.96489904399E-02  0.17164312287E-01 -0.13406903482E-01  0.23821454485E-01  0.00000000000E+00 0.  1.
     999901    1    3    3    0    0  0.14163436216E-02 -0.11356902292E+00 -0.70832925359E-01  0.89012203226E+00  0.88000000000E+00 0.  1.
        -11    1    4    4    0    0 -0.10403661682E-01  0.20276343673E-01  0.17421799019E-01  0.28690529643E-01  0.51100000000E-03 0. -1.
         11    1    4    4    0    0 -0.66167237985E-03  0.76128366958E-01  0.66818029823E-01  0.10129598361E+00  0.51100000000E-03 0.  1.
</event>
<event>
 8    1  0.1129602E+005  0.1043930E+01  0.7957747E-01            NaN
         13   -1    0    0    0    0  0.00000000000E+00  0.00000000000E+00  0.74505805969E-08  0.10566000000E+00  0.10566000000E+00 0.  1.
     999900   -1    0    0    0    0 -0.00000000000E+00 -0.00000000000E+00 -0.74505805969E-08  0.93827000000E+00  0.93827000000E+00 0. -1.
     999902    2    1    2    0    0  0.28664804509E-02  0.24089708683E-01  0.96952520090E-02  0.10178047500E+01  0.10174694003E+01 0.  0.
     999903    2    3    3    0    0 -0.29875028212E-01  0.11854276439E+00  0.44087945813E-01  0.13147735932E+00  0.19941031775E-01 0.  0.
         14    1    1    2    0    0 -0.28664804509E-02 -0.24089708683E-01 -0.96952520090E-02  0.26125249973E-01  0.00000000000E+00 0.  1.
     999901    1    3    3    0    0  0.32741508663E-01 -0.94453055710E-01 -0.34392693804E-01  0.88632739070E+00  0.88000000000E+00 0.  1.
        -11    1    4    4    0    0 -0.31764547263E-01  0.98767519635E-01  0.33919348091E-01  0.10915490229E+00  0.51100000000E-03 0. -1.
         11    1    4    4    0    0  0.18895190512E-02  0.19775244758E-01  0.10168597721E-01  0.22322457036E-01  0.51100000000E-03 0.  1.
</event>
<event>
 8    1  0.1129602E+005  0.1043930E+01  0.7957747E-01            NaN
         13   -1    0    0    0    0  0.00000000000E+00  0.00000000000E+00  0.74505805969E-08  0.10566000000E+00  0.10566000000E+00 0. -1.
     999900   -1    0    0    0    0 -0.00000000000E+00 -0.00000000000E+00 -0.74505805969E-08  0.93827000000E+00  0.93827000000E+00 0. -1.
     999902    2    1    2    0    0 -0.34119266626E-02 -0.64604314525E-02  0.23658798258E-01  0.10191687974E+01  0.10188679603E+01 0.  0.
     999903    2    3    3    0    0 -0.73136126745E-01 -0.10438258935E+00 -0.16957651492E-01  0.13006817934E+00  0.19635461214E-01 0.  0.
         14    1    1    2    0    0  0.34119266626E-02  0.64604314525E-02 -0.23658798258E-01  0.24761202578E-01  0.00000000000E+00 0.  1.
     999901    1    3    3    0    0  0.69724200083E-01  0.97922157900E-01  0.40616449750E-01  0.88910061808E+00  0.88000000000E+00 0.  1.
        -11    1    4    4    0    0 -0.32648028029E-01 -0.63440773248E-01 -0.81168295813E-02  0.71810650240E-01  0.51100000000E-03 0.  1.
         11    1    4    4    0    0 -0.40488098716E-01 -0.40941816105E-01 -0.88408219109E-02  0.58257529099E-01  0.51100000000E-03 0. -1.
</event>
<event>
 8    1  0.1129602E+005  0.1043930E+01  0.7957747E-01            NaN
         13   -1    0    0    0    0  0.00000000000E+00  0.00000000000E+00  0.74505805969E-08  0.10566000000E+00  0.10566000000E+00 0. -1.
     999900   -1    0    0    0    0 -0.00000000000E+00 -0.00000000000E+00 -0.74505805969E-08  0.93827000000E+00  0.93827000000E+00 0. -1.
     999902    2    1    2    0    0 -0.13430572649E-01 -0.15607274691E-01  0.90735600576E-02  0.10214289601E+01  0.10211810925E+01 0.  0.
     999903    2    3    3    0    0  0.51466889141E-01  0.50602760746E-01  0.10775361005E+00  0.13107329991E+00  0.18970751144E-01 0.  0.
         14    1    1    2    0    0  0.13430572649E-01  0.15607274691E-01 -0.90735600576E-02  0.22501039911E-01  0.00000000000E+00 0.  1.
     999901    1    3    3    0    0 -0.64897461790E-01 -0.66210035437E-01 -0.98680049990E-01  0.89035566017E+00  0.88000000000E+00 0. -1.
        -11    1    4    4    0    0  0.36764159775E-01  0.26790370268E-01  0.55200878180E-01  0.71531290048E-01  0.51100000000E-03 0.  1.
         11    1    4    4    0    0  0.14702729365E-01  0.23812390478E-01  0.52552731868E-01  0.59542009866E-01  0.51100000000E-03 0. -1.
</event>
<event>
 8    1  0.1129602E+005  0.1043930E+01  0.7957747E-01            NaN
         13   -1    0    0    0    0  0.00000000000E+00  0.00000000000E+00  0.74505805969E-08  0.10566000000E+00  0.10566000000E+00 0. -1.
     999900   -1    0    0    0    0 -0.00000000000E+00 -0.00000000000E+00 -0.74505805969E-08  0.93827000000E+00  0.93827000000E+00 0.  1.
     999902    2    1    2    0    0  0.15329429342E-01  0.84198347986E-02  0.19532814822E-01  0.10177113830E+01  0.10173736006E+01 0.  0.
     999903    2    3    3    0    0  0.43393328242E-01 -0.11263830513E+00  0.40160764442E-01  0.12874109781E+00  0.19774087753E-01 0.  0.
         14    1    1    2    0    0 -0.15329429342E-01 -0.84198347986E-02 -0.19532814822E-01  0.26218616989E-01  0.00000000000E+00 0.  1.
     999901    1    3    3    0    0 -0.28063898900E-01  0.12105813993E+00 -0.20627949620E-01  0.88897028520E+00  0.88000000000E+00 0. -1.
        -11    1    4    4    0    0  0.30472920459E-01 -0.91171229073E-01  0.24548818782E-01  0.99215409673E-01  0.51100000000E-03 0. -1.
         11    1    4    4    0    0  0.12920407783E-01 -0.21467076056E-01  0.15611945660E-01  0.29525688137E-01  0.51100000000E-03 0.  1.
</event>
<event>
 8    1  0.1129602E+005  0.1043930E+01  0.7957747E-01            NaN
         13   -1    0    0    0    0  0.00000000000E+00  0.00000000000E+00  0.74505805969E-08  0.10566000000E+00  0.10566000000E+00 0. -1.
     999900   -1    0    0    0    0 -0.00000000000E+00 -0.00000000000E+00 -0.74505805969E-08  0.93827000000E+00  0.93827000000E+00 0.  1.
     999902    2    1    2    0    0  0.17332042349E-01  0.19830251421E-02 -0.16397473458E-01  0.10199882119E+01  0.10197071850E+01 0.  0.
     999903    2    3    3    0    0 -0.20246154909E-01 -0.99564260640E-01  0.76152866272E-01  0.12853460261E+00  0.19973388351E-01 0.  0.
         14    1    1    2    0    0 -0.17332042349E-01 -0.19830251421E-02  0.16397473458E-01  0.23941788081E-01  0.00000000000E+00 0. -1.
     999901    1    3    3    0    0  0.37578197258E-01  0.10154728578E+00 -0.92550339731E-01  0.89145360931E+00  0.88000000000E+00 0.  1.
        -11    1    4    4    0    0 -0.37348594848E-02 -0.16347142342E-01  0.22819998441E-01  0.28322988684E-01  0.51100000000E-03 0. -1.
         11    1    4    4    0    0 -0.16511295424E-01 -0.83217118297E-01  0.53332867831E-01  0.10021161393E+00  0.51100000000E-03 0.  1.
</event>
<event>
 8    1  0.1129602E+005  0.1043930E+01  0.7957747E-01            NaN
         13   -1    0    0    0    0  0.00000000000E+00  0.00000000000E+00  0.74505805969E-08  0.10566000000E+00  0.10566000000E+00 0.  1.
     999900   -1    0    0    0    0 -0.00000000000E+00 -0.00000000000E+00 -0.74505805969E-08  0.93827000000E+00  0.93827000000E+00 0.  1.
     999902    2    1    2    0    0  0.13434088530E-01  0.16919517367E-01 -0.27062180362E-03  0.10223240277E+01  0.10220956900E+01 0.  0.
     999903    2    3    3    0    0 -0.19645965094E-01 -0.26824106954E-02 -0.12870346234E+00  0.13217037802E+00  0.22611243552E-01 0.  0.
         14    1    1    2    0    0 -0.13434088530E-01 -0.16919517367E-01  0.27062180362E-03  0.21605972293E-01  0.00000000000E+00 0.  1.
     999901    1    3    3    0    0  0.33080053624E-01  0.19601928062E-01  0.12843284054E+00  0.89015364969E+00  0.88000000000E+00 0. -1.
        -11    1    4    4    0    0 -0.13739433989E-01 -0.82313056957E-02 -0.39917951544E-01  0.43014304786E-01  0.51100000000E-03 0. -1.
         11    1    4    4    0    0 -0.59065311052E-02  0.55488950003E-02 -0.88785510795E-01  0.89156073229E-01  0.51100000000E-03 0.  1.
</event>
<event>
 8    1  0.1129602E+005  0.1043930E+01  0.7957747E-01            NaN
         13   -1    0    0    0    0  0.00000000000E+00  0.00000000000E+00  0.74505805969E-08  0.10566000000E+00  0.10566000000E+00 0.  1.
     999900   -1    0    0    0    0 -0.00000000000E+00 -0.00000000000E+00 -0.74505805969E-08  0.93827000000E+00  0.93827000000E+00 0. -1.
     999902    2    1    2    0    0 -0.18545727601E-01 -0.10165048500E-01  0.10841903440E-01  0.10201640771E+01  0.10198872119E+01 0.  0.
     999903    2    3    3    0    0  0.23352056385E-01  0.12286878040E+00 -0.16348720347E-01  0.12876475354E+00  0.25904157267E-01 0.  0.
         14    1    1    2    0    0  0.18545727601E-01  0.10165048500E-01 -0.10841903440E-01  0.23765922945E-01  0.00000000000E+00 0.  1.
     999901    1    3    3    0    0 -0.41897783986E-01 -0.13303382890E+00  0.27190623786E-01  0.89139932351E+00  0.88000000000E+00 0.  1.
        -11    1    4    4    0    0 -0.55241002093E-02  0.27885491918E-01 -0.44257072363E-02  0.28774369640E-01  0.51100000000E-03 0.  1.
         11    1    4    4    0    0  0.28876156595E-01  0.94983288482E-01 -0.11923013110E-01  0.99990383904E-01  0.51100000000E-03 0. -1.
</event>
<event>
 8    1  0.1129602E+005  0.1043930E+01  0.7957747E-01            NaN
         13   -1    0    0    0    0  0.00000000000E+00  0.00000000000E+00  0.74505805969E-08  0.10566000000E+00  0.10566000000E+00 0.  1.
     999900   -1    0    0    0    0 -0.00000000000E+00 -0.00000000000E+00 -0.74505805969E-08  0.93827000000E+00  0.93827000000E+00 0. -1.
     999902    2    1    2    0    0 -0.57526211534E-02 -0.96897715159E-02 -0.20838153227E-01  0.10202400664E+01  0.10199649897E+01 0.  0.
     999903    2    3    3    0    0  0.10537417007E+00  0.46690809824E-01  0.52856258132E-01  0.12841115911E+00  0.20295179716E-01 0.  0.
         14    1    1    2    0    0  0.57526211534E-02  0.96897715159E-02  0.20838153227E-01  0.23689933560E-01  0.00000000000E+00 0.  1.
     999901    1    3    3    0    0 -0.11112679123E+00 -0.56380581340E-01 -0.73694411359E-01  0.89182890733E+00  0.88000000000E+00 0. -1.
        -11    1    4    4    0    0  0.68463249391E-01  0.20111804517E-01  0.35759765719E-01  0.79816810030E-01  0.51100000000E-03 0. -1.
         11    1    4    4    0    0  0.36910920684E-01  0.26579005307E-01  0.17096492412E-01  0.48594349081E-01  0.51100000000E-03 0.  1.
</event>
<event>
 8    1  0.1129602E+005  0.1043930E+01  0.7957747E-01            NaN
         13   -1    0    0    0    0  0.00000000000E+00  0.00000000000E+00  0.74505805969E-08  0.10566000000E+00  0.10566000000E+00 0. -1.
     999900   -1    0    0    0    0 -0.00000000000E+00 -0.00000000000E+00 -0.74505805969E-08  0.93827000000E+00  0.93827000000E+00 0. -1.
     999902    2    1    2    0    0  0.23353984668E-01  0.60668752248E-03  0.47673834402E-02  0.10200866652E+01  0.10198079721E+01 0.  0.
     999903    2    3    3    0    0  0.57646703907E-01 -0.11001826898E+00 -0.38186630114E-01  0.13145911731E+00  0.19902734073E-01 0.  0.
         14    1    1    2    0    0 -0.23353984668E-01 -0.60668752248E-03 -0.47673834402E-02  0.23843334802E-01  0.00000000000E+00 0.  1.
     999901    1    3    3    0    0 -0.34292719239E-01  0.11062495650E+00  0.42954013554E-01  0.88862754789E+00  0.88000000000E+00 0. -1.
        -11    1    4    4    0    0  0.77476277068E-02 -0.29333250510E-01 -0.14744419950E-01  0.33736098785E-01  0.51100000000E-03 0. -1.
         11    1    4    4    0    0  0.49899076200E-01 -0.80685018466E-01 -0.23442210164E-01  0.97723018521E-01  0.51100000000E-03 0.  1.
</event>
<event>
 8    1  0.1129602E+005  0.1043930E+01  0.7957747E-01            NaN
         13   -1    0    0    0    0  0.00000000000E+00  0.00000000000E+00  0.74505805969E-08  0.10566000000E+00  0.10566000000E+00 0. -1.
     999900   -1    0    0    0    0 -0.00000000000E+00 -0.00000000000E+00 -0.74505805969E-08  0.93827000000E+00  0.93827000000E+00 0.  1.
     999902    2    1    2    0    0 -0.18512532420E-01  0.10521233070E-01  0.10192303234E-01  0.10203229407E+01  0.10200498077E+01 0.  0.
     999903    2    3    3    0    0 -0.94456829998E-01  0.89898320306E-01 -0.16067108215E-01  0.13310379362E+00  0.21322926242E-01 0.  0.
         14    1    1    2    0    0  0.18512532420E-01 -0.10521233070E-01 -0.10192303234E-01  0.23607059264E-01  0.00000000000E+00 0.  1.
     999901    1    3    3    0    0  0.75944297578E-01 -0.79377087236E-01  0.26259411449E-01  0.88721914711E+00  0.88000000000E+00 0. -1.
        -11    1    4    4    0    0 -0.39109821094E-01  0.32785586682E-01 -0.16282489888E-01  0.53571012666E-01  0.51100000000E-03 0. -1.
         11    1    4    4    0    0 -0.55347008904E-01  0.57112733624E-01  0.21538167278E-03  0.79532780958E-01  0.51100000000E-03 0.  1.
</event>
<event>
 7    1  0.1129602E+005  0.1043930E+01  0.7957747E-01            NaN
         13   -1    0    0    0    0  0.00000000000E+00  0.00000000000E+00  0.74505805969E-08  0.10566000000E+00  0.10566000000E+00 0. -1.
     999900   -1    0    0    0    0 -0.00000000000E+00 -0.00000000000E+00 -0.74505805969E-08  0.93827000000E+00  0.93827000000E+00 0. -1.
     999903    2    1    2    0    0 -0.60673782748E-01 -0.19138318316E-01 -0.97263404007E-01  0.11784762938E+00  0.19501560208E-01 0.  0.
         14    1    1    2    0    0 -0.58340296840E-02  0.37331834643E-01  0.99773192613E-02  0.39080029168E-01  0.00000000000E+00 0.  1.
     999901    1    1    2    0    0  0.66507812432E-01 -0.18193516327E-01  0.87286084746E-01  0.88700234145E+00  0.88000000000E+00 0. -1.
        -11    1    3    3    0    0 -0.33290430156E-01 -0.58857253563E-02 -0.66376881172E-01  0.74491918878E-01  0.51100000000E-03 0.  1.
         11    1    3    3    0    0 -0.27383352591E-01 -0.13252592960E-01 -0.30886522834E-01  0.43355710502E-01  0.51100000000E-03 0. -1.
</event>
<event>
 8    1  0.1129602E+005  0.1043930E+01  0.7957747E-01            NaN
         13   -1    0    0    0    0  0.00000000000E+00  0.00000000000E+00  0.74505805969E-08  0.10566000000E+00  0.10566000000E+00 0.  1.
     999900   -1    0    0    0    0 -0.00000000000E+00 -0.00000000000E+00 -0.74505805969E-08  0.93827000000E+00  0.93827000000E+00 0. -1.
     999902    2    1    2    0    0 -0.16490857085E-01 -0.14735856866E-01 -0.83158682084E-02  0.10203027380E+01  0.10200291318E+01 0.  0.
     999903    2    3    3    0    0 -0.18257682039E-02 -0.98525559017E-01  0.84612792301E-01  0.13133057030E+00  0.19436431409E-01 0.  0.
         14    1    1    2    0    0  0.16490857085E-01  0.14735856866E-01  0.83158682084E-02  0.23627261987E-01  0.00000000000E+00 0.  1.
     999901    1    3    3    0    0 -0.14665088881E-01  0.83789702151E-01 -0.92928660510E-01  0.88897216771E+00  0.88000000000E+00 0. -1.
        -11    1    4    4    0    0  0.69636963735E-02 -0.45781244791E-01  0.31833788889E-01  0.56196678530E-01  0.51100000000E-03 0. -1.
         11    1    4    4    0    0 -0.87894645775E-02 -0.52744314226E-01  0.52779003412E-01  0.75133891773E-01  0.51100000000E-03 0.  1.
</event>
<event>
 8    1  0.1129602E+005  0.1043930E+01  0.7957747E-01            NaN
         13   -1    0    0    0    0  0.00000000000E+00  0.00000000000E+00  0.74505805969E-08  0.10566000000E+00  0.10566000000E+00 0. -1.
     999900   -1    0    0    0    0 -0.00000000000E+00 -0.00000000000E+00 -0.74505805969E-08  0.93827000000E+00  0.93827000000E+00 0.  1.
     999902    2    1    2    0    0  0.50276597550E-02  0.38955563008E-02  0.20640493312E-01  0.10223317898E+01  0.10221036179E+01 0.  0.
     999903    2    3    3    0    0  0.89653894756E-01  0.35174532357E-01 -0.86533494451E-01  0.13125029088E+00  0.21529621969E-01 0.  0.
         14    1    1    2    0    0 -0.50276597550E-02 -0.38955563008E-02 -0.20640493312E-01  0.21598210243E-01  0.00000000000E+00 0.  1.
     999901    1    3    3    0    0 -0.84626235001E-01 -0.31278976056E-01  0.10717398776E+00  0.89108149888E+00  0.88000000000E+00 0. -1.
        -11    1    4    4    0    0  0.20445828945E-01  0.18099373074E-01 -0.26488903324E-01  0.38046581282E-01  0.51100000000E-03 0.  1.
         11    1    4    4    0    0  0.69208065811E-01  0.17075159283E-01 -0.60044591127E-01  0.93203709596E-01  0.51100000000E-03 0. -1.
</event>
<event>
 8    1  0.1129602E+005  0.1043930E+01  0.7957747E-01            NaN
         13   -1    0    0    0    0  0.00000000000E+00  0.00000000000E+00  0.74505805969E-08  0.10566000000E+00  0.10566000000E+00 0.  1.
     999900   -1    0    0    0    0 -0.00000000000E+00 -0.00000000000E+00 -0.74505805969E-08  0.93827000000E+00  0.93827000000E+00 0. -1.
     999902    2    1    2    0    0 -0.17617468394E-03  0.18564657315E-01 -0.10466479225E-01  0.10226174514E+01  0.10223953380E+01 0.  0.
     999903    2    3    3    0    0  0.36191031489E-01  0.12438293750E+00 -0.34244597471E-01  0.13521366454E+00  0.18142125569E-01 0.  0.
         14    1    1    2    0    0  0.17617468394E-03 -0.18564657315E-01  0.10466479225E-01  0.21312548559E-01  0.00000000000E+00 0.  1.
     999901    1    3    3    0    0 -0.36367206172E-01 -0.10581828018E+00  0.23778118246E-01  0.88740378690E+00  0.88000000000E+00 0.  1.
        -11    1    4    4    0    0  0.17651107922E-01  0.85580174389E-01 -0.17851392353E-01  0.89187786099E-01  0.51100000000E-03 0.  1.
         11    1    4    4    0    0  0.18539923567E-01  0.38802763110E-01 -0.16393205117E-01  0.46025878436E-01  0.51100000000E-03 0. -1.
</event>
<event>
 8    1  0.1129602E+005  0.1043930E+01  0.7957747E-01            NaN
         13   -1    0    0    0    0  0.00000000000E+00  0.00000000000E+00  0.74505805969E-08  0.10566000000E+00  0.10566000000E+00 0. -1.
     999900   -1    0    0    0    0 -0.00000000000E+00 -0.00000000000E+00 -0.74505805969E-08  0.93827000000E+00  0.93827000000E+00 0.  1.
     999902    2    1    2    0    0  0.13212440379E-01 -0.16214174810E-01 -0.98366545648E-02  0.10208166312E+01  0.10205549307E+01 0.  0.
     999903    2    3    3    0    0 -0.22409494992E-01  0.41092761376E-01 -0.12103511118E+00  0.13125600706E+00  0.19693672817E-01 0.  0.
         14    1    1    2    0    0 -0.13212440379E-01  0.16214174810E-01  0.98366545648E-02  0.23113368828E-01  0.00000000000E+00 0. -1.
     999901    1    3    3    0    0  0.35621935371E-01 -0.57306936186E-01  0.11119845661E+00  0.88956062411E+00  0.88000000000E+00 0. -1.
        -11    1    4    4    0    0 -0.19849137222E-01  0.17444046051E-01 -0.53937637613E-01  0.60065071909E-01  0.51100000000E-03 0. -1.
         11    1    4    4    0    0 -0.25603577701E-02  0.23648715325E-01 -0.67097473563E-01  0.71190935153E-01  0.51100000000E-03 0.  1.
</event>
<event>
 8    1  0.1129602E+005  0.1043930E+01  0.7957747E-01            NaN
         13   -1    0    0    0    0  0.00000000000E+00  0.00000000000E+00  0.74505805969E-08  0.10566000000E+00  0.10566000000E+00 0.  1.
     999900   -1    0    0    0    0 -0.00000000000E+00 -0.00000000000E+00 -0.74505805969E-08  0.93827000000E+00  0.93827000000E+00 0. -1.
     999902    2    1    2    0    0 -0.11872520516E-01 -0.15457827891E-01 -0.70826535240E-02  0.10231919874E+01  0.10229818072E+01 0.  0.
     999903    2    3    3    0    0  0.48822472273E-01 -0.12328088951E+00 -0.12727920623E-01  0.13451793926E+00  0.18742051662E-01 0.  0.
         14    1    1    2    0    0  0.11872520516E-01  0.15457827891E-01  0.70826535240E-02  0.20738012621E-01  0.00000000000E+00 0.  1.
     999901    1    3    3    0    0 -0.60694992790E-01  0.10782306162E+00  0.56452670991E-02  0.88867404812E+00  0.88000000000E+00 0. -1.
        -11    1    4    4    0    0  0.41746642680E-01 -0.10176369207E+00 -0.34895830101E-02  0.11005030445E+00  0.51100000000E-03 0.  1.
         11    1    4    4    0    0  0.70758295935E-02 -0.21517197446E-01 -0.92383376131E-02  0.24467634810E-01  0.51100000000E-03 0. -1.
</event>
<event>
 8    1  0.1129602E+005  0.1043930E+01  0.7957747E-01            NaN
         13   -1    0    0    0    0  0.00000000000E+00  0.00000000000E+00  0.74505805969E-08  0.10566000000E+00  0.10566000000E+00 0. -1.
     999900   -1    0    0    0    0 -0.00000000000E+00 -0.00000000000E+00 -0.74505805969E-08  0.93827000000E+00  0.93827000000E+00 0. -1.
     999902    2    1    2    0    0 -0.10104736651E-01  0.20542797874E-01 -0.10728263414E-02  0.10210113787E+01  0.10207541194E+01 0.  0.
     999903    2    3    3    0    0 -0.11308285828E+00  0.79857194110E-02 -0.65494831918E-01  0.13257884406E+00  0.20882345020E-01 0.  0.
         14    1    1    2    0    0  0.10104736651E-01 -0.20542797874E-01  0.10728263414E-02  0.22918621329E-01  0.00000000000E+00 0.  1.
     999901    1    3    3    0    0  0.10297812163E+00  0.12557078463E-01  0.64422005576E-01  0.88843253461E+00  0.88000000000E+00 0.  1.
        -11    1    4    4    0    0 -0.23037412554E-01 -0.66783622353E-02 -0.15195220820E-01  0.28398569613E-01  0.51100000000E-03 0.  1.
         11    1    4    4    0    0 -0.90045445723E-01  0.14664081646E-01 -0.50299611098E-01  0.10418027445E+00  0.51100000000E-03 0. -1.
</event>
<event>
 8    1  0.1129602E+005  0.1043930E+01  0.7957747E-01            NaN
         13   -1    0    0    0    0  0.00000000000E+00  0.00000000000E+00  0.74505805969E-08  0.10566000000E+00  0.10566000000E+00 0.  1.
     999900   -1    0    0    0    0 -0.00000000000E+00 -0.00000000000E+00 -0.74505805969E-08  0.93827000000E+00  0.93827000000E+00 0. -1.
     999902    2    1    2    0    0 -0.49873606270E-02  0.18541656509E-01  0.13949312191E-01  0.10201971093E+01  0.10199210223E+01 0.  0.
     999903    2    3    3    0    0  0.26303995157E-02 -0.12534712968E+00  0.19542645488E-01  0.12846099446E+00  0.20037220015E-01 0.  0.
         14    1    1    2    0    0  0.49873606270E-02 -0.18541656509E-01 -0.13949312191E-01  0.23732890736E-01  0.00000000000E+00 0. -1.
     999901    1    3    3    0    0 -0.76177601426E-02  0.14388878619E+00 -0.55933332978E-02  0.89173611480E+00  0.88000000000E+00 0. -1.
        -11    1    4    4    0    0  0.52816023246E-02 -0.87915373391E-01  0.22225075824E-01  0.90836244517E-01  0.51100000000E-03 0. -1.
         11    1    4    4    0    0 -0.26512028090E-02 -0.37431756288E-01 -0.26824303360E-02  0.37624749948E-01  0.51100000000E-03 0.  1.
</event>
<event>
 8    1  0.1129602E+005  0.1043930E+01  0.7957747E-01            NaN
         13   -1    0    0    0    0  0.00000000000E+00  0.00000000000E+00  0.74505805969E-08  0.10566000000E+00  0.10566000000E+00 0.  1.
     999900   -1    0    0    0    0 -0.00000000000E+00 -0.00000000000E+00 -0.74505805969E-08  0.93827000000E+00  0.93827000000E+00 0. -1.
     999902    2    1    2    0    0 -0.16627121939E-01 -0.12742149279E-01 -0.11377646213E-01  0.10200914936E+01  0.10198129147E+01 0.  0.
     999903    2    3    3    0    0  0.72421242171E-01  0.11358021502E-01  0.10305004434E+00  0.12790086056E+00  0.19117466451E-01 0.  0.
         14    1    1    2    0    0  0.16627121939E-01  0.12742149279E-01  0.11377646213E-01  0.23838506362E-01  0.00000000000E+00 0. -1.
     999901    1    3    3    0    0 -0.89048364109E-01 -0.24100170781E-01 -0.11442769056E+00  0.89219063308E+00  0.88000000000E+00 0. -1.
        -11    1    4    4    0    0  0.52812202855E-01 -0.20509571110E-04  0.76868221039E-01  0.93263678448E-01  0.51100000000E-03 0. -1.
         11    1    4    4    0    0  0.19609039316E-01  0.11378531073E-01  0.26181823304E-01  0.34637182114E-01  0.51100000000E-03 0.  1.
</event>
<event>
 8    1  0.1129602E+005  0.1043930E+01  0.7957747E-01            NaN
         13   -1    0    0    0    0  0.00000000000E+00  0.00000000000E+00  0.74505805969E-08  0.10566000000E+00  0.10566000000E+00 0.  1.
     999900   -1    0    0    0    0 -0.00000000000E+00 -0.00000000000E+00 -0.74505805969E-08  0.93827000000E+00  0.93827000000E+00 0. -1.
     999902    2    1    2    0    0  0.19990720463E-01  0.70458051022E-02 -0.96859542902E-02  0.10206257089E+01  0.10203596168E+01 0.  0.
     999903    2    3    3    0    0  0.11956899086E+00 -0.48101946361E-01  0.24335598940E-01  0.13264227857E+00  0.19779076548E-01 0.  0.
         14    1    1    2    0    0 -0.19990720463E-01 -0.70458051022E-02  0.96859542902E-02  0.23304291122E-01  0.00000000000E+00 0.  1.
     999901    1    3    3    0    0 -0.99578270393E-01  0.55147751464E-01 -0.34021553230E-01  0.88798343031E+00  0.88000000000E+00 0. -1.
        -11    1    4    4    0    0  0.67739245752E-01 -0.25221070431E-01  0.38213231650E-02  0.72384884061E-01  0.51100000000E-03 0. -1.
         11    1    4    4    0    0  0.51829745104E-01 -0.22880875931E-01  0.20514275775E-01  0.60257394504E-01  0.51100000000E-03 0.  1.
</event>
<event>
 8    1  0.1129602E+005  0.1043930E+01  0.7957747E-01            NaN
         13   -1    0    0    0    0  0.00000000000E+00  0.00000000000E+00  0.74505805969E-08  0.10566000000E+00  0.10566000000E+00 0.  1.
     999900   -1    0    0    0    0 -0.00000000000E+00 -0.00000000000E+00 -0.74505805969E-08  0.93827000000E+00  0.93827000000E+00 0. -1.
     999902    2    1    2    0    0 -0.12542812555E-01  0.35712963701E-02  0.19674631946E-01  0.10203256054E+01  0.10200525347E+01 0.  0.
     999903    2    3    3    0    0 -0.11404654536E+00 -0.50377767853E-01  0.40338969113E-01  0.13260913928E+00  0.20332667998E-01 0.  0.
         14    1    1    2    0    0  0.12542812555E-01 -0.35712963701E-02 -0.19674631946E-01  0.23604394649E-01  0.00000000000E+00 0. -1.
     999901    1    3    3    0    0  0.10150373281E+00  0.53949064223E-01 -0.20664337167E-01  0.88771646607E+00  0.88000000000E+00 0.  1.
        -11    1    4    4    0    0 -0.27400347546E-01 -0.15168611526E-01  0.15642661048E-02  0.31361981294E-01  0.51100000000E-03 0. -1.
         11    1    4    4    0    0 -0.86646197819E-01 -0.35209156327E-01  0.38774703008E-01  0.10124715799E+00  0.51100000000E-03 0.  1.
</event>
<event>
 8    1  0.1129602E+005  0.1043930E+01  0.7957747E-01            NaN
         13   -1    0    0    0    0  0.00000000000E+00  0.00000000000E+00  0.74505805969E-08  0.10566000000E+00  0.10566000000E+00 0. -1.
     999900   -1    0    0    0    0 -0.00000000000E+00 -0.00000000000E+00 -0.74505805969E-08  0.93827000000E+00  0.93827000000E+00 0.  1.
     999902    2    1    2    0    0  0.13141789739E-01  0.19207132947E-01 -0.41959043158E-02  0.10202820359E+01  0.10200079444E+01 0.  0.
     999903    2    3    3    0    0 -0.91158222562E-01  0.89827920446E-01 -0.19269127738E-01  0.13118530872E+00  0.21433830935E-01 0.  0.
         14    1    1    2    0    0 -0.13141789739E-01 -0.19207132947E-01  0.41959043158E-02  0.23647964111E-01  0.00000000000E+00 0.  1.
     999901    1    3    3    0    0  0.10430001230E+00 -0.70620787499E-01  0.15073223422E-01  0.88909672717E+00  0.88000000000E+00 0.  1.
        -11    1    4    4    0    0 -0.77307316131E-01  0.69907599575E-01 -0.22710044382E-01  0.10667474323E+00  0.51100000000E-03 0.  1.
         11    1    4    4    0    0 -0.13850906431E-01  0.19920320870E-01  0.34409166442E-02  0.24510565495E-01  0.51100000000E-03 0. -1.
</event>
<event>
 8    1  0.1129602E+005  0.1043930E+01  0.7957747E-01            NaN
         13   -1    0    0    0    0  0.00000000000E+00  0.00000000000E+00  0.74505805969E-08  0.10566000000E+00  0.10566000000E+00 0.  1.
     999900   -1    0    0    0    0 -0.00000000000E+00 -0.00000000000E+00 -0.74505805969E-08  0.93827000000E+00  0.93827000000E+00 0. -1.
     999902    2    1    2    0    0 -0.10728790314E-01  0.15261004248E-01  0.14005958380E-01  0.10206025042E+01  0.10203358758E+01 0.  0.
     999903    2    3    3    0    0 -0.11250489142E+00  0.61628060264E-01 -0.27111104310E-01  0.13257159733E+00  0.19617544076E-01 0.  0.
         14    1    1    2    0    0  0.10728790314E-01 -0.15261004248E-01 -0.14005958380E-01  0.23327495845E-01  0.00000000000E+00 0. -1.
     999901    1    3    3    0    0  0.10177610110E+00 -0.46367056016E-01  0.41117062690E-01  0.88803090683E+00  0.88000000000E+00 0. -1.
        -11    1    4    4    0    0 -0.59416508851E-01  0.43317653386E-01 -0.13093833598E-01  0.74689023412E-01  0.51100000000E-03 0. -1.
         11    1    4    4    0    0 -0.53088382567E-01  0.18310406877E-01 -0.14017270712E-01  0.57882573913E-01  0.51100000000E-03 0.  1.
</event>
<event>
 8    1  0.1129602E+005  0.1043930E+01  0.7957747E-01            NaN
         13   -1    0    0    0    0  0.00000000000E+00  0.00000000000E+00  0.74505805969E-08  0.10566000000E+00  0.10566000000E+00 0.  1.
     999900   -1    0    0    0    0 -0.00000000000E+00 -0.00000000000E+00 -0.74505805969E-08  0.93827000000E+00  0.93827000000E+00 0. -1.
     999902    2    1    2    0    0  0.85765231838E-02 -0.11098357283E-01 -0.19639663818E-01  0.10197960679E+01  0.10195104577E+01 0.  0.
     999903    2    3    3    0    0 -0.81058677339E-01 -0.92638501487E-02  0.96237699507E-01  0.12768318382E+00  0.19620716919E-01 0.  0.
         14    1    1    2    0    0 -0.85765231838E-02  0.11098357283E-01  0.19639663818E-01  0.24133932112E-01  0.00000000000E+00 0.  1.
     999901    1    3    3    0    0  0.89635200523E-01 -0.18345071344E-02 -0.11587736333E+00  0.89211288407E+00  0.88000000000E+00 0. -1.
        -11    1    4    4    0    0 -0.26796678797E-01 -0.88575210099E-02  0.22324827465E-01  0.35988563674E-01  0.51100000000E-03 0.  1.
         11    1    4    4    0    0 -0.54261998542E-01 -0.40632913881E-03  0.73912872042E-01  0.91694620145E-01  0.51100000000E-03 0. -1.
</event>
<event>
 8    1  0.1129602E+005  0.1043930E+01  0.7957747E-01            NaN
         13   -1    0    0    0    0  0.00000000000E+00  0.00000000000E+00  0.74505805969E-08  0.10566000000E+00  0.10566000000E+00 0.  1.
     999900   -1    0    0    0    0 -0.00000000000E+00 -0.00000000000E+00 -0.74505805969E-08  0.93827000000E+00  0.93827000000E+00 0. -1.
     999902    2    1    2    0    0 -0.10649247192E-01  0.18759421455E-01 -0.10855181475E-01  0.10197813494E+01  0.10194953866E+01 0.  0.
     999903    2    3    3    0    0 -0.35696574594E-02  0.97919209015E-01  0.84677600660E-01  0.13105028493E+00  0.20074042404E-01 0.  0.
         14    1    1    2    0    0  0.10649247192E-01 -0.18759421455E-01  0.10855181475E-01  0.24148650562E-01  0.00000000000E+00 0.  1.
     999901    1    3    3    0    0 -0.70795897331E-02 -0.79159787560E-01 -0.95532782135E-01  0.88873106451E+00  0.88000000000E+00 0. -1.
        -11    1    4    4    0    0 -0.39721170008E-02  0.70134626687E-01  0.71697144742E-01  0.10037621859E+00  0.51100000000E-03 0.  1.
         11    1    4    4    0    0  0.40245954149E-03  0.27784582328E-01  0.12980455918E-01  0.30674066337E-01  0.51100000000E-03 0. -1.
</event>
<event>
 8    1  0.1129602E+005  0.1043930E+01  0.7957747E-01            NaN
         13   -1    0    0    0    0  0.00000000000E+00  0.00000000000E+00  0.74505805969E-08  0.10566000000E+00  0.10566000000E+00 0.  1.
     999900   -1    0    0    0    0 -0.00000000000E+00 -0.00000000000E+00 -0.74505805969E-08  0.93827000000E+00  0.93827000000E+00 0.  1.
     999902    2    1    2    0    0  0.20920820078E-01  0.73201449585E-02  0.70829540451E-02  0.10206612769E+01  0.10203960059E+01 0.  0.
     999903    2    3    3    0    0 -0.11011891062E+00 -0.27612227531E-01 -0.55869861449E-01  0.12805008574E+00  0.19666556750E-01 0.  0.
         14    1    1    2    0    0 -0.20920820078E-01 -0.73201449585E-02 -0.70829540451E-02  0.23268723062E-01  0.00000000000E+00 0.  1.
     999901    1    3    3    0    0  0.13103973070E+00  0.34932372490E-01  0.62952815494E-01  0.89261119120E+00  0.88000000000E+00 0. -1.
        -11    1    4    4    0    0 -0.24178138654E-01 -0.14709852382E-01 -0.13096857733E-01  0.31188955566E-01  0.51100000000E-03 0.  1.
         11    1    4    4    0    0 -0.85940771968E-01 -0.12902375150E-01 -0.42773003716E-01  0.96861130176E-01  0.51100000000E-03 0. -1.
</event>
<event>
 8    1  0.1129602E+005  0.1043930E+01  0.7957747E-01            NaN
         13   -1    0    0    0    0  0.00000000000E+00  0.00000000000E+00  0.74505805969E-08  0.10566000000E+00  0.10566000000E+00 0.  1.
     999900   -1    0    0    0    0 -0.00000000000E+00 -0.00000000000E+00 -0.74505805969E-08  0.93827000000E+00  0.93827000000E+00 0. -1.
     999902    2    1    2    0    0 -0.17663745572E-01  0.14360460639E-01 -0.47504274333E-02  0.10206749511E+01  0.10204099953E+01 0.  0.
     999903    2    3    3    0    0  0.37629053395E-01  0.11844126735E+00  0.39206850936E-01  0.13173043640E+00  0.19273070353E-01 0.  0.
         14    1    1    2    0    0  0.17663745572E-01 -0.14360460639E-01  0.47504274333E-02  0.23255048875E-01  0.00000000000E+00 0.  1.
     999901    1    3    3    0    0 -0.55292798967E-01 -0.10408080672E+00 -0.43957278369E-01  0.88894451473E+00  0.88000000000E+00 0. -1.
        -11    1    4    4    0    0  0.12140494402E-01  0.37824132738E-01  0.32835776972E-02  0.39863512454E-01  0.51100000000E-03 0.  1.
         11    1    4    4    0    0  0.25488558993E-01  0.80617134617E-01  0.35923273239E-01  0.91866923942E-01  0.51100000000E-03 0. -1.
</event>
<event>
 8    1  0.1129602E+005  0.1043930E+01  0.7957747E-01            NaN
         13   -1    0    0    0    0  0.00000000000E+00  0.00000000000E+00  0.74505805969E-08  0.10566000000E+00  0.10566000000E+00 0. -1.
     999900   -1    0    0    0    0 -0.00000000000E+00 -0.00000000000E+00 -0.74505805969E-08  0.93827000000E+00  0.93827000000E+00 0. -1.
     999902    2    1    2    0    0 -0.17424081344E-01  0.93895852607E-02 -0.13864927296E-01  0.10197639260E+01  0.10194775455E+01 0.  0.
     999903    2    3    3    0    0  0.10945112307E+00 -0.60533822920E-02 -0.64608305998E-01  0.12908402100E+00  0.21731532275E-01 0.  0.
         14    1    1    2    0    0  0.17424081344E-01 -0.93895852607E-02  0.13864927296E-01  0.24166073967E-01  0.00000000000E+00 0. -1.
     999901    1    3    3    0    0 -0.12687520442E+00  0.15442967553E-01  0.50743378702E-01  0.89067990503E+00  0.88000000000E+00 0. -1.
        -11    1    4    4    0    0  0.58461240981E-01 -0.13814233905E-01 -0.37461628178E-01  0.70796782852E-01  0.51100000000E-03 0.  1.
         11    1    4    4    0    0  0.50989882093E-01  0.77608516131E-02 -0.27146677820E-01  0.58287238151E-01  0.51100000000E-03 0. -1.
</event>
<event>
 8    1  0.1129602E+005  0.1043930E+01  0.7957747E-01            NaN
         13   -1    0    0    0    0  0.00000000000E+00  0.00000000000E+00  0.74505805969E-08  0.10566000000E+00  0.10566000000E+00 0.  1.
     999900   -1    0    0    0    0 -0.00000000000E+00 -0.00000000000E+00 -0.74505805969E-08  0.93827000000E+00  0.93827000000E+00 0.  1.
     999902    2    1    2    0    0  0.86101015438E-02  0.14475098523E-01 -0.16768481145E-01  0.10201635471E+01  0.10198866694E+01 0.  0.
     999903    2    3    3    0    0 -0.15817130622E-02  0.96296141322E-01 -0.89987368917E-01  0.13328161486E+00  0.19769007159E-01 0.  0.
         14    1    1    2    0    0 -0.86101015438E-02 -0.14475098523E-01  0.16768481145E-01  0.23766452949E-01  0.00000000000E+00 0.  1.
     999901    1    3    3    0    0  0.10191814606E-01 -0.81821042800E-01  0.73218887772E-01  0.88688193220E+00  0.88000000000E+00 0. -1.
        -11    1    4    4    0    0  0.81640684625E-02  0.36768044308E-01 -0.29372343514E-01  0.47765434998E-01  0.51100000000E-03 0.  1.
         11    1    4    4    0    0 -0.97457815247E-02  0.59528097014E-01 -0.60615025403E-01  0.85516179857E-01  0.51100000000E-03 0. -1.
</event>
<event>
 8    1  0.1129602E+005  0.1043930E+01  0.7957747E-01            NaN
         13   -1    0    0    0    0  0.00000000000E+00  0.00000000000E+00  0.74505805969E-08  0.10566000000E+00  0.10566000000E+00 0. -1.
     999900   -1    0    0    0    0 -0.00000000000E+00 -0.00000000000E+00 -0.74505805969E-08  0.93827000000E+00  0.93827000000E+00 0.  1.
     999902    2    1    2    0    0  0.25291891365E-02 -0.21379761596E-01 -0.81392961329E-02  0.10209139372E+01  0.10206544607E+01 0.  0.
     999903    2    3    3    0    0  0.21136547580E-01 -0.14214329667E-01  0.12651020029E+00  0.13044885421E+00  0.19059695049E-01 0.  0.
         14    1    1    2    0    0 -0.25291891365E-02  0.21379761596E-01  0.81392961329E-02  0.23016062763E-01  0.00000000000E+00 0.  1.
     999901    1    3    3    0    0 -0.18607358444E-01 -0.71654319282E-02 -0.13464949642E+00  0.89046508303E+00  0.88000000000E+00 0.  1.
        -11    1    4    4    0    0 -0.12746214036E-02  0.31285518815E-02  0.11419365339E-01  0.11919543714E-01  0.51100000000E-03 0. -1.
         11    1    4    4    0    0  0.22411168984E-01 -0.17342881549E-01  0.11509083495E+00  0.11852931050E+00  0.51100000000E-03 0.  1.
</event>
<event>
 8    1  0.1129602E+005  0.1043930E+01  0.7957747E-01            NaN
         13   -1    0    0    0    0  0.00000000000E+00  0.00000000000E+00  0.74505805969E-08  0.10566000000E+00  0.10566000000E+00 0. -1.
     999900   -1    0    0    0    0 -0.00000000000E+00 -0.00000000000E+00 -0.74505805969E-08  0.93827000000E+00  0.93827000000E+00 0. -1.
     999902    2    1    2    0    0  0.17085457502E-01  0.14876992172E-01  0.70436487436E-02  0.10202055244E+01  0.10199296355E+01 0.  0.
     999903    2    3    3    0    0 -0.63088520148E-01  0.89738143710E-01  0.68672803286E-01  0.13125658809E+00  0.21891601022E-01 0.  0.
         14    1    1    2    0    0 -0.17085457502E-01 -0.14876992172E-01 -0.70436487436E-02  0.23724475585E-01  0.00000000000E+00 0. -1.
     999901    1    3    3    0    0  0.80173977650E-01 -0.74861151538E-01 -0.61629154542E-01  0.88894893632E+00  0.88000000000E+00 0. -1.
        -11    1    4    4    0    0 -0.47227195131E-01  0.70622976007E-01  0.63008289384E-01  0.10577484745E+00  0.51100000000E-03 0. -1.
         11    1    4    4    0    0 -0.15861325017E-01  0.19115167703E-01  0.56645139018E-02  0.25481740646E-01  0.51100000000E-03 0.  1.
</event>
<event>
 8    1  0.1129602E+005  0.1043930E+01  0.7957747E-01            NaN
         13   -1    0    0    0    0  0.00000000000E+00  0.00000000000E+00  0.74505805969E-08  0.10566000000E+00  0.10566000000E+00 0. -1.
     999900   -1    0    0    0    0 -0.00000000000E+00 -0.00000000000E+00 -0.74505805969E-08  0.93827000000E+00  0.93827000000E+00 0.  1.
     999902    2    1    2    0    0 -0.22436072804E-02  0.24408636646E-01  0.32748626964E-03  0.10194162781E+01  0.10191214969E+01 0.  0.
     999903    2    3    3    0    0  0.24233139474E-01 -0.10143467244E+00 -0.71490976907E-01  0.12717446766E+00  0.13643592708E-01 0.  0.
         14    1    1    2    0    0  0.22436072804E-02 -0.24408636646E-01 -0.32748626964E-03  0.24513721950E-01  0.00000000000E+00 0. -1.
     999901    1    3    3    0    0 -0.26476746755E-01  0.12584330909E+00  0.71818463177E-01  0.89224181039E+00  0.88000000000E+00 0. -1.
        -11    1    4    4    0    0  0.69061885461E-03 -0.26617056184E-01 -0.20700426801E-01  0.33730007783E-01  0.51100000000E-03 0.  1.
         11    1    4    4    0    0  0.23542520620E-01 -0.74817616261E-01 -0.50790550106E-01  0.93444459874E-01  0.51100000000E-03 0. -1.
</event>
<event>
 8    1  0.1129602E+005  0.1043930E+01  0.7957747E-01            NaN
         13   -1    0    0    0    0  0.00000000000E+00  0.00000000000E+00  0.74505805969E-08  0.10566000000E+00  0.10566000000E+00 0.  1.
     999900   -1    0    0    0    0 -0.00000000000E+00 -0.00000000000E+00 -0.74505805969E-08  0.93827000000E+00  0.93827000000E+00 0.  1.
     999902    2    1    2    0    0  0.18836352698E-01 -0.98643230911E-02  0.88702242553E-02  0.10208910345E+01  0.10206310354E+01 0.  0.
     999903    2    3    3    0    0  0.54647327880E-01 -0.11939386812E+00 -0.90609818385E-02  0.13319701327E+00  0.20447903613E-01 0.  0.
         14    1    1    2    0    0 -0.18836352698E-01  0.98643230911E-02 -0.88702242553E-02  0.23038965501E-01  0.00000000000E+00 0. -1.
     999901    1    3    3    0    0 -0.35810975182E-01  0.10952954503E+00  0.17931206094E-01  0.88769402123E+00  0.88000000000E+00 0. -1.
        -11    1    4    4    0    0  0.38495373533E-01 -0.62258043202E-01 -0.95327129417E-02  0.73817961661E-01  0.51100000000E-03 0. -1.
         11    1    4    4    0    0  0.16151954347E-01 -0.57135824919E-01  0.47173110321E-03  0.59379051606E-01  0.51100000000E-03 0.  1.
</event>
<event>
 8    1  0.1129602E+005  0.1043930E+01  0.7957747E-01            NaN
         13   -1    0    0    0    0  0.00000000000E+00  0.00000000000E+00  0.74505805969E-08  0.10566000000E+00  0.10566000000E+00 0. -1.
     999900   -1    0    0    0    0 -0.00000000000E+00 -0.00000000000E+00 -0.74505805969E-08  0.93827000000E+00  0.93827000000E+00 0. -1.
     999902    2    1    2    0    0 -0.12511779953E-01  0.88373666597E-02  0.17338288800E-01  0.10207943145E+01  0.10205321026E+01 0.  0.
     999903    2    3    3    0    0  0.10878169084E+00  0.68736692477E-01  0.16706966388E-02  0.13031943624E+00  0.20546899517E-01 0.  0.
         14    1    1    2    0    0  0.12511779953E-01 -0.88373666597E-02 -0.17338288800E-01  0.23135685544E-01  0.00000000000E+00 0.  1.
     999901    1    3    3    0    0 -0.12129347079E+00 -0.59899325817E-01  0.15667592161E-01  0.89047487822E+00  0.88000000000E+00 0. -1.
        -11    1    4    4    0    0  0.30506204665E-01  0.26592871486E-01  0.77588127454E-02  0.41210067133E-01  0.51100000000E-03 0. -1.
         11    1    4    4    0    0  0.78275486176E-01  0.42143820990E-01 -0.60881161065E-02  0.89109369106E-01  0.51100000000E-03 0.  1.
</event>
<event>
 8    1  0.1129602E+005  0.1043930E+01  0.7957747E-01            NaN
         13   -1    0    0    0    0  0.00000000000E+00  0.00000000000E+00  0.74505805969E-08  0.10566000000E+00  0.10566000000E+00 0. -1.
     999900   -1    0    0    0    0 -0.00000000000E+00 -0.00000000000E+00 -0.74505805969E-08  0.93827000000E+00  0.93827000000E+00 0.  1.
     999902    2    1    2    0    0 -0.17422596636E-02 -0.16289001641E-01  0.15295389873E-01  0.10215175928E+01  0.10212716957E+01 0.  0.
     999903    2    3    3    0    0  0.71476003961E-01 -0.51908331577E-01  0.98438504349E-01  0.13385638029E+00  0.20593624632E-01 0.  0.
         14    1    1    2    0    0  0.17422596636E-02  0.16289001641E-01 -0.15295389873E-01  0.22412407157E-01  0.00000000000E+00 0.  1.
     999901    1    3    3    0    0 -0.73218263624E-01  0.35619329936E-01 -0.83143114476E-01  0.88766121256E+00  0.88000000000E+00 0.  1.
        -11    1    4    4    0    0  0.57935861589E-01 -0.42670632286E-01  0.66619544724E-01  0.98060041699E-01  0.51100000000E-03 0.  1.
         11    1    4    4    0    0  0.13540142372E-01 -0.92376992917E-02  0.31818959625E-01  0.35796338587E-01  0.51100000000E-03 0. -1.
</event>
<event>
 8    1  0.1129602E+005  0.1043930E+01  0.7957747E-01            NaN
         13   -1    0    0    0    0  0.00000000000E+00  0.00000000000E+00  0.74505805969E-08  0.10566000000E+00  0.10566000000E+00 0. -1.
     999900   -1    0    0    0    0 -0.00000000000E+00 -0.00000000000E+00 -0.74505805969E-08  0.93827000000E+00  0.93827000000E+00 0.  1.
     999902    2    1    2    0    0  0.49629219544E-02 -0.22877243687E-01 -0.23899313155E-02  0.10203989430E+01  0.10201275862E+01 0.  0.
     999903    2    3    3    0    0  0.98880716622E-01  0.40849684445E-01  0.71766249166E-01  0.13001654612E+00  0.17544654649E-01 0.  0.
         14    1    1    2    0    0 -0.49629219544E-02  0.22877243687E-01  0.23899313155E-02  0.23531057025E-01  0.00000000000E+00 0. -1.
     999901    1    3    3    0    0 -0.93917794668E-01 -0.63726928132E-01 -0.74156180482E-01  0.89038239685E+00  0.88000000000E+00 0.  1.
        -11    1    4    4    0    0  0.69710373878E-01  0.24115482818E-01  0.40790978657E-01  0.84292691253E-01  0.51100000000E-03 0.  1.
         11    1    4    4    0    0  0.29170342744E-01  0.16734201626E-01  0.30975270509E-01  0.45723854868E-01  0.51100000000E-03 0. -1.
</event>
<event>
 8    1  0.1129602E+005  0.1043930E+01  0.7957747E-01            NaN
         13   -1    0    0    0    0  0.00000000000E+00  0.00000000000E+00  0.74505805969E-08  0.10566000000E+00  0.10566000000E+00 0. -1.
     999900   -1    0    0    0    0 -0.00000000000E+00 -0.00000000000E+00 -0.74505805969E-08  0.93827000000E+00  0.93827000000E+00 0.  1.
     999902    2    1    2    0    0 -0.28989231995E-02  0.22609844043E-01 -0.59926576196E-02  0.10203605123E+01  0.10200882581E+01 0.  0.
     999903    2    3    3    0    0 -0.12124218487E-01  0.10431633608E+00  0.78138905839E-01  0.13253216356E+00  0.20741049317E-01 0.  0.
         14    1    1    2    0    0  0.28989231995E-02 -0.22609844043E-01  0.59926576196E-02  0.23569487664E-01  0.00000000000E+00 0. -1.
     999901    1    3    3    0    0  0.92252952872E-02 -0.81706492033E-01 -0.84131563459E-01  0.88782834877E+00  0.88000000000E+00 0.  1.
        -11    1    4    4    0    0 -0.82652025703E-02  0.44396644269E-01  0.45841368096E-01  0.64351128551E-01  0.51100000000E-03 0.  1.
         11    1    4    4    0    0 -0.38590159164E-02  0.59919691807E-01  0.32297537744E-01  0.68181035013E-01  0.51100000000E-03 0. -1.
</event>
<event>
 8    1  0.1129602E+005  0.1043930E+01  0.7957747E-01            NaN
         13   -1    0    0    0    0  0.00000000000E+00  0.00000000000E+00  0.74505805969E-08  0.10566000000E+00  0.10566000000E+00 0. -1.
     999900   -1    0    0    0    0 -0.00000000000E+00 -0.00000000000E+00 -0.74505805969E-08  0.93827000000E+00  0.93827000000E+00 0. -1.
     999902    2    1    2    0    0  0.43535632922E-02 -0.11677251020E-01 -0.21725216786E-01  0.10188841071E+01  0.10185762254E+01 0.  0.
     999903    2    3    3    0    0 -0.16146361372E-01  0.11403291466E+00  0.49380001720E-01  0.12687556191E+00  0.19869902581E-01 0.  0.
         14    1    1    2    0    0 -0.43535632922E-02  0.11677251020E-01  0.21725216786E-01  0.25045892859E-01  0.00000000000E+00 0. -1.
     999901    1    3    3    0    0  0.20499924664E-01 -0.12571016568E+00 -0.71105218506E-01  0.89200854523E+00  0.88000000000E+00 0. -1.
        -11    1    4    4    0    0 -0.14053586053E-01  0.10990206410E+00  0.50960773909E-01  0.12195584681E+00  0.51100000000E-03 0. -1.
         11    1    4    4    0    0 -0.20927753195E-02  0.41308505638E-02 -0.15807721884E-02  0.49197150964E-02  0.51100000000E-03 0.  1.
</event>
<event>
 8    1  0.1129602E+005  0.1043930E+01  0.7957747E-01            NaN
         13   -1    0    0    0    0  0.00000000000E+00  0.00000000000E+00  0.74505805969E-08  0.10566000000E+00  0.10566000000E+00 0.  1.
     999900   -1    0    0    0    0 -0.00000000000E+00 -0.00000000000E+00 -0.74505805969E-08  0.93827000000E+00  0.93827000000E+00 0.  1.
     999902    2    1    2    0    0  0.90069218660E-02  0.20767315198E-01  0.10322983052E-01  0.10190508923E+01  0.10187471478E+01 0.  0.
     999903    2    3    3    0    0  0.35021347079E-03  0.12924683159E+00 -0.18027177018E-01  0.13189449363E+00  0.19139284562E-01 0.  0.
         14    1    1    2    0    0 -0.90069218660E-02 -0.20767315198E-01 -0.10322983052E-01  0.24879107723E-01  0.00000000000E+00 0. -1.
     999901    1    3    3    0    0  0.86567083953E-02 -0.10847951639E+00  0.28350160070E-01  0.88715639864E+00  0.88000000000E+00 0. -1.
        -11    1    4    4    0    0 -0.16733431567E-02  0.17159654400E-01 -0.89199855509E-02  0.19418575635E-01  0.51100000000E-03 0. -1.
         11    1    4    4    0    0  0.20235566275E-02  0.11208717719E+00 -0.91071914674E-02  0.11247591800E+00  0.51100000000E-03 0.  1.
</event>
<event>
 8    1  0.1129602E+005  0.1043930E+01  0.7957747E-01            NaN
         13   -1    0    0    0    0  0.00000000000E+00  0.00000000000E+00  0.74505805969E-08  0.10566000000E+00  0.10566000000E+00 0. -1.
     999900   -1    0    0    0    0 -0.00000000000E+00 -0.00000000000E+00 -0.74505805969E-08  0.93827000000E+00  0.93827000000E+00 0.  1.
     999902    2    1    2    0    0  0.59058491473E-02  0.18369715403E-01 -0.12975577427E-01  0.10206772344E+01  0.10204123312E+01 0.  0.
     999903    2    3    3    0    0  0.29550297759E-01  0.25216203842E-01 -0.12594248255E+00  0.13311458535E+00  0.18679049440E-01 0.  0.
         14    1    1    2    0    0 -0.59058491473E-02 -0.18369715403E-01  0.12975577427E-01  0.23252765593E-01  0.00000000000E+00 0. -1.
     999901    1    3    3    0    0 -0.23644448612E-01 -0.68464884389E-02  0.11296690512E+00  0.88756264906E+00  0.88000000000E+00 0. -1.
        -11    1    4    4    0    0  0.76509385892E-02  0.18136386358E-01 -0.67085717368E-01  0.69915806276E-01  0.51100000000E-03 0.  1.
         11    1    4    4    0    0  0.21899359170E-01  0.70798174839E-02 -0.58856765179E-01  0.63198779071E-01  0.51100000000E-03 0. -1.
</event>
<event>
 8    1  0.1129602E+005  0.1043930E+01  0.7957747E-01            NaN
         13   -1    0    0    0    0  0.00000000000E+00  0.00000000000E+00  0.74505805969E-08  0.10566000000E+00  0.10566000000E+00 0.  1.
     999900   -1    0    0    0    0 -0.00000000000E+00 -0.00000000000E+00 -0.74505805969E-08  0.93827000000E+00  0.93827000000E+00 0.  1.
     999902    2    1    2    0    0 -0.23030264977E-01 -0.61897746174E-02  0.40738555646E-02  0.10197369697E+01  0.10194499422E+01 0.  0.
     999903    2    3    3    0    0 -0.40858943240E-01  0.11271270378E+00  0.47306586738E-01  0.13050992887E+00  0.20526118690E-01 0.  0.
         14    1    1    2    0    0  0.23030264977E-01  0.61897746174E-02 -0.40738555646E-02  0.24193030275E-01  0.00000000000E+00 0. -1.
     999901    1    3    3    0    0  0.17828678263E-01 -0.11890247840E+00 -0.43232731174E-01  0.88922704085E+00  0.88000000000E+00 0. -1.
        -11    1    4    4    0    0 -0.17516133445E-01  0.59275932072E-01  0.34562584289E-01  0.70818672733E-01  0.51100000000E-03 0.  1.
         11    1    4    4    0    0 -0.23342809795E-01  0.53436771712E-01  0.12744002449E-01  0.59691256140E-01  0.51100000000E-03 0. -1.
</event>
<event>
 8    1  0.1129602E+005  0.1043930E+01  0.7957747E-01            NaN
         13   -1    0    0    0    0  0.00000000000E+00  0.00000000000E+00  0.74505805969E-08  0.10566000000E+00  0.10566000000E+00 0.  1.
     999900   -1    0    0    0    0 -0.00000000000E+00 -0.00000000000E+00 -0.74505805969E-08  0.93827000000E+00  0.93827000000E+00 0.  1.
     999902    2    1    2    0    0 -0.14592287099E-01 -0.12847801143E-02 -0.19213749419E-01  0.10197690052E+01  0.10194827464E+01 0.  0.
     999903    2    3    3    0    0  0.20984845241E-01  0.10538491501E+00  0.66763679583E-01  0.12845745782E+00  0.22306624938E-01 0.  0.
         14    1    1    2    0    0  0.14592287099E-01  0.12847801143E-02  0.19213749419E-01  0.24160994794E-01  0.00000000000E+00 0.  1.
     999901    1    3    3    0    0 -0.35577132340E-01 -0.10666969513E+00 -0.85977429002E-01  0.89131154739E+00  0.88000000000E+00 0.  1.
        -11    1    4    4    0    0 -0.34886128205E-02  0.35846707971E-01  0.21384664645E-01  0.41889400745E-01  0.51100000000E-03 0.  1.
         11    1    4    4    0    0  0.24473458061E-01  0.69538207042E-01  0.45379014938E-01  0.86568057076E-01  0.51100000000E-03 0. -1.
</event>
<event>
 8    1  0.1129602E+005  0.1043930E+01  0.7957747E-01            NaN
         13   -1    0    0    0    0  0.00000000000E+00  0.00000000000E+00  0.74505805969E-08  0.10566000000E+00  0.10566000000E+00 0.  1.
     999900   -1    0    0    0    0 -0.00000000000E+00 -0.00000000000E+00 -0.74505805969E-08  0.93827000000E+00  0.93827000000E+00 0.  1.
     999902    2    1    2    0    0 -0.18872858872E-01 -0.29306721671E-02 -0.14133994419E-01  0.10201698771E+01  0.10198931487E+01 0.  0.
     999903    2    3    3    0    0  0.33444359104E-01  0.12144820288E+00 -0.24178709209E-01  0.12982831785E+00  0.20064670396E-01 0.  0.
         14    1    1    2    0    0  0.18872858872E-01  0.29306721671E-02  0.14133994419E-01  0.23760122886E-01  0.00000000000E+00 0.  1.
     999901    1    3    3    0    0 -0.52317217975E-01 -0.12437887505E+00  0.10044714790E-01  0.89034155926E+00  0.88000000000E+00 0.  1.
        -11    1    4    4    0    0  0.10008649342E-02  0.36723214894E-01 -0.47576931919E-02  0.37047172743E-01  0.51100000000E-03 0.  1.
         11    1    4    4    0    0  0.32443494170E-01  0.84724987987E-01 -0.19421016017E-01  0.92781145108E-01  0.51100000000E-03 0. -1.
</event>
<event>
 8    1  0.1129602E+005  0.1043930E+01  0.7957747E-01            NaN
         13   -1    0    0    0    0  0.00000000000E+00  0.00000000000E+00  0.74505805969E-08  0.10566000000E+00  0.10566000000E+00 0. -1.
     999900   -1    0    0    0    0 -0.00000000000E+00 -0.00000000000E+00 -0.74505805969E-08  0.93827000000E+00  0.93827000000E+00 0.  1.
     999902    2    1    2    0    0 -0.89272680704E-05  0.20753302157E-01 -0.10803147106E-01  0.10205332563E+01  0.10202650242E+01 0.  0.
     999903    2    3    3    0    0  0.68295587726E-01 -0.76170837740E-01  0.75031928606E-01  0.12844163771E+00  0.20029482352E-01 0.  0.
         14    1    1    2    0    0  0.89272680705E-05 -0.20753302157E-01  0.10803147106E-01  0.23396743738E-01  0.00000000000E+00 0. -1.
     999901    1    3    3    0    0 -0.68304514994E-01  0.96924139897E-01 -0.85835075712E-01  0.89209161855E+00  0.88000000000E+00 0.  1.
        -11    1    4    4    0    0  0.17595133542E-01 -0.22336093828E-01  0.10574246936E-01  0.30340824496E-01  0.51100000000E-03 0. -1.
         11    1    4    4    0    0  0.50700454183E-01 -0.53834743912E-01  0.64457681670E-01  0.98100813217E-01  0.51100000000E-03 0.  1.
</event>
<event>
 8    1  0.1129602E+005  0.1043930E+01  0.7957747E-01            NaN
         13   -1    0    0    0    0  0.00000000000E+00  0.00000000000E+00  0.74505805969E-08  0.10566000000E+00  0.10566000000E+00 0.  1.
     999900   -1    0    0    0    0 -0.00000000000E+00 -0.00000000000E+00 -0.74505805969E-08  0.93827000000E+00  0.93827000000E+00 0.  1.
     999902    2    1    2    0    0  0.21041738539E-01  0.73541665940E-02 -0.77718651951E-02  0.10203240597E+01  0.10200509529E+01 0.  0.
     999903    2    3    3    0    0 -0.68188327663E-01 -0.10639095210E+00  0.12231185186E-01  0.12830383644E+00  0.18536176460E-01 0.  0.
         14    1    1    2    0    0 -0.21041738539E-01 -0.73541665940E-02  0.77718651951E-02  0.23605940262E-01  0.00000000000E+00 0.  1.
     999901    1    3    3    0    0  0.89230066202E-01  0.11374511869E+00 -0.20003050381E-01  0.89202022329E+00  0.88000000000E+00 0. -1.
        -11    1    4    4    0    0 -0.19930332325E-01 -0.19019878691E-01 -0.12564698916E-02  0.27582852819E-01  0.51100000000E-03 0.  1.
         11    1    4    4    0    0 -0.48257995337E-01 -0.87371073405E-01  0.13487655078E-01  0.10072098363E+00  0.51100000000E-03 0. -1.
</event>
<event>
 8    1  0.1129602E+005  0.1043930E+01  0.7957747E-01            NaN
         13   -1    0    0    0    0  0.00000000000E+00  0.00000000000E+00  0.74505805969E-08  0.10566000000E+00  0.10566000000E+00 0. -1.
     999900   -1    0    0    0    0 -0.00000000000E+00 -0.00000000000E+00 -0.74505805969E-08  0.93827000000E+00  0.93827000000E+00 0. -1.
     999902    2    1    2    0    0  0.22199687188E-01 -0.11857551402E-01 -0.81516628669E-02  0.10174748069E+01  0.10171308202E+01 0.  0.
     999903    2    3    3    0    0  0.90058451569E-01  0.11568906668E-01  0.88569282677E-01  0.12926956473E+00  0.24934679292E-01 0.  0.
         14    1    1    2    0    0 -0.22199687188E-01  0.11857551402E-01  0.81516628669E-02  0.26455193138E-01  0.00000000000E+00 0.  1.
     999901    1    3    3    0    0 -0.67858764381E-01 -0.23426458070E-01 -0.96720945544E-01  0.88820524213E+00  0.88000000000E+00 0. -1.
        -11    1    4    4    0    0  0.50181237180E-01 -0.57449433517E-02  0.43696720048E-01  0.66789410860E-01  0.51100000000E-03 0.  1.
         11    1    4    4    0    0  0.39877214389E-01  0.17313850019E-01  0.44872562629E-01  0.62480153871E-01  0.51100000000E-03 0. -1.
</event>
<event>
 8    1  0.1129602E+005  0.1043930E+01  0.7957747E-01            NaN
         13   -1    0    0    0    0  0.00000000000E+00  0.00000000000E+00  0.74505805969E-08  0.10566000000E+00  0.10566000000E+00 0.  1.
     999900   -1    0    0    0    0 -0.00000000000E+00 -0.00000000000E+00 -0.74505805969E-08  0.93827000000E+00  0.93827000000E+00 0.  1.
     999902    2    1    2    0    0  0.13964512717E-01  0.19722797436E-01 -0.18251611615E-02  0.10196951580E+01  0.10194071256E+01 0.  0.
     999903    2    3    3    0    0 -0.56061400721E-01 -0.16264402876E-01 -0.11342382434E+00  0.12915994321E+00  0.20246371290E-01 0.  0.
         14    1    1    2    0    0 -0.13964512717E-01 -0.19722797436E-01  0.18251611615E-02  0.24234842013E-01  0.00000000000E+00 0. -1.
     999901    1    3    3    0    0  0.70025913438E-01  0.35987200312E-01  0.11159866318E+00  0.89053521478E+00  0.88000000000E+00 0. -1.
        -11    1    4    4    0    0 -0.24522400780E-01 -0.17611057426E-01 -0.53920640032E-01  0.61799628042E-01  0.51100000000E-03 0.  1.
         11    1    4    4    0    0 -0.31538999942E-01  0.13466545500E-02 -0.59503184305E-01  0.67360315166E-01  0.51100000000E-03 0. -1.
</event>
<event>
 8    1  0.1129602E+005  0.1043930E+01  0.7957747E-01            NaN
         13   -1    0    0    0    0  0.00000000000E+00  0.00000000000E+00  0.74505805969E-08  0.10566000000E+00  0.10566000000E+00 0. -1.
     999900   -1    0    0    0    0 -0.00000000000E+00 -0.00000000000E+00 -0.74505805969E-08  0.93827000000E+00  0.93827000000E+00 0.  1.
     999902    2    1    2    0    0 -0.17027066110E-02 -0.14891575852E-01 -0.17541610396E-01  0.10208569348E+01  0.10205961567E+01 0.  0.
     999903    2    3    3    0    0 -0.32138611982E-01 -0.77373526576E-01 -0.10286447238E+00  0.13400275895E+00  0.18870260547E-01 0.  0.
         14    1    1    2    0    0  0.17027066110E-02  0.14891575852E-01  0.17541610396E-01  0.23073065172E-01  0.00000000000E+00 0. -1.
     999901    1    3    3    0    0  0.30435905371E-01  0.62481950724E-01  0.85322861981E-01  0.88685417588E+00  0.88000000000E+00 0. -1.
        -11    1    4    4    0    0 -0.22197074574E-02 -0.19584177740E-01 -0.33640062949E-01  0.38992077082E-01  0.51100000000E-03 0.  1.
         11    1    4    4    0    0 -0.29918904525E-01 -0.57789348836E-01 -0.69224409427E-01  0.95010681864E-01  0.51100000000E-03 0. -1.
</event>
<event>
 8    1  0.1129602E+005  0.1043930E+01  0.7957747E-01            NaN
         13   -1    0    0    0    0  0.00000000000E+00  0.00000000000E+00  0.74505805969E-08  0.10566000000E+00  0.10566000000E+00 0.  1.
     999900   -1    0    0    0    0 -0.00000000000E+00 -0.00000000000E+00 -0.74505805969E-08  0.93827000000E+00  0.93827000000E+00 0.  1.
     999902    2    1    2    0    0  0.35321380367E-02 -0.21649026411E-01  0.80045431933E-02  0.10205798596E+01  0.10203127074E+01 0.  0.
     999903    2    3    3    0    0 -0.11779124420E+00  0.28233154408E-01  0.42672474431E-01  0.13018137552E+00  0.21315774468E-01 0.  0.
         14    1    1    2    0    0 -0.35321380367E-02  0.21649026411E-01 -0.80045431933E-02  0.23350140372E-01  0.00000000000E+00 0. -1.
     999901    1    3    3    0    0  0.12132338224E+00 -0.49882180819E-01 -0.34667931238E-01  0.89039848411E+00  0.88000000000E+00 0.  1.
        -11    1    4    4    0    0 -0.38140802236E-01  0.19305541897E-01  0.12526893421E-01  0.44548949739E-01  0.51100000000E-03 0. -1.
         11    1    4    4    0    0 -0.79650441963E-01  0.89276125114E-02  0.30145581010E-01  0.85632425783E-01  0.51100000000E-03 0.  1.
</event>
<event>
 8    1  0.1129602E+005  0.1043930E+01  0.7957747E-01            NaN
         13   -1    0    0    0    0  0.00000000000E+00  0.00000000000E+00  0.74505805969E-08  0.10566000000E+00  0.10566000000E+00 0.  1.
     999900   -1    0    0    0    0 -0.00000000000E+00 -0.00000000000E+00 -0.74505805969E-08  0.93827000000E+00  0.93827000000E+00 0.  1.
     999902    2    1    2    0    0  0.11154997866E-01  0.15770625766E-01  0.16875584182E-01  0.10182798157E+01  0.10179567039E+01 0.  0.
     999903    2    3    3    0    0  0.85496055867E-01  0.96165593851E-01 -0.13751837831E-01  0.13096477423E+00  0.20131121063E-01 0.  0.
         14    1    1    2    0    0 -0.11154997866E-01 -0.15770625766E-01 -0.16875584182E-01  0.25650184326E-01  0.00000000000E+00 0. -1.
     999901    1    3    3    0    0 -0.74341058001E-01 -0.80394968086E-01  0.30627422013E-01  0.88731504145E+00  0.88000000000E+00 0. -1.
        -11    1    4    4    0    0  0.69766486463E-01  0.67128290327E-01 -0.14672368728E-01  0.97923998697E-01  0.51100000000E-03 0. -1.
         11    1    4    4    0    0  0.15729569404E-01  0.29037303524E-01  0.92053089728E-03  0.33040775531E-01  0.51100000000E-03 0.  1.
</event>
<event>
 8    1  0.1129602E+005  0.1043930E+01  0.7957747E-01            NaN
         13   -1    0    0    0    0  0.00000000000E+00  0.00000000000E+00  0.74505805969E-08  0.10566000000E+00  0.10566000000E+00 0.  1.
     999900   -1    0    0    0    0 -0.00000000000E+00 -0.00000000000E+00 -0.74505805969E-08  0.93827000000E+00  0.93827000000E+00 0.  1.
     999902    2    1    2    0    0  0.10147999950E-01 -0.21624930003E-01  0.73963226880E-03  0.10200309089E+01  0.10197508953E+01 0.  0.
     999903    2    3    3    0    0 -0.81969977858E-01  0.13214511086E-02 -0.98758882206E-01  0.12935015090E+00  0.16041235026E-01 0.  0.
         14    1    1    2    0    0 -0.10147999950E-01  0.21624930003E-01 -0.73963226880E-03  0.23899091123E-01  0.00000000000E+00 0. -1.
     999901    1    3    3    0    0  0.92117977808E-01 -0.22946381111E-01  0.99498514474E-01  0.89068075797E+00  0.88000000000E+00 0. -1.
        -11    1    4    4    0    0 -0.29726176003E-01 -0.72177539609E-02 -0.35785316441E-01  0.47080691432E-01  0.51100000000E-03 0. -1.
         11    1    4    4    0    0 -0.52243801855E-01  0.85392050695E-02 -0.62973565765E-01  0.82269459471E-01  0.51100000000E-03 0.  1.
</event>
<event>
 8    1  0.1129602E+005  0.1043930E+01  0.7957747E-01            NaN
         13   -1    0    0    0    0  0.00000000000E+00  0.00000000000E+00  0.74505805969E-08  0.10566000000E+00  0.10566000000E+00 0. -1.
     999900   -1    0    0    0    0 -0.00000000000E+00 -0.00000000000E+00 -0.74505805969E-08  0.93827000000E+00  0.93827000000E+00 0.  1.
     999902    2    1    2    0    0  0.17375282271E-01  0.14440213827E-01  0.78536283350E-02  0.10200113945E+01  0.10197309181E+01 0.  0.
     999903    2    3    3    0    0 -0.47460898404E-01  0.39918865161E-01  0.11355404539E+00  0.13095263935E+00  0.20199501417E-01 0.  0.
         14    1    1    2    0    0 -0.17375282271E-01 -0.14440213827E-01 -0.78536283350E-02  0.23918605465E-01  0.00000000000E+00 0.  1.
     999901    1    3    3    0    0  0.64836180675E-01 -0.25478651333E-01 -0.10570041705E+00  0.88905875518E+00  0.88000000000E+00 0.  1.
        -11    1    4    4    0    0 -0.40491830768E-01  0.27706372280E-01  0.72401966038E-01  0.87461632909E-01  0.51100000000E-03 0. -1.
         11    1    4    4    0    0 -0.69690676362E-02  0.12212492880E-01  0.41152079347E-01  0.43491006446E-01  0.51100000000E-03 0.  1.
</event>
<event>
 8    1  0.1129602E+005  0.1043930E+01  0.7957747E-01            NaN
         13   -1    0    0    0    0  0.00000000000E+00  0.00000000000E+00  0.74505805969E-08  0.10566000000E+00  0.10566000000E+00 0. -1.
     999900   -1    0    0    0    0 -0.00000000000E+00 -0.00000000000E+00 -0.74505805969E-08  0.93827000000E+00  0.93827000000E+00 0.  1.
     999902    2    1    2    0    0  0.18120910884E-01 -0.13775142796E-01 -0.57450570342E-02  0.10204538919E+01  0.10201838157E+01 0.  0.
     999903    2    3    3    0    0 -0.90557430337E-01 -0.90632537025E-01 -0.13772133085E-01  0.13040755894E+00  0.20038832862E-01 0.  0.
         14    1    1    2    0    0 -0.18120910884E-01  0.13775142796E-01  0.57450570342E-02  0.23476108081E-01  0.00000000000E+00 0. -1.
     999901    1    3    3    0    0  0.10867834122E+00  0.76857394229E-01  0.80270760506E-02  0.89004633298E+00  0.88000000000E+00 0. -1.
        -11    1    4    4    0    0 -0.52046984458E-01 -0.38235652123E-01 -0.47936246617E-02  0.64761822418E-01  0.51100000000E-03 0.  1.
         11    1    4    4    0    0 -0.38510445878E-01 -0.52396884901E-01 -0.89785084231E-02  0.65645736523E-01  0.51100000000E-03 0. -1.
</event>
<event>
 8    1  0.1129602E+005  0.1043930E+01  0.7957747E-01            NaN
         13   -1    0    0    0    0  0.00000000000E+00  0.00000000000E+00  0.74505805969E-08  0.10566000000E+00  0.10566000000E+00 0. -1.
     999900   -1    0    0    0    0 -0.00000000000E+00 -0.00000000000E+00 -0.74505805969E-08  0.93827000000E+00  0.93827000000E+00 0. -1.
     999902    2    1    2    0    0  0.18288484930E-01  0.15453341029E-01 -0.76461260777E-03  0.10199746444E+01  0.10196932951E+01 0.  0.
     999903    2    3    3    0    0  0.12133876963E+00 -0.41949515243E-01 -0.22353332114E-01  0.13184147763E+00  0.19991121093E-01 0.  0.
         14    1    1    2    0    0 -0.18288484930E-01 -0.15453341029E-01  0.76461260777E-03  0.23955355611E-01  0.00000000000E+00 0.  1.
     999901    1    3    3    0    0 -0.10305028470E+00  0.57402856273E-01  0.21588719506E-01  0.88813316676E+00  0.88000000000E+00 0.  1.
        -11    1    4    4    0    0  0.69512879939E-01 -0.23989568909E-01 -0.22788386683E-01  0.76987736572E-01  0.51100000000E-03 0. -1.
         11    1    4    4    0    0  0.51825889693E-01 -0.17959946334E-01  0.43505456827E-03  0.54853741060E-01  0.51100000000E-03 0.  1.
</event>
<event>
 8    1  0.1129602E+005  0.1043930E+01  0.7957747E-01            NaN
         13   -1    0    0    0    0  0.00000000000E+00  0.00000000000E+00  0.74505805969E-08  0.10566000000E+00  0.10566000000E+00 0.  1.
     999900   -1    0    0    0    0 -0.00000000000E+00 -0.00000000000E+00 -0.74505805969E-08  0.93827000000E+00  0.93827000000E+00 0. -1.
     999902    2    1    2    0    0  0.41676383698E-02 -0.20620557949E-01 -0.11589540496E-01  0.10199113808E+01  0.10196285258E+01 0.  0.
     999903    2    3    3    0    0  0.75819125374E-01 -0.95443956728E-01  0.46552612365E-01  0.13192884350E+00  0.19493213721E-01 0.  0.
         14    1    1    2    0    0 -0.41676383698E-02  0.20620557949E-01  0.11589540496E-01  0.24018619208E-01  0.00000000000E+00 0.  1.
     999901    1    3    3    0    0 -0.71651487004E-01  0.74823398779E-01 -0.58142152861E-01  0.88798253729E+00  0.88000000000E+00 0. -1.
        -11    1    4    4    0    0  0.68674435734E-01 -0.82068461948E-01  0.34142105991E-01  0.11232700073E+00  0.51100000000E-03 0.  1.
         11    1    4    4    0    0  0.71446896397E-02 -0.13375494780E-01  0.12410506374E-01  0.19601842774E-01  0.51100000000E-03 0. -1.
</event>
<event>
 8    1  0.1129602E+005  0.1043930E+01  0.7957747E-01            NaN
         13   -1    0    0    0    0  0.00000000000E+00  0.00000000000E+00  0.74505805969E-08  0.10566000000E+00  0.10566000000E+00 0.  1.
     999900   -1    0    0    0    0 -0.00000000000E+00 -0.00000000000E+00 -0.74505805969E-08  0.93827000000E+00  0.93827000000E+00 0. -1.
     999902    2    1    2    0    0 -0.11511944319E-01  0.19597283496E-01  0.65157159653E-02  0.10202861226E+01  0.10200121269E+01 0.  0.
     999903    2    3    3    0    0 -0.11903391716E+00 -0.41008054138E-01 -0.29764500790E-01  0.13093229219E+00  0.20164466052E-01 0.  0.
         14    1    1    2    0    0  0.11511944319E-01 -0.19597283496E-01 -0.65157159653E-02  0.23643877367E-01  0.00000000000E+00 0. -1.
     999901    1    3    3    0    0  0.10752197285E+00  0.60605337634E-01  0.36280216755E-01  0.88935383044E+00  0.88000000000E+00 0. -1.
        -11    1    4    4    0    0 -0.10257383030E+00 -0.42103078224E-01 -0.23976896668E-01  0.11344255178E+00  0.51100000000E-03 0. -1.
         11    1    4    4    0    0 -0.16460086860E-01  0.10950240855E-02 -0.57876041216E-02  0.17489740411E-01  0.51100000000E-03 0.  1.
</event>
<event>
 8    1  0.1129602E+005  0.1043930E+01  0.7957747E-01            NaN
         13   -1    0    0    0    0  0.00000000000E+00  0.00000000000E+00  0.74505805969E-08  0.10566000000E+00  0.10566000000E+00 0. -1.
     999900   -1    0    0    0    0 -0.00000000000E+00 -0.00000000000E+00 -0.74505805969E-08  0.93827000000E+00  0.93827000000E+00 0.  1.
     999902    2    1    2    0    0 -0.14024659623E-02 -0.18508147388E-01  0.15359119809E-01  0.10198380721E+01  0.10195534671E+01 0.  0.
     999903    2    3    3    0    0 -0.98282463342E-01 -0.68345972542E-01  0.50996991292E-01  0.13240379247E+00  0.24483802328E-01 0.  0.
         14    1    1    2    0    0  0.14024659623E-02  0.18508147388E-01 -0.15359119809E-01  0.24091927939E-01  0.00000000000E+00 0.  1.
     999901    1    3    3    0    0  0.96879997380E-01  0.49837825154E-01 -0.35637871482E-01  0.88743427959E+00  0.88000000000E+00 0.  1.
        -11    1    4    4    0    0 -0.39275883796E-01 -0.39838916459E-01  0.16412836978E-01  0.58304173532E-01  0.51100000000E-03 0. -1.
         11    1    4    4    0    0 -0.59006579546E-01 -0.28507056083E-01  0.34584154313E-01  0.74099618938E-01  0.51100000000E-03 0.  1.
</event>
<event>
 8    1  0.1129602E+005  0.1043930E+01  0.7957747E-01            NaN
         13   -1    0    0    0    0  0.00000000000E+00  0.00000000000E+00  0.74505805969E-08  0.10566000000E+00  0.10566000000E+00 0.  1.
     999900   -1    0    0    0    0 -0.00000000000E+00 -0.00000000000E+00 -0.74505805969E-08  0.93827000000E+00  0.93827000000E+00 0. -1.
     999902    2    1    2    0    0 -0.73054797558E-02  0.30569688391E-02 -0.28234019664E-01  0.10146063754E+01  0.10141825388E+01 0.  0.
     999903    2    3    3    0    0  0.70318468997E-01  0.10154296767E+00  0.36027467596E-02  0.12514668038E+00  0.19825500221E-01 0.  0.
         14    1    1    2    0    0  0.73054797558E-02 -0.30569688391E-02  0.28234019664E-01  0.29323624594E-01  0.00000000000E+00 0.  1.
     999901    1    3    3    0    0 -0.77623948753E-01 -0.98485998834E-01 -0.31836766423E-01  0.88945969503E+00  0.88000000000E+00 0. -1.
        -11    1    4    4    0    0  0.52573625381E-01  0.62415683083E-01 -0.30658000338E-02  0.81666173115E-01  0.51100000000E-03 0.  1.
         11    1    4    4    0    0  0.17744843616E-01  0.39127284590E-01  0.66685467934E-02  0.43480507261E-01  0.51100000000E-03 0. -1.
</event>
<event>
 8    1  0.1129602E+005  0.1043930E+01  0.7957747E-01            NaN
         13   -1    0    0    0    0  0.00000000000E+00  0.00000000000E+00  0.74505805969E-08  0.10566000000E+00  0.10566000000E+00 0.  1.
     999900   -1    0    0    0    0 -0.00000000000E+00 -0.00000000000E+00 -0.74505805969E-08  0.93827000000E+00  0.93827000000E+00 0. -1.
     999902    2    1    2    0    0  0.12767996230E-01  0.19056076058E-01 -0.66661523481E-02  0.10200429041E+01  0.10197631749E+01 0.  0.
     999903    2    3    3    0    0 -0.34954609223E-01  0.11840426626E+00 -0.44415632759E-01  0.13236473426E+00  0.17500841943E-01 0.  0.
         14    1    1    2    0    0 -0.12767996230E-01 -0.19056076058E-01  0.66661523481E-02  0.23887095880E-01  0.00000000000E+00 0. -1.
     999901    1    3    3    0    0  0.47722605453E-01 -0.99348190203E-01  0.37749480411E-01  0.88767816986E+00  0.88000000000E+00 0.  1.
        -11    1    4    4    0    0 -0.23187048963E-01  0.97639635293E-01 -0.40271141689E-01  0.10813493235E+00  0.51100000000E-03 0.  1.
         11    1    4    4    0    0 -0.11767560261E-01  0.20764630968E-01 -0.41444910700E-02  0.24229801917E-01  0.51100000000E-03 0. -1.
</event>
<event>
 8    1  0.1129602E+005  0.1043930E+01  0.7957747E-01            NaN
         13   -1    0    0    0    0  0.00000000000E+00  0.00000000000E+00  0.74505805969E-08  0.10566000000E+00  0.10566000000E+00 0.  1.
     999900   -1    0    0    0    0 -0.00000000000E+00 -0.00000000000E+00 -0.74505805969E-08  0.93827000000E+00  0.93827000000E+00 0. -1.
     999902    2    1    2    0    0 -0.16372026357E-01  0.48262812868E-02  0.18470787589E-01  0.10187803234E+01  0.10184698528E+01 0.  0.
     999903    2    3    3    0    0 -0.66009639256E-01  0.51288863862E-01  0.10082559664E+00  0.13232390668E+00  0.18867837990E-01 0.  0.
         14    1    1    2    0    0  0.16372026357E-01 -0.48262812868E-02 -0.18470787589E-01  0.25149676583E-01  0.00000000000E+00 0. -1.
     999901    1    3    3    0    0  0.49637612898E-01 -0.46462582575E-01 -0.82354809055E-01  0.88645641673E+00  0.88000000000E+00 0. -1.
        -11    1    4    4    0    0 -0.26810478412E-01  0.99664020353E-02  0.37184298022E-01  0.46915499172E-01  0.51100000000E-03 0.  1.
         11    1    4    4    0    0 -0.39199160844E-01  0.41322461827E-01  0.63641298622E-01  0.85408407511E-01  0.51100000000E-03 0. -1.
</event>
<event>
 8    1  0.1129602E+005  0.1043930E+01  0.7957747E-01            NaN
         13   -1    0    0    0    0  0.00000000000E+00  0.00000000000E+00  0.74505805969E-08  0.10566000000E+00  0.10566000000E+00 0.  1.
     999900   -1    0    0    0    0 -0.00000000000E+00 -0.00000000000E+00 -0.74505805969E-08  0.93827000000E+00  0.93827000000E+00 0. -1.
     999902    2    1    2    0    0 -0.85560064731E-02 -0.29690997575E-02 -0.22317958447E-01  0.10198444842E+01  0.10195600325E+01 0.  0.
     999903    2    3    3    0    0 -0.60387337648E-02  0.30517510654E-01  0.12206705400E+00  0.12744618664E+00  0.19348903235E-01 0.  0.
         14    1    1    2    0    0  0.85560064731E-02  0.29690997575E-02  0.22317958447E-01  0.24085515759E-01  0.00000000000E+00 0.  1.
     999901    1    3    3    0    0 -0.25172727083E-02 -0.33486610412E-01 -0.14438501244E+00  0.89239829760E+00  0.88000000000E+00 0. -1.
        -11    1    4    4    0    0 -0.26012033051E-02  0.32408503022E-01  0.10464976587E+00  0.10958518122E+00  0.51100000000E-03 0. -1.
         11    1    4    4    0    0 -0.34375304597E-02 -0.18909923681E-02  0.17417288131E-01  0.17861005420E-01  0.51100000000E-03 0.  1.
</event>
<event>
 8    1  0.1129602E+005  0.1043930E+01  0.7957747E-01            NaN
         13   -1    0    0    0    0  0.00000000000E+00  0.00000000000E+00  0.74505805969E-08  0.10566000000E+00  0.10566000000E+00 0.  1.
     999900   -1    0    0    0    0 -0.00000000000E+00 -0.00000000000E+00 -0.74505805969E-08  0.93827000000E+00  0.93827000000E+00 0. -1.
     999902    2    1    2    0    0  0.15505326454E-02  0.19827022549E-01 -0.16416387678E-01  0.10181421587E+01  0.10178155248E+01 0.  0.
     999903    2    3    3    0    0  0.34661256085E-01  0.80211970281E-01 -0.96672792760E-01  0.13181053200E+00  0.19824848992E-01 0.  0.
         14    1    1    2    0    0 -0.15505326454E-02 -0.19827022549E-01  0.16416387678E-01  0.25787841302E-01  0.00000000000E+00 0.  1.
     999901    1    3    3    0    0 -0.33110723440E-01 -0.60384947733E-01  0.80256405082E-01  0.88633162669E+00  0.88000000000E+00 0.  1.
        -11    1    4    4    0    0  0.24448513339E-01  0.73124214956E-01 -0.84792989259E-01  0.11460799608E+00  0.51100000000E-03 0.  1.
         11    1    4    4    0    0  0.10212742746E-01  0.70877553248E-02 -0.11879803501E-01  0.17202535923E-01  0.51100000000E-03 0. -1.
</event>
<event>
 8    1  0.1129602E+005  0.1043930E+01  0.7957747E-01            NaN
         13   -1    0    0    0    0  0.00000000000E+00  0.00000000000E+00  0.74505805969E-08  0.10566000000E+00  0.10566000000E+00 0.  1.
     999900   -1    0    0    0    0 -0.00000000000E+00 -0.00000000000E+00 -0.74505805969E-08  0.93827000000E+00  0.93827000000E+00 0. -1.
     999902    2    1    2    0    0 -0.91228161721E-02  0.18325637051E-01 -0.98553363601E-02  0.10212103520E+01  0.10209575901E+01 0.  0.
     999903    2    3    3    0    0 -0.42470709837E-01 -0.11710153003E+00  0.29943833756E-01  0.12933784236E+00  0.17751471953E-01 0.  0.
         14    1    1    2    0    0  0.91228161721E-02 -0.18325637051E-01  0.98553363601E-02  0.22719647951E-01  0.00000000000E+00 0.  1.
     999901    1    3    3    0    0  0.33347893665E-01  0.13542716708E+00 -0.39799170116E-01  0.89187250969E+00  0.88000000000E+00 0. -1.
        -11    1    4    4    0    0 -0.32109003506E-02 -0.56215080341E-02 -0.21933495755E-02  0.68544246294E-02  0.51100000000E-03 0.  1.
         11    1    4    4    0    0 -0.39259809486E-01 -0.11148002200E+00  0.32137183331E-01  0.12248341773E+00  0.51100000000E-03 0. -1.
</event>
<event>
 8    1  0.1129602E+005  0.1043930E+01  0.7957747E-01            NaN
         13   -1    0    0    0    0  0.00000000000E+00  0.00000000000E+00  0.74505805969E-08  0.10566000000E+00  0.10566000000E+00 0. -1.
     999900   -1    0    0    0    0 -0.00000000000E+00 -0.00000000000E+00 -0.74505805969E-08  0.93827000000E+00  0.93827000000E+00 0.  1.
     999902    2    1    2    0    0 -0.13906313536E-01  0.13171354272E-01 -0.14026405021E-01  0.10201895247E+01  0.10199132591E+01 0.  0.
     999903    2    3    3    0    0  0.13039222003E-01  0.12801745712E+00 -0.23482374357E-01  0.13226773503E+00  0.19617369522E-01 0.  0.
         14    1    1    2    0    0  0.13906313536E-01 -0.13171354272E-01  0.14026405021E-01  0.23740475297E-01  0.00000000000E+00 0. -1.
     999901    1    3    3    0    0 -0.26945535539E-01 -0.11484610284E+00  0.94559693363E-02  0.88792178968E+00  0.88000000000E+00 0. -1.
        -11    1    4    4    0    0  0.64280281294E-02  0.21238719016E-01  0.20137360261E-02  0.22287193293E-01  0.51100000000E-03 0. -1.
         11    1    4    4    0    0  0.66111938739E-02  0.10677873810E+00 -0.25496110383E-01  0.10998054174E+00  0.51100000000E-03 0.  1.
</event>
<event>
 8    1  0.1129602E+005  0.1043930E+01  0.7957747E-01            NaN
         13   -1    0    0    0    0  0.00000000000E+00  0.00000000000E+00  0.74505805969E-08  0.10566000000E+00  0.10566000000E+00 0. -1.
     999900   -1    0    0    0    0 -0.00000000000E+00 -0.00000000000E+00 -0.74505805969E-08  0.93827000000E+00  0.93827000000E+00 0.  1.
     999902    2    1    2    0    0 -0.60295541911E-02  0.22397264245E-01  0.41487718232E-02  0.10203672057E+01  0.10200951079E+01 0.  0.
     999903    2    3    3    0    0  0.10659545402E+00  0.68281816836E-01 -0.28683227866E-01  0.13139716970E+00  0.20432604216E-01 0.  0.
         14    1    1    2    0    0  0.60295541911E-02 -0.22397264245E-01 -0.41487718232E-02  0.23562794339E-01  0.00000000000E+00 0.  1.
     999901    1    3    3    0    0 -0.11262500821E+00 -0.45884552591E-01  0.32831999690E-01  0.88897003597E+00  0.88000000000E+00 0.  1.
        -11    1    4    4    0    0  0.49813174979E-01  0.38461411492E-01 -0.54137662710E-02  0.63168050165E-01  0.51100000000E-03 0.  1.
         11    1    4    4    0    0  0.56782279041E-01  0.29820405344E-01 -0.23269461595E-01  0.68229119530E-01  0.51100000000E-03 0. -1.
</event>
<event>
 8    1  0.1129602E+005  0.1043930E+01  0.7957747E-01            NaN
         13   -1    0    0    0    0  0.00000000000E+00  0.00000000000E+00  0.74505805969E-08  0.10566000000E+00  0.10566000000E+00 0. -1.
     999900   -1    0    0    0    0 -0.00000000000E+00 -0.00000000000E+00 -0.74505805969E-08  0.93827000000E+00  0.93827000000E+00 0. -1.
     999902    2    1    2    0    0  0.15396893461E-02 -0.19965259716E-01  0.41080713304E-02  0.10234884128E+01  0.10232842579E+01 0.  0.
     999903    2    3    3    0    0 -0.30831682706E-01  0.76627008477E-01  0.10147056021E+00  0.13227719972E+00  0.19460007446E-01 0.  0.
         14    1    1    2    0    0 -0.15396893461E-02  0.19965259716E-01 -0.41080713304E-02  0.20441587240E-01  0.00000000000E+00 0.  1.
     999901    1    3    3    0    0  0.32371372052E-01 -0.96592268194E-01 -0.97362488882E-01  0.89121121304E+00  0.88000000000E+00 0. -1.
        -11    1    4    4    0    0 -0.19566771621E-01  0.24384367833E-01  0.33776457999E-01  0.46027884834E-01  0.51100000000E-03 0. -1.
         11    1    4    4    0    0 -0.11264911084E-01  0.52242640645E-01  0.67694102213E-01  0.86249314889E-01  0.51100000000E-03 0.  1.
</event>
<event>
 8    1  0.1129602E+005  0.1043930E+01  0.7957747E-01            NaN
         13   -1    0    0    0    0  0.00000000000E+00  0.00000000000E+00  0.74505805969E-08  0.10566000000E+00  0.10566000000E+00 0.  1.
     999900   -1    0    0    0    0 -0.00000000000E+00 -0.00000000000E+00 -0.74505805969E-08  0.93827000000E+00  0.93827000000E+00 0. -1.
     999902    2    1    2    0    0  0.11994943504E-01 -0.34801204660E-02  0.18755617266E-01  0.10213964009E+01  0.10211478075E+01 0.  0.
     999903    2    3    3    0    0 -0.14142237100E-01 -0.90337385254E-01 -0.87175552223E-01  0.13041449913E+00  0.32365392533E-01 0.  0.
         14    1    1    2    0    0 -0.11994943504E-01  0.34801204660E-02 -0.18755617266E-01  0.22533599072E-01  0.00000000000E+00 0. -1.
     999901    1    3    3    0    0  0.26137180605E-01  0.86857264788E-01  0.10593116949E+00  0.89098190179E+00  0.88000000000E+00 0.  1.
        -11    1    4    4    0    0  0.46109545601E-02 -0.23397859638E-01 -0.82539938306E-02  0.25241043416E-01  0.51100000000E-03 0. -1.
         11    1    4    4    0    0 -0.18753191660E-01 -0.66939525616E-01 -0.78921558393E-01  0.10517345572E+00  0.51100000000E-03 0.  1.
</event>
<event>
 8    1  0.1129602E+005  0.1043930E+01  0.7957747E-01            NaN
         13   -1    0    0    0    0  0.00000000000E+00  0.00000000000E+00  0.74505805969E-08  0.10566000000E+00  0.10566000000E+00 0. -1.
     999900   -1    0    0    0    0 -0.00000000000E+00 -0.00000000000E+00 -0.74505805969E-08  0.93827000000E+00  0.93827000000E+00 0.  1.
     999902    2    1    2    0    0 -0.42680899908E-02  0.22293300641E-01  0.55790185783E-02  0.10205562264E+01  0.10202885268E+01 0.  0.
     999903    2    3    3    0    0  0.12497646143E+00  0.21274439578E-01  0.26593925938E-01  0.13086705678E+00  0.18634161167E-01 0.  0.
         14    1    1    2    0    0  0.42680899908E-02 -0.22293300641E-01 -0.55790185783E-02  0.23373773635E-01  0.00000000000E+00 0. -1.
     999901    1    3    3    0    0 -0.12924455142E+00  0.10188610631E-02 -0.21014907360E-01  0.88968916959E+00  0.88000000000E+00 0. -1.
        -11    1    4    4    0    0  0.97944933614E-01  0.13237059281E-01  0.13444934451E-01  0.99746965580E-01  0.51100000000E-03 0. -1.
         11    1    4    4    0    0  0.27031527814E-01  0.80373802973E-02  0.13148991488E-01  0.31120091198E-01  0.51100000000E-03 0.  1.
</event>
<event>
 8    1  0.1129602E+005  0.1043930E+01  0.7957747E-01            NaN
         13   -1    0    0    0    0  0.00000000000E+00  0.00000000000E+00  0.74505805969E-08  0.10566000000E+00  0.10566000000E+00 0.  1.
     999900   -1    0    0    0    0 -0.00000000000E+00 -0.00000000000E+00 -0.74505805969E-08  0.93827000000E+00  0.93827000000E+00 0. -1.
     999902    2    1    2    0    0  0.13368988254E-01 -0.20791266885E-01  0.98856911673E-02  0.10173079506E+01  0.10169595532E+01 0.  0.
     999903    2    3    3    0    0 -0.10935061367E+00 -0.53356326039E-01  0.34092129006E-01  0.12786625187E+00  0.19571685344E-01 0.  0.
         14    1    1    2    0    0 -0.13368988254E-01  0.20791266885E-01 -0.98856911673E-02  0.26622049423E-01  0.00000000000E+00 0. -1.
     999901    1    3    3    0    0  0.12271960193E+00  0.32565059153E-01 -0.24206437839E-01  0.88944169871E+00  0.88000000000E+00 0. -1.
        -11    1    4    4    0    0 -0.82367593999E-01 -0.39180212864E-01  0.16572804326E-01  0.92706141034E-01  0.51100000000E-03 0.  1.
         11    1    4    4    0    0 -0.26983019673E-01 -0.14176113175E-01  0.17519324680E-01  0.35160110831E-01  0.51100000000E-03 0. -1.
</event>
<event>
 8    1  0.1129602E+005  0.1043930E+01  0.7957747E-01            NaN
         13   -1    0    0    0    0  0.00000000000E+00  0.00000000000E+00  0.74505805969E-08  0.10566000000E+00  0.10566000000E+00 0.  1.
     999900   -1    0    0    0    0 -0.00000000000E+00 -0.00000000000E+00 -0.74505805969E-08  0.93827000000E+00  0.93827000000E+00 0. -1.
     999902    2    1    2    0    0  0.15418587586E-01 -0.16039080261E-01  0.73915866845E-02  0.10204860137E+01  0.10202166847E+01 0.  0.
     999903    2    3    3    0    0 -0.18038555166E-01  0.12608260886E+00  0.25017444577E-02  0.12844236823E+00  0.16400289674E-01 0.  0.
         14    1    1    2    0    0 -0.15418587586E-01  0.16039080261E-01 -0.73915866845E-02  0.23443986275E-01  0.00000000000E+00 0.  1.
     999901    1    3    3    0    0  0.33457142752E-01 -0.14212168912E+00  0.48898422267E-02  0.89204364550E+00  0.88000000000E+00 0. -1.
        -11    1    4    4    0    0 -0.72643644908E-02  0.95073228813E-01 -0.15297532986E-02  0.95363992652E-01  0.51100000000E-03 0. -1.
         11    1    4    4    0    0 -0.10774190675E-01  0.31009380044E-01  0.40314977564E-02  0.33078375574E-01  0.51100000000E-03 0.  1.
</event>
<event>
 8    1  0.1129602E+005  0.1043930E+01  0.7957747E-01            NaN
         13   -1    0    0    0    0  0.00000000000E+00  0.00000000000E+00  0.74505805969E-08  0.10566000000E+00  0.10566000000E+00 0.  1.
     999900   -1    0    0    0    0 -0.00000000000E+00 -0.00000000000E+00 -0.74505805969E-08  0.93827000000E+00  0.93827000000E+00 0. -1.
     999902    2    1    2    0    0 -0.45448805310E-02 -0.20544842552E-01  0.11029596486E-01  0.10201729275E+01  0.10198962710E+01 0.  0.
     999903    2    3    3    0    0  0.94633998304E-01 -0.66503017818E-01  0.60277883313E-01  0.13204343378E+00  0.20586407509E-01 0.  0.
         14    1    1    2    0    0  0.45448805310E-02  0.20544842552E-01 -0.11029596486E-01  0.23757072487E-01  0.00000000000E+00 0. -1.
     999901    1    3    3    0    0 -0.99178878835E-01  0.45958175266E-01 -0.49248286827E-01  0.88812949373E+00  0.88000000000E+00 0. -1.
        -11    1    4    4    0    0  0.73007384041E-01 -0.40250704571E-01  0.45207441189E-01  0.94837604371E-01  0.51100000000E-03 0. -1.
         11    1    4    4    0    0  0.21626614263E-01 -0.26252313246E-01  0.15070442124E-01  0.37205829410E-01  0.51100000000E-03 0.  1.
</event>
<event>
 8    1  0.1129602E+005  0.1043930E+01  0.7957747E-01            NaN
         13   -1    0    0    0    0  0.00000000000E+00  0.00000000000E+00  0.74505805969E-08  0.10566000000E+00  0.10566000000E+00 0.  1.
     999900   -1    0    0    0    0 -0.00000000000E+00 -0.00000000000E+00 -0.74505805969E-08  0.93827000000E+00  0.93827000000E+00 0. -1.
     999902    2    1    2    0    0 -0.78084395277E-02  0.14008881758E-01 -0.17582418002E-01  0.10201316404E+01  0.10198540101E+01 0.  0.
     999903    2    3    3    0    0 -0.64013142186E-01 -0.10564891216E+00 -0.35692234249E-01  0.13007269760E+00  0.19636600078E-01 0.  0.
         14    1    1    2    0    0  0.78084395277E-02 -0.14008881758E-01  0.17582418002E-01  0.23798359581E-01  0.00000000000E+00 0.  1.
     999901    1    3    3    0    0  0.56204702658E-01  0.11965779392E+00  0.18109816246E-01  0.89005894282E+00  0.88000000000E+00 0. -1.
        -11    1    4    4    0    0 -0.48334413568E-01 -0.85030892853E-01 -0.35827839028E-01  0.10416507786E+00  0.51100000000E-03 0. -1.
         11    1    4    4    0    0 -0.15678728618E-01 -0.20618019306E-01  0.13560477990E-03  0.25907619744E-01  0.51100000000E-03 0.  1.
</event>
<event>
 8    1  0.1129602E+005  0.1043930E+01  0.7957747E-01            NaN
         13   -1    0    0    0    0  0.00000000000E+00  0.00000000000E+00  0.74505805969E-08  0.10566000000E+00  0.10566000000E+00 0.  1.
     999900   -1    0    0    0    0 -0.00000000000E+00 -0.00000000000E+00 -0.74505805969E-08  0.93827000000E+00  0.93827000000E+00 0. -1.
     999902    2    1    2    0    0  0.33735637978E-01  0.14801120960E-03 -0.54643188427E-02  0.10097543660E+01  0.10091758547E+01 0.  0.
     999903    2    3    3    0    0 -0.11584940718E+00 -0.12037889742E-01 -0.27334608732E-02  0.11704408855E+00  0.11218329764E-01 0.  0.
         14    1    1    2    0    0 -0.33735637978E-01 -0.14801120960E-03  0.54643188427E-02  0.34175633974E-01  0.00000000000E+00 0.  1.
     999901    1    3    3    0    0  0.14958504516E+00  0.12185900952E-01 -0.27308579695E-02  0.89271027747E+00  0.88000000000E+00 0. -1.
        -11    1    4    4    0    0 -0.70829243168E-01 -0.12019750515E-01 -0.45184726034E-02  0.71985649999E-01  0.51100000000E-03 0.  1.
         11    1    4    4    0    0 -0.45020164017E-01 -0.18139227339E-04  0.17850117301E-02  0.45058438555E-01  0.51100000000E-03 0. -1.
</event>
<event>
 8    1  0.1129602E+005  0.1043930E+01  0.7957747E-01            NaN
         13   -1    0    0    0    0  0.00000000000E+00  0.00000000000E+00  0.74505805969E-08  0.10566000000E+00  0.10566000000E+00 0. -1.
     999900   -1    0    0    0    0 -0.00000000000E+00 -0.00000000000E+00 -0.74505805969E-08  0.93827000000E+00  0.93827000000E+00 0.  1.
     999902    2    1    2    0    0  0.64274459274E-02  0.20449496660E-01 -0.12071510165E-01  0.10193288754E+01  0.10190319626E+01 0.  0.
     999903    2    3    3    0    0  0.95665781939E-01 -0.84110348912E-01 -0.95730960733E-04  0.12857657468E+00  0.17476663401E-01 0.  0.
         14    1    1    2    0    0 -0.64274459274E-02 -0.20449496660E-01  0.12071510165E-01  0.24601124618E-01  0.00000000000E+00 0.  1.
     999901    1    3    3    0    0 -0.89238336012E-01  0.10455984557E+00 -0.11975779204E-01  0.89075230070E+00  0.88000000000E+00 0. -1.
        -11    1    4    4    0    0  0.54887282665E-01 -0.37721847492E-01  0.36085678992E-02  0.66699583656E-01  0.51100000000E-03 0.  1.
         11    1    4    4    0    0  0.40778499274E-01 -0.46388501421E-01 -0.37042988600E-02  0.61876991024E-01  0.51100000000E-03 0. -1.
</event>
<event>
 8    1  0.1129602E+005  0.1043930E+01  0.7957747E-01            NaN
         13   -1    0    0    0    0  0.00000000000E+00  0.00000000000E+00  0.74505805969E-08  0.10566000000E+00  0.10566000000E+00 0. -1.
     999900   -1    0    0    0    0 -0.00000000000E+00 -0.00000000000E+00 -0.74505805969E-08  0.93827000000E+00  0.93827000000E+00 0.  1.
     999902    2    1    2    0    0  0.15002160422E-01 -0.18789514581E-01  0.48090035455E-03  0.10198812591E+01  0.10195976857E+01 0.  0.
     999903    2    3    3    0    0 -0.94493562766E-01 -0.82576210423E-01 -0.29063304339E-01  0.13031343366E+00  0.19724385943E-01 0.  0.
         14    1    1    2    0    0 -0.15002160422E-01  0.18789514581E-01 -0.48090035455E-03  0.24048740937E-01  0.00000000000E+00 0.  1.
     999901    1    3    3    0    0  0.10949572319E+00  0.63786695842E-01  0.29544204694E-01  0.88956782540E+00  0.88000000000E+00 0. -1.
        -11    1    4    4    0    0 -0.58808898389E-01 -0.39035903532E-01 -0.19272129049E-01  0.73170789072E-01  0.51100000000E-03 0.  1.
         11    1    4    4    0    0 -0.35684664377E-01 -0.43540306891E-01 -0.97911752899E-02  0.57142644587E-01  0.51100000000E-03 0. -1.
</event>
<event>
 8    1  0.1129602E+005  0.1043930E+01  0.7957747E-01            NaN
         13   -1    0    0    0    0  0.00000000000E+00  0.00000000000E+00  0.74505805969E-08  0.10566000000E+00  0.10566000000E+00 0.  1.
     999900   -1    0    0    0    0 -0.00000000000E+00 -0.00000000000E+00 -0.74505805969E-08  0.93827000000E+00  0.93827000000E+00 0. -1.
     999902    2    1    2    0    0 -0.17193974971E-01 -0.14718420659E-01  0.71726640884E-02  0.10201873845E+01  0.10199110685E+01 0.  0.
     999903    2    3    3    0    0  0.96863333194E-01  0.14872451931E-01  0.81756645851E-01  0.12920620643E+00  0.20159352560E-01 0.  0.
         14    1    1    2    0    0  0.17193974971E-01  0.14718420659E-01 -0.71726640884E-02  0.23742615528E-01  0.00000000000E+00 0. -1.
     999901    1    3    3    0    0 -0.11405730817E+00 -0.29590872590E-01 -0.74583981763E-01  0.89098117804E+00  0.88000000000E+00 0.  1.
        -11    1    4    4    0    0  0.70579188411E-01  0.14824224589E-01  0.69653076691E-01  0.10026460834E+00  0.51100000000E-03 0. -1.
         11    1    4    4    0    0  0.26284144783E-01  0.48227342529E-04  0.12103569161E-01  0.28941598095E-01  0.51100000000E-03 0.  1.
</event>
<event>
 8    1  0.1129602E+005  0.1043930E+01  0.7957747E-01            NaN
         13   -1    0    0    0    0  0.00000000000E+00  0.00000000000E+00  0.74505805969E-08  0.10566000000E+00  0.10566000000E+00 0.  1.
     999900   -1    0    0    0    0 -0.00000000000E+00 -0.00000000000E+00 -0.74505805969E-08  0.93827000000E+00  0.93827000000E+00 0. -1.
     999902    2    1    2    0    0  0.89564065834E-02  0.10041424342E-01  0.19178098332E-01  0.10205025188E+01  0.10202335732E+01 0.  0.
     999903    2    3    3    0    0  0.10605110495E+00 -0.61670087346E-01  0.44064688913E-01  0.13191416426E+00  0.20238907796E-01 0.  0.
         14    1    1    2    0    0 -0.89564065834E-02 -0.10041424342E-01 -0.19178098332E-01  0.23427481242E-01  0.00000000000E+00 0. -1.
     999901    1    3    3    0    0 -0.97094698368E-01  0.71711511688E-01 -0.24886590581E-01  0.88858835450E+00  0.88000000000E+00 0.  1.
        -11    1    4    4    0    0  0.37656894312E-01 -0.23863661277E-01  0.26325641941E-01  0.51776602470E-01  0.51100000000E-03 0. -1.
         11    1    4    4    0    0  0.68394210639E-01 -0.37806426069E-01  0.17739046971E-01  0.80137561790E-01  0.51100000000E-03 0.  1.
</event>
<event>
 8    1  0.1129602E+005  0.1043930E+01  0.7957747E-01            NaN
         13   -1    0    0    0    0  0.00000000000E+00  0.00000000000E+00  0.74505805969E-08  0.10566000000E+00  0.10566000000E+00 0.  1.
     999900   -1    0    0    0    0 -0.00000000000E+00 -0.00000000000E+00 -0.74505805969E-08  0.93827000000E+00  0.93827000000E+00 0. -1.
     999902    2    1    2    0    0  0.44528560244E-02  0.88267616534E-03  0.22645912971E-01  0.10208335843E+01  0.10205722720E+01 0.  0.
     999903    2    3    3    0    0  0.24256834103E-01 -0.32327202119E-01 -0.12020364015E+00  0.12847654343E+00  0.20587984580E-01 0.  0.
         14    1    1    2    0    0 -0.44528560244E-02 -0.88267616534E-03 -0.22645912971E-01  0.23096415702E-01  0.00000000000E+00 0. -1.
     999901    1    3    3    0    0 -0.19803978079E-01  0.33209878285E-01  0.14284955312E+00  0.89235704087E+00  0.88000000000E+00 0.  1.
        -11    1    4    4    0    0  0.30521937761E-02 -0.20604354032E-01 -0.48427126996E-01  0.52719095611E-01  0.51100000000E-03 0.  1.
         11    1    4    4    0    0  0.21204640327E-01 -0.11722848087E-01 -0.71776513151E-01  0.75757447817E-01  0.51100000000E-03 0. -1.
</event>
<event>
 8    1  0.1129602E+005  0.1043930E+01  0.7957747E-01            NaN
         13   -1    0    0    0    0  0.00000000000E+00  0.00000000000E+00  0.74505805969E-08  0.10566000000E+00  0.10566000000E+00 0. -1.
     999900   -1    0    0    0    0 -0.00000000000E+00 -0.00000000000E+00 -0.74505805969E-08  0.93827000000E+00  0.93827000000E+00 0.  1.
     999902    2    1    2    0    0  0.17880588844E-01 -0.48493681440E-02 -0.15829561823E-01  0.10195618475E+01  0.10192705990E+01 0.  0.
     999903    2    3    3    0    0 -0.49520597556E-01  0.11539334529E+00  0.16067962527E-01  0.12826016899E+00  0.20605285953E-01 0.  0.
         14    1    1    2    0    0 -0.17880588844E-01  0.48493681440E-02  0.15829561823E-01  0.24368152501E-01  0.00000000000E+00 0. -1.
     999901    1    3    3    0    0  0.67401186401E-01 -0.12024271343E+00 -0.31897524350E-01  0.89130167851E+00  0.88000000000E+00 0. -1.
        -11    1    4    4    0    0 -0.25456304507E-01  0.55064909377E-01 -0.24601116790E-02  0.60716397738E-01  0.51100000000E-03 0. -1.
         11    1    4    4    0    0 -0.24064293049E-01  0.60328435911E-01  0.18528074206E-01  0.67543771247E-01  0.51100000000E-03 0.  1.
</event>
<event>
 8    1  0.1129602E+005  0.1043930E+01  0.7957747E-01            NaN
         13   -1    0    0    0    0  0.00000000000E+00  0.00000000000E+00  0.74505805969E-08  0.10566000000E+00  0.10566000000E+00 0.  1.
     999900   -1    0    0    0    0 -0.00000000000E+00 -0.00000000000E+00 -0.74505805969E-08  0.93827000000E+00  0.93827000000E+00 0.  1.
     999902    2    1    2    0    0 -0.27799519936E-03  0.18708203021E-01  0.15868124130E-01  0.10193969304E+01  0.10191016780E+01 0.  0.
     999903    2    3    3    0    0 -0.10316150341E+00  0.77799058198E-01 -0.11911297183E-01  0.13100037384E+00  0.18006379535E-01 0.  0.
         14    1    1    2    0    0  0.27799519936E-03 -0.18708203021E-01 -0.15868124130E-01  0.24533069620E-01  0.00000000000E+00 0. -1.
     999901    1    3    3    0    0  0.10288350821E+00 -0.59090855177E-01  0.27779421313E-01  0.88839655654E+00  0.88000000000E+00 0.  1.
        -11    1    4    4    0    0 -0.54813850027E-01  0.50997813334E-01 -0.24184762063E-02  0.74909580615E-01  0.51100000000E-03 0.  1.
         11    1    4    4    0    0 -0.48347653378E-01  0.26801244863E-01 -0.94928209768E-02  0.56090793224E-01  0.51100000000E-03 0. -1.
</event>
<event>
 8    1  0.1129602E+005  0.1043930E+01  0.7957747E-01            NaN
         13   -1    0    0    0    0  0.00000000000E+00  0.00000000000E+00  0.74505805969E-08  0.10566000000E+00  0.10566000000E+00 0. -1.
     999900   -1    0    0    0    0 -0.00000000000E+00 -0.00000000000E+00 -0.74505805969E-08  0.93827000000E+00  0.93827000000E+00 0. -1.
     999902    2    1    2    0    0 -0.95566926840E-02 -0.16976575476E-01 -0.14572032618E-01  0.10196014443E+01  0.10193111529E+01 0.  0.
     999903    2    3    3    0    0 -0.11153736046E+00 -0.64967629835E-01  0.18482721166E-01  0.13179751621E+00  0.19172860852E-01 0.  0.
         14    1    1    2    0    0  0.95566926840E-02  0.16976575476E-01  0.14572032618E-01  0.24328555744E-01  0.00000000000E+00 0.  1.
     999901    1    3    3    0    0  0.10198066778E+00  0.47991054359E-01 -0.33054753784E-01  0.88780392804E+00  0.88000000000E+00 0.  1.
        -11    1    4    4    0    0 -0.60590764838E-01 -0.35199550294E-01  0.19649682746E-01  0.72777883162E-01  0.51100000000E-03 0. -1.
         11    1    4    4    0    0 -0.50946595624E-01 -0.29768079542E-01 -0.11669615797E-02  0.59019633052E-01  0.51100000000E-03 0.  1.
</event>
<event>
 8    1  0.1129602E+005  0.1043930E+01  0.7957747E-01            NaN
         13   -1    0    0    0    0  0.00000000000E+00  0.00000000000E+00  0.74505805969E-08  0.10566000000E+00  0.10566000000E+00 0. -1.
     999900   -1    0    0    0    0 -0.00000000000E+00 -0.00000000000E+00 -0.74505805969E-08  0.93827000000E+00  0.93827000000E+00 0. -1.
     999902    2    1    2    0    0 -0.11790477719E-01  0.17762450892E-01  0.95203393069E-02  0.10205814050E+01  0.10203142885E+01 0.  0.
     999903    2    3    3    0    0  0.11252163278E+00 -0.39259426185E-01 -0.43451703229E-01  0.12844294460E+00  0.20177192997E-01 0.  0.
         14    1    1    2    0    0  0.11790477719E-01 -0.17762450892E-01 -0.95203393069E-02  0.23348594969E-01  0.00000000000E+00 0.  1.
     999901    1    3    3    0    0 -0.12431211050E+00  0.57021877077E-01  0.52972042536E-01  0.89213846043E+00  0.88000000000E+00 0. -1.
        -11    1    4    4    0    0  0.35661478782E-01 -0.46874543350E-02 -0.19037428745E-01  0.40698871130E-01  0.51100000000E-03 0.  1.
         11    1    4    4    0    0  0.76860153998E-01 -0.34571971850E-01 -0.24414274484E-01  0.87744073474E-01  0.51100000000E-03 0. -1.
</event>
<event>
 8    1  0.1129602E+005  0.1043930E+01  0.7957747E-01            NaN
         13   -1    0    0    0    0  0.00000000000E+00  0.00000000000E+00  0.74505805969E-08  0.10566000000E+00  0.10566000000E+00 0. -1.
     999900   -1    0    0    0    0 -0.00000000000E+00 -0.00000000000E+00 -0.74505805969E-08  0.93827000000E+00  0.93827000000E+00 0. -1.
     999902    2    1    2    0    0 -0.22324805020E-01 -0.47354727164E-02 -0.21882645337E-02  0.10210038114E+01  0.10207463803E+01 0.  0.
     999903    2    3    3    0    0  0.69889821758E-01  0.54214201933E-01  0.92290823355E-01  0.12920512361E+00  0.18777673319E-01 0.  0.
         14    1    1    2    0    0  0.22324805020E-01  0.47354727164E-02  0.21882645337E-02  0.22926188578E-01  0.00000000000E+00 0. -1.
     999901    1    3    3    0    0 -0.92214626778E-01 -0.58949674650E-01 -0.94479087888E-01  0.89179868781E+00  0.88000000000E+00 0. -1.
        -11    1    4    4    0    0  0.31271838584E-01  0.28449807901E-01  0.56586073609E-01  0.70636848072E-01  0.51100000000E-03 0. -1.
         11    1    4    4    0    0  0.38617983173E-01  0.25764394032E-01  0.35704749745E-01  0.58568275539E-01  0.51100000000E-03 0.  1.
</event>
<event>
 8    1  0.1129602E+005  0.1043930E+01  0.7957747E-01            NaN
         13   -1    0    0    0    0  0.00000000000E+00  0.00000000000E+00  0.74505805969E-08  0.10566000000E+00  0.10566000000E+00 0.  1.
     999900   -1    0    0    0    0 -0.00000000000E+00 -0.00000000000E+00 -0.74505805969E-08  0.93827000000E+00  0.93827000000E+00 0. -1.
     999902    2    1    2    0    0  0.28851401448E-02  0.20868311450E-01 -0.10861256877E-01  0.10202281571E+01  0.10199528005E+01 0.  0.
     999903    2    3    3    0    0  0.92559026724E-01  0.92815857573E-01  0.10761376119E-01  0.13248641898E+00  0.15965185639E-01 0.  0.
         14    1    1    2    0    0 -0.28851401448E-02 -0.20868311450E-01  0.10861256877E-01  0.23701842911E-01  0.00000000000E+00 0.  1.
     999901    1    3    3    0    0 -0.89673886579E-01 -0.71947546123E-01 -0.21622632996E-01  0.88774173811E+00  0.88000000000E+00 0.  1.
        -11    1    4    4    0    0  0.56852705392E-01  0.59569809409E-01  0.14251826659E-01  0.83571334724E-01  0.51100000000E-03 0.  1.
         11    1    4    4    0    0  0.35706321332E-01  0.33246048164E-01 -0.34904505402E-02  0.48915084254E-01  0.51100000000E-03 0. -1.
</event>
<event>
 8    1  0.1129602E+005  0.1043930E+01  0.7957747E-01            NaN
         13   -1    0    0    0    0  0.00000000000E+00  0.00000000000E+00  0.74505805969E-08  0.10566000000E+00  0.10566000000E+00 0.  1.
     999900   -1    0    0    0    0 -0.00000000000E+00 -0.00000000000E+00 -0.74505805969E-08  0.93827000000E+00  0.93827000000E+00 0.  1.
     999902    2    1    2    0    0 -0.13214612388E-01  0.10209465219E-01  0.10774237547E-01  0.10240568182E+01  0.10238639673E+01 0.  0.
     999903    2    3    3    0    0 -0.92417688077E-01  0.97791481841E-01  0.48461183213E-02  0.13614979635E+00  0.20225706237E-01 0.  0.
         14    1    1    2    0    0  0.13214612388E-01 -0.10209465219E-01 -0.10774237547E-01  0.19873181812E-01  0.00000000000E+00 0.  1.
     999901    1    3    3    0    0  0.79203075689E-01 -0.87582016622E-01  0.59281192256E-02  0.88790702184E+00  0.88000000000E+00 0. -1.
        -11    1    4    4    0    0 -0.53315940440E-01  0.59702085942E-01  0.12538522889E-01  0.81021011151E-01  0.51100000000E-03 0.  1.
         11    1    4    4    0    0 -0.39101747637E-01  0.38089395899E-01 -0.76924045680E-02  0.55128785197E-01  0.51100000000E-03 0. -1.
</event>
<event>
 8    1  0.1129602E+005  0.1043930E+01  0.7957747E-01            NaN
         13   -1    0    0    0    0  0.00000000000E+00  0.00000000000E+00  0.74505805969E-08  0.10566000000E+00  0.10566000000E+00 0. -1.
     999900   -1    0    0    0    0 -0.00000000000E+00 -0.00000000000E+00 -0.74505805969E-08  0.93827000000E+00  0.93827000000E+00 0. -1.
     999902    2    1    2    0    0  0.10798647518E-01  0.17810059878E-01  0.13198404190E-01  0.10192722042E+01  0.10189739051E+01 0.  0.
     999903    2    3    3    0    0  0.12596570839E-01  0.94696424677E-01  0.89843663723E-01  0.13259907308E+00  0.19609789069E-01 0.  0.
         14    1    1    2    0    0 -0.10798647518E-01 -0.17810059878E-01 -0.13198404190E-01  0.24657795810E-01  0.00000000000E+00 0.  1.
     999901    1    3    3    0    0 -0.17979233214E-02 -0.76886364799E-01 -0.76645259534E-01  0.88667313111E+00  0.88000000000E+00 0. -1.
        -11    1    4    4    0    0  0.18372300210E-03  0.59159991042E-01  0.46946934214E-01  0.75526247407E-01  0.51100000000E-03 0.  1.
         11    1    4    4    0    0  0.12412847837E-01  0.35536433635E-01  0.42896729509E-01  0.57072825674E-01  0.51100000000E-03 0. -1.
</event>
<event>
 8    1  0.1129602E+005  0.1043930E+01  0.7957747E-01            NaN
         13   -1    0    0    0    0  0.00000000000E+00  0.00000000000E+00  0.74505805969E-08  0.10566000000E+00  0.10566000000E+00 0. -1.
     999900   -1    0    0    0    0 -0.00000000000E+00 -0.00000000000E+00 -0.74505805969E-08  0.93827000000E+00  0.93827000000E+00 0.  1.
     999902    2    1    2    0    0 -0.66880190327E-02 -0.37881684943E-02  0.24401962708E-01  0.10183461066E+01  0.10180246840E+01 0.  0.
     999903    2    3    3    0    0  0.88747206375E-01 -0.76196230010E-01  0.52441220141E-01  0.12978715547E+00  0.20314823349E-01 0.  0.
         14    1    1    2    0    0  0.66880190327E-02  0.37881684943E-02 -0.24401962708E-01  0.25583893432E-01  0.00000000000E+00 0.  1.
     999901    1    3    3    0    0 -0.95435225408E-01  0.72408061516E-01 -0.28039257433E-01  0.88855895110E+00  0.88000000000E+00 0. -1.
        -11    1    4    4    0    0  0.28955169631E-01 -0.23995183481E-01  0.67769220121E-02  0.38214636877E-01  0.51100000000E-03 0. -1.
         11    1    4    4    0    0  0.59792036745E-01 -0.52201046528E-01  0.45664298129E-01  0.91572518592E-01  0.51100000000E-03 0.  1.
</event>
<event>
 8    1  0.1129602E+005  0.1043930E+01  0.7957747E-01            NaN
         13   -1    0    0    0    0  0.00000000000E+00  0.00000000000E+00  0.74505805969E-08  0.10566000000E+00  0.10566000000E+00 0.  1.
     999900   -1    0    0    0    0 -0.00000000000E+00 -0.00000000000E+00 -0.74505805969E-08  0.93827000000E+00  0.93827000000E+00 0. -1.
     999902    2    1    2    0    0 -0.30087720398E-02 -0.17262872035E-01 -0.12531744785E-01  0.10223869248E+01  0.10221599288E+01 0.  0.
     999903    2    3    3    0    0  0.68081515044E-01 -0.61004717560E-02  0.10992273391E+00  0.13099838584E+00  0.20131100751E-01 0.  0.
         14    1    1    2    0    0  0.30087720398E-02  0.17262872035E-01  0.12531744785E-01  0.21543075162E-01  0.00000000000E+00 0.  1.
     999901    1    3    3    0    0 -0.71090287084E-01 -0.11162400279E-01 -0.12245447869E+00  0.89138853899E+00  0.88000000000E+00 0. -1.
        -11    1    4    4    0    0  0.57575669436E-01 -0.10060529216E-01  0.10080928616E+00  0.11652873147E+00  0.51100000000E-03 0.  1.
         11    1    4    4    0    0  0.10505845609E-01  0.39600574604E-02  0.91134477447E-02  0.14469654379E-01  0.51100000000E-03 0. -1.
</event>
<event>
 8    1  0.1129602E+005  0.1043930E+01  0.7957747E-01            NaN
         13   -1    0    0    0    0  0.00000000000E+00  0.00000000000E+00  0.74505805969E-08  0.10566000000E+00  0.10566000000E+00 0. -1.
     999900   -1    0    0    0    0 -0.00000000000E+00 -0.00000000000E+00 -0.74505805969E-08  0.93827000000E+00  0.93827000000E+00 0. -1.
     999902    2    1    2    0    0 -0.24224078586E-01  0.65869344385E-03  0.23226400846E-02  0.10195859141E+01  0.10192952476E+01 0.  0.
     999903    2    3    3    0    0  0.35985396147E-01  0.52889705325E-02  0.12255605476E+00  0.12935971010E+00  0.19774379728E-01 0.  0.
         14    1    1    2    0    0  0.24224078586E-01 -0.65869344385E-03 -0.23226400846E-02  0.24344085881E-01  0.00000000000E+00 0.  1.
     999901    1    3    3    0    0 -0.60209474734E-01 -0.46302770886E-02 -0.12023341468E+00  0.89022620402E+00  0.88000000000E+00 0. -1.
        -11    1    4    4    0    0  0.15771977967E-01  0.41667062025E-02  0.25964493997E-01  0.30668107198E-01  0.51100000000E-03 0.  1.
         11    1    4    4    0    0  0.20213418180E-01  0.11222643300E-02  0.96591560765E-01  0.98691602904E-01  0.51100000000E-03 0. -1.
</event>
<event>
 8    1  0.1144583E+005  0.1043930E+01  0.7957747E-01            NaN
         13   -1    0    0    0    0  0.00000000000E+00  0.00000000000E+00  0.74505805969E-08  0.10566000000E+00  0.10566000000E+00 0.  1.
     999900   -1    0    0    0    0 -0.00000000000E+00 -0.00000000000E+00 -0.74505805969E-08  0.93827000000E+00  0.93827000000E+00 0. -1.
     999902    2    1    2    0    0 -0.25512565399E-02  0.19937689736E-01 -0.13572143979E-01  0.10196766812E+01  0.10193882041E+01 0.  0.
     999903    2    3    3    0    0  0.71219177299E-01 -0.95619685134E-01 -0.43956450016E-01  0.12854325129E+00  0.19388206590E-01 0.  0.
         14    1    1    2    0    0  0.25512565399E-02 -0.19937689736E-01  0.13572143979E-01  0.24253318827E-01  0.00000000000E+00 0. -1.
     999901    1    3    3    0    0 -0.73770433839E-01  0.11555737487E+00  0.30384306037E-01  0.89113342988E+00  0.88000000000E+00 0. -1.
        -11    1    4    4    0    0  0.31017193326E-01 -0.57039600039E-01 -0.20534031489E-01  0.68099117649E-01  0.51100000000E-03 0. -1.
         11    1    4    4    0    0  0.40201983974E-01 -0.38580085095E-01 -0.23422418527E-01  0.60444133645E-01  0.51100000000E-03 0.  1.
</event>
<event>
 8    1  0.1129602E+005  0.1043930E+01  0.7957747E-01            NaN
         13   -1    0    0    0    0  0.00000000000E+00  0.00000000000E+00  0.74505805969E-08  0.10566000000E+00  0.10566000000E+00 0. -1.
     999900   -1    0    0    0    0 -0.00000000000E+00 -0.00000000000E+00 -0.74505805969E-08  0.93827000000E+00  0.93827000000E+00 0. -1.
     999902    2    1    2    0    0  0.13388619620E-01 -0.18803887449E-01 -0.21761160521E-02  0.10207442975E+01  0.10204809377E+01 0.  0.
     999903    2    3    3    0    0  0.49163309435E-01  0.11124416236E+00  0.39888447418E-01  0.12947455653E+00  0.19500715312E-01 0.  0.
         14    1    1    2    0    0 -0.13388619620E-01  0.18803887449E-01  0.21761160521E-02  0.23185702482E-01  0.00000000000E+00 0. -1.
     999901    1    3    3    0    0 -0.35774689815E-01 -0.13004804981E+00 -0.42064563470E-01  0.89126974098E+00  0.88000000000E+00 0. -1.
        -11    1    4    4    0    0  0.18961327078E-01  0.30390385213E-01  0.41781522586E-02  0.36066958774E-01  0.51100000000E-03 0. -1.
         11    1    4    4    0    0  0.30201982357E-01  0.80853777152E-01  0.35710295159E-01  0.93407597761E-01  0.51100000000E-03 0.  1.
</event>
<event>
 8    1  0.1129602E+005  0.1043930E+01  0.7957747E-01            NaN
         13   -1    0    0    0    0  0.00000000000E+00  0.00000000000E+00  0.74505805969E-08  0.10566000000E+00  0.10566000000E+00 0. -1.
     999900   -1    0    0    0    0 -0.00000000000E+00 -0.00000000000E+00 -0.74505805969E-08  0.93827000000E+00  0.93827000000E+00 0. -1.
     999902    2    1    2    0    0 -0.72265930699E-02 -0.22728153283E-01  0.50328105137E-02  0.10195553866E+01  0.10192639817E+01 0.  0.
     999903    2    3    3    0    0  0.37164685140E-01 -0.77292221205E-01 -0.96789993818E-01  0.13089588676E+00  0.20251641587E-01 0.  0.
         14    1    1    2    0    0  0.72265930699E-02  0.22728153283E-01 -0.50328105137E-02  0.24374613448E-01  0.00000000000E+00 0. -1.
     999901    1    3    3    0    0 -0.44391278210E-01  0.54564067922E-01  0.10182280433E+00  0.88865949979E+00  0.88000000000E+00 0.  1.
        -11    1    4    4    0    0  0.12593296656E-01 -0.26417726960E-01 -0.48123831241E-01  0.56326296458E-01  0.51100000000E-03 0. -1.
         11    1    4    4    0    0  0.24571388484E-01 -0.50874494246E-01 -0.48666162576E-01  0.74569590301E-01  0.51100000000E-03 0.  1.
</event>
<event>
 8    1  0.1129602E+005  0.1043930E+01  0.7957747E-01            NaN
         13   -1    0    0    0    0  0.00000000000E+00  0.00000000000E+00  0.74505805969E-08  0.10566000000E+00  0.10566000000E+00 0.  1.
     999900   -1    0    0    0    0 -0.00000000000E+00 -0.00000000000E+00 -0.74505805969E-08  0.93827000000E+00  0.93827000000E+00 0. -1.
     999902    2    1    2    0    0  0.11715631767E-01 -0.85095592725E-02  0.18543195539E-01  0.10204030213E+01  0.10201317597E+01 0.  0.
     999903    2    3    3    0    0  0.62672729044E-01 -0.93838677361E-01  0.68325686895E-01  0.13341036032E+00  0.19908702029E-01 0.  0.
         14    1    1    2    0    0 -0.11715631767E-01  0.85095592725E-02 -0.18543195539E-01  0.23526978717E-01  0.00000000000E+00 0. -1.
     999901    1    3    3    0    0 -0.50957097276E-01  0.85329118088E-01 -0.49782491356E-01  0.88699266096E+00  0.88000000000E+00 0.  1.
        -11    1    4    4    0    0  0.28624499284E-01 -0.59605319558E-01  0.35818692623E-01  0.75202366593E-01  0.51100000000E-03 0. -1.
         11    1    4    4    0    0  0.34048229760E-01 -0.34233357803E-01  0.32506994272E-01  0.58207993728E-01  0.51100000000E-03 0.  1.
</event>
<event>
 8    1  0.1129602E+005  0.1043930E+01  0.7957747E-01            NaN
         13   -1    0    0    0    0  0.00000000000E+00  0.00000000000E+00  0.74505805969E-08  0.10566000000E+00  0.10566000000E+00 0. -1.
     999900   -1    0    0    0    0 -0.00000000000E+00 -0.00000000000E+00 -0.74505805969E-08  0.93827000000E+00  0.93827000000E+00 0.  1.
     999902    2    1    2    0    0  0.85043720638E-02  0.19751235006E-01 -0.10335011852E-01  0.10200710793E+01  0.10197920174E+01 0.  0.
     999903    2    3    3    0    0 -0.27423825871E-01 -0.10827191222E+00  0.57585709183E-01  0.12749391959E+00  0.21533983104E-01 0.  0.
         14    1    1    2    0    0 -0.85043720638E-02 -0.19751235006E-01  0.10335011852E-01  0.23858920731E-01  0.00000000000E+00 0. -1.
     999901    1    3    3    0    0  0.35928197935E-01  0.12802314723E+00 -0.67920721035E-01  0.89257715968E+00  0.88000000000E+00 0.  1.
        -11    1    4    4    0    0 -0.25006093704E-01 -0.78734924630E-01  0.32907190571E-01  0.88924897476E-01  0.51100000000E-03 0.  1.
         11    1    4    4    0    0 -0.24177321665E-02 -0.29536987594E-01  0.24678518612E-01  0.38569022114E-01  0.51100000000E-03 0. -1.
</event>
<event>
 8    1  0.1129602E+005  0.1043930E+01  0.7957747E-01            NaN
         13   -1    0    0    0    0  0.00000000000E+00  0.00000000000E+00  0.74505805969E-08  0.10566000000E+00  0.10566000000E+00 0.  1.
     999900   -1    0    0    0    0 -0.00000000000E+00 -0.00000000000E+00 -0.74505805969E-08  0.93827000000E+00  0.93827000000E+00 0. -1.
     999902    2    1    2    0    0 -0.17574210691E-01  0.38433692609E-02  0.16714886498E-01  0.10193737014E+01  0.10190778829E+01 0.  0.
     999903    2    3    3    0    0 -0.73207067327E-01  0.10727912972E+00 -0.11478486621E-02  0.13139112920E+00  0.19855097486E-01 0.  0.
         14    1    1    2    0    0  0.17574210691E-01 -0.38433692609E-02 -0.16714886498E-01  0.24556298568E-01  0.00000000000E+00 0.  1.
     999901    1    3    3    0    0  0.55632856635E-01 -0.10343576046E+00  0.17862735160E-01  0.88798257223E+00  0.88000000000E+00 0. -1.
        -11    1    4    4    0    0 -0.45244408961E-01  0.49236237689E-01  0.18087504725E-02  0.66893918582E-01  0.51100000000E-03 0.  1.
         11    1    4    4    0    0 -0.27962658365E-01  0.58042892031E-01 -0.29565991346E-02  0.64497210618E-01  0.51100000000E-03 0. -1.
</event>
<event>
 8    1  0.1129602E+005  0.1043930E+01  0.7957747E-01            NaN
         13   -1    0    0    0    0  0.00000000000E+00  0.00000000000E+00  0.74505805969E-08  0.10566000000E+00  0.10566000000E+00 0.  1.
     999900   -1    0    0    0    0 -0.00000000000E+00 -0.00000000000E+00 -0.74505805969E-08  0.93827000000E+00  0.93827000000E+00 0.  1.
     999902    2    1    2    0    0  0.13897758889E-01  0.48129609445E-03 -0.19025046671E-01  0.10203645221E+01  0.10200923616E+01 0.  0.
     999903    2    3    3    0    0 -0.33483828955E-01  0.11494863733E+00  0.45144195701E-01  0.12937323216E+00  0.19107034511E-01 0.  0.
         14    1    1    2    0    0 -0.13897758889E-01 -0.48129609445E-03  0.19025046671E-01  0.23565477905E-01  0.00000000000E+00 0.  1.
     999901    1    3    3    0    0  0.47381587845E-01 -0.11446734124E+00 -0.64169242372E-01  0.89099128994E+00  0.88000000000E+00 0. -1.
        -11    1    4    4    0    0 -0.31227629597E-01  0.76878233272E-01  0.28232348315E-01  0.87651321802E-01  0.51100000000E-03 0. -1.
         11    1    4    4    0    0 -0.22561993585E-02  0.38070404059E-01  0.16911847386E-01  0.41721910356E-01  0.51100000000E-03 0.  1.
</event>
<event>
 8    1  0.1129602E+005  0.1043930E+01  0.7957747E-01            NaN
         13   -1    0    0    0    0  0.00000000000E+00  0.00000000000E+00  0.74505805969E-08  0.10566000000E+00  0.10566000000E+00 0. -1.
     999900   -1    0    0    0    0 -0.00000000000E+00 -0.00000000000E+00 -0.74505805969E-08  0.93827000000E+00  0.93827000000E+00 0.  1.
     999902    2    1    2    0    0  0.18782437829E-01 -0.67405665388E-02  0.19349171736E-01  0.10161342152E+01  0.10157539749E+01 0.  0.
     999903    2    3    3    0    0 -0.23198216683E-01  0.12062264102E+00  0.18258055410E-01  0.12597414386E+00  0.21169543019E-01 0.  0.
         14    1    1    2    0    0 -0.18782437829E-01  0.67405665388E-02 -0.19349171736E-01  0.27795784841E-01  0.00000000000E+00 0.  1.
     999901    1    3    3    0    0  0.41980654512E-01 -0.12736320756E+00  0.10911163265E-02  0.89016007129E+00  0.88000000000E+00 0.  1.
        -11    1    4    4    0    0 -0.16253742286E-01  0.39762350627E-01  0.11841595401E-01  0.44561341636E-01  0.51100000000E-03 0. -1.
         11    1    4    4    0    0 -0.69444743966E-02  0.80860290390E-01  0.64164600084E-02  0.81412802228E-01  0.51100000000E-03 0.  1.
</event>
<event>
 8    1  0.1129602E+005  0.1043930E+01  0.7957747E-01            NaN
         13   -1    0    0    0    0  0.00000000000E+00  0.00000000000E+00  0.74505805969E-08  0.10566000000E+00  0.10566000000E+00 0.  1.
     999900   -1    0    0    0    0 -0.00000000000E+00 -0.00000000000E+00 -0.74505805969E-08  0.93827000000E+00  0.93827000000E+00 0. -1.
     999902    2    1    2    0    0 -0.15248399031E-01 -0.17740672962E-01  0.41094526185E-02  0.10201785211E+01  0.10199019963E+01 0.  0.
     999903    2    3    3    0    0  0.11866534467E-01 -0.80305236042E-01  0.10219675879E+00  0.13210720423E+00  0.20454591810E-01 0.  0.
         14    1    1    2    0    0  0.15248399031E-01  0.17740672962E-01 -0.41094526185E-02  0.23751478922E-01  0.00000000000E+00 0.  1.
     999901    1    3    3    0    0 -0.27114933498E-01  0.62564563080E-01 -0.98087306175E-01  0.88807131685E+00  0.88000000000E+00 0. -1.
        -11    1    4    4    0    0  0.16993213504E-01 -0.50304960937E-01  0.60791069771E-01  0.80716625827E-01  0.51100000000E-03 0. -1.
         11    1    4    4    0    0 -0.51266790374E-02 -0.30000275106E-01  0.41405689022E-01  0.51390578405E-01  0.51100000000E-03 0.  1.
</event>
<event>
 8    1  0.1129602E+005  0.1043930E+01  0.7957747E-01            NaN
         13   -1    0    0    0    0  0.00000000000E+00  0.00000000000E+00  0.74505805969E-08  0.10566000000E+00  0.10566000000E+00 0.  1.
     999900   -1    0    0    0    0 -0.00000000000E+00 -0.00000000000E+00 -0.74505805969E-08  0.93827000000E+00  0.93827000000E+00 0. -1.
     999902    2    1    2    0    0  0.17649565325E-03  0.22898928063E-01  0.12121176573E-02  0.10209983344E+01  0.10207407788E+01 0.  0.
     999903    2    3    3    0    0 -0.24366608572E-01  0.13029724488E+00  0.60457635244E-02  0.13411608375E+00  0.19479964784E-01 0.  0.
         14    1    1    2    0    0 -0.17649565325E-03 -0.22898928063E-01 -0.12121176573E-02  0.22931665582E-01  0.00000000000E+00 0.  1.
     999901    1    3    3    0    0  0.24543104225E-01 -0.10739831681E+00 -0.48336458672E-02  0.88688225067E+00  0.88000000000E+00 0.  1.
        -11    1    4    4    0    0 -0.15412467581E-01  0.52117938425E-01  0.10259327147E-01  0.55311287972E-01  0.51100000000E-03 0. -1.
         11    1    4    4    0    0 -0.89541409910E-02  0.78179306451E-01 -0.42135636230E-02  0.78804795777E-01  0.51100000000E-03 0.  1.
</event>
<event>
 8    1  0.1129602E+005  0.1043930E+01  0.7957747E-01            NaN
         13   -1    0    0    0    0  0.00000000000E+00  0.00000000000E+00  0.74505805969E-08  0.10566000000E+00  0.10566000000E+00 0.  1.
     999900   -1    0    0    0    0 -0.00000000000E+00 -0.00000000000E+00 -0.74505805969E-08  0.93827000000E+00  0.93827000000E+00 0. -1.
     999902    2    1    2    0    0 -0.10394059393E-01  0.95210701897E-02 -0.18928727498E-01  0.10203294921E+01  0.10200565124E+01 0.  0.
     999903    2    3    3    0    0  0.47380418148E-01  0.10365074270E+00 -0.64233977647E-01  0.13226933018E+00  0.19513875501E-01 0.  0.
         14    1    1    2    0    0  0.10394059393E-01 -0.95210701897E-02  0.18928727498E-01  0.23600507895E-01  0.00000000000E+00 0.  1.
     999901    1    3    3    0    0 -0.57774477541E-01 -0.94129672508E-01  0.45305250149E-01  0.88806016192E+00  0.88000000000E+00 0.  1.
        -11    1    4    4    0    0  0.16964466036E-01  0.38177865789E-01 -0.13048902648E-01  0.43770738232E-01  0.51100000000E-03 0.  1.
         11    1    4    4    0    0  0.30415952112E-01  0.65472876908E-01 -0.51185074999E-01  0.88498591951E-01  0.51100000000E-03 0. -1.
</event>
<event>
 8    1  0.1129602E+005  0.1043930E+01  0.7957747E-01            NaN
         13   -1    0    0    0    0  0.00000000000E+00  0.00000000000E+00  0.74505805969E-08  0.10566000000E+00  0.10566000000E+00 0. -1.
     999900   -1    0    0    0    0 -0.00000000000E+00 -0.00000000000E+00 -0.74505805969E-08  0.93827000000E+00  0.93827000000E+00 0. -1.
     999902    2    1    2    0    0 -0.10707136512E-01 -0.16824668840E-01 -0.13443881928E-01  0.10198790080E+01  0.10195953809E+01 0.  0.
     999903    2    3    3    0    0  0.13144681314E-01  0.67432027952E-01 -0.10882726185E+00  0.13040383168E+00  0.21022020709E-01 0.  0.
         14    1    1    2    0    0  0.10707136512E-01  0.16824668840E-01  0.13443881928E-01  0.24050991979E-01  0.00000000000E+00 0. -1.
     999901    1    3    3    0    0 -0.23851817826E-01 -0.84256696792E-01  0.95383379918E-01  0.88947517634E+00  0.88000000000E+00 0.  1.
        -11    1    4    4    0    0  0.17338866524E-01  0.41204836086E-01 -0.75996156530E-01  0.88171150257E-01  0.51100000000E-03 0. -1.
         11    1    4    4    0    0 -0.41941852093E-02  0.26227191866E-01 -0.32831105316E-01  0.42232681421E-01  0.51100000000E-03 0.  1.
</event>
<event>
 8    1  0.1129602E+005  0.1043930E+01  0.7957747E-01            NaN
         13   -1    0    0    0    0  0.00000000000E+00  0.00000000000E+00  0.74505805969E-08  0.10566000000E+00  0.10566000000E+00 0. -1.
     999900   -1    0    0    0    0 -0.00000000000E+00 -0.00000000000E+00 -0.74505805969E-08  0.93827000000E+00  0.93827000000E+00 0. -1.
     999902    2    1    2    0    0  0.88349269411E-02 -0.11883545751E-01  0.18466782198E-01  0.10202594141E+01  0.10199847917E+01 0.  0.
     999903    2    3    3    0    0 -0.26328255815E-02  0.84039080137E-01  0.99127850164E-01  0.13130560909E+00  0.18583152002E-01 0.  0.
         14    1    1    2    0    0 -0.88349269411E-02  0.11883545751E-01 -0.18466782198E-01  0.23670585933E-01  0.00000000000E+00 0.  1.
     999901    1    3    3    0    0  0.11467752523E-01 -0.95922625888E-01 -0.80661067967E-01  0.88895380498E+00  0.88000000000E+00 0. -1.
        -11    1    4    4    0    0 -0.28038066975E-02  0.72610236745E-01  0.74088769059E-01  0.10377627202E+00  0.51100000000E-03 0. -1.
         11    1    4    4    0    0  0.17098111605E-03  0.11428843393E-01  0.25039081106E-01  0.27529337069E-01  0.51100000000E-03 0.  1.
</event>
<event>
 8    1  0.1129602E+005  0.1043930E+01  0.7957747E-01            NaN
         13   -1    0    0    0    0  0.00000000000E+00  0.00000000000E+00  0.74505805969E-08  0.10566000000E+00  0.10566000000E+00 0.  1.
     999900   -1    0    0    0    0 -0.00000000000E+00 -0.00000000000E+00 -0.74505805969E-08  0.93827000000E+00  0.93827000000E+00 0. -1.
     999902    2    1    2    0    0  0.15164686763E-01  0.18040114009E-01  0.35331645956E-02  0.10200994169E+01  0.10198210253E+01 0.  0.
     999903    2    3    3    0    0 -0.13279355528E-01 -0.51823739315E-02 -0.12718527619E+00  0.12968622168E+00  0.20957655688E-01 0.  0.
         14    1    1    2    0    0 -0.15164686763E-01 -0.18040114009E-01 -0.35331645956E-02  0.23830583084E-01  0.00000000000E+00 0.  1.
     999901    1    3    3    0    0  0.28444042291E-01  0.23222487940E-01  0.13071844078E+00  0.89041319524E+00  0.88000000000E+00 0.  1.
        -11    1    4    4    0    0 -0.11919893626E-01  0.36856360274E-02 -0.10515313424E+00  0.10589197579E+00  0.51100000000E-03 0. -1.
         11    1    4    4    0    0 -0.13594619026E-02 -0.88680099589E-02 -0.22032141952E-01  0.23794245886E-01  0.51100000000E-03 0.  1.
</event>
<event>
 8    1  0.1129602E+005  0.1043930E+01  0.7957747E-01            NaN
         13   -1    0    0    0    0  0.00000000000E+00  0.00000000000E+00  0.74505805969E-08  0.10566000000E+00  0.10566000000E+00 0.  1.
     999900   -1    0    0    0    0 -0.00000000000E+00 -0.00000000000E+00 -0.74505805969E-08  0.93827000000E+00  0.93827000000E+00 0. -1.
     999902    2    1    2    0    0 -0.90514615837E-02 -0.11945593566E-01 -0.16720477832E-01  0.10214755897E+01  0.10212287598E+01 0.  0.
     999903    2    3    3    0    0  0.89659342015E-01  0.61284426426E-01  0.66496663461E-01  0.12904545173E+00  0.20888844577E-01 0.  0.
         14    1    1    2    0    0  0.90514615837E-02  0.11945593566E-01  0.16720477832E-01  0.22454410288E-01  0.00000000000E+00 0.  1.
     999901    1    3    3    0    0 -0.98710803598E-01 -0.73230019992E-01 -0.83217141293E-01  0.89243013798E+00  0.88000000000E+00 0. -1.
        -11    1    4    4    0    0  0.38880274569E-01  0.24065984387E-01  0.39934727025E-01  0.60711538431E-01  0.51100000000E-03 0.  1.
         11    1    4    4    0    0  0.50779067446E-01  0.37218442039E-01  0.26561936435E-01  0.68333913299E-01  0.51100000000E-03 0. -1.
</event>
<event>
 8    1  0.1129602E+005  0.1043930E+01  0.7957747E-01            NaN
         13   -1    0    0    0    0  0.00000000000E+00  0.00000000000E+00  0.74505805969E-08  0.10566000000E+00  0.10566000000E+00 0.  1.
     999900   -1    0    0    0    0 -0.00000000000E+00 -0.00000000000E+00 -0.74505805969E-08  0.93827000000E+00  0.93827000000E+00 0.  1.
     999902    2    1    2    0    0 -0.10495030292E-01 -0.20432121894E-01  0.20174271474E-02  0.10208716549E+01  0.10206112132E+01 0.  0.
     999903    2    3    3    0    0 -0.99805605295E-02 -0.12579297836E+00  0.39399442380E-01  0.13379860842E+00  0.20646223889E-01 0.  0.
         14    1    1    2    0    0  0.10495030292E-01  0.20432121894E-01 -0.20174271474E-02  0.23058345089E-01  0.00000000000E+00 0. -1.
     999901    1    3    3    0    0 -0.51446976279E-03  0.10536085647E+00 -0.37382015232E-01  0.88707304649E+00  0.88000000000E+00 0.  1.
        -11    1    4    4    0    0  0.40370457825E-02 -0.62196930777E-01  0.24633109305E-01  0.67020945470E-01  0.51100000000E-03 0.  1.
         11    1    4    4    0    0 -0.14017606312E-01 -0.63596047585E-01  0.14766333075E-01  0.66777662946E-01  0.51100000000E-03 0. -1.
</event>
<event>
 8    1  0.1129602E+005  0.1043930E+01  0.7957747E-01            NaN
         13   -1    0    0    0    0  0.00000000000E+00  0.00000000000E+00  0.74505805969E-08  0.10566000000E+00  0.10566000000E+00 0.  1.
     999900   -1    0    0    0    0 -0.00000000000E+00 -0.00000000000E+00 -0.74505805969E-08  0.93827000000E+00  0.93827000000E+00 0.  1.
     999902    2    1    2    0    0  0.17045507552E-01 -0.91610292202E-02  0.12316390216E-01  0.10209916641E+01  0.10207339570E+01 0.  0.
     999903    2    3    3    0    0  0.11085145438E+00  0.37924459645E-01  0.60583146859E-01  0.13344094518E+00  0.20244964549E-01 0.  0.
         14    1    1    2    0    0 -0.17045507552E-01  0.91610292202E-02 -0.12316390216E-01  0.22938335860E-01  0.00000000000E+00 0. -1.
     999901    1    3    3    0    0 -0.93805946832E-01 -0.47085488865E-01 -0.48266756644E-01  0.88755071896E+00  0.88000000000E+00 0.  1.
        -11    1    4    4    0    0  0.75561296213E-01  0.26180723859E-01  0.51609468495E-01  0.95177403550E-01  0.51100000000E-03 0. -1.
         11    1    4    4    0    0  0.35290158171E-01  0.11743735786E-01  0.89736783649E-02  0.38263541634E-01  0.51100000000E-03 0.  1.
</event>
<event>
 8    1  0.1129602E+005  0.1043930E+01  0.7957747E-01            NaN
         13   -1    0    0    0    0  0.00000000000E+00  0.00000000000E+00  0.74505805969E-08  0.10566000000E+00  0.10566000000E+00 0.  1.
     999900   -1    0    0    0    0 -0.00000000000E+00 -0.00000000000E+00 -0.74505805969E-08  0.93827000000E+00  0.93827000000E+00 0. -1.
     999902    2    1    2    0    0  0.11470962374E-01 -0.20709784659E-01 -0.85542167616E-03  0.10202401308E+01  0.10199650555E+01 0.  0.
     999903    2    3    3    0    0  0.54372185890E-01  0.95416465800E-01  0.65132128542E-01  0.12912836571E+00  0.19269253181E-01 0.  0.
         14    1    1    2    0    0 -0.11470962374E-01  0.20709784659E-01  0.85542167616E-03  0.23689869241E-01  0.00000000000E+00 0.  1.
     999901    1    3    3    0    0 -0.42901223516E-01 -0.11612625046E+00 -0.65987550218E-01  0.89111176505E+00  0.88000000000E+00 0.  1.
        -11    1    4    4    0    0  0.23752572589E-02  0.17080355165E-01  0.13143846781E-01  0.21688757659E-01  0.51100000000E-03 0. -1.
         11    1    4    4    0    0  0.51996928631E-01  0.78336110636E-01  0.51988281761E-01  0.10743960805E+00  0.51100000000E-03 0.  1.
</event>
<event>
 8    1  0.1129602E+005  0.1043930E+01  0.7957747E-01            NaN
         13   -1    0    0    0    0  0.00000000000E+00  0.00000000000E+00  0.74505805969E-08  0.10566000000E+00  0.10566000000E+00 0.  1.
     999900   -1    0    0    0    0 -0.00000000000E+00 -0.00000000000E+00 -0.74505805969E-08  0.93827000000E+00  0.93827000000E+00 0.  1.
     999902    2    1    2    0    0 -0.15744545056E-01  0.14825358624E-01 -0.88283104675E-02  0.10205714679E+01  0.10203041213E+01 0.  0.
     999903    2    3    3    0    0 -0.63432551217E-01  0.23828964585E-01 -0.11291295463E+00  0.13310945516E+00  0.19423790145E-01 0.  0.
         14    1    1    2    0    0  0.15744545056E-01 -0.14825358624E-01  0.88283104675E-02  0.23358532126E-01  0.00000000000E+00 0.  1.
     999901    1    3    3    0    0  0.47688006161E-01 -0.90036059604E-02  0.10408464416E+00  0.88746201271E+00  0.88000000000E+00 0. -1.
        -11    1    4    4    0    0 -0.15243622232E-01  0.12684751099E-01 -0.44172324304E-01  0.48422373802E-01  0.51100000000E-03 0.  1.
         11    1    4    4    0    0 -0.48188928985E-01  0.11144213485E-01 -0.68740630327E-01  0.84687081363E-01  0.51100000000E-03 0. -1.
</event>
<event>
 8    1  0.1129602E+005  0.1043930E+01  0.7957747E-01            NaN
         13   -1    0    0    0    0  0.00000000000E+00  0.00000000000E+00  0.74505805969E-08  0.10566000000E+00  0.10566000000E+00 0. -1.
     999900   -1    0    0    0    0 -0.00000000000E+00 -0.00000000000E+00 -0.74505805969E-08  0.93827000000E+00  0.93827000000E+00 0. -1.
     999902    2    1    2    0    0  0.13423338442E-01  0.93676105246E-02  0.16701722329E-01  0.10205444132E+01  0.10202764398E+01 0.  0.
     999903    2    3    3    0    0 -0.12010924621E+00  0.35539945543E-01 -0.24249348677E-01  0.12914498953E+00  0.20026948176E-01 0.  0.
         14    1    1    2    0    0 -0.13423338442E-01 -0.93676105246E-02 -0.16701722329E-01  0.23385586814E-01  0.00000000000E+00 0.  1.
     999901    1    3    3    0    0  0.13353258466E+00 -0.26172335019E-01  0.40951071007E-01  0.89139942366E+00  0.88000000000E+00 0.  1.
        -11    1    4    4    0    0 -0.81619234736E-01  0.19410497119E-01 -0.24524062899E-01  0.87407995397E-01  0.51100000000E-03 0.  1.
         11    1    4    4    0    0 -0.38490011477E-01  0.16129448425E-01  0.27471422150E-03  0.41736994129E-01  0.51100000000E-03 0. -1.
</event>
<event>
 8    1  0.1129602E+005  0.1043930E+01  0.7957747E-01            NaN
         13   -1    0    0    0    0  0.00000000000E+00  0.00000000000E+00  0.74505805969E-08  0.10566000000E+00  0.10566000000E+00 0. -1.
     999900   -1    0    0    0    0 -0.00000000000E+00 -0.00000000000E+00 -0.74505805969E-08  0.93827000000E+00  0.93827000000E+00 0. -1.
     999902    2    1    2    0    0  0.45261934599E-02 -0.13710993262E-01  0.24634788299E-01  0.10153756561E+01  0.10149740747E+01 0.  0.
     999903    2    3    3    0    0 -0.83159008458E-01  0.41613787593E-01 -0.78421104261E-01  0.12331621689E+00  0.20245783499E-01 0.  0.
         14    1    1    2    0    0 -0.45261934599E-02  0.13710993262E-01 -0.24634788299E-01  0.28554343943E-01  0.00000000000E+00 0.  1.
     999901    1    3    3    0    0  0.87685201918E-01 -0.55324780854E-01  0.10305589256E+00  0.89205943917E+00  0.88000000000E+00 0.  1.
        -11    1    4    4    0    0 -0.40295298939E-01  0.16587809428E-01 -0.49164831089E-01  0.65698616996E-01  0.51100000000E-03 0.  1.
         11    1    4    4    0    0 -0.42863709520E-01  0.25025978165E-01 -0.29256273172E-01  0.57617599896E-01  0.51100000000E-03 0. -1.
</event>
<event>
 8    1  0.1129602E+005  0.1043930E+01  0.7957747E-01            NaN
         13   -1    0    0    0    0  0.00000000000E+00  0.00000000000E+00  0.74505805969E-08  0.10566000000E+00  0.10566000000E+00 0.  1.
     999900   -1    0    0    0    0 -0.00000000000E+00 -0.00000000000E+00 -0.74505805969E-08  0.93827000000E+00  0.93827000000E+00 0. -1.
     999902    2    1    2    0    0 -0.78306865803E-02  0.20249438679E-01  0.10723494359E-01  0.10197152782E+01  0.10194277296E+01 0.  0.
     999903    2    3    3    0    0  0.24350779702E-01 -0.56889400267E-01  0.11246023209E+00  0.12991956513E+00  0.20060540055E-01 0.  0.
         14    1    1    2    0    0  0.78306865803E-02 -0.20249438679E-01 -0.10723494359E-01  0.24214721770E-01  0.00000000000E+00 0.  1.
     999901    1    3    3    0    0 -0.32181466282E-01  0.77138838946E-01 -0.10173673773E+00  0.88979571310E+00  0.88000000000E+00 0. -1.
        -11    1    4    4    0    0  0.32845809172E-02 -0.17074498685E-01  0.49773936561E-01  0.52726016907E-01  0.51100000000E-03 0. -1.
         11    1    4    4    0    0  0.21066198785E-01 -0.39814901582E-01  0.62686295529E-01  0.77193548224E-01  0.51100000000E-03 0.  1.
</event>
<event>
 8    1  0.1129602E+005  0.1043930E+01  0.7957747E-01            NaN
         13   -1    0    0    0    0  0.00000000000E+00  0.00000000000E+00  0.74505805969E-08  0.10566000000E+00  0.10566000000E+00 0. -1.
     999900   -1    0    0    0    0 -0.00000000000E+00 -0.00000000000E+00 -0.74505805969E-08  0.93827000000E+00  0.93827000000E+00 0.  1.
     999902    2    1    2    0    0  0.24004220673E-01  0.19633614396E-02 -0.57305757022E-02  0.10191732454E+01  0.10188725177E+01 0.  0.
     999903    2    3    3    0    0  0.74593187749E-01  0.26664373244E-02 -0.10699560128E+00  0.13192224189E+00  0.19600144543E-01 0.  0.
         14    1    1    2    0    0 -0.24004220673E-01 -0.19633614396E-02  0.57305757022E-02  0.24756754556E-01  0.00000000000E+00 0. -1.
     999901    1    3    3    0    0 -0.50588967075E-01 -0.70307588478E-03  0.10126502557E+00  0.88725100356E+00  0.88000000000E+00 0. -1.
        -11    1    4    4    0    0  0.45371083171E-01 -0.17272751893E-02 -0.48835399471E-01  0.66683401459E-01  0.51100000000E-03 0. -1.
         11    1    4    4    0    0  0.29222104577E-01  0.43937125137E-02 -0.58160201805E-01  0.65238840429E-01  0.51100000000E-03 0.  1.
</event>
<event>
 8    1  0.1129602E+005  0.1043930E+01  0.7957747E-01            NaN
         13   -1    0    0    0    0  0.00000000000E+00  0.00000000000E+00  0.74505805969E-08  0.10566000000E+00  0.10566000000E+00 0. -1.
     999900   -1    0    0    0    0 -0.00000000000E+00 -0.00000000000E+00 -0.74505805969E-08  0.93827000000E+00  0.93827000000E+00 0.  1.
     999902    2    1    2    0    0  0.77082313020E-02 -0.55987034722E-02 -0.21476607025E-01  0.10204351716E+01  0.10201646595E+01 0.  0.
     999903    2    3    3    0    0  0.93240431535E-01  0.23326169464E-03  0.87179768779E-01  0.12961758251E+00  0.22507179484E-01 0.  0.
         14    1    1    2    0    0 -0.77082313020E-02  0.55987034722E-02  0.21476607025E-01  0.23494828360E-01  0.00000000000E+00 0. -1.
     999901    1    3    3    0    0 -0.85532200233E-01 -0.58319651668E-02 -0.10865637580E+00  0.89081758913E+00  0.88000000000E+00 0.  1.
        -11    1    4    4    0    0  0.17236634684E-01 -0.77287280945E-02  0.23405042596E-01  0.30081422059E-01  0.51100000000E-03 0.  1.
         11    1    4    4    0    0  0.76003796851E-01  0.79619897892E-02  0.63774726184E-01  0.99536160454E-01  0.51100000000E-03 0. -1.
</event>
<event>
 8    1  0.1129602E+005  0.1043930E+01  0.7957747E-01            NaN
         13   -1    0    0    0    0  0.00000000000E+00  0.00000000000E+00  0.74505805969E-08  0.10566000000E+00  0.10566000000E+00 0.  1.
     999900   -1    0    0    0    0 -0.00000000000E+00 -0.00000000000E+00 -0.74505805969E-08  0.93827000000E+00  0.93827000000E+00 0. -1.
     999902    2    1    2    0    0  0.56574099687E-02  0.20032068372E-01 -0.60970167121E-02  0.10222398256E+01  0.10220096856E+01 0.  0.
     999903    2    3    3    0    0 -0.64463980003E-01  0.19372295729E-01  0.11171732951E+00  0.13162337351E+00  0.17693506753E-01 0.  0.
         14    1    1    2    0    0 -0.56574099687E-02 -0.20032068372E-01  0.60970167121E-02  0.21690174356E-01  0.00000000000E+00 0. -1.
     999901    1    3    3    0    0  0.70121389972E-01  0.65977264253E-03 -0.11781434623E+00  0.89061645213E+00  0.88000000000E+00 0. -1.
        -11    1    4    4    0    0 -0.44792141532E-01  0.11341048224E-01  0.60168796893E-01  0.75865015379E-01  0.51100000000E-03 0. -1.
         11    1    4    4    0    0 -0.19671838471E-01  0.80312475053E-02  0.51548532621E-01  0.55758358133E-01  0.51100000000E-03 0.  1.
</event>
<event>
 8    1  0.1129602E+005  0.1043930E+01  0.7957747E-01            NaN
         13   -1    0    0    0    0  0.00000000000E+00  0.00000000000E+00  0.74505805969E-08  0.10566000000E+00  0.10566000000E+00 0. -1.
     999900   -1    0    0    0    0 -0.00000000000E+00 -0.00000000000E+00 -0.74505805969E-08  0.93827000000E+00  0.93827000000E+00 0.  1.
     999902    2    1    2    0    0  0.83682168219E-02  0.16850787571E-01 -0.14427723057E-01  0.10202206076E+01  0.10199450735E+01 0.  0.
     999903    2    3    3    0    0  0.36258700003E-02  0.22676273695E-01  0.12545406534E+00  0.12914073417E+00  0.20279210767E-01 0.  0.
         14    1    1    2    0    0 -0.83682168219E-02 -0.16850787571E-01  0.14427723057E-01  0.23709392383E-01  0.00000000000E+00 0.  1.
     999901    1    3    3    0    0  0.47423468216E-02 -0.58254861233E-02 -0.13988178840E+00  0.89107987345E+00  0.88000000000E+00 0.  1.
        -11    1    4    4    0    0  0.54678966864E-03  0.25020840832E-01  0.88220931750E-01  0.91703518879E-01  0.51100000000E-03 0.  1.
         11    1    4    4    0    0  0.30790803316E-02 -0.23445671369E-02  0.37233133589E-01  0.37437215289E-01  0.51100000000E-03 0. -1.
</event>
<event>
 8    1  0.1129602E+005  0.1043930E+01  0.7957747E-01            NaN
         13   -1    0    0    0    0  0.00000000000E+00  0.00000000000E+00  0.74505805969E-08  0.10566000000E+00  0.10566000000E+00 0.  1.
     999900   -1    0    0    0    0 -0.00000000000E+00 -0.00000000000E+00 -0.74505805969E-08  0.93827000000E+00  0.93827000000E+00 0. -1.
     999902    2    1    2    0    0  0.36058785603E-04 -0.21779826665E-01  0.93967866416E-02  0.10202095078E+01  0.10199337126E+01 0.  0.
     999903    2    3    3    0    0  0.76093030120E-01 -0.97172816398E-01 -0.42952727059E-01  0.13217277583E+00  0.19799000709E-01 0.  0.
         14    1    1    2    0    0 -0.36058785603E-04  0.21779826665E-01 -0.93967866416E-02  0.23720492174E-01  0.00000000000E+00 0. -1.
     999901    1    3    3    0    0 -0.76056971335E-01  0.75392989733E-01  0.52349513701E-01  0.88803673200E+00  0.88000000000E+00 0. -1.
        -11    1    4    4    0    0  0.21952570508E-01 -0.34066640092E-01 -0.23232338505E-01  0.46716742101E-01  0.51100000000E-03 0. -1.
         11    1    4    4    0    0  0.54140459612E-01 -0.63106176306E-01 -0.19720388554E-01  0.85456033729E-01  0.51100000000E-03 0.  1.
</event>
<event>
 8    1  0.1129602E+005  0.1043930E+01  0.7957747E-01            NaN
         13   -1    0    0    0    0  0.00000000000E+00  0.00000000000E+00  0.74505805969E-08  0.10566000000E+00  0.10566000000E+00 0. -1.
     999900   -1    0    0    0    0 -0.00000000000E+00 -0.00000000000E+00 -0.74505805969E-08  0.93827000000E+00  0.93827000000E+00 0. -1.
     999902    2    1    2    0    0 -0.20470303756E-01 -0.87814460852E-02 -0.57921483656E-02  0.10209148721E+01  0.10206554168E+01 0.  0.
     999903    2    3    3    0    0  0.43095162970E-01  0.14202076804E-01 -0.12107845071E+00  0.13082513367E+00  0.19908096792E-01 0.  0.
         14    1    1    2    0    0  0.20470303756E-01  0.87814460852E-02  0.57921483656E-02  0.23015127936E-01  0.00000000000E+00 0. -1.
     999901    1    3    3    0    0 -0.63565466726E-01 -0.22983522889E-01  0.11528630234E+00  0.89008973839E+00  0.88000000000E+00 0.  1.
        -11    1    4    4    0    0  0.38078696044E-01  0.74368883173E-02 -0.80304010668E-01  0.89186824423E-01  0.51100000000E-03 0. -1.
         11    1    4    4    0    0  0.50164669257E-02  0.67651884867E-02 -0.40774440038E-01  0.41638309249E-01  0.51100000000E-03 0.  1.
</event>
<event>
 8    1  0.1129602E+005  0.1043930E+01  0.7957747E-01            NaN
         13   -1    0    0    0    0  0.00000000000E+00  0.00000000000E+00  0.74505805969E-08  0.10566000000E+00  0.10566000000E+00 0.  1.
     999900   -1    0    0    0    0 -0.00000000000E+00 -0.00000000000E+00 -0.74505805969E-08  0.93827000000E+00  0.93827000000E+00 0. -1.
     999902    2    1    2    0    0  0.11179953450E-01 -0.13051957389E-01 -0.15900307659E-01  0.10205170819E+01  0.10202484745E+01 0.  0.
     999903    2    3    3    0    0  0.12590478644E+00  0.36890449407E-02 -0.36349007945E-01  0.13267689480E+00  0.20403032470E-01 0.  0.
         14    1    1    2    0    0 -0.11179953450E-01  0.13051957389E-01  0.15900307659E-01  0.23412918111E-01  0.00000000000E+00 0.  1.
     999901    1    3    3    0    0 -0.11472483299E+00 -0.16741002330E-01  0.20448700286E-01  0.88784018709E+00  0.88000000000E+00 0. -1.
        -11    1    4    4    0    0  0.55018498335E-01  0.11043345585E-01 -0.12208822023E-01  0.57430889745E-01  0.51100000000E-03 0. -1.
         11    1    4    4    0    0  0.70886288107E-01 -0.73543006446E-02 -0.24140185922E-01  0.75246005056E-01  0.51100000000E-03 0.  1.
</event>
<event>
 8    1  0.1129602E+005  0.1043930E+01  0.7957747E-01            NaN
         13   -1    0    0    0    0  0.00000000000E+00  0.00000000000E+00  0.74505805969E-08  0.10566000000E+00  0.10566000000E+00 0.  1.
     999900   -1    0    0    0    0 -0.00000000000E+00 -0.00000000000E+00 -0.74505805969E-08  0.93827000000E+00  0.93827000000E+00 0.  1.
     999902    2    1    2    0    0 -0.10430637173E-01  0.17763641047E-01 -0.12467017016E-01  0.10198515522E+01  0.10195672694E+01 0.  0.
     999903    2    3    3    0    0  0.10393099251E+00 -0.62888974394E-02  0.72059408019E-01  0.12811065739E+00  0.19457153359E-01 0.  0.
         14    1    1    2    0    0  0.10430637173E-01 -0.17763641047E-01  0.12467017016E-01  0.24078447798E-01  0.00000000000E+00 0.  1.
     999901    1    3    3    0    0 -0.11436162969E+00  0.24052538487E-01 -0.84526425034E-01  0.89174089481E+00  0.88000000000E+00 0.  1.
        -11    1    4    4    0    0  0.35591825234E-01  0.24398325684E-04  0.35819221587E-01  0.50498082883E-01  0.51100000000E-03 0. -1.
         11    1    4    4    0    0  0.68339167279E-01 -0.63132957651E-02  0.36240186432E-01  0.77612574506E-01  0.51100000000E-03 0.  1.
</event>
<event>
 8    1  0.1129602E+005  0.1043930E+01  0.7957747E-01            NaN
         13   -1    0    0    0    0  0.00000000000E+00  0.00000000000E+00  0.74505805969E-08  0.10566000000E+00  0.10566000000E+00 0.  1.
     999900   -1    0    0    0    0 -0.00000000000E+00 -0.00000000000E+00 -0.74505805969E-08  0.93827000000E+00  0.93827000000E+00 0. -1.
     999902    2    1    2    0    0 -0.15474323032E-01  0.16001146267E-01 -0.87719774310E-02  0.10200043037E+01  0.10197236590E+01 0.  0.
     999903    2    3    3    0    0  0.88781162517E-01 -0.11961838313E-01  0.89242512018E-01  0.12800768100E+00  0.19913815562E-01 0.  0.
         14    1    1    2    0    0  0.15474323032E-01 -0.16001146267E-01  0.87719774310E-02  0.23925696295E-01  0.00000000000E+00 0.  1.
     999901    1    3    3    0    0 -0.10425548555E+00  0.27962984580E-01 -0.98014489449E-01  0.89199662270E+00  0.88000000000E+00 0. -1.
        -11    1    4    4    0    0  0.50456341519E-01  0.21733455306E-03  0.59333515138E-01  0.77888489351E-01  0.51100000000E-03 0.  1.
         11    1    4    4    0    0  0.38324820998E-01 -0.12179172866E-01  0.29908996880E-01  0.50119191650E-01  0.51100000000E-03 0. -1.
</event>
<event>
 8    1  0.1129602E+005  0.1043930E+01  0.7957747E-01            NaN
         13   -1    0    0    0    0  0.00000000000E+00  0.00000000000E+00  0.74505805969E-08  0.10566000000E+00  0.10566000000E+00 0. -1.
     999900   -1    0    0    0    0 -0.00000000000E+00 -0.00000000000E+00 -0.74505805969E-08  0.93827000000E+00  0.93827000000E+00 0.  1.
     999902    2    1    2    0    0 -0.71999434789E-02 -0.22813458493E-01  0.63099015709E-02  0.10191891849E+01  0.10188888490E+01 0.  0.
     999903    2    3    3    0    0  0.11392662689E+00  0.35081434976E-01 -0.40387587058E-01  0.12778348590E+00  0.22078919487E-01 0.  0.
         14    1    1    2    0    0  0.71999434789E-02  0.22813458493E-01 -0.63099015709E-02  0.24740815111E-01  0.00000000000E+00 0.  1.
     999901    1    3    3    0    0 -0.12112657037E+00 -0.57894893469E-01  0.46697488629E-01  0.89140569899E+00  0.88000000000E+00 0. -1.
        -11    1    4    4    0    0  0.67181163306E-01  0.23277227130E-01 -0.12834224657E-01  0.72250373353E-01  0.51100000000E-03 0.  1.
         11    1    4    4    0    0  0.46745463588E-01  0.11804207846E-01 -0.27553362402E-01  0.55533112550E-01  0.51100000000E-03 0. -1.
</event>
<event>
 8    1  0.1129602E+005  0.1043930E+01  0.7957747E-01            NaN
         13   -1    0    0    0    0  0.00000000000E+00  0.00000000000E+00  0.74505805969E-08  0.10566000000E+00  0.10566000000E+00 0. -1.
     999900   -1    0    0    0    0 -0.00000000000E+00 -0.00000000000E+00 -0.74505805969E-08  0.93827000000E+00  0.93827000000E+00 0. -1.
     999902    2    1    2    0    0 -0.23397524236E-01 -0.27370658551E-02  0.29112164896E-03  0.10203711286E+01  0.10200991225E+01 0.  0.
     999903    2    3    3    0    0  0.30885076534E-01 -0.53636875150E-01 -0.11276714252E+00  0.13002312785E+00  0.18941568452E-01 0.  0.
         14    1    1    2    0    0  0.23397524236E-01  0.27370658551E-02 -0.29112164896E-03  0.23558871401E-01  0.00000000000E+00 0.  1.
     999901    1    3    3    0    0 -0.54282600770E-01  0.50899809295E-01  0.11305826417E+00  0.89034800074E+00  0.88000000000E+00 0.  1.
        -11    1    4    4    0    0  0.16852885848E-02 -0.20117855291E-01 -0.32366191565E-01  0.38149702182E-01  0.51100000000E-03 0. -1.
         11    1    4    4    0    0  0.29199787949E-01 -0.33519019859E-01 -0.80400950959E-01  0.91873425672E-01  0.51100000000E-03 0.  1.
</event>
<event>
 8    1  0.1129602E+005  0.1043930E+01  0.7957747E-01            NaN
         13   -1    0    0    0    0  0.00000000000E+00  0.00000000000E+00  0.74505805969E-08  0.10566000000E+00  0.10566000000E+00 0. -1.
     999900   -1    0    0    0    0 -0.00000000000E+00 -0.00000000000E+00 -0.74505805969E-08  0.93827000000E+00  0.93827000000E+00 0.  1.
     999902    2    1    2    0    0  0.23109149730E-01  0.11865361022E-02 -0.35801977936E-02  0.10205150799E+01  0.10202464260E+01 0.  0.
     999903    2    3    3    0    0 -0.18704599171E-01 -0.85572959131E-01  0.93759633605E-01  0.12992502692E+00  0.20421810932E-01 0.  0.
         14    1    1    2    0    0 -0.23109149730E-01 -0.11865361022E-02  0.35801977936E-02  0.23414920145E-01  0.00000000000E+00 0.  1.
     999901    1    3    3    0    0  0.41813748901E-01  0.86759495233E-01 -0.97339831399E-01  0.89059005294E+00  0.88000000000E+00 0.  1.
        -11    1    4    4    0    0 -0.22292106172E-01 -0.80116275011E-01  0.89144868162E-01  0.12191236262E+00  0.51100000000E-03 0.  1.
         11    1    4    4    0    0  0.35875070011E-02 -0.54566841202E-02  0.46147654432E-02  0.80126642988E-02  0.51100000000E-03 0. -1.
</event>
<event>
 8    1  0.1129602E+005  0.1043930E+01  0.7957747E-01            NaN
         13   -1    0    0    0    0  0.00000000000E+00  0.00000000000E+00  0.74505805969E-08  0.10566000000E+00  0.10566000000E+00 0.  1.
     999900   -1    0    0    0    0 -0.00000000000E+00 -0.00000000000E+00 -0.74505805969E-08  0.93827000000E+00  0.93827000000E+00 0. -1.
     999902    2    1    2    0    0  0.36529032114E-02  0.68390210765E-02  0.21459852719E-01  0.10211124368E+01  0.10208574668E+01 0.  0.
     999903    2    3    3    0    0 -0.36843149073E-01  0.12589704773E+00  0.37162172720E-03  0.13192209867E+00  0.13993489630E-01 0.  0.
         14    1    1    2    0    0 -0.36529032114E-02 -0.68390210765E-02 -0.21459852719E-01  0.22817563189E-01  0.00000000000E+00 0. -1.
     999901    1    3    3    0    0  0.40496052284E-01 -0.11905802666E+00  0.21088230992E-01  0.88919033814E+00  0.88000000000E+00 0.  1.
        -11    1    4    4    0    0 -0.79568263050E-02  0.42948617579E-01 -0.47330959101E-02  0.43938117332E-01  0.51100000000E-03 0.  1.
         11    1    4    4    0    0 -0.28886322768E-01  0.82948430156E-01  0.51047176373E-02  0.87983981335E-01  0.51100000000E-03 0. -1.
</event>
<event>
 8    1  0.1129602E+005  0.1043930E+01  0.7957747E-01            NaN
         13   -1    0    0    0    0  0.00000000000E+00  0.00000000000E+00  0.74505805969E-08  0.10566000000E+00  0.10566000000E+00 0.  1.
     999900   -1    0    0    0    0 -0.00000000000E+00 -0.00000000000E+00 -0.74505805969E-08  0.93827000000E+00  0.93827000000E+00 0. -1.
     999902    2    1    2    0    0 -0.54172886857E-02  0.20114873068E-01  0.11062032266E-01  0.10203434849E+01  0.10200708326E+01 0.  0.
     999903    2    3    3    0    0 -0.74877204905E-02 -0.10055916553E+00  0.79113541025E-01  0.12950257987E+00  0.18540606555E-01 0.  0.
         14    1    1    2    0    0  0.54172886857E-02 -0.20114873068E-01 -0.11062032266E-01  0.23586515069E-01  0.00000000000E+00 0. -1.
     999901    1    3    3    0    0  0.20704318048E-02  0.12067403859E+00 -0.68051508759E-01  0.89084090506E+00  0.88000000000E+00 0.  1.
        -11    1    4    4    0    0  0.59169383819E-02 -0.37347954380E-01  0.26581809775E-01  0.46224815717E-01  0.51100000000E-03 0.  1.
         11    1    4    4    0    0 -0.13404658872E-01 -0.63211211146E-01  0.52531731250E-01  0.83277764158E-01  0.51100000000E-03 0. -1.
</event>
<event>
 8    1  0.1129602E+005  0.1043930E+01  0.7957747E-01            NaN
         13   -1    0    0    0    0  0.00000000000E+00  0.00000000000E+00  0.74505805969E-08  0.10566000000E+00  0.10566000000E+00 0. -1.
     999900   -1    0    0    0    0 -0.00000000000E+00 -0.00000000000E+00 -0.74505805969E-08  0.93827000000E+00  0.93827000000E+00 0.  1.
     999902    2    1    2    0    0 -0.19375303485E-01  0.12303408334E-01  0.39291651154E-03  0.10209750305E+01  0.10207169452E+01 0.  0.
     999903    2    3    3    0    0 -0.30835720666E-01  0.12320224418E+00 -0.36387177821E-01  0.13317850634E+00  0.16818240160E-01 0.  0.
         14    1    1    2    0    0  0.19375303485E-01 -0.12303408334E-01 -0.39291651154E-03  0.22954969508E-01  0.00000000000E+00 0. -1.
     999901    1    3    3    0    0  0.11460417181E-01 -0.11089883584E+00  0.36780094333E-01  0.88779652415E+00  0.88000000000E+00 0. -1.
        -11    1    4    4    0    0 -0.70516473991E-02  0.59011539677E-01 -0.13019204393E-01  0.60842816750E-01  0.51100000000E-03 0. -1.
         11    1    4    4    0    0 -0.23784073267E-01  0.64190704502E-01 -0.23367973428E-01  0.72335689592E-01  0.51100000000E-03 0.  1.
</event>
<event>
 8    1  0.1129602E+005  0.1043930E+01  0.7957747E-01            NaN
         13   -1    0    0    0    0  0.00000000000E+00  0.00000000000E+00  0.74505805969E-08  0.10566000000E+00  0.10566000000E+00 0.  1.
     999900   -1    0    0    0    0 -0.00000000000E+00 -0.00000000000E+00 -0.74505805969E-08  0.93827000000E+00  0.93827000000E+00 0. -1.
     999902    2    1    2    0    0  0.64821864758E-03  0.37922694402E-02  0.21106583016E-01  0.10224756452E+01  0.10222505347E+01 0.  0.
     999903    2    3    3    0    0  0.38497705616E-01 -0.45770329330E-01  0.11918389321E+00  0.13483371643E+00  0.19958314100E-01 0.  0.
         14    1    1    2    0    0 -0.64821864758E-03 -0.37922694402E-02 -0.21106583016E-01  0.21454354838E-01  0.00000000000E+00 0. -1.
     999901    1    3    3    0    0 -0.37849486969E-01  0.49562598770E-01 -0.98077310195E-01  0.88764192873E+00  0.88000000000E+00 0.  1.
        -11    1    4    4    0    0  0.30336787150E-01 -0.44773275614E-01  0.10943462797E+00  0.12207033130E+00  0.51100000000E-03 0. -1.
         11    1    4    4    0    0  0.81609184664E-02 -0.99705371634E-03  0.97492652392E-02  0.12763385132E-01  0.51100000000E-03 0.  1.
</event>
<event>
 8    1  0.1129602E+005  0.1043930E+01  0.7957747E-01            NaN
         13   -1    0    0    0    0  0.00000000000E+00  0.00000000000E+00  0.74505805969E-08  0.10566000000E+00  0.10566000000E+00 0.  1.
     999900   -1    0    0    0    0 -0.00000000000E+00 -0.00000000000E+00 -0.74505805969E-08  0.93827000000E+00  0.93827000000E+00 0.  1.
     999902    2    1    2    0    0  0.18191399695E-01  0.39568886724E-02 -0.13896614829E-01  0.10206985581E+01  0.10204341461E+01 0.  0.
     999903    2    3    3    0    0  0.64895606392E-01  0.83879435038E-01  0.74316262660E-01  0.13145707899E+00  0.22602154114E-01 0.  0.
         14    1    1    2    0    0 -0.18191399695E-01 -0.39568886724E-02  0.13896614829E-01  0.23231441938E-01  0.00000000000E+00 0.  1.
     999901    1    3    3    0    0 -0.46704206697E-01 -0.79922546365E-01 -0.88212877489E-01  0.88924147907E+00  0.88000000000E+00 0.  1.
        -11    1    4    4    0    0  0.17384826304E-01  0.93766304272E-02  0.98600360479E-02  0.22082454928E-01  0.51100000000E-03 0.  1.
         11    1    4    4    0    0  0.47510780087E-01  0.74502804611E-01  0.64456226612E-01  0.10937462407E+00  0.51100000000E-03 0. -1.
</event>
<event>
 8    1  0.1129602E+005  0.1043930E+01  0.7957747E-01            NaN
         13   -1    0    0    0    0  0.00000000000E+00  0.00000000000E+00  0.74505805969E-08  0.10566000000E+00  0.10566000000E+00 0.  1.
     999900   -1    0    0    0    0 -0.00000000000E+00 -0.00000000000E+00 -0.74505805969E-08  0.93827000000E+00  0.93827000000E+00 0.  1.
     999902    2    1    2    0    0  0.22620583647E-01 -0.41634860966E-02  0.52735051401E-02  0.10203326426E+01  0.10200597366E+01 0.  0.
     999903    2    3    3    0    0  0.53617695766E-01  0.10837009716E+00 -0.46808992273E-01  0.13109858179E+00  0.19411881196E-01 0.  0.
         14    1    1    2    0    0 -0.22620583647E-01  0.41634860966E-02 -0.52735051401E-02  0.23597357426E-01  0.00000000000E+00 0.  1.
     999901    1    3    3    0    0 -0.30997112119E-01 -0.11253358326E+00  0.52082497413E-01  0.88923406078E+00  0.88000000000E+00 0. -1.
        -11    1    4    4    0    0  0.37326305241E-02  0.24903661473E-01 -0.10832007497E-01  0.27417483342E-01  0.51100000000E-03 0. -1.
         11    1    4    4    0    0  0.49885065242E-01  0.83466435690E-01 -0.35976984776E-01  0.10368109845E+00  0.51100000000E-03 0.  1.
</event>
<event>
 8    1  0.1129602E+005  0.1043930E+01  0.7957747E-01            NaN
         13   -1    0    0    0    0  0.00000000000E+00  0.00000000000E+00  0.74505805969E-08  0.10566000000E+00  0.10566000000E+00 0.  1.
     999900   -1    0    0    0    0 -0.00000000000E+00 -0.00000000000E+00 -0.74505805969E-08  0.93827000000E+00  0.93827000000E+00 0.  1.
     999902    2    1    2    0    0 -0.12845190316E-01 -0.20255044880E-01 -0.32959325741E-03  0.10199430371E+01  0.10196609361E+01 0.  0.
     999903    2    3    3    0    0 -0.34333058494E-01 -0.10167847331E-01 -0.12433730008E+00  0.13093156846E+00  0.20029163773E-01 0.  0.
         14    1    1    2    0    0  0.12845190316E-01  0.20255044880E-01  0.32959325741E-03  0.23986962898E-01  0.00000000000E+00 0.  1.
     999901    1    3    3    0    0  0.21487868178E-01 -0.10087197549E-01  0.12400770682E+00  0.88901146865E+00  0.88000000000E+00 0. -1.
        -11    1    4    4    0    0 -0.99891345806E-02 -0.47286836459E-04 -0.12404678780E-01  0.15934937162E-01  0.51100000000E-03 0.  1.
         11    1    4    4    0    0 -0.24343923914E-01 -0.10120560495E-01 -0.11193262130E+00  0.11499663129E+00  0.51100000000E-03 0. -1.
</event>
<event>
 8    1  0.1129602E+005  0.1043930E+01  0.7957747E-01            NaN
         13   -1    0    0    0    0  0.00000000000E+00  0.00000000000E+00  0.74505805969E-08  0.10566000000E+00  0.10566000000E+00 0. -1.
     999900   -1    0    0    0    0 -0.00000000000E+00 -0.00000000000E+00 -0.74505805969E-08  0.93827000000E+00  0.93827000000E+00 0.  1.
     999902    2    1    2    0    0  0.50193697372E-02  0.16762226997E-01  0.17748870149E-01  0.10190063422E+01  0.10187014954E+01 0.  0.
     999903    2    3    3    0    0 -0.86554021085E-01  0.21354649901E-01 -0.89397852784E-01  0.12777842719E+00  0.19690879496E-01 0.  0.
         14    1    1    2    0    0 -0.50193697372E-02 -0.16762226997E-01 -0.17748870149E-01  0.24923657798E-01  0.00000000000E+00 0.  1.
     999901    1    3    3    0    0  0.91573390822E-01 -0.45924229035E-02  0.10714672293E+00  0.89122791501E+00  0.88000000000E+00 0. -1.
        -11    1    4    4    0    0 -0.38183696483E-01 -0.15487035093E-03 -0.33632328260E-01  0.50886277984E-01  0.51100000000E-03 0. -1.
         11    1    4    4    0    0 -0.48370324602E-01  0.21509520252E-01 -0.55765524524E-01  0.76892149209E-01  0.51100000000E-03 0.  1.
</event>
<event>
 8    1  0.1129602E+005  0.1043930E+01  0.7957747E-01            NaN
         13   -1    0    0    0    0  0.00000000000E+00  0.00000000000E+00  0.74505805969E-08  0.10566000000E+00  0.10566000000E+00 0.  1.
     999900   -1    0    0    0    0 -0.00000000000E+00 -0.00000000000E+00 -0.74505805969E-08  0.93827000000E+00  0.93827000000E+00 0.  1.
     999902    2    1    2    0    0  0.65123406935E-02  0.16776056849E-01  0.15112388452E-01  0.10204304053E+01  0.10201597822E+01 0.  0.
     999903    2    3    3    0    0  0.68230418219E-01  0.11204404765E+00  0.61676954427E-02  0.13309443813E+00  0.21606258567E-01 0.  0.
         14    1    1    2    0    0 -0.65123406935E-02 -0.16776056849E-01 -0.15112388452E-01  0.23499594665E-01  0.00000000000E+00 0. -1.
     999901    1    3    3    0    0 -0.61718077525E-01 -0.95267990802E-01  0.89446930097E-02  0.88733596721E+00  0.88000000000E+00 0. -1.
        -11    1    4    4    0    0  0.50040536950E-01  0.63855191512E-01  0.82179882476E-02  0.81543468611E-01  0.51100000000E-03 0.  1.
         11    1    4    4    0    0  0.18189881269E-01  0.48188856139E-01 -0.20502928049E-02  0.51550969517E-01  0.51100000000E-03 0. -1.
</event>
<event>
 8    1  0.1129602E+005  0.1043930E+01  0.7957747E-01            NaN
         13   -1    0    0    0    0  0.00000000000E+00  0.00000000000E+00  0.74505805969E-08  0.10566000000E+00  0.10566000000E+00 0.  1.
     999900   -1    0    0    0    0 -0.00000000000E+00 -0.00000000000E+00 -0.74505805969E-08  0.93827000000E+00  0.93827000000E+00 0.  1.
     999902    2    1    2    0    0  0.70661599726E-02 -0.71092582118E-02  0.21792020927E-01  0.10199432465E+01  0.10196611504E+01 0.  0.
     999903    2    3    3    0    0  0.38096341658E-01  0.99043447343E-01  0.74962784152E-01  0.13142853126E+00  0.19826853310E-01 0.  0.
         14    1    1    2    0    0 -0.70661599726E-02  0.71092582118E-02 -0.21792020927E-01  0.23986753535E-01  0.00000000000E+00 0. -1.
     999901    1    3    3    0    0 -0.31030181686E-01 -0.10615270556E+00 -0.53170763225E-01  0.88851471520E+00  0.88000000000E+00 0. -1.
        -11    1    4    4    0    0  0.30859056107E-01  0.68177180359E-01  0.61961056357E-01  0.97158853901E-01  0.51100000000E-03 0.  1.
         11    1    4    4    0    0  0.72372855518E-02  0.30866266984E-01  0.13001727795E-01  0.34269677360E-01  0.51100000000E-03 0. -1.
</event>
<event>
 8    1  0.1129602E+005  0.1043930E+01  0.7957747E-01            NaN
         13   -1    0    0    0    0  0.00000000000E+00  0.00000000000E+00  0.74505805969E-08  0.10566000000E+00  0.10566000000E+00 0. -1.
     999900   -1    0    0    0    0 -0.00000000000E+00 -0.00000000000E+00 -0.74505805969E-08  0.93827000000E+00  0.93827000000E+00 0. -1.
     999902    2    1    2    0    0 -0.21641657098E-01  0.18603825116E-02  0.16470685611E-01  0.10166700325E+01  0.10163045061E+01 0.  0.
     999903    2    3    3    0    0 -0.53532632733E-01 -0.88969937593E-01 -0.70604483964E-01  0.12714810102E+00  0.20006345869E-01 0.  0.
         14    1    1    2    0    0  0.21641657098E-01 -0.18603825116E-02 -0.16470685611E-01  0.27259967527E-01  0.00000000000E+00 0.  1.
     999901    1    3    3    0    0  0.31890975635E-01  0.90830320104E-01  0.87075169575E-01  0.88952193145E+00  0.88000000000E+00 0.  1.
        -11    1    4    4    0    0 -0.14579776362E-01 -0.10279799175E-01 -0.99836353590E-02  0.20449406980E-01  0.51100000000E-03 0. -1.
         11    1    4    4    0    0 -0.38952856371E-01 -0.78690138418E-01 -0.60620848605E-01  0.10669869404E+00  0.51100000000E-03 0.  1.
</event>
<event>
 8    1  0.1129602E+005  0.1043930E+01  0.7957747E-01            NaN
         13   -1    0    0    0    0  0.00000000000E+00  0.00000000000E+00  0.74505805969E-08  0.10566000000E+00  0.10566000000E+00 0. -1.
     999900   -1    0    0    0    0 -0.00000000000E+00 -0.00000000000E+00 -0.74505805969E-08  0.93827000000E+00  0.93827000000E+00 0. -1.
     999902    2    1    2    0    0  0.39410995942E-02  0.22341569911E-01  0.56170268981E-02  0.10205584574E+01  0.10202908095E+01 0.  0.
     999903    2    3    3    0    0 -0.24089476057E-01  0.12403460064E+00 -0.37105498657E-01  0.13322965709E+00  0.20209861130E-01 0.  0.
         14    1    1    2    0    0 -0.39410995942E-02 -0.22341569911E-01 -0.56170268981E-02  0.23371542595E-01  0.00000000000E+00 0. -1.
     999901    1    3    3    0    0  0.28030575651E-01 -0.10169303073E+00  0.42722525555E-01  0.88732880031E+00  0.88000000000E+00 0. -1.
        -11    1    4    4    0    0 -0.98910493160E-02  0.68147787095E-01 -0.10265045819E-01  0.69624607928E-01  0.51100000000E-03 0. -1.
         11    1    4    4    0    0 -0.14198426741E-01  0.55886813543E-01 -0.26840452838E-01  0.63605049167E-01  0.51100000000E-03 0.  1.
</event>
<event>
 8    1  0.1129602E+005  0.1043930E+01  0.7957747E-01            NaN
         13   -1    0    0    0    0  0.00000000000E+00  0.00000000000E+00  0.74505805969E-08  0.10566000000E+00  0.10566000000E+00 0. -1.
     999900   -1    0    0    0    0 -0.00000000000E+00 -0.00000000000E+00 -0.74505805969E-08  0.93827000000E+00  0.93827000000E+00 0.  1.
     999902    2    1    2    0    0  0.10441135371E-01  0.20453850004E-01  0.66924244345E-03  0.10209555539E+01  0.10206970255E+01 0.  0.
     999903    2    3    3    0    0  0.57308378980E-01  0.55466313417E-01  0.10533796987E+00  0.13282383304E+00  0.13613247261E-01 0.  0.
         14    1    1    2    0    0 -0.10441135371E-01 -0.20453850004E-01 -0.66924244345E-03  0.22974446092E-01  0.00000000000E+00 0.  1.
     999901    1    3    3    0    0 -0.46867243609E-01 -0.35012463413E-01 -0.10466872742E+00  0.88813172087E+00  0.88000000000E+00 0. -1.
        -11    1    4    4    0    0  0.18140216013E-01  0.19440545466E-01  0.45851672922E-01  0.53006030560E-01  0.51100000000E-03 0. -1.
         11    1    4    4    0    0  0.39168162967E-01  0.36025767951E-01  0.59486296946E-01  0.79817802476E-01  0.51100000000E-03 0.  1.
</event>
<event>
 8    1  0.1129602E+005  0.1043930E+01  0.7957747E-01            NaN
         13   -1    0    0    0    0  0.00000000000E+00  0.00000000000E+00  0.74505805969E-08  0.10566000000E+00  0.10566000000E+00 0. -1.
     999900   -1    0    0    0    0 -0.00000000000E+00 -0.00000000000E+00 -0.74505805969E-08  0.93827000000E+00  0.93827000000E+00 0. -1.
     999902    2    1    2    0    0 -0.46600503798E-02 -0.21479807019E-01  0.95577596881E-02  0.10199623353E+01  0.10196806934E+01 0.  0.
     999903    2    3    3    0    0  0.11768335715E+00  0.89326915480E-02  0.50317021215E-01  0.13004427909E+00  0.21226077613E-01 0.  0.
         14    1    1    2    0    0  0.46600503798E-02  0.21479807019E-01 -0.95577596881E-02  0.23967664663E-01  0.00000000000E+00 0. -1.
     999901    1    3    3    0    0 -0.12234340753E+00 -0.30412498567E-01 -0.40759261527E-01  0.88991805625E+00  0.88000000000E+00 0.  1.
        -11    1    4    4    0    0  0.83287100954E-01  0.15168342145E-01  0.39715939534E-01  0.93511693188E-01  0.51100000000E-03 0.  1.
         11    1    4    4    0    0  0.34396256198E-01 -0.62356505965E-02  0.10601081682E-01  0.36532585902E-01  0.51100000000E-03 0. -1.
</event>
<event>
 8    1  0.1129602E+005  0.1043930E+01  0.7957747E-01            NaN
         13   -1    0    0    0    0  0.00000000000E+00  0.00000000000E+00  0.74505805969E-08  0.10566000000E+00  0.10566000000E+00 0.  1.
     999900   -1    0    0    0    0 -0.00000000000E+00 -0.00000000000E+00 -0.74505805969E-08  0.93827000000E+00  0.93827000000E+00 0. -1.
     999902    2    1    2    0    0 -0.98363400618E-02  0.20635882711E-01 -0.65137398447E-02  0.10201598076E+01  0.10198828418E+01 0.  0.
     999903    2    3    3    0    0 -0.11205765846E-01 -0.11035699321E+00  0.60524917438E-01  0.12794055737E+00  0.20032110495E-01 0.  0.
         14    1    1    2    0    0  0.98363400618E-02 -0.20635882711E-01  0.65137398447E-02  0.23770192423E-01  0.00000000000E+00 0. -1.
     999901    1    3    3    0    0  0.13694257842E-02  0.13099287592E+00 -0.67038657283E-01  0.89221925021E+00  0.88000000000E+00 0.  1.
        -11    1    4    4    0    0 -0.50748525791E-02 -0.74105026290E-01  0.29844246758E-01  0.80051541120E-01  0.51100000000E-03 0. -1.
         11    1    4    4    0    0 -0.61309132669E-02 -0.36251966919E-01  0.30680670681E-01  0.47889016250E-01  0.51100000000E-03 0.  1.
</event>
<event>
 8    1  0.1129602E+005  0.1043930E+01  0.7957747E-01            NaN
         13   -1    0    0    0    0  0.00000000000E+00  0.00000000000E+00  0.74505805969E-08  0.10566000000E+00  0.10566000000E+00 0. -1.
     999900   -1    0    0    0    0 -0.00000000000E+00 -0.00000000000E+00 -0.74505805969E-08  0.93827000000E+00  0.93827000000E+00 0. -1.
     999902    2    1    2    0    0  0.18083862069E-01 -0.11788674169E-02  0.13563712652E-01  0.10212939646E+01  0.10210430804E+01 0.  0.
     999903    2    3    3    0    0 -0.31388916477E-01  0.12644655348E-02 -0.12326252463E+00  0.12934388482E+00  0.23437739036E-01 0.  0.
         14    1    1    2    0    0 -0.18083862069E-01  0.11788674169E-02 -0.13563712652E-01  0.22636035356E-01  0.00000000000E+00 0.  1.
     999901    1    3    3    0    0  0.49472778546E-01 -0.24433329517E-02  0.13682623728E+00  0.89195007983E+00  0.88000000000E+00 0.  1.
        -11    1    4    4    0    0 -0.25452296418E-01 -0.40649396431E-02 -0.56489519834E-01  0.62094042382E-01  0.51100000000E-03 0. -1.
         11    1    4    4    0    0 -0.59366200586E-02  0.53294051779E-02 -0.66773004796E-01  0.67249842436E-01  0.51100000000E-03 0.  1.
</event>
<event>
 8    1  0.1129602E+005  0.1043930E+01  0.7957747E-01            NaN
         13   -1    0    0    0    0  0.00000000000E+00  0.00000000000E+00  0.74505805969E-08  0.10566000000E+00  0.10566000000E+00 0.  1.
     999900   -1    0    0    0    0 -0.00000000000E+00 -0.00000000000E+00 -0.74505805969E-08  0.93827000000E+00  0.93827000000E+00 0.  1.
     999902    2    1    2    0    0 -0.36028670897E-03 -0.98095005053E-02  0.22896539336E-01  0.10190180025E+01  0.10187134444E+01 0.  0.
     999903    2    3    3    0    0  0.77327880289E-01 -0.32702548105E-01 -0.94097144253E-01  0.12758821561E+00  0.19375822160E-01 0.  0.
         14    1    1    2    0    0  0.36028670897E-03  0.98095005053E-02 -0.22896539336E-01  0.24911997516E-01  0.00000000000E+00 0. -1.
     999901    1    3    3    0    0 -0.77688166998E-01  0.22893047599E-01  0.11699368359E+00  0.89142978687E+00  0.88000000000E+00 0. -1.
        -11    1    4    4    0    0  0.84153286514E-02 -0.81555605869E-02 -0.21688596153E-01  0.24657397447E-01  0.51100000000E-03 0. -1.
         11    1    4    4    0    0  0.68912551638E-01 -0.24546987518E-01 -0.72408548100E-01  0.10293081817E+00  0.51100000000E-03 0.  1.
</event>
<event>
 8    1  0.1129602E+005  0.1043930E+01  0.7957747E-01            NaN
         13   -1    0    0    0    0  0.00000000000E+00  0.00000000000E+00  0.74505805969E-08  0.10566000000E+00  0.10566000000E+00 0.  1.
     999900   -1    0    0    0    0 -0.00000000000E+00 -0.00000000000E+00 -0.74505805969E-08  0.93827000000E+00  0.93827000000E+00 0. -1.
     999902    2    1    2    0    0 -0.22542600786E-01  0.40304515033E-02 -0.31609876276E-02  0.10208127936E+01  0.10205510053E+01 0.  0.
     999903    2    3    3    0    0 -0.90124584084E-01 -0.30521322900E-01  0.90401317813E-01  0.13260389103E+00  0.18905074629E-01 0.  0.
         14    1    1    2    0    0  0.22542600786E-01 -0.40304515033E-02  0.31609876276E-02  0.23117206412E-01  0.00000000000E+00 0. -1.
     999901    1    3    3    0    0  0.67581983298E-01  0.34551774403E-01 -0.93562305440E-01  0.88820890256E+00  0.88000000000E+00 0. -1.
        -11    1    4    4    0    0 -0.69839719295E-01 -0.28740103141E-01  0.78863507298E-01  0.10919383602E+00  0.51100000000E-03 0. -1.
         11    1    4    4    0    0 -0.20284864789E-01 -0.17812197584E-02  0.11537810515E-01  0.23410055015E-01  0.51100000000E-03 0.  1.
</event>
<event>
 8    1  0.1129602E+005  0.1043930E+01  0.7957747E-01            NaN
         13   -1    0    0    0    0  0.00000000000E+00  0.00000000000E+00  0.74505805969E-08  0.10566000000E+00  0.10566000000E+00 0.  1.
     999900   -1    0    0    0    0 -0.00000000000E+00 -0.00000000000E+00 -0.74505805969E-08  0.93827000000E+00  0.93827000000E+00 0. -1.
     999902    2    1    2    0    0 -0.99196797609E-02  0.47185241414E-02  0.21794066617E-01  0.10195241430E+01  0.10192319816E+01 0.  0.
     999903    2    3    3    0    0  0.99219060492E-01  0.58869330855E-01  0.58474762380E-01  0.13037339765E+00  0.16367800723E-01 0.  0.
         14    1    1    2    0    0  0.99196797609E-02 -0.47185241414E-02 -0.21794066617E-01  0.24405857009E-01  0.00000000000E+00 0. -1.
     999901    1    3    3    0    0 -0.10913874025E+00 -0.54150806713E-01 -0.36680695763E-01  0.88915074534E+00  0.88000000000E+00 0.  1.
        -11    1    4    4    0    0  0.84182147560E-01  0.52585236974E-01  0.44010852811E-01  0.10857742584E+00  0.51100000000E-03 0.  1.
         11    1    4    4    0    0  0.15036912932E-01  0.62840938802E-02  0.14463909569E-01  0.21795971816E-01  0.51100000000E-03 0. -1.
</event>
<event>
 8    1  0.1129602E+005  0.1043930E+01  0.7957747E-01            NaN
         13   -1    0    0    0    0  0.00000000000E+00  0.00000000000E+00  0.74505805969E-08  0.10566000000E+00  0.10566000000E+00 0. -1.
     999900   -1    0    0    0    0 -0.00000000000E+00 -0.00000000000E+00 -0.74505805969E-08  0.93827000000E+00  0.93827000000E+00 0. -1.
     999902    2    1    2    0    0  0.44981200683E-02  0.23756936548E-01  0.50081592512E-02  0.10192377588E+01  0.10189386155E+01 0.  0.
     999903    2    3    3    0    0 -0.68954681794E-01  0.69163711959E-01  0.85217784939E-01  0.13138040907E+00  0.21456323621E-01 0.  0.
         14    1    1    2    0    0 -0.44981200683E-02 -0.23756936548E-01 -0.50081592512E-02  0.24692241238E-01  0.00000000000E+00 0.  1.
     999901    1    3    3    0    0  0.73452801862E-01 -0.45406775411E-01 -0.80209625688E-01  0.88785734970E+00  0.88000000000E+00 0. -1.
        -11    1    4    4    0    0 -0.27395418296E-01  0.16341626961E-01  0.19571619860E-01  0.37428159723E-01  0.51100000000E-03 0. -1.
         11    1    4    4    0    0 -0.41559263498E-01  0.52822084998E-01  0.65646165079E-01  0.93952249343E-01  0.51100000000E-03 0.  1.
</event>
<event>
 8    1  0.1129602E+005  0.1043930E+01  0.7957747E-01            NaN
         13   -1    0    0    0    0  0.00000000000E+00  0.00000000000E+00  0.74505805969E-08  0.10566000000E+00  0.10566000000E+00 0.  1.
     999900   -1    0    0    0    0 -0.00000000000E+00 -0.00000000000E+00 -0.74505805969E-08  0.93827000000E+00  0.93827000000E+00 0. -1.
     999902    2    1    2    0    0  0.22593134928E-02 -0.20794583589E-01 -0.10297480767E-01  0.10206156843E+01  0.10203493607E+01 0.  0.
     999903    2    3    3    0    0 -0.71071280087E-02  0.46604263089E-01 -0.12065270613E+00  0.13111660592E+00  0.20298281852E-01 0.  0.
         14    1    1    2    0    0 -0.22593134928E-02  0.20794583589E-01  0.10297480767E-01  0.23314315651E-01  0.00000000000E+00 0.  1.
     999901    1    3    3    0    0  0.93664415015E-02 -0.67398846678E-01  0.11035522536E+00  0.88949907843E+00  0.88000000000E+00 0.  1.
        -11    1    4    4    0    0 -0.11965992751E-02  0.20437829352E-01 -0.78676400688E-01  0.81298055725E-01  0.51100000000E-03 0. -1.
         11    1    4    4    0    0 -0.59105287336E-02  0.26166433737E-01 -0.41976305438E-01  0.49818550196E-01  0.51100000000E-03 0.  1.
</event>
<event>
 8    1  0.1129602E+005  0.1043930E+01  0.7957747E-01            NaN
         13   -1    0    0    0    0  0.00000000000E+00  0.00000000000E+00  0.74505805969E-08  0.10566000000E+00  0.10566000000E+00 0.  1.
     999900   -1    0    0    0    0 -0.00000000000E+00 -0.00000000000E+00 -0.74505805969E-08  0.93827000000E+00  0.93827000000E+00 0. -1.
     999902    2    1    2    0    0  0.20855560933E-01  0.79256246929E-02 -0.72300421465E-02  0.10204769947E+01  0.10202074560E+01 0.  0.
     999903    2    3    3    0    0  0.18778818851E-02 -0.11125412767E+00 -0.65003321685E-01  0.13036367746E+00  0.19704040372E-01 0.  0.
         14    1    1    2    0    0 -0.20855560933E-01 -0.79256246929E-02  0.72300421465E-02  0.23453005310E-01  0.00000000000E+00 0.  1.
     999901    1    3    3    0    0  0.18977679048E-01  0.11917975237E+00  0.57773279539E-01  0.89011331723E+00  0.88000000000E+00 0. -1.
        -11    1    4    4    0    0  0.33598821090E-02 -0.89384419955E-01 -0.60478592154E-01  0.10797585178E+00  0.51100000000E-03 0.  1.
         11    1    4    4    0    0 -0.14820002239E-02 -0.21869707718E-01 -0.45247295316E-02  0.22387825680E-01  0.51100000000E-03 0. -1.
</event>
<event>
 8    1  0.1129602E+005  0.1043930E+01  0.7957747E-01            NaN
         13   -1    0    0    0    0  0.00000000000E+00  0.00000000000E+00  0.74505805969E-08  0.10566000000E+00  0.10566000000E+00 0.  1.
     999900   -1    0    0    0    0 -0.00000000000E+00 -0.00000000000E+00 -0.74505805969E-08  0.93827000000E+00  0.93827000000E+00 0.  1.
     999902    2    1    2    0    0 -0.19113681104E-01 -0.71698464519E-03  0.14531918962E-01  0.10199086857E+01  0.10196257665E+01 0.  0.
     999903    2    3    3    0    0 -0.68972564426E-01 -0.17870673135E-01  0.11057928930E+00  0.13311375189E+00  0.20369489859E-01 0.  0.
         14    1    1    2    0    0  0.19113681104E-01  0.71698464519E-03 -0.14531918962E-01  0.24021314307E-01  0.00000000000E+00 0. -1.
     999901    1    3    3    0    0  0.49858883323E-01  0.17153688490E-01 -0.96047370339E-01  0.88679493381E+00  0.88000000000E+00 0.  1.
        -11    1    4    4    0    0 -0.54913885274E-01 -0.20263036009E-01  0.77785329893E-01  0.97349597286E-01  0.51100000000E-03 0.  1.
         11    1    4    4    0    0 -0.14058679152E-01  0.23923628739E-02  0.32793959409E-01  0.35764154601E-01  0.51100000000E-03 0. -1.
</event>
<event>
 8    1  0.1129602E+005  0.1043930E+01  0.7957747E-01            NaN
         13   -1    0    0    0    0  0.00000000000E+00  0.00000000000E+00  0.74505805969E-08  0.10566000000E+00  0.10566000000E+00 0.  1.
     999900   -1    0    0    0    0 -0.00000000000E+00 -0.00000000000E+00 -0.74505805969E-08  0.93827000000E+00  0.93827000000E+00 0.  1.
     999902    2    1    2    0    0 -0.17862660338E-01  0.15632585129E-01  0.34050338715E-03  0.10201904066E+01  0.10199141618E+01 0.  0.
     999903    2    3    3    0    0  0.34298002218E-01 -0.93398166995E-01 -0.78755969933E-01  0.12841426220E+00  0.19701507121E-01 0.  0.
         14    1    1    2    0    0  0.17862660338E-01 -0.15632585129E-01 -0.34050338715E-03  0.23739593398E-01  0.00000000000E+00 0.  1.
     999901    1    3    3    0    0 -0.52160662555E-01  0.10903075212E+00  0.79096473320E-01  0.89177614440E+00  0.88000000000E+00 0.  1.
        -11    1    4    4    0    0  0.11184737918E-01 -0.44515565415E-01 -0.25459063024E-01  0.52489607901E-01  0.51100000000E-03 0.  1.
         11    1    4    4    0    0  0.23113264299E-01 -0.48882601580E-01 -0.53296906909E-01  0.75924654302E-01  0.51100000000E-03 0. -1.
</event>
<event>
 8    1  0.1129602E+005  0.1043930E+01  0.7957747E-01            NaN
         13   -1    0    0    0    0  0.00000000000E+00  0.00000000000E+00  0.74505805969E-08  0.10566000000E+00  0.10566000000E+00 0.  1.
     999900   -1    0    0    0    0 -0.00000000000E+00 -0.00000000000E+00 -0.74505805969E-08  0.93827000000E+00  0.93827000000E+00 0. -1.
     999902    2    1    2    0    0  0.98061411931E-02  0.19783297831E-01 -0.10834387301E-01  0.10193348129E+01  0.10190380452E+01 0.  0.
     999903    2    3    3    0    0  0.22550122583E-01 -0.11218135050E+00  0.51566984521E-01  0.12721878424E+00  0.20791867208E-01 0.  0.
         14    1    1    2    0    0 -0.98061411931E-02 -0.19783297831E-01  0.10834387301E-01  0.24595187057E-01  0.00000000000E+00 0.  1.
     999901    1    3    3    0    0 -0.12743981390E-01  0.13196464833E+00 -0.62401371822E-01  0.89211602871E+00  0.88000000000E+00 0.  1.
        -11    1    4    4    0    0  0.15818373461E-01 -0.36113275551E-01  0.23232862375E-01  0.45764796789E-01  0.51100000000E-03 0.  1.
         11    1    4    4    0    0  0.67317491214E-02 -0.76068074946E-01  0.28334122146E-01  0.81453987447E-01  0.51100000000E-03 0. -1.
</event>
<event>
 8    1  0.1129602E+005  0.1043930E+01  0.7957747E-01            NaN
         13   -1    0    0    0    0  0.00000000000E+00  0.00000000000E+00  0.74505805969E-08  0.10566000000E+00  0.10566000000E+00 0.  1.
     999900   -1    0    0    0    0 -0.00000000000E+00 -0.00000000000E+00 -0.74505805969E-08  0.93827000000E+00  0.93827000000E+00 0.  1.
     999902    2    1    2    0    0  0.24962159346E-01  0.28426929339E-02 -0.38621375561E-02  0.10185113767E+01  0.10181941456E+01 0.  0.
     999903    2    3    3    0    0 -0.95961623629E-01 -0.73594319892E-01 -0.31560608548E-01  0.12652909915E+00  0.19717601035E-01 0.  0.
         14    1    1    2    0    0 -0.24962159346E-01 -0.28426929339E-02  0.38621375561E-02  0.25418623268E-01  0.00000000000E+00 0.  1.
     999901    1    3    3    0    0  0.12092378298E+00  0.76437012826E-01  0.27698470992E-01  0.89198227758E+00  0.88000000000E+00 0. -1.
        -11    1    4    4    0    0 -0.50779936318E-01 -0.51141681087E-01 -0.18172049803E-01  0.74327370409E-01  0.51100000000E-03 0. -1.
         11    1    4    4    0    0 -0.45181687311E-01 -0.22452638806E-01 -0.13388558746E-01  0.52201728744E-01  0.51100000000E-03 0.  1.
</event>
<event>
 8    1  0.1129602E+005  0.1043930E+01  0.7957747E-01            NaN
         13   -1    0    0    0    0  0.00000000000E+00  0.00000000000E+00  0.74505805969E-08  0.10566000000E+00  0.10566000000E+00 0. -1.
     999900   -1    0    0    0    0 -0.00000000000E+00 -0.00000000000E+00 -0.74505805969E-08  0.93827000000E+00  0.93827000000E+00 0.  1.
     999902    2    1    2    0    0 -0.12189448441E-01  0.19479419585E-01  0.72712846666E-02  0.10198280909E+01  0.10195432472E+01 0.  0.
     999903    2    3    3    0    0 -0.94635991366E-01 -0.17851939434E-02  0.89559998430E-01  0.13189732299E+00  0.20414522102E-01 0.  0.
         14    1    1    2    0    0  0.12189448441E-01 -0.19479419585E-01 -0.72712846666E-02  0.24101909082E-01  0.00000000000E+00 0.  1.
     999901    1    3    3    0    0  0.82446542925E-01  0.21264613529E-01 -0.82288713763E-01  0.88793076793E+00  0.88000000000E+00 0.  1.
        -11    1    4    4    0    0 -0.49740498424E-01 -0.37600260375E-02  0.33693563053E-01  0.60197776466E-01  0.51100000000E-03 0. -1.
         11    1    4    4    0    0 -0.44895492942E-01  0.19748320941E-02  0.55866435377E-01  0.71699546519E-01  0.51100000000E-03 0.  1.
</event>
<event>
 8    1  0.1129602E+005  0.1043930E+01  0.7957747E-01            NaN
         13   -1    0    0    0    0  0.00000000000E+00  0.00000000000E+00  0.74505805969E-08  0.10566000000E+00  0.10566000000E+00 0.  1.
     999900   -1    0    0    0    0 -0.00000000000E+00 -0.00000000000E+00 -0.74505805969E-08  0.93827000000E+00  0.93827000000E+00 0. -1.
     999902    2    1    2    0    0 -0.25138295066E-04  0.16991887988E-01 -0.17249514573E-01  0.10197169737E+01  0.10194294658E+01 0.  0.
     999903    2    3    3    0    0 -0.11665784165E-01  0.95583689130E-01  0.85840609537E-01  0.13014418324E+00  0.17221092833E-01 0.  0.
         14    1    1    2    0    0  0.25138295066E-04 -0.16991887988E-01  0.17249514573E-01  0.24213026295E-01  0.00000000000E+00 0.  1.
     999901    1    3    3    0    0  0.11640645870E-01 -0.78591801142E-01 -0.10309012411E+00  0.88957279046E+00  0.88000000000E+00 0. -1.
        -11    1    4    4    0    0 -0.40556817773E-02  0.41635021778E-01  0.48713032492E-01  0.64211714264E-01  0.51100000000E-03 0.  1.
         11    1    4    4    0    0 -0.76101023874E-02  0.53948667352E-01  0.37127577044E-01  0.65932468979E-01  0.51100000000E-03 0. -1.
</event>
<event>
 8    1  0.1129602E+005  0.1043930E+01  0.7957747E-01            NaN
         13   -1    0    0    0    0  0.00000000000E+00  0.00000000000E+00  0.74505805969E-08  0.10566000000E+00  0.10566000000E+00 0.  1.
     999900   -1    0    0    0    0 -0.00000000000E+00 -0.00000000000E+00 -0.74505805969E-08  0.93827000000E+00  0.93827000000E+00 0.  1.
     999902    2    1    2    0    0  0.17323837444E-01 -0.15321899630E-01 -0.16208326617E-04  0.10208026090E+01  0.10205405873E+01 0.  0.
     999903    2    3    3    0    0  0.30413318523E-01  0.12322804600E+00 -0.18105280235E-01  0.12968273127E+00  0.19485593497E-01 0.  0.
         14    1    1    2    0    0 -0.17323837444E-01  0.15321899630E-01  0.16208326617E-04  0.23127391007E-01  0.00000000000E+00 0. -1.
     999901    1    3    3    0    0 -0.13089481079E-01 -0.13854994563E+00  0.18089071908E-01  0.89111987772E+00  0.88000000000E+00 0. -1.
        -11    1    4    4    0    0  0.20720920874E-03  0.34192436182E-01 -0.16854035971E-02  0.34238389769E-01  0.51100000000E-03 0. -1.
         11    1    4    4    0    0  0.30206109314E-01  0.89035609815E-01 -0.16419876638E-01  0.95444341503E-01  0.51100000000E-03 0.  1.
</event>
<event>
 8    1  0.1129602E+005  0.1043930E+01  0.7957747E-01            NaN
         13   -1    0    0    0    0  0.00000000000E+00  0.00000000000E+00  0.74505805969E-08  0.10566000000E+00  0.10566000000E+00 0.  1.
     999900   -1    0    0    0    0 -0.00000000000E+00 -0.00000000000E+00 -0.74505805969E-08  0.93827000000E+00  0.93827000000E+00 0.  1.
     999902    2    1    2    0    0  0.11776285121E-01 -0.19847409139E-01 -0.39758931672E-02  0.10205118816E+01  0.10202431535E+01 0.  0.
     999903    2    3    3    0    0 -0.82461279458E-01 -0.90509896008E-01  0.43796189135E-01  0.13137967692E+00  0.18724567822E-01 0.  0.
         14    1    1    2    0    0 -0.11776285121E-01  0.19847409139E-01  0.39758931672E-02  0.23418118355E-01  0.00000000000E+00 0.  1.
     999901    1    3    3    0    0  0.94237564580E-01  0.70662486869E-01 -0.47772082303E-01  0.88913220472E+00  0.88000000000E+00 0.  1.
        -11    1    4    4    0    0 -0.53752797943E-01 -0.53093783715E-01  0.18192487382E-01  0.77714483039E-01  0.51100000000E-03 0. -1.
         11    1    4    4    0    0 -0.28708481515E-01 -0.37416112293E-01  0.25603701753E-01  0.53665193883E-01  0.51100000000E-03 0.  1.
</event>
<event>
 8    1  0.1129602E+005  0.1043930E+01  0.7957747E-01            NaN
         13   -1    0    0    0    0  0.00000000000E+00  0.00000000000E+00  0.74505805969E-08  0.10566000000E+00  0.10566000000E+00 0.  1.
     999900   -1    0    0    0    0 -0.00000000000E+00 -0.00000000000E+00 -0.74505805969E-08  0.93827000000E+00  0.93827000000E+00 0. -1.
     999902    2    1    2    0    0 -0.14180417168E-01  0.10139442296E-01  0.15660572660E-01  0.10204961344E+01  0.10202270405E+01 0.  0.
     999903    2    3    3    0    0  0.44869471755E-02  0.12252783210E+00  0.46425895955E-01  0.13261881980E+00  0.19979620036E-01 0.  0.
         14    1    1    2    0    0  0.14180417168E-01 -0.10139442296E-01 -0.15660572660E-01  0.23433865605E-01  0.00000000000E+00 0. -1.
     999901    1    3    3    0    0 -0.18667364344E-01 -0.11238838980E+00 -0.30765323294E-01  0.88787731459E+00  0.88000000000E+00 0.  1.
        -11    1    4    4    0    0  0.11056753492E-01  0.42739267234E-01  0.17574381626E-01  0.47518593961E-01  0.51100000000E-03 0. -1.
         11    1    4    4    0    0 -0.65698063165E-02  0.79788564863E-01  0.28851514328E-01  0.85100225839E-01  0.51100000000E-03 0.  1.
</event>
<event>
 8    1  0.1129602E+005  0.1043930E+01  0.7957747E-01            NaN
         13   -1    0    0    0    0  0.00000000000E+00  0.00000000000E+00  0.74505805969E-08  0.10566000000E+00  0.10566000000E+00 0.  1.
     999900   -1    0    0    0    0 -0.00000000000E+00 -0.00000000000E+00 -0.74505805969E-08  0.93827000000E+00  0.93827000000E+00 0.  1.
     999902    2    1    2    0    0  0.22904317041E-01 -0.42712307252E-02  0.81203472419E-03  0.10206166872E+01  0.10203503867E+01 0.  0.
     999903    2    3    3    0    0  0.81747520491E-01 -0.24435593633E-01  0.99959245433E-01  0.13286712036E+00  0.19546497950E-01 0.  0.
         14    1    1    2    0    0 -0.22904317041E-01  0.42712307252E-02 -0.81203472419E-03  0.23313312751E-01  0.00000000000E+00 0.  1.
     999901    1    3    3    0    0 -0.58843203450E-01  0.20164362908E-01 -0.99147210709E-01  0.88774956689E+00  0.88000000000E+00 0.  1.
        -11    1    4    4    0    0  0.69046415429E-01 -0.26948983584E-01  0.79891570153E-01  0.10897971968E+00  0.51100000000E-03 0. -1.
         11    1    4    4    0    0  0.12701105062E-01  0.25133899512E-02  0.20067675280E-01  0.23887400674E-01  0.51100000000E-03 0.  1.
</event>
<event>
 8    1  0.1129602E+005  0.1043930E+01  0.7957747E-01            NaN
         13   -1    0    0    0    0  0.00000000000E+00  0.00000000000E+00  0.74505805969E-08  0.10566000000E+00  0.10566000000E+00 0.  1.
     999900   -1    0    0    0    0 -0.00000000000E+00 -0.00000000000E+00 -0.74505805969E-08  0.93827000000E+00  0.93827000000E+00 0. -1.
     999902    2    1    2    0    0 -0.10745603021E-01 -0.13891291530E-01 -0.10095387784E-01  0.10236728329E+01  0.10234723816E+01 0.  0.
     999903    2    3    3    0    0 -0.19232768496E-01 -0.13245695720E+00 -0.86101663385E-02  0.13567955874E+00  0.20495433691E-01 0.  0.
         14    1    1    2    0    0  0.10745603021E-01  0.13891291530E-01  0.10095387784E-01  0.20257167106E-01  0.00000000000E+00 0.  1.
     999901    1    3    3    0    0  0.84871654758E-02  0.11856566567E+00 -0.14852214451E-02  0.88799327415E+00  0.88000000000E+00 0.  1.
        -11    1    4    4    0    0 -0.29580271137E-03 -0.70685634539E-01 -0.18031729348E-02  0.70711095191E-01  0.51100000000E-03 0.  1.
         11    1    4    4    0    0 -0.18936965785E-01 -0.61771322659E-01 -0.68069934037E-02  0.64968463553E-01  0.51100000000E-03 0. -1.
</event>
<event>
 8    1  0.1129602E+005  0.1043930E+01  0.7957747E-01            NaN
         13   -1    0    0    0    0  0.00000000000E+00  0.00000000000E+00  0.74505805969E-08  0.10566000000E+00  0.10566000000E+00 0. -1.
     999900   -1    0    0    0    0 -0.00000000000E+00 -0.00000000000E+00 -0.74505805969E-08  0.93827000000E+00  0.93827000000E+00 0.  1.
     999902    2    1    2    0    0 -0.43823825620E-02 -0.14557203730E-01  0.17806160367E-01  0.10205168241E+01  0.10202482107E+01 0.  0.
     999903    2    3    3    0    0  0.35635403974E-01 -0.11833856906E+00 -0.40417326304E-01  0.13160627214E+00  0.20316290503E-01 0.  0.
         14    1    1    2    0    0  0.43823825620E-02  0.14557203730E-01 -0.17806160367E-01  0.23413175871E-01  0.00000000000E+00 0. -1.
     999901    1    3    3    0    0 -0.40017786536E-01  0.10378136533E+00  0.58223486671E-01  0.88891055198E+00  0.88000000000E+00 0.  1.
        -11    1    4    4    0    0  0.19103846547E-01 -0.86426425989E-01 -0.35329818469E-01  0.95304466088E-01  0.51100000000E-03 0. -1.
         11    1    4    4    0    0  0.16531557427E-01 -0.31912143066E-01 -0.50875078345E-02  0.36301806057E-01  0.51100000000E-03 0.  1.
</event>
<event>
 8    1  0.1129602E+005  0.1043930E+01  0.7957747E-01            NaN
         13   -1    0    0    0    0  0.00000000000E+00  0.00000000000E+00  0.74505805969E-08  0.10566000000E+00  0.10566000000E+00 0. -1.
     999900   -1    0    0    0    0 -0.00000000000E+00 -0.00000000000E+00 -0.74505805969E-08  0.93827000000E+00  0.93827000000E+00 0.  1.
     999902    2    1    2    0    0 -0.51399433861E-02 -0.38697991152E-02 -0.22546154128E-01  0.10204838185E+01  0.10202144384E+01 0.  0.
     999903    2    3    3    0    0 -0.53343666407E-01 -0.37905098584E-02 -0.12097087798E+00  0.13368562751E+00  0.19441681331E-01 0.  0.
         14    1    1    2    0    0  0.51399433861E-02  0.38697991152E-02  0.22546154128E-01  0.23446181548E-01  0.00000000000E+00 0. -1.
     999901    1    3    3    0    0  0.48203723021E-01 -0.79289256840E-04  0.98424723847E-01  0.88679819095E+00  0.88000000000E+00 0. -1.
        -11    1    4    4    0    0 -0.66733811441E-02 -0.75333629166E-02 -0.20945573403E-01  0.23243574143E-01  0.51100000000E-03 0. -1.
         11    1    4    4    0    0 -0.46670285263E-01  0.37428530582E-02 -0.10002530457E+00  0.11044205336E+00  0.51100000000E-03 0.  1.
</event>
<event>
 8    1  0.1129602E+005  0.1043930E+01  0.7957747E-01            NaN
         13   -1    0    0    0    0  0.00000000000E+00  0.00000000000E+00  0.74505805969E-08  0.10566000000E+00  0.10566000000E+00 0. -1.
     999900   -1    0    0    0    0 -0.00000000000E+00 -0.00000000000E+00 -0.74505805969E-08  0.93827000000E+00  0.93827000000E+00 0.  1.
     999902    2    1    2    0    0 -0.15966434346E-01 -0.13331534951E-01 -0.11808912356E-01  0.10200112362E+01  0.10197307560E+01 0.  0.
     999903    2    3    3    0    0  0.26582564158E-01  0.83705409827E-01 -0.93526823333E-01  0.12989641053E+00  0.20312125327E-01 0.  0.
         14    1    1    2    0    0  0.15966434346E-01  0.13331534951E-01  0.11808912356E-01  0.23918763783E-01  0.00000000000E+00 0. -1.
     999901    1    3    3    0    0 -0.42548998504E-01 -0.97036944778E-01  0.81717910976E-01  0.89011482568E+00  0.88000000000E+00 0. -1.
        -11    1    4    4    0    0 -0.39488664484E-03  0.30217284255E-01 -0.30423995794E-01  0.42884972243E-01  0.51100000000E-03 0. -1.
         11    1    4    4    0    0  0.26977450803E-01  0.53488125572E-01 -0.63102827539E-01  0.87011438291E-01  0.51100000000E-03 0.  1.
</event>
<event>
 8    1  0.1129602E+005  0.1043930E+01  0.7957747E-01            NaN
         13   -1    0    0    0    0  0.00000000000E+00  0.00000000000E+00  0.74505805969E-08  0.10566000000E+00  0.10566000000E+00 0.  1.
     999900   -1    0    0    0    0 -0.00000000000E+00 -0.00000000000E+00 -0.74505805969E-08  0.93827000000E+00  0.93827000000E+00 0. -1.
     999902    2    1    2    0    0 -0.17312500140E-01  0.13933059279E-01  0.11329262910E-01  0.10189859626E+01  0.10186806109E+01 0.  0.
     999903    2    3    3    0    0  0.19101383879E-01  0.98058483805E-01 -0.80046820399E-01  0.12951834288E+00  0.19676853738E-01 0.  0.
         14    1    1    2    0    0  0.17312500140E-01 -0.13933059279E-01 -0.11329262910E-01  0.24944037364E-01  0.00000000000E+00 0.  1.
     999901    1    3    3    0    0 -0.36413884019E-01 -0.84125424526E-01  0.91376083309E-01  0.88946761976E+00  0.88000000000E+00 0.  1.
        -11    1    4    4    0    0  0.52645491415E-02  0.72836574966E-01 -0.58570747832E-01  0.93614506104E-01  0.51100000000E-03 0.  1.
         11    1    4    4    0    0  0.13836834738E-01  0.25221908839E-01 -0.21476072567E-01  0.35903836772E-01  0.51100000000E-03 0. -1.
</event>
<event>
 8    1  0.1129602E+005  0.1043930E+01  0.7957747E-01            NaN
         13   -1    0    0    0    0  0.00000000000E+00  0.00000000000E+00  0.74505805969E-08  0.10566000000E+00  0.10566000000E+00 0. -1.
     999900   -1    0    0    0    0 -0.00000000000E+00 -0.00000000000E+00 -0.74505805969E-08  0.93827000000E+00  0.93827000000E+00 0. -1.
     999902    2    1    2    0    0  0.43495715552E-02 -0.13332741594E-01 -0.19313059976E-01  0.10200621334E+01  0.10197828597E+01 0.  0.
     999903    2    3    3    0    0 -0.71951125285E-01 -0.46389017114E-01  0.94234559176E-01  0.12887888876E+00  0.20017754262E-01 0.  0.
         14    1    1    2    0    0 -0.43495715552E-02  0.13332741594E-01  0.19313059976E-01  0.23867866615E-01  0.00000000000E+00 0. -1.
     999901    1    3    3    0    0  0.76300696841E-01  0.33056275520E-01 -0.11354761915E+00  0.89118324463E+00  0.88000000000E+00 0. -1.
        -11    1    4    4    0    0 -0.63794368083E-01 -0.35344384100E-01  0.86382889918E-01  0.11305402106E+00  0.51100000000E-03 0. -1.
         11    1    4    4    0    0 -0.81567572028E-02 -0.11044633014E-01  0.78516692575E-02  0.15824867696E-01  0.51100000000E-03 0.  1.
</event>
<event>
 8    1  0.1129602E+005  0.1043930E+01  0.7957747E-01            NaN
         13   -1    0    0    0    0  0.00000000000E+00  0.00000000000E+00  0.74505805969E-08  0.10566000000E+00  0.10566000000E+00 0.  1.
     999900   -1    0    0    0    0 -0.00000000000E+00 -0.00000000000E+00 -0.74505805969E-08  0.93827000000E+00  0.93827000000E+00 0. -1.
     999902    2    1    2    0    0  0.17284331475E-01  0.16486245718E-01  0.91458414255E-04  0.10200437534E+01  0.10197640443E+01 0.  0.
     999903    2    3    3    0    0 -0.93956181614E-01  0.21255205953E-01  0.83548731401E-01  0.12911036017E+00  0.20237261227E-01 0.  0.
         14    1    1    2    0    0 -0.17284331475E-01 -0.16486245718E-01 -0.91458414255E-04  0.23886246609E-01  0.00000000000E+00 0.  1.
     999901    1    3    3    0    0  0.11124051309E+00 -0.47689602351E-02 -0.83457272987E-01  0.89093339322E+00  0.88000000000E+00 0. -1.
        -11    1    4    4    0    0 -0.56187454240E-01  0.13749801191E-01  0.62735840456E-01  0.85335419642E-01  0.51100000000E-03 0. -1.
         11    1    4    4    0    0 -0.37768727374E-01  0.75054047617E-02  0.20812890945E-01  0.43774940532E-01  0.51100000000E-03 0.  1.
</event>
<event>
 8    1  0.1129602E+005  0.1043930E+01  0.7957747E-01            NaN
         13   -1    0    0    0    0  0.00000000000E+00  0.00000000000E+00  0.74505805969E-08  0.10566000000E+00  0.10566000000E+00 0. -1.
     999900   -1    0    0    0    0 -0.00000000000E+00 -0.00000000000E+00 -0.74505805969E-08  0.93827000000E+00  0.93827000000E+00 0. -1.
     999902    2    1    2    0    0  0.26628200494E-01 -0.39897363522E-02 -0.60723905524E-02  0.10163283155E+01  0.10159534399E+01 0.  0.
     999903    2    3    3    0    0  0.90263694985E-01  0.63792842846E-01  0.62799828037E-01  0.12875446696E+00  0.20416486711E-01 0.  0.
         14    1    1    2    0    0 -0.26628200494E-01  0.39897363522E-02  0.60723905524E-02  0.27601684455E-01  0.00000000000E+00 0.  1.
     999901    1    3    3    0    0 -0.63635494491E-01 -0.67782579198E-01 -0.68872218589E-01  0.88757384859E+00  0.88000000000E+00 0. -1.
        -11    1    4    4    0    0  0.72846783706E-01  0.50800020169E-01  0.40487115816E-01  0.97605141327E-01  0.51100000000E-03 0.  1.
         11    1    4    4    0    0  0.17416911279E-01  0.12992822677E-01  0.22312712221E-01  0.31149325631E-01  0.51100000000E-03 0. -1.
</event>
<event>
 8    1  0.1129602E+005  0.1043930E+01  0.7957747E-01            NaN
         13   -1    0    0    0    0  0.00000000000E+00  0.00000000000E+00  0.74505805969E-08  0.10566000000E+00  0.10566000000E+00 0.  1.
     999900   -1    0    0    0    0 -0.00000000000E+00 -0.00000000000E+00 -0.74505805969E-08  0.93827000000E+00  0.93827000000E+00 0. -1.
     999902    2    1    2    0    0 -0.13496644380E-01 -0.16408056268E-01 -0.14966934268E-02  0.10226315538E+01  0.10224097373E+01 0.  0.
     999903    2    3    3    0    0  0.93229311755E-01  0.88193894520E-01 -0.91277965920E-02  0.13000048130E+00  0.18626348744E-01 0.  0.
         14    1    1    2    0    0  0.13496644380E-01  0.16408056268E-01  0.14966934268E-02  0.21298446216E-01  0.00000000000E+00 0.  1.
     999901    1    3    3    0    0 -0.10672595614E+00 -0.10460195079E+00  0.76311031652E-02  0.89263107248E+00  0.88000000000E+00 0.  1.
        -11    1    4    4    0    0  0.30139828414E-01  0.32114757260E-01 -0.11615749380E-01  0.45551659085E-01  0.51100000000E-03 0. -1.
         11    1    4    4    0    0  0.63089483341E-01  0.56079137259E-01  0.24879527879E-02  0.84448822219E-01  0.51100000000E-03 0.  1.
</event>
<event>
 8    1  0.1129602E+005  0.1043930E+01  0.7957747E-01            NaN
         13   -1    0    0    0    0  0.00000000000E+00  0.00000000000E+00  0.74505805969E-08  0.10566000000E+00  0.10566000000E+00 0. -1.
     999900   -1    0    0    0    0 -0.00000000000E+00 -0.00000000000E+00 -0.74505805969E-08  0.93827000000E+00  0.93827000000E+00 0.  1.
     999902    2    1    2    0    0 -0.11403181188E-01 -0.80758364689E-02 -0.18974406523E-01  0.10203656248E+01  0.10200934901E+01 0.  0.
     999903    2    3    3    0    0  0.11021622397E+00 -0.49747630787E-01 -0.45483060636E-01  0.13062941282E+00  0.19310408992E-01 0.  0.
         14    1    1    2    0    0  0.11403181188E-01  0.80758364689E-02  0.18974406523E-01  0.23564375204E-01  0.00000000000E+00 0.  1.
     999901    1    3    3    0    0 -0.12161940515E+00  0.41671794318E-01  0.26508654113E-01  0.88973621197E+00  0.88000000000E+00 0.  1.
        -11    1    4    4    0    0  0.28488808416E-01 -0.20051927470E-01 -0.19228968636E-01  0.39795808272E-01  0.51100000000E-03 0.  1.
         11    1    4    4    0    0  0.81727415550E-01 -0.29695703317E-01 -0.26254092000E-01  0.90833604551E-01  0.51100000000E-03 0. -1.
</event>
<event>
 8    1  0.1129602E+005  0.1043930E+01  0.7957747E-01            NaN
         13   -1    0    0    0    0  0.00000000000E+00  0.00000000000E+00  0.74505805969E-08  0.10566000000E+00  0.10566000000E+00 0.  1.
     999900   -1    0    0    0    0 -0.00000000000E+00 -0.00000000000E+00 -0.74505805969E-08  0.93827000000E+00  0.93827000000E+00 0.  1.
     999902    2    1    2    0    0 -0.92363248652E-02 -0.97132517770E-02 -0.20763540144E-01  0.10192160048E+01  0.10189163278E+01 0.  0.
     999903    2    3    3    0    0 -0.12361587515E+00 -0.51948312674E-03  0.35049716023E-01  0.13001280733E+00  0.19841699191E-01 0.  0.
         14    1    1    2    0    0  0.92363248652E-02  0.97132517770E-02  0.20763540144E-01  0.24713995153E-01  0.00000000000E+00 0.  1.
     999901    1    3    3    0    0  0.11437955028E+00 -0.91937686503E-02 -0.55813256167E-01  0.88920319751E+00  0.88000000000E+00 0.  1.
        -11    1    4    4    0    0 -0.81221969232E-01 -0.20681881850E-03  0.13112095088E-01  0.82275386469E-01  0.51100000000E-03 0.  1.
         11    1    4    4    0    0 -0.42393905913E-01 -0.31266430824E-03  0.21937620935E-01  0.47737420865E-01  0.51100000000E-03 0. -1.
</event>
<event>
 8    1  0.1129602E+005  0.1043930E+01  0.7957747E-01            NaN
         13   -1    0    0    0    0  0.00000000000E+00  0.00000000000E+00  0.74505805969E-08  0.10566000000E+00  0.10566000000E+00 0. -1.
     999900   -1    0    0    0    0 -0.00000000000E+00 -0.00000000000E+00 -0.74505805969E-08  0.93827000000E+00  0.93827000000E+00 0.  1.
     999902    2    1    2    0    0  0.16193928176E-01  0.11140760593E-01  0.12341188186E-01  0.10207208470E+01  0.10204569480E+01 0.  0.
     999903    2    3    3    0    0 -0.14607397997E-01  0.12497174836E+00  0.36163640642E-01  0.13253521061E+00  0.20650888235E-01 0.  0.
         14    1    1    2    0    0 -0.16193928176E-01 -0.11140760593E-01 -0.12341188186E-01  0.23209152983E-01  0.00000000000E+00 0. -1.
     999901    1    3    3    0    0  0.30801326173E-01 -0.11383098776E+00 -0.23822452455E-01  0.88818563640E+00  0.88000000000E+00 0.  1.
        -11    1    4    4    0    0 -0.48121240388E-02  0.32832244133E-01  0.19182317836E-01  0.38331908785E-01  0.51100000000E-03 0. -1.
         11    1    4    4    0    0 -0.97952739580E-02  0.92139504223E-01  0.16981322806E-01  0.94203301830E-01  0.51100000000E-03 0.  1.
</event>
<event>
 8    1  0.1129602E+005  0.1043930E+01  0.7957747E-01            NaN
         13   -1    0    0    0    0  0.00000000000E+00  0.00000000000E+00  0.74505805969E-08  0.10566000000E+00  0.10566000000E+00 0. -1.
     999900   -1    0    0    0    0 -0.00000000000E+00 -0.00000000000E+00 -0.74505805969E-08  0.93827000000E+00  0.93827000000E+00 0. -1.
     999902    2    1    2    0    0 -0.78955880614E-02  0.88479360875E-02 -0.19369326245E-01  0.10212188335E+01  0.10209662623E+01 0.  0.
     999903    2    3    3    0    0  0.94713301215E-01 -0.61607492159E-01 -0.64244733794E-01  0.13132763021E+00  0.18800747804E-01 0.  0.
         14    1    1    2    0    0  0.78955880614E-02 -0.88479360875E-02  0.19369326245E-01  0.22711166483E-01  0.00000000000E+00 0. -1.
     999901    1    3    3    0    0 -0.10260888928E+00  0.70455428247E-01  0.44875407550E-01  0.88989120331E+00  0.88000000000E+00 0. -1.
        -11    1    4    4    0    0  0.52080192212E-01 -0.32679646265E-01 -0.24219706794E-01  0.66084499083E-01  0.51100000000E-03 0.  1.
         11    1    4    4    0    0  0.42633109003E-01 -0.28927845894E-01 -0.40025027001E-01  0.65243131123E-01  0.51100000000E-03 0. -1.
</event>
<event>
 8    1  0.1157703E+005  0.1043930E+01  0.7957747E-01            NaN
         13   -1    0    0    0    0  0.00000000000E+00  0.00000000000E+00  0.74505805969E-08  0.10566000000E+00  0.10566000000E+00 0.  1.
     999900   -1    0    0    0    0 -0.00000000000E+00 -0.00000000000E+00 -0.74505805969E-08  0.93827000000E+00  0.93827000000E+00 0. -1.
     999902    2    1    2    0    0 -0.26268060037E-01 -0.59168720243E-02  0.16889316056E-02  0.10169508814E+01  0.10165929482E+01 0.  0.
     999903    2    3    3    0    0 -0.29786110901E-01  0.10701079754E+00 -0.59525624970E-01  0.12761840294E+00  0.20115505184E-01 0.  0.
         14    1    1    2    0    0  0.26268060037E-01  0.59168720243E-02 -0.16889316056E-02  0.26979118641E-01  0.00000000000E+00 0. -1.
     999901    1    3    3    0    0  0.35180508632E-02 -0.11292766956E+00  0.61214556576E-01  0.88933247842E+00  0.88000000000E+00 0.  1.
        -11    1    4    4    0    0 -0.82033062865E-02  0.51246770135E-01 -0.18497714160E-01  0.55099475800E-01  0.51100000000E-03 0. -1.
         11    1    4    4    0    0 -0.21582804614E-01  0.55764027401E-01 -0.41027910810E-01  0.72518927139E-01  0.51100000000E-03 0.  1.
</event>
<event>
 8    1  0.1129602E+005  0.1043930E+01  0.7957747E-01            NaN
         13   -1    0    0    0    0  0.00000000000E+00  0.00000000000E+00  0.74505805969E-08  0.10566000000E+00  0.10566000000E+00 0.  1.
     999900   -1    0    0    0    0 -0.00000000000E+00 -0.00000000000E+00 -0.74505805969E-08  0.93827000000E+00  0.93827000000E+00 0. -1.
     999902    2    1    2    0    0  0.25108042734E-02  0.19275887884E-01 -0.12159440468E-01  0.10210015028E+01  0.10207440192E+01 0.  0.
     999903    2    3    3    0    0 -0.12821159475E-02 -0.11810322857E+00  0.46185300773E-01  0.12842572634E+00  0.20250154484E-01 0.  0.
         14    1    1    2    0    0 -0.25108042734E-02 -0.19275887884E-01  0.12159440468E-01  0.22928497210E-01  0.00000000000E+00 0. -1.
     999901    1    3    3    0    0  0.37929202210E-02  0.13737911646E+00 -0.58344741242E-01  0.89257577645E+00  0.88000000000E+00 0. -1.
        -11    1    4    4    0    0  0.50094062493E-02 -0.29385343358E-01  0.19274582576E-01  0.35501594468E-01  0.51100000000E-03 0.  1.
         11    1    4    4    0    0 -0.62915221969E-02 -0.88717885215E-01  0.26910718197E-01  0.92924131868E-01  0.51100000000E-03 0. -1.
</event>
<event>
 8    1  0.1129602E+005  0.1043930E+01  0.7957747E-01            NaN
         13   -1    0    0    0    0  0.00000000000E+00  0.00000000000E+00  0.74505805969E-08  0.10566000000E+00  0.10566000000E+00 0. -1.
     999900   -1    0    0    0    0 -0.00000000000E+00 -0.00000000000E+00 -0.74505805969E-08  0.93827000000E+00  0.93827000000E+00 0.  1.
     999902    2    1    2    0    0 -0.49763261491E-02  0.59885098951E-02 -0.21434920182E-01  0.10211246963E+01  0.10208700033E+01 0.  0.
     999903    2    3    3    0    0  0.16844297931E-02  0.11340924534E+00 -0.67758407215E-01  0.13335814732E+00  0.18130071018E-01 0.  0.
         14    1    1    2    0    0  0.49763261491E-02 -0.59885098951E-02  0.21434920182E-01  0.22805303679E-01  0.00000000000E+00 0. -1.
     999901    1    3    3    0    0 -0.66607559422E-02 -0.10742073545E+00  0.46323487033E-01  0.88776654900E+00  0.88000000000E+00 0. -1.
        -11    1    4    4    0    0 -0.68040318929E-02  0.73199520375E-01 -0.39238991028E-01  0.83333211692E-01  0.51100000000E-03 0. -1.
         11    1    4    4    0    0  0.84884616860E-02  0.40209724969E-01 -0.28519416187E-01  0.50024935627E-01  0.51100000000E-03 0.  1.
</event>
<event>
 8    1  0.1129602E+005  0.1043930E+01  0.7957747E-01            NaN
         13   -1    0    0    0    0  0.00000000000E+00  0.00000000000E+00  0.74505805969E-08  0.10566000000E+00  0.10566000000E+00 0.  1.
     999900   -1    0    0    0    0 -0.00000000000E+00 -0.00000000000E+00 -0.74505805969E-08  0.93827000000E+00  0.93827000000E+00 0.  1.
     999902    2    1    2    0    0 -0.21899802375E-01 -0.32696456959E-02  0.10506096772E-01  0.10194214301E+01  0.10191267744E+01 0.  0.
     999903    2    3    3    0    0 -0.44028858173E-01 -0.20881669497E-01  0.12135762881E+00  0.13201625738E+00  0.18056402421E-01 0.  0.
         14    1    1    2    0    0  0.21899802375E-01  0.32696456959E-02 -0.10506096772E-01  0.24508569856E-01  0.00000000000E+00 0.  1.
     999901    1    3    3    0    0  0.22129055798E-01  0.17612023801E-01 -0.11085153204E+00  0.88740517276E+00  0.88000000000E+00 0.  1.
        -11    1    4    4    0    0 -0.33782482261E-02 -0.56014338748E-02  0.65611032883E-02  0.92788910916E-02  0.51100000000E-03 0. -1.
         11    1    4    4    0    0 -0.40650609947E-01 -0.15280235622E-01  0.11479652552E+00  0.12273736629E+00  0.51100000000E-03 0.  1.
</event>
<event>
 8    1  0.1129602E+005  0.1043930E+01  0.7957747E-01            NaN
         13   -1    0    0    0    0  0.00000000000E+00  0.00000000000E+00  0.74505805969E-08  0.10566000000E+00  0.10566000000E+00 0.  1.
     999900   -1    0    0    0    0 -0.00000000000E+00 -0.00000000000E+00 -0.74505805969E-08  0.93827000000E+00  0.93827000000E+00 0.  1.
     999902    2    1    2    0    0  0.17648589403E-01  0.76729582573E-02  0.14589138016E-01  0.10197806740E+01  0.10194946950E+01 0.  0.
     999903    2    3    3    0    0 -0.93071620606E-01  0.55037472126E-01 -0.64988512811E-01  0.12802119717E+00  0.21782337489E-01 0.  0.
         14    1    1    2    0    0 -0.17648589403E-01 -0.76729582573E-02 -0.14589138016E-01  0.24149325961E-01  0.00000000000E+00 0. -1.
     999901    1    3    3    0    0  0.11072021001E+00 -0.47364513869E-01  0.79577650828E-01  0.89175947687E+00  0.88000000000E+00 0. -1.
        -11    1    4    4    0    0 -0.89191410001E-01  0.55961168786E-01 -0.58685380146E-01  0.12054457679E+00  0.51100000000E-03 0. -1.
         11    1    4    4    0    0 -0.38802106045E-02 -0.92369665931E-03 -0.63031326651E-02  0.74766203761E-02  0.51100000000E-03 0.  1.
</event>
<event>
 8    1  0.1129602E+005  0.1043930E+01  0.7957747E-01            NaN
         13   -1    0    0    0    0  0.00000000000E+00  0.00000000000E+00  0.74505805969E-08  0.10566000000E+00  0.10566000000E+00 0. -1.
     999900   -1    0    0    0    0 -0.00000000000E+00 -0.00000000000E+00 -0.74505805969E-08  0.93827000000E+00  0.93827000000E+00 0.  1.
     999902    2    1    2    0    0  0.13243343124E-01  0.38188055775E-02 -0.16907877227E-01  0.10221161116E+01  0.10218833103E+01 0.  0.
     999903    2    3    3    0    0  0.27161933433E-01 -0.99188148208E-02 -0.12957353064E+00  0.13471766740E+00  0.22877861624E-01 0.  0.
         14    1    1    2    0    0 -0.13243343124E-01 -0.38188055775E-02  0.16907877227E-01  0.21813888362E-01  0.00000000000E+00 0. -1.
     999901    1    3    3    0    0 -0.13918590309E-01  0.13737620398E-01  0.11266565341E+00  0.88739844423E+00  0.88000000000E+00 0. -1.
        -11    1    4    4    0    0  0.90471930495E-02  0.67763327329E-02 -0.28036803090E-01  0.30233984783E-01  0.51100000000E-03 0. -1.
         11    1    4    4    0    0  0.18114740384E-01 -0.16695147554E-01 -0.10153672755E+00  0.10448368262E+00  0.51100000000E-03 0.  1.
</event>
<event>
 8    1  0.1129602E+005  0.1043930E+01  0.7957747E-01            NaN
         13   -1    0    0    0    0  0.00000000000E+00  0.00000000000E+00  0.74505805969E-08  0.10566000000E+00  0.10566000000E+00 0.  1.
     999900   -1    0    0    0    0 -0.00000000000E+00 -0.00000000000E+00 -0.74505805969E-08  0.93827000000E+00  0.93827000000E+00 0. -1.
     999902    2    1    2    0    0 -0.42554669428E-03  0.17430063320E-01 -0.13738056989E-01  0.10217326486E+01  0.10214914992E+01 0.  0.
     999903    2    3    3    0    0  0.35505898322E-01  0.10941743970E+00 -0.66832726427E-01  0.13461834368E+00  0.20558215050E-01 0.  0.
         14    1    1    2    0    0  0.42554669428E-03 -0.17430063320E-01  0.13738056989E-01  0.22197351354E-01  0.00000000000E+00 0.  1.
     999901    1    3    3    0    0 -0.35931445016E-01 -0.91987376384E-01  0.53094669439E-01  0.88711430497E+00  0.88000000000E+00 0.  1.
        -11    1    4    4    0    0  0.13536606875E-01  0.56374962018E-01 -0.44192021157E-01  0.72901110576E-01  0.51100000000E-03 0.  1.
         11    1    4    4    0    0  0.21969291446E-01  0.53042477686E-01 -0.22640705270E-01  0.61717233102E-01  0.51100000000E-03 0. -1.
</event>
<event>
 8    1  0.1129602E+005  0.1043930E+01  0.7957747E-01            NaN
         13   -1    0    0    0    0  0.00000000000E+00  0.00000000000E+00  0.74505805969E-08  0.10566000000E+00  0.10566000000E+00 0. -1.
     999900   -1    0    0    0    0 -0.00000000000E+00 -0.00000000000E+00 -0.74505805969E-08  0.93827000000E+00  0.93827000000E+00 0. -1.
     999902    2    1    2    0    0 -0.21485820064E-01  0.84963334359E-02  0.70449392764E-02  0.10197750975E+01  0.10194889848E+01 0.  0.
     999903    2    3    3    0    0  0.57046403987E-01 -0.92545949962E-01 -0.63722088925E-01  0.12770737275E+00  0.20727358146E-01 0.  0.
         14    1    1    2    0    0  0.21485820064E-01 -0.84963334359E-02 -0.70449392764E-02  0.24154902506E-01  0.00000000000E+00 0.  1.
     999901    1    3    3    0    0 -0.78532224050E-01  0.10104228340E+00  0.70767028201E-01  0.89206772474E+00  0.88000000000E+00 0.  1.
        -11    1    4    4    0    0  0.49315139341E-01 -0.79872747228E-01 -0.45857246783E-01  0.10447385760E+00  0.51100000000E-03 0.  1.
         11    1    4    4    0    0  0.77312646458E-02 -0.12673202733E-01 -0.17864842142E-01  0.23233515152E-01  0.51100000000E-03 0. -1.
</event>
<event>
 8    1  0.1129602E+005  0.1043930E+01  0.7957747E-01            NaN
         13   -1    0    0    0    0  0.00000000000E+00  0.00000000000E+00  0.74505805969E-08  0.10566000000E+00  0.10566000000E+00 0.  1.
     999900   -1    0    0    0    0 -0.00000000000E+00 -0.00000000000E+00 -0.74505805969E-08  0.93827000000E+00  0.93827000000E+00 0. -1.
     999902    2    1    2    0    0  0.61153243831E-02 -0.14627102419E-01 -0.16809859432E-01  0.10208232761E+01  0.10205617278E+01 0.  0.
     999903    2    3    3    0    0  0.92256139083E-01 -0.82175005609E-01  0.43233823149E-01  0.13201047068E+00  0.17136923837E-01 0.  0.
         14    1    1    2    0    0 -0.61153243831E-02  0.14627102419E-01  0.16809859432E-01  0.23106723948E-01  0.00000000000E+00 0.  1.
     999901    1    3    3    0    0 -0.86140814700E-01  0.67547903190E-01 -0.60043682581E-01  0.88881280538E+00  0.88000000000E+00 0. -1.
        -11    1    4    4    0    0  0.70514808603E-01 -0.55903069861E-01  0.25294055865E-01  0.93474819258E-01  0.51100000000E-03 0. -1.
         11    1    4    4    0    0  0.21741330480E-01 -0.26271935747E-01  0.17939767284E-01  0.38535651418E-01  0.51100000000E-03 0.  1.
</event>
<event>
 8    1  0.1129602E+005  0.1043930E+01  0.7957747E-01            NaN
         13   -1    0    0    0    0  0.00000000000E+00  0.00000000000E+00  0.74505805969E-08  0.10566000000E+00  0.10566000000E+00 0. -1.
     999900   -1    0    0    0    0 -0.00000000000E+00 -0.00000000000E+00 -0.74505805969E-08  0.93827000000E+00  0.93827000000E+00 0. -1.
     999902    2    1    2    0    0  0.22496097191E-01 -0.34980121336E-03 -0.98653466741E-02  0.10193633190E+01  0.10190672472E+01 0.  0.
     999903    2    3    3    0    0 -0.58432644691E-01  0.84689770608E-01  0.72793531899E-01  0.12772792254E+00  0.20707310267E-01 0.  0.
         14    1    1    2    0    0 -0.22496097191E-01  0.34980121336E-03  0.98653466741E-02  0.24566680987E-01  0.00000000000E+00 0.  1.
     999901    1    3    3    0    0  0.80928741883E-01 -0.85039571821E-01 -0.82658878574E-01  0.89163539647E+00  0.88000000000E+00 0. -1.
        -11    1    4    4    0    0 -0.35002698041E-01  0.60496410421E-01  0.58468438790E-01  0.91125320299E-01  0.51100000000E-03 0.  1.
         11    1    4    4    0    0 -0.23429946650E-01  0.24193360187E-01  0.14325093109E-01  0.36602602240E-01  0.51100000000E-03 0. -1.
</event>
<event>
 8    1  0.1129602E+005  0.1043930E+01  0.7957747E-01            NaN
         13   -1    0    0    0    0  0.00000000000E+00  0.00000000000E+00  0.74505805969E-08  0.10566000000E+00  0.10566000000E+00 0. -1.
     999900   -1    0    0    0    0 -0.00000000000E+00 -0.00000000000E+00 -0.74505805969E-08  0.93827000000E+00  0.93827000000E+00 0.  1.
     999902    2    1    2    0    0  0.10273767852E-01 -0.19262816554E-01  0.88470056930E-02  0.10203741957E+01  0.10201022612E+01 0.  0.
     999903    2    3    3    0    0 -0.92568261083E-01 -0.32929204926E-01  0.84344780494E-01  0.13106931709E+00  0.20295526311E-01 0.  0.
         14    1    1    2    0    0 -0.10273767852E-01  0.19262816554E-01 -0.88470056930E-02  0.23555804321E-01  0.00000000000E+00 0.  1.
     999901    1    3    3    0    0  0.10284202893E+00  0.13666388371E-01 -0.75497774801E-01  0.88930487859E+00  0.88000000000E+00 0.  1.
        -11    1    4    4    0    0 -0.30172260108E-01 -0.71613262577E-02  0.38622209162E-01  0.49533685865E-01  0.51100000000E-03 0. -1.
         11    1    4    4    0    0 -0.62396000974E-01 -0.25767878668E-01  0.45722571333E-01  0.81535631223E-01  0.51100000000E-03 0.  1.
</event>
<event>
 8    1  0.1129602E+005  0.1043930E+01  0.7957747E-01            NaN
         13   -1    0    0    0    0  0.00000000000E+00  0.00000000000E+00  0.74505805969E-08  0.10566000000E+00  0.10566000000E+00 0. -1.
     999900   -1    0    0    0    0 -0.00000000000E+00 -0.00000000000E+00 -0.74505805969E-08  0.93827000000E+00  0.93827000000E+00 0. -1.
     999902    2    1    2    0    0 -0.13753245476E-02  0.98749928887E-02  0.21464993498E-01  0.10202624495E+01  0.10199878984E+01 0.  0.
     999903    2    3    3    0    0  0.88889209592E-01 -0.63990509795E-01  0.69528269469E-01  0.13126645561E+00  0.20015623558E-01 0.  0.
         14    1    1    2    0    0  0.13753245476E-02 -0.98749928887E-02 -0.21464993498E-01  0.23667550529E-01  0.00000000000E+00 0.  1.
     999901    1    3    3    0    0 -0.90264534140E-01  0.73865502683E-01 -0.48063275971E-01  0.88899599386E+00  0.88000000000E+00 0. -1.
        -11    1    4    4    0    0  0.74801162344E-01 -0.55181159589E-01  0.66689257044E-01  0.11440232685E+00  0.51100000000E-03 0. -1.
         11    1    4    4    0    0  0.14088047248E-01 -0.88093502052E-02  0.28390124247E-02  0.16864128760E-01  0.51100000000E-03 0.  1.
</event>
<event>
 8    1  0.1129602E+005  0.1043930E+01  0.7957747E-01            NaN
         13   -1    0    0    0    0  0.00000000000E+00  0.00000000000E+00  0.74505805969E-08  0.10566000000E+00  0.10566000000E+00 0.  1.
     999900   -1    0    0    0    0 -0.00000000000E+00 -0.00000000000E+00 -0.74505805969E-08  0.93827000000E+00  0.93827000000E+00 0.  1.
     999902    2    1    2    0    0  0.27380523371E-02 -0.14489691683E-01 -0.18620398391E-01  0.10201777931E+01  0.10199012512E+01 0.  0.
     999903    2    3    3    0    0  0.11960017433E+00  0.43140072839E-01 -0.20093184646E-01  0.13058231515E+00  0.21971285257E-01 0.  0.
         14    1    1    2    0    0 -0.27380523371E-02  0.14489691683E-01  0.18620398391E-01  0.23752206885E-01  0.00000000000E+00 0.  1.
     999901    1    3    3    0    0 -0.11686212200E+00 -0.57629764522E-01  0.14727862551E-02  0.88959547796E+00  0.88000000000E+00 0.  1.
        -11    1    4    4    0    0  0.71972116479E-02 -0.24808380152E-02 -0.61241883025E-04  0.76301562455E-02  0.51100000000E-03 0. -1.
         11    1    4    4    0    0  0.11240296268E+00  0.45620910854E-01 -0.20031942763E-01  0.12295215890E+00  0.51100000000E-03 0.  1.
</event>
<event>
 8    1  0.1129602E+005  0.1043930E+01  0.7957747E-01            NaN
         13   -1    0    0    0    0  0.00000000000E+00  0.00000000000E+00  0.74505805969E-08  0.10566000000E+00  0.10566000000E+00 0.  1.
     999900   -1    0    0    0    0 -0.00000000000E+00 -0.00000000000E+00 -0.74505805969E-08  0.93827000000E+00  0.93827000000E+00 0.  1.
     999902    2    1    2    0    0  0.19346169728E-01 -0.37693339608E-02 -0.12453721220E-01  0.10206152550E+01  0.10203489214E+01 0.  0.
     999903    2    3    3    0    0 -0.43366012143E-01 -0.45705951780E-01 -0.11407545191E+00  0.13156043453E+00  0.18035913317E-01 0.  0.
         14    1    1    2    0    0 -0.19346169728E-01  0.37693339608E-02  0.12453721220E-01  0.23314744988E-01  0.00000000000E+00 0.  1.
     999901    1    3    3    0    0  0.62712181871E-01  0.41936617819E-01  0.10162173069E+00  0.88905482048E+00  0.88000000000E+00 0.  1.
        -11    1    4    4    0    0 -0.36285101746E-01 -0.29661021372E-01 -0.92960641024E-01  0.10410728456E+00  0.51100000000E-03 0.  1.
         11    1    4    4    0    0 -0.70809103968E-02 -0.16044930408E-01 -0.21114810884E-01  0.27453149974E-01  0.51100000000E-03 0. -1.
</event>
<event>
 8    1  0.1129602E+005  0.1043930E+01  0.7957747E-01            NaN
         13   -1    0    0    0    0  0.00000000000E+00  0.00000000000E+00  0.74505805969E-08  0.10566000000E+00  0.10566000000E+00 0. -1.
     999900   -1    0    0    0    0 -0.00000000000E+00 -0.00000000000E+00 -0.74505805969E-08  0.93827000000E+00  0.93827000000E+00 0.  1.
     999902    2    1    2    0    0 -0.21861575652E-01  0.71880785933E-02 -0.54615648757E-02  0.10202778192E+01  0.10200036288E+01 0.  0.
     999903    2    3    3    0    0 -0.12201954979E+00  0.48321543404E-01 -0.14503413257E-01  0.13359561194E+00  0.20339529162E-01 0.  0.
         14    1    1    2    0    0  0.21861575652E-01 -0.71880785933E-02  0.54615648757E-02  0.23652180760E-01  0.00000000000E+00 0.  1.
     999901    1    3    3    0    0  0.10015797414E+00 -0.41133464811E-01  0.90418483817E-02  0.88668220729E+00  0.88000000000E+00 0.  1.
        -11    1    4    4    0    0 -0.58475399677E-01  0.24413320145E-01  0.31360903908E-02  0.63446660683E-01  0.51100000000E-03 0.  1.
         11    1    4    4    0    0 -0.63544150114E-01  0.23908223259E-01 -0.17639503648E-01  0.70148951262E-01  0.51100000000E-03 0. -1.
</event>
<event>
 8    1  0.1129602E+005  0.1043930E+01  0.7957747E-01            NaN
         13   -1    0    0    0    0  0.00000000000E+00  0.00000000000E+00  0.74505805969E-08  0.10566000000E+00  0.10566000000E+00 0. -1.
     999900   -1    0    0    0    0 -0.00000000000E+00 -0.00000000000E+00 -0.74505805969E-08  0.93827000000E+00  0.93827000000E+00 0.  1.
     999902    2    1    2    0    0 -0.64374203540E-02  0.44035200614E-02 -0.22553552586E-01  0.10200659244E+01  0.10197867405E+01 0.  0.
     999903    2    3    3    0    0 -0.70194397040E-02  0.17368978626E-01 -0.13047941987E+00  0.13337745900E+00  0.20339951006E-01 0.  0.
         14    1    1    2    0    0  0.64374203540E-02 -0.44035200614E-02  0.22553552586E-01  0.23864075595E-01  0.00000000000E+00 0. -1.
     999901    1    3    3    0    0  0.58201934996E-03 -0.12965458565E-01  0.10792586728E+00  0.88668846541E+00  0.88000000000E+00 0. -1.
        -11    1    4    4    0    0 -0.63439748099E-02  0.17795227155E-01 -0.60314665125E-01  0.63206297756E-01  0.51100000000E-03 0.  1.
         11    1    4    4    0    0 -0.67546489413E-03 -0.42624852908E-03 -0.70164754743E-01  0.70171161240E-01  0.51100000000E-03 0. -1.
</event>
<event>
 8    1  0.1143006E+005  0.1043930E+01  0.7957747E-01            NaN
         13   -1    0    0    0    0  0.00000000000E+00  0.00000000000E+00  0.74505805969E-08  0.10566000000E+00  0.10566000000E+00 0.  1.
     999900   -1    0    0    0    0 -0.00000000000E+00 -0.00000000000E+00 -0.74505805969E-08  0.93827000000E+00  0.93827000000E+00 0.  1.
     999902    2    1    2    0    0 -0.87647439989E-02  0.10163785141E-02 -0.22337884418E-01  0.10199126137E+01  0.10196297881E+01 0.  0.
     999903    2    3    3    0    0 -0.91495816892E-01  0.69767119826E-02 -0.94218959674E-01  0.13309423043E+00  0.20413299391E-01 0.  0.
         14    1    1    2    0    0  0.87647439989E-02 -0.10163785141E-02  0.22337884418E-01  0.24017386263E-01  0.00000000000E+00 0.  1.
     999901    1    3    3    0    0  0.82731072893E-01 -0.59603334685E-02  0.71881075256E-01  0.88681838331E+00  0.88000000000E+00 0. -1.
        -11    1    4    4    0    0 -0.62527357844E-01  0.59279634412E-04 -0.51455664183E-01  0.80979136144E-01  0.51100000000E-03 0.  1.
         11    1    4    4    0    0 -0.28968459047E-01  0.69174323482E-02 -0.42763295491E-01  0.52115094283E-01  0.51100000000E-03 0. -1.
</event>
<event>
 8    1  0.1129602E+005  0.1043930E+01  0.7957747E-01            NaN
         13   -1    0    0    0    0  0.00000000000E+00  0.00000000000E+00  0.74505805969E-08  0.10566000000E+00  0.10566000000E+00 0.  1.
     999900   -1    0    0    0    0 -0.00000000000E+00 -0.00000000000E+00 -0.74505805969E-08  0.93827000000E+00  0.93827000000E+00 0. -1.
     999902    2    1    2    0    0  0.12351011194E-01  0.15238180271E-01  0.12761180644E-01  0.10205292020E+01  0.10202608759E+01 0.  0.
     999903    2    3    3    0    0  0.10535207993E+00 -0.38648167806E-01 -0.63810780870E-01  0.13068865304E+00  0.20370730412E-01 0.  0.
         14    1    1    2    0    0 -0.12351011194E-01 -0.15238180271E-01 -0.12761180644E-01  0.23400797997E-01  0.00000000000E+00 0. -1.
     999901    1    3    3    0    0 -0.93001068735E-01  0.53886348076E-01  0.76571961513E-01  0.88984054897E+00  0.88000000000E+00 0.  1.
        -11    1    4    4    0    0  0.99731993945E-02  0.16791426309E-02 -0.88687145323E-02  0.13461034306E-01  0.51100000000E-03 0.  1.
         11    1    4    4    0    0  0.95378880534E-01 -0.40327310437E-01 -0.54942066337E-01  0.11722761873E+00  0.51100000000E-03 0. -1.
</event>
<event>
 8    1  0.1129602E+005  0.1043930E+01  0.7957747E-01            NaN
         13   -1    0    0    0    0  0.00000000000E+00  0.00000000000E+00  0.74505805969E-08  0.10566000000E+00  0.10566000000E+00 0.  1.
     999900   -1    0    0    0    0 -0.00000000000E+00 -0.00000000000E+00 -0.74505805969E-08  0.93827000000E+00  0.93827000000E+00 0. -1.
     999902    2    1    2    0    0 -0.24118556383E-01  0.52700578868E-02  0.34416127180E-02  0.10190036491E+01  0.10186987356E+01 0.  0.
     999903    2    3    3    0    0 -0.34078859094E-01 -0.95059451502E-01 -0.78510208886E-01  0.12946370104E+00  0.19983218756E-01 0.  0.
         14    1    1    2    0    0  0.24118556383E-01 -0.52700578868E-02 -0.34416127180E-02  0.24926350921E-01  0.00000000000E+00 0.  1.
     999901    1    3    3    0    0  0.99603027107E-02  0.10032950939E+00  0.81951821604E-01  0.88953994803E+00  0.88000000000E+00 0.  1.
        -11    1    4    4    0    0 -0.39255557498E-03 -0.25581574309E-01 -0.16709289345E-01  0.30561945544E-01  0.51100000000E-03 0.  1.
         11    1    4    4    0    0 -0.33686303519E-01 -0.69477877193E-01 -0.61800919541E-01  0.98901755501E-01  0.51100000000E-03 0. -1.
</event>
<event>
 8    1  0.1129602E+005  0.1043930E+01  0.7957747E-01            NaN
         13   -1    0    0    0    0  0.00000000000E+00  0.00000000000E+00  0.74505805969E-08  0.10566000000E+00  0.10566000000E+00 0. -1.
     999900   -1    0    0    0    0 -0.00000000000E+00 -0.00000000000E+00 -0.74505805969E-08  0.93827000000E+00  0.93827000000E+00 0. -1.
     999902    2    1    2    0    0 -0.62770798513E-02 -0.88947607243E-02  0.15408709947E-01  0.10250634465E+01  0.10248898099E+01 0.  0.
     999903    2    3    3    0    0  0.11367273185E+00  0.51194906893E-01 -0.42980884882E-01  0.13298269325E+00  0.17164841403E-01 0.  0.
         14    1    1    2    0    0  0.62770798513E-02  0.88947607243E-02 -0.15408709947E-01  0.18866553528E-01  0.00000000000E+00 0.  1.
     999901    1    3    3    0    0 -0.11994981170E+00 -0.60089667617E-01  0.58389594829E-01  0.89208075322E+00  0.88000000000E+00 0. -1.
        -11    1    4    4    0    0  0.21811618832E-01  0.45558476770E-02 -0.30715747779E-02  0.22498847898E-01  0.51100000000E-03 0.  1.
         11    1    4    4    0    0  0.91861113021E-01  0.46639059216E-01 -0.39909310104E-01  0.11048384535E+00  0.51100000000E-03 0. -1.
</event>
<event>
 8    1  0.1129602E+005  0.1043930E+01  0.7957747E-01            NaN
         13   -1    0    0    0    0  0.00000000000E+00  0.00000000000E+00  0.74505805969E-08  0.10566000000E+00  0.10566000000E+00 0.  1.
     999900   -1    0    0    0    0 -0.00000000000E+00 -0.00000000000E+00 -0.74505805969E-08  0.93827000000E+00  0.93827000000E+00 0.  1.
     999902    2    1    2    0    0  0.86694139219E-02 -0.47394730700E-02 -0.21608258504E-01  0.10201699878E+01  0.10198932620E+01 0.  0.
     999903    2    3    3    0    0  0.80129500026E-01 -0.53745874156E-01 -0.89903798141E-01  0.13328078844E+00  0.19280038511E-01 0.  0.
         14    1    1    2    0    0 -0.86694139219E-02  0.47394730700E-02  0.21608258504E-01  0.23760012169E-01  0.00000000000E+00 0.  1.
     999901    1    3    3    0    0 -0.71460086104E-01  0.49006401086E-01  0.68295539637E-01  0.88688919939E+00  0.88000000000E+00 0. -1.
        -11    1    4    4    0    0  0.56342758436E-02 -0.80512970025E-02 -0.16209941575E-01  0.18962905225E-01  0.51100000000E-03 0.  1.
         11    1    4    4    0    0  0.74495224182E-01 -0.45694577154E-01 -0.73693856566E-01  0.11431788322E+00  0.51100000000E-03 0. -1.
</event>
<event>
 8    1  0.1129602E+005  0.1043930E+01  0.7957747E-01            NaN
         13   -1    0    0    0    0  0.00000000000E+00  0.00000000000E+00  0.74505805969E-08  0.10566000000E+00  0.10566000000E+00 0. -1.
     999900   -1    0    0    0    0 -0.00000000000E+00 -0.00000000000E+00 -0.74505805969E-08  0.93827000000E+00  0.93827000000E+00 0.  1.
     999902    2    1    2    0    0  0.58432806683E-02 -0.20411985881E-01  0.86723453291E-02  0.10209952519E+01  0.10207376263E+01 0.  0.
     999903    2    3    3    0    0  0.12212124802E+00 -0.17644521014E-01 -0.42097810656E-01  0.13189130225E+00  0.19953987240E-01 0.  0.
         14    1    1    2    0    0 -0.58432806683E-02  0.20411985881E-01 -0.86723453291E-02  0.22934748093E-01  0.00000000000E+00 0.  1.
     999901    1    3    3    0    0 -0.11627796736E+00 -0.27674648675E-02  0.50770155986E-01  0.88910394966E+00  0.88000000000E+00 0.  1.
        -11    1    4    4    0    0  0.64042738302E-01 -0.15112233169E-01 -0.13804096252E-01  0.67235899004E-01  0.51100000000E-03 0. -1.
         11    1    4    4    0    0  0.58078509722E-01 -0.25322878448E-02 -0.28293714405E-01  0.64655403248E-01  0.51100000000E-03 0.  1.
</event>
<event>
 8    1  0.1129602E+005  0.1043930E+01  0.7957747E-01            NaN
         13   -1    0    0    0    0  0.00000000000E+00  0.00000000000E+00  0.74505805969E-08  0.10566000000E+00  0.10566000000E+00 0. -1.
     999900   -1    0    0    0    0 -0.00000000000E+00 -0.00000000000E+00 -0.74505805969E-08  0.93827000000E+00  0.93827000000E+00 0. -1.
     999902    2    1    2    0    0 -0.17816420292E-01  0.73005508319E-02  0.13625627610E-01  0.10203422786E+01  0.10200695980E+01 0.  0.
     999903    2    3    3    0    0 -0.11061397708E-02  0.96683664460E-01  0.88653434873E-01  0.13248094574E+00  0.18515262629E-01 0.  0.
         14    1    1    2    0    0  0.17816420292E-01 -0.73005508319E-02 -0.13625627610E-01  0.23587721429E-01  0.00000000000E+00 0.  1.
     999901    1    3    3    0    0 -0.16710280521E-01 -0.89383113628E-01 -0.75027807263E-01  0.88786133283E+00  0.88000000000E+00 0. -1.
        -11    1    4    4    0    0 -0.82141446765E-02  0.36871989318E-01  0.40300908589E-01  0.55239841809E-01  0.51100000000E-03 0. -1.
         11    1    4    4    0    0  0.71080049057E-02  0.59811675142E-01  0.48352526284E-01  0.77241103928E-01  0.51100000000E-03 0.  1.
</event>
<event>
 8    1  0.1129602E+005  0.1043930E+01  0.7957747E-01            NaN
         13   -1    0    0    0    0  0.00000000000E+00  0.00000000000E+00  0.74505805969E-08  0.10566000000E+00  0.10566000000E+00 0.  1.
     999900   -1    0    0    0    0 -0.00000000000E+00 -0.00000000000E+00 -0.74505805969E-08  0.93827000000E+00  0.93827000000E+00 0.  1.
     999902    2    1    2    0    0 -0.69940741257E-02  0.28030706597E-02 -0.22941817570E-01  0.10197825100E+01  0.10194965750E+01 0.  0.
     999903    2    3    3    0    0  0.88891916601E-01 -0.44447970334E-01  0.77567089847E-01  0.12763407813E+00  0.19910036872E-01 0.  0.
         14    1    1    2    0    0  0.69940741257E-02 -0.28030706597E-02  0.22941817570E-01  0.24147489961E-01  0.00000000000E+00 0. -1.
     999901    1    3    3    0    0 -0.95885990726E-01  0.47251040994E-01 -0.10050890742E+00  0.89214843191E+00  0.88000000000E+00 0.  1.
        -11    1    4    4    0    0  0.39697184645E-01 -0.23724466545E-01  0.24399746640E-01  0.52290778716E-01  0.51100000000E-03 0.  1.
         11    1    4    4    0    0  0.49194731955E-01 -0.20723503789E-01  0.53167343207E-01  0.75343299411E-01  0.51100000000E-03 0. -1.
</event>
<event>
 8    1  0.1129602E+005  0.1043930E+01  0.7957747E-01            NaN
         13   -1    0    0    0    0  0.00000000000E+00  0.00000000000E+00  0.74505805969E-08  0.10566000000E+00  0.10566000000E+00 0.  1.
     999900   -1    0    0    0    0 -0.00000000000E+00 -0.00000000000E+00 -0.74505805969E-08  0.93827000000E+00  0.93827000000E+00 0. -1.
     999902    2    1    2    0    0  0.18262312575E-01  0.94584687262E-02  0.11834793898E-01  0.10202015985E+01  0.10199256172E+01 0.  0.
     999903    2    3    3    0    0 -0.65761063463E-01  0.79434363354E-01 -0.76939133622E-01  0.12900164127E+00  0.93518778574E-02 0.  0.
         14    1    1    2    0    0 -0.18262312575E-01 -0.94584687262E-02 -0.11834793898E-01  0.23728401502E-01  0.00000000000E+00 0. -1.
     999901    1    3    3    0    0  0.84023376038E-01 -0.69975894628E-01  0.88773927520E-01  0.89119995722E+00  0.88000000000E+00 0. -1.
        -11    1    4    4    0    0 -0.13541230034E-01  0.14236546224E-01 -0.10604551533E-01  0.22332975472E-01  0.51100000000E-03 0.  1.
         11    1    4    4    0    0 -0.52219833428E-01  0.65197817131E-01 -0.66334582089E-01  0.10666866580E+00  0.51100000000E-03 0. -1.
</event>
<event>
 8    1  0.1129602E+005  0.1043930E+01  0.7957747E-01            NaN
         13   -1    0    0    0    0  0.00000000000E+00  0.00000000000E+00  0.74505805969E-08  0.10566000000E+00  0.10566000000E+00 0.  1.
     999900   -1    0    0    0    0 -0.00000000000E+00 -0.00000000000E+00 -0.74505805969E-08  0.93827000000E+00  0.93827000000E+00 0.  1.
     999902    2    1    2    0    0 -0.73332307017E-02  0.38478879451E-02 -0.21339953395E-01  0.10210394752E+01  0.10207828534E+01 0.  0.
     999903    2    3    3    0    0 -0.40835136478E-01  0.14570581636E-01 -0.12543839454E+00  0.13420587227E+00  0.19915197881E-01 0.  0.
         14    1    1    2    0    0  0.73332307017E-02 -0.38478879451E-02  0.21339953395E-01  0.22890524788E-01  0.00000000000E+00 0.  1.
     999901    1    3    3    0    0  0.33501905776E-01 -0.10722693691E-01  0.10409844115E+00  0.88683360294E+00  0.88000000000E+00 0. -1.
        -11    1    4    4    0    0 -0.23412949017E-01  0.17501463852E-01 -0.65776718741E-01  0.71981284151E-01  0.51100000000E-03 0.  1.
         11    1    4    4    0    0 -0.17422187461E-01 -0.29308822162E-02 -0.59661675803E-01  0.62224588123E-01  0.51100000000E-03 0. -1.
</event>
<event>
 8    1  0.1129602E+005  0.1043930E+01  0.7957747E-01            NaN
         13   -1    0    0    0    0  0.00000000000E+00  0.00000000000E+00  0.74505805969E-08  0.10566000000E+00  0.10566000000E+00 0. -1.
     999900   -1    0    0    0    0 -0.00000000000E+00 -0.00000000000E+00 -0.74505805969E-08  0.93827000000E+00  0.93827000000E+00 0.  1.
     999902    2    1    2    0    0 -0.16110344654E-01  0.44137623617E-02 -0.16726993521E-01  0.10202906934E+01  0.10200168049E+01 0.  0.
     999903    2    3    3    0    0 -0.13059351328E+00  0.59830291916E-03 -0.13024010991E-01  0.13285919426E+00  0.20661968908E-01 0.  0.
         14    1    1    2    0    0  0.16110344654E-01 -0.44137623617E-02  0.16726993521E-01  0.23639306574E-01  0.00000000000E+00 0. -1.
     999901    1    3    3    0    0  0.11448316863E+00  0.38154594426E-02 -0.37029825293E-02  0.88743149916E+00  0.88000000000E+00 0.  1.
        -11    1    4    4    0    0 -0.10573219737E+00  0.35164034535E-03 -0.22504452783E-02  0.10575796347E+00  0.51100000000E-03 0. -1.
         11    1    4    4    0    0 -0.24861315911E-01  0.24666257381E-03 -0.10773565713E-01  0.27101230792E-01  0.51100000000E-03 0.  1.
</event>
<event>
 8    1  0.1129602E+005  0.1043930E+01  0.7957747E-01            NaN
         13   -1    0    0    0    0  0.00000000000E+00  0.00000000000E+00  0.74505805969E-08  0.10566000000E+00  0.10566000000E+00 0. -1.
     999900   -1    0    0    0    0 -0.00000000000E+00 -0.00000000000E+00 -0.74505805969E-08  0.93827000000E+00  0.93827000000E+00 0. -1.
     999902    2    1    2    0    0 -0.22245575933E-01  0.77371718854E-02 -0.89997135330E-02  0.10187164259E+01  0.10184043558E+01 0.  0.
     999903    2    3    3    0    0  0.56422978991E-01  0.11187076602E+00  0.20880949488E-01  0.12858980510E+00  0.20017569183E-01 0.  0.
         14    1    1    2    0    0  0.22245575933E-01 -0.77371718854E-02  0.89997135330E-02  0.25213574143E-01  0.00000000000E+00 0.  1.
     999901    1    3    3    0    0 -0.78668554924E-01 -0.10413359413E+00 -0.29880663021E-01  0.89012662076E+00  0.88000000000E+00 0. -1.
        -11    1    4    4    0    0  0.51611036922E-01  0.96207739603E-01  0.24285194883E-01  0.11184659183E+00  0.51100000000E-03 0. -1.
         11    1    4    4    0    0  0.48119420682E-02  0.15663026416E-01 -0.34042453945E-02  0.16743213272E-01  0.51100000000E-03 0.  1.
</event>
<event>
 8    1  0.1129602E+005  0.1043930E+01  0.7957747E-01            NaN
         13   -1    0    0    0    0  0.00000000000E+00  0.00000000000E+00  0.74505805969E-08  0.10566000000E+00  0.10566000000E+00 0.  1.
     999900   -1    0    0    0    0 -0.00000000000E+00 -0.00000000000E+00 -0.74505805969E-08  0.93827000000E+00  0.93827000000E+00 0. -1.
     999902    2    1    2    0    0  0.10711123491E-01  0.21331213411E-01 -0.13346447013E-02  0.10200233041E+01  0.10197431102E+01 0.  0.
     999903    2    3    3    0    0  0.11910490045E+00 -0.46167917659E-01 -0.20150476585E-01  0.13060811472E+00  0.18302567948E-01 0.  0.
         14    1    1    2    0    0 -0.10711123491E-01 -0.21331213411E-01  0.13346447013E-02  0.23906695892E-01  0.00000000000E+00 0. -1.
     999901    1    3    3    0    0 -0.10839377696E+00  0.67499131070E-01  0.18815831883E-01  0.88941518938E+00  0.88000000000E+00 0.  1.
        -11    1    4    4    0    0  0.40448916419E-01 -0.12517690463E-01  0.14523774460E-02  0.42369540182E-01  0.51100000000E-03 0. -1.
         11    1    4    4    0    0  0.78655984029E-01 -0.33650227196E-01 -0.21602854031E-01  0.88238574542E-01  0.51100000000E-03 0.  1.
</event>
<event>
 8    1  0.1129602E+005  0.1043930E+01  0.7957747E-01            NaN
         13   -1    0    0    0    0  0.00000000000E+00  0.00000000000E+00  0.74505805969E-08  0.10566000000E+00  0.10566000000E+00 0. -1.
     999900   -1    0    0    0    0 -0.00000000000E+00 -0.00000000000E+00 -0.74505805969E-08  0.93827000000E+00  0.93827000000E+00 0. -1.
     999902    2    1    2    0    0  0.19442898421E-01  0.13243399803E-01 -0.38433963133E-02  0.10200933553E+01  0.10198148204E+01 0.  0.
     999903    2    3    3    0    0 -0.24993642117E-01 -0.22056139485E-01 -0.12413874308E+00  0.13009805523E+00  0.20097786120E-01 0.  0.
         14    1    1    2    0    0 -0.19442898421E-01 -0.13243399803E-01  0.38433963133E-02  0.23836644743E-01  0.00000000000E+00 0.  1.
     999901    1    3    3    0    0  0.44436540538E-01  0.35299539289E-01  0.12029534677E+00  0.88999530002E+00  0.88000000000E+00 0.  1.
        -11    1    4    4    0    0 -0.24545637239E-01 -0.17330933216E-01 -0.76040532610E-01  0.81763520437E-01  0.51100000000E-03 0. -1.
         11    1    4    4    0    0 -0.44800487844E-03 -0.47252062694E-02 -0.48098210470E-01  0.48334534798E-01  0.51100000000E-03 0.  1.
</event>
<event>
 8    1  0.1129602E+005  0.1043930E+01  0.7957747E-01            NaN
         13   -1    0    0    0    0  0.00000000000E+00  0.00000000000E+00  0.74505805969E-08  0.10566000000E+00  0.10566000000E+00 0. -1.
     999900   -1    0    0    0    0 -0.00000000000E+00 -0.00000000000E+00 -0.74505805969E-08  0.93827000000E+00  0.93827000000E+00 0. -1.
     999902    2    1    2    0    0  0.16505501807E-02  0.21343860612E-02 -0.23338490483E-01  0.10204360634E+01  0.10201655720E+01 0.  0.
     999903    2    3    3    0    0 -0.20487269891E-01  0.12251894799E+00  0.33695172554E-01  0.13013534759E+00  0.19215181333E-01 0.  0.
         14    1    1    2    0    0 -0.16505501807E-02 -0.21343860612E-02  0.23338490483E-01  0.23493936617E-01  0.00000000000E+00 0. -1.
     999901    1    3    3    0    0  0.22137820072E-01 -0.12038456193E+00 -0.57033663037E-01  0.89030071580E+00  0.88000000000E+00 0. -1.
        -11    1    4    4    0    0 -0.42763986231E-02  0.45874840504E-01  0.36170068860E-02  0.46218312780E-01  0.51100000000E-03 0. -1.
         11    1    4    4    0    0 -0.16210871268E-01  0.76644107487E-01  0.30078165668E-01  0.83917034806E-01  0.51100000000E-03 0.  1.
</event>
<event>
 8    1  0.1129602E+005  0.1043930E+01  0.7957747E-01            NaN
         13   -1    0    0    0    0  0.00000000000E+00  0.00000000000E+00  0.74505805969E-08  0.10566000000E+00  0.10566000000E+00 0. -1.
     999900   -1    0    0    0    0 -0.00000000000E+00 -0.00000000000E+00 -0.74505805969E-08  0.93827000000E+00  0.93827000000E+00 0. -1.
     999902    2    1    2    0    0 -0.20386936567E-01  0.11416685153E-01 -0.68485299864E-02  0.10195810730E+01  0.10192902895E+01 0.  0.
     999903    2    3    3    0    0  0.11841860839E+00 -0.41243825751E-01 -0.64060427246E-02  0.12714603083E+00  0.20026377525E-01 0.  0.
         14    1    1    2    0    0  0.20386936567E-01 -0.11416685153E-01  0.68485299864E-02  0.24348926988E-01  0.00000000000E+00 0. -1.
     999901    1    3    3    0    0 -0.13880554496E+00  0.52660510904E-01 -0.44248726178E-03  0.89243504218E+00  0.88000000000E+00 0.  1.
        -11    1    4    4    0    0  0.90300875391E-01 -0.38215785653E-01 -0.10295687013E-01  0.98594911945E-01  0.51100000000E-03 0. -1.
         11    1    4    4    0    0  0.28117733000E-01 -0.30280400972E-02  0.38896442886E-02  0.28551118885E-01  0.51100000000E-03 0.  1.
</event>
<event>
 8    1  0.1129602E+005  0.1043930E+01  0.7957747E-01            NaN
         13   -1    0    0    0    0  0.00000000000E+00  0.00000000000E+00  0.74505805969E-08  0.10566000000E+00  0.10566000000E+00 0.  1.
     999900   -1    0    0    0    0 -0.00000000000E+00 -0.00000000000E+00 -0.74505805969E-08  0.93827000000E+00  0.93827000000E+00 0. -1.
     999902    2    1    2    0    0  0.10539299686E-01  0.20863903840E-01  0.22640350643E-02  0.10204458527E+01  0.10201755893E+01 0.  0.
     999903    2    3    3    0    0 -0.67093310992E-01  0.39976730825E-01  0.10328867648E+00  0.13106511273E+00  0.20245041324E-01 0.  0.
         14    1    1    2    0    0 -0.10539299686E-01 -0.20863903840E-01 -0.22640350643E-02  0.23484147336E-01  0.00000000000E+00 0. -1.
     999901    1    3    3    0    0  0.77632610679E-01 -0.19112826984E-01 -0.10102464141E+00  0.88938073994E+00  0.88000000000E+00 0. -1.
        -11    1    4    4    0    0 -0.39806034135E-01  0.23446980050E-01  0.76659793265E-01  0.89505677203E-01  0.51100000000E-03 0. -1.
         11    1    4    4    0    0 -0.27287276857E-01  0.16529750774E-01  0.26628883214E-01  0.41559435525E-01  0.51100000000E-03 0.  1.
</event>
<event>
 8    1  0.1129602E+005  0.1043930E+01  0.7957747E-01            NaN
         13   -1    0    0    0    0  0.00000000000E+00  0.00000000000E+00  0.74505805969E-08  0.10566000000E+00  0.10566000000E+00 0. -1.
     999900   -1    0    0    0    0 -0.00000000000E+00 -0.00000000000E+00 -0.74505805969E-08  0.93827000000E+00  0.93827000000E+00 0. -1.
     999902    2    1    2    0    0  0.17872159380E-01 -0.10046287070E-01  0.13036744016E-01  0.10196339374E+01  0.10193444303E+01 0.  0.
     999903    2    3    3    0    0  0.95205919955E-01  0.49555754965E-01 -0.71029485043E-01  0.13025210440E+00  0.20012069157E-01 0.  0.
         14    1    1    2    0    0 -0.17872159380E-01  0.10046287070E-01 -0.13036744016E-01  0.24296062631E-01  0.00000000000E+00 0.  1.
     999901    1    3    3    0    0 -0.77333760574E-01 -0.59602042034E-01  0.84066229059E-01  0.88938183296E+00  0.88000000000E+00 0.  1.
        -11    1    4    4    0    0  0.14343489741E-01  0.14604307605E-01 -0.82448308615E-02  0.22073963294E-01  0.51100000000E-03 0.  1.
         11    1    4    4    0    0  0.80862430214E-01  0.34951447360E-01 -0.62784654181E-01  0.10817814111E+00  0.51100000000E-03 0. -1.
</event>
<event>
 8    1  0.1129602E+005  0.1043930E+01  0.7957747E-01            NaN
         13   -1    0    0    0    0  0.00000000000E+00  0.00000000000E+00  0.74505805969E-08  0.10566000000E+00  0.10566000000E+00 0. -1.
     999900   -1    0    0    0    0 -0.00000000000E+00 -0.00000000000E+00 -0.74505805969E-08  0.93827000000E+00  0.93827000000E+00 0. -1.
     999902    2    1    2    0    0 -0.10412538584E-01  0.11587870808E-01  0.16529853026E-01  0.10212157809E+01  0.10209631410E+01 0.  0.
     999903    2    3    3    0    0 -0.66987142700E-02  0.31516530792E-01  0.12833988074E+00  0.13390950552E+00  0.20553982458E-01 0.  0.
         14    1    1    2    0    0  0.10412538584E-01 -0.11587870808E-01 -0.16529853026E-01  0.22714219130E-01  0.00000000000E+00 0.  1.
     999901    1    3    3    0    0 -0.37138243143E-02 -0.19928659984E-01 -0.11181002771E+00  0.88730627535E+00  0.88000000000E+00 0. -1.
        -11    1    4    4    0    0 -0.73337507373E-02  0.21071919584E-01  0.48538287134E-01  0.53423179742E-01  0.51100000000E-03 0. -1.
         11    1    4    4    0    0  0.63503646735E-03  0.10444611207E-01  0.79801593603E-01  0.80486325777E-01  0.51100000000E-03 0.  1.
</event>
<event>
 8    1  0.1129602E+005  0.1043930E+01  0.7957747E-01            NaN
         13   -1    0    0    0    0  0.00000000000E+00  0.00000000000E+00  0.74505805969E-08  0.10566000000E+00  0.10566000000E+00 0. -1.
     999900   -1    0    0    0    0 -0.00000000000E+00 -0.00000000000E+00 -0.74505805969E-08  0.93827000000E+00  0.93827000000E+00 0. -1.
     999902    2    1    2    0    0 -0.22788020687E-01  0.81246591196E-02  0.56932159659E-02  0.10190760933E+01  0.10187729714E+01 0.  0.
     999903    2    3    3    0    0  0.78161315163E-01 -0.56515758660E-01 -0.80073219624E-01  0.12681770383E+00  0.19177782425E-01 0.  0.
         14    1    1    2    0    0  0.22788020687E-01 -0.81246591196E-02 -0.56932159659E-02  0.24853906749E-01  0.00000000000E+00 0. -1.
     999901    1    3    3    0    0 -0.10094933585E+00  0.64640417780E-01  0.85766435589E-01  0.89225838942E+00  0.88000000000E+00 0.  1.
        -11    1    4    4    0    0  0.46748164577E-01 -0.36982666243E-01 -0.60627368439E-01  0.85023805012E-01  0.51100000000E-03 0.  1.
         11    1    4    4    0    0  0.31413150586E-01 -0.19533092418E-01 -0.19445851184E-01  0.41793898818E-01  0.51100000000E-03 0. -1.
</event>
<event>
 8    1  0.1129602E+005  0.1043930E+01  0.7957747E-01            NaN
         13   -1    0    0    0    0  0.00000000000E+00  0.00000000000E+00  0.74505805969E-08  0.10566000000E+00  0.10566000000E+00 0.  1.
     999900   -1    0    0    0    0 -0.00000000000E+00 -0.00000000000E+00 -0.74505805969E-08  0.93827000000E+00  0.93827000000E+00 0.  1.
     999902    2    1    2    0    0 -0.70231013401E-02  0.21721941945E-01  0.63084665688E-02  0.10202453327E+01  0.10199703797E+01 0.  0.
     999903    2    3    3    0    0 -0.80032365166E-01  0.90427943890E-01 -0.51277285061E-01  0.13268294837E+00  0.19824538171E-01 0.  0.
         14    1    1    2    0    0  0.70231013401E-02 -0.21721941945E-01 -0.63084665688E-02  0.23684667292E-01  0.00000000000E+00 0. -1.
     999901    1    3    3    0    0  0.73009263826E-01 -0.68706001945E-01  0.57585751630E-01  0.88756238434E+00  0.88000000000E+00 0. -1.
        -11    1    4    4    0    0 -0.53023487718E-01  0.69160729740E-01 -0.29599000996E-01  0.92038354879E-01  0.51100000000E-03 0.  1.
         11    1    4    4    0    0 -0.27008877449E-01  0.21267214150E-01 -0.21678284065E-01  0.40644593487E-01  0.51100000000E-03 0. -1.
</event>
<event>
 8    1  0.1129602E+005  0.1043930E+01  0.7957747E-01            NaN
         13   -1    0    0    0    0  0.00000000000E+00  0.00000000000E+00  0.74505805969E-08  0.10566000000E+00  0.10566000000E+00 0. -1.
     999900   -1    0    0    0    0 -0.00000000000E+00 -0.00000000000E+00 -0.74505805969E-08  0.93827000000E+00  0.93827000000E+00 0. -1.
     999902    2    1    2    0    0  0.25308798683E-02  0.21717090190E-01  0.91259290375E-02  0.10202378085E+01  0.10199626787E+01 0.  0.
     999903    2    3    3    0    0 -0.11862471666E-01 -0.89015224509E-01  0.91095401109E-01  0.12940235315E+00  0.19549129615E-01 0.  0.
         14    1    1    2    0    0 -0.25308798683E-02 -0.21717090190E-01 -0.91259290375E-02  0.23692191541E-01  0.00000000000E+00 0. -1.
     999901    1    3    3    0    0  0.14393351535E-01  0.11073231470E+00 -0.81969472072E-01  0.89083545531E+00  0.88000000000E+00 0. -1.
        -11    1    4    4    0    0 -0.17264324635E-02 -0.69926155764E-01  0.74118844767E-01  0.10191423894E+00  0.51100000000E-03 0.  1.
         11    1    4    4    0    0 -0.10136039203E-01 -0.19089068745E-01  0.16976556342E-01  0.27488114204E-01  0.51100000000E-03 0. -1.
</event>
<event>
 8    1  0.1129602E+005  0.1043930E+01  0.7957747E-01            NaN
         13   -1    0    0    0    0  0.00000000000E+00  0.00000000000E+00  0.74505805969E-08  0.10566000000E+00  0.10566000000E+00 0. -1.
     999900   -1    0    0    0    0 -0.00000000000E+00 -0.00000000000E+00 -0.74505805969E-08  0.93827000000E+00  0.93827000000E+00 0. -1.
     999902    2    1    2    0    0  0.50432108412E-02  0.22467544630E-01  0.49932837278E-02  0.10203682212E+01  0.10200961472E+01 0.  0.
     999903    2    3    3    0    0 -0.84722307622E-01  0.69064916195E-01 -0.70139896232E-01  0.13139456689E+00  0.19927245357E-01 0.  0.
         14    1    1    2    0    0 -0.50432108412E-02 -0.22467544630E-01 -0.49932837278E-02  0.23561778789E-01  0.00000000000E+00 0.  1.
     999901    1    3    3    0    0  0.89765518464E-01 -0.46597371564E-01  0.75133179960E-01  0.88897365432E+00  0.88000000000E+00 0.  1.
        -11    1    4    4    0    0 -0.15943156148E-01  0.43454542515E-02 -0.12792713981E-01  0.20904110903E-01  0.51100000000E-03 0.  1.
         11    1    4    4    0    0 -0.68779151474E-01  0.64719461943E-01 -0.57347182251E-01  0.11049045599E+00  0.51100000000E-03 0. -1.
</event>
<event>
 8    1  0.1129602E+005  0.1043930E+01  0.7957747E-01            NaN
         13   -1    0    0    0    0  0.00000000000E+00  0.00000000000E+00  0.74505805969E-08  0.10566000000E+00  0.10566000000E+00 0. -1.
     999900   -1    0    0    0    0 -0.00000000000E+00 -0.00000000000E+00 -0.74505805969E-08  0.93827000000E+00  0.93827000000E+00 0. -1.
     999902    2    1    2    0    0 -0.13133662773E-01 -0.66233251464E-02  0.21151989395E-01  0.10181663009E+01  0.10178402862E+01 0.  0.
     999903    2    3    3    0    0  0.54562376095E-01  0.84203980709E-01  0.78827384098E-01  0.12903256279E+00  0.19190688464E-01 0.  0.
         14    1    1    2    0    0  0.13133662773E-01  0.66233251464E-02 -0.21151989395E-01  0.25763699058E-01  0.00000000000E+00 0.  1.
     999901    1    3    3    0    0 -0.67696038868E-01 -0.90827305855E-01 -0.57675394703E-01  0.88913373815E+00  0.88000000000E+00 0.  1.
        -11    1    4    4    0    0  0.51843050690E-01  0.66998510254E-01  0.66137430679E-01  0.10747522105E+00  0.51100000000E-03 0.  1.
         11    1    4    4    0    0  0.27193254055E-02  0.17205470455E-01  0.12689953418E-01  0.21557341742E-01  0.51100000000E-03 0. -1.
</event>
<event>
 8    1  0.1129602E+005  0.1043930E+01  0.7957747E-01            NaN
         13   -1    0    0    0    0  0.00000000000E+00  0.00000000000E+00  0.74505805969E-08  0.10566000000E+00  0.10566000000E+00 0.  1.
     999900   -1    0    0    0    0 -0.00000000000E+00 -0.00000000000E+00 -0.74505805969E-08  0.93827000000E+00  0.93827000000E+00 0. -1.
     999902    2    1    2    0    0  0.15043482095E-01  0.17723084632E-02 -0.47539747591E-02  0.10280539896E+01  0.10279313974E+01 0.  0.
     999903    2    3    3    0    0  0.50541872666E-01  0.10233880831E+00  0.75950795417E-01  0.13794893030E+00  0.15286316353E-01 0.  0.
         14    1    1    2    0    0 -0.15043482095E-01 -0.17723084632E-02  0.47539747591E-02  0.15876010420E-01  0.00000000000E+00 0.  1.
     999901    1    3    3    0    0 -0.35498390571E-01 -0.10056649985E+00 -0.80704770176E-01  0.89010505928E+00  0.88000000000E+00 0. -1.
        -11    1    4    4    0    0  0.20958904167E-01  0.29510551746E-01  0.29025262182E-01  0.46399087211E-01  0.51100000000E-03 0. -1.
         11    1    4    4    0    0  0.29582968499E-01  0.72828256565E-01  0.46925533235E-01  0.91549843090E-01  0.51100000000E-03 0.  1.
</event>
<event>
 8    1  0.1141100E+005  0.1043930E+01  0.7957747E-01            NaN
         13   -1    0    0    0    0  0.00000000000E+00  0.00000000000E+00  0.74505805969E-08  0.10566000000E+00  0.10566000000E+00 0.  1.
     999900   -1    0    0    0    0 -0.00000000000E+00 -0.00000000000E+00 -0.74505805969E-08  0.93827000000E+00  0.93827000000E+00 0. -1.
     999902    2    1    2    0    0 -0.21594374117E-01 -0.11563961482E-01  0.40358128889E-02  0.10191040059E+01  0.10188015728E+01 0.  0.
     999903    2    3    3    0    0  0.75267399303E-02 -0.12751582513E+00 -0.20642165393E-01  0.13067737605E+00  0.18263081557E-01 0.  0.
         14    1    1    2    0    0  0.21594374117E-01  0.11563961482E-01 -0.40358128889E-02  0.24825994126E-01  0.00000000000E+00 0.  1.
     999901    1    3    3    0    0 -0.29121114047E-01  0.11595186364E+00  0.24677978282E-01  0.88842662982E+00  0.88000000000E+00 0. -1.
        -11    1    4    4    0    0  0.60075673321E-02 -0.71244038061E-01 -0.25397692736E-02  0.71543800384E-01  0.51100000000E-03 0.  1.
         11    1    4    4    0    0  0.15191725982E-02 -0.56271787066E-01 -0.18102396119E-01  0.59133575667E-01  0.51100000000E-03 0. -1.
</event>
<event>
 8    1  0.1129602E+005  0.1043930E+01  0.7957747E-01            NaN
         13   -1    0    0    0    0  0.00000000000E+00  0.00000000000E+00  0.74505805969E-08  0.10566000000E+00  0.10566000000E+00 0. -1.
     999900   -1    0    0    0    0 -0.00000000000E+00 -0.00000000000E+00 -0.74505805969E-08  0.93827000000E+00  0.93827000000E+00 0. -1.
     999902    2    1    2    0    0 -0.62903554557E-02  0.19412512828E-01  0.12124392527E-01  0.10201936330E+01  0.10199174641E+01 0.  0.
     999903    2    3    3    0    0 -0.11579611862E+00 -0.24944667001E-01  0.52920118076E-01  0.13136104873E+00  0.20596327965E-01 0.  0.
         14    1    1    2    0    0  0.62903554557E-02 -0.19412512828E-01 -0.12124392527E-01  0.23736367039E-01  0.00000000000E+00 0. -1.
     999901    1    3    3    0    0  0.10950576317E+00  0.44357179830E-01 -0.40795725548E-01  0.88883258423E+00  0.88000000000E+00 0.  1.
        -11    1    4    4    0    0 -0.20597782083E-01  0.34367711690E-02  0.90289018217E-02  0.22756586122E-01  0.51100000000E-03 0.  1.
         11    1    4    4    0    0 -0.95198336541E-01 -0.28381438170E-01  0.43891216254E-01  0.10860446261E+00  0.51100000000E-03 0. -1.
</event>
<event>
 8    1  0.1129602E+005  0.1043930E+01  0.7957747E-01            NaN
         13   -1    0    0    0    0  0.00000000000E+00  0.00000000000E+00  0.74505805969E-08  0.10566000000E+00  0.10566000000E+00 0. -1.
     999900   -1    0    0    0    0 -0.00000000000E+00 -0.00000000000E+00 -0.74505805969E-08  0.93827000000E+00  0.93827000000E+00 0.  1.
     999902    2    1    2    0    0 -0.23665324109E-01 -0.12487400007E-02 -0.22640373059E-02  0.10201238499E+01  0.10198460356E+01 0.  0.
     999903    2    3    3    0    0  0.51981777899E-02 -0.10004493728E+00  0.80958143835E-01  0.13022513559E+00  0.19192559943E-01 0.  0.
         14    1    1    2    0    0  0.23665324109E-01  0.12487400007E-02  0.22640373059E-02  0.23806150081E-01  0.00000000000E+00 0.  1.
     999901    1    3    3    0    0 -0.28863501899E-01  0.98796197280E-01 -0.83222181141E-01  0.88989871433E+00  0.88000000000E+00 0.  1.
        -11    1    4    4    0    0 -0.32148215813E-02 -0.19162757967E-01  0.81602280251E-02  0.21080721362E-01  0.51100000000E-03 0.  1.
         11    1    4    4    0    0  0.84129993711E-02 -0.80882179313E-01  0.72797915810E-01  0.10914441422E+00  0.51100000000E-03 0. -1.
</event>
<event>
 8    1  0.1129602E+005  0.1043930E+01  0.7957747E-01            NaN
         13   -1    0    0    0    0  0.00000000000E+00  0.00000000000E+00  0.74505805969E-08  0.10566000000E+00  0.10566000000E+00 0.  1.
     999900   -1    0    0    0    0 -0.00000000000E+00 -0.00000000000E+00 -0.74505805969E-08  0.93827000000E+00  0.93827000000E+00 0.  1.
     999902    2    1    2    0    0 -0.18614200342E-01 -0.61141012957E-02  0.13649270181E-01  0.10200516989E+01  0.10197721780E+01 0.  0.
     999903    2    3    3    0    0  0.10146082504E+00 -0.76292308780E-01 -0.81089674460E-02  0.12886349571E+00  0.20621100283E-01 0.  0.
         14    1    1    2    0    0  0.18614200342E-01  0.61141012957E-02 -0.13649270181E-01  0.23878301144E-01  0.00000000000E+00 0.  1.
     999901    1    3    3    0    0 -0.12007502538E+00  0.70178207484E-01  0.21758237627E-01  0.89118820315E+00  0.88000000000E+00 0.  1.
        -11    1    4    4    0    0  0.64455041517E-01 -0.58789666147E-01 -0.10409610083E-01  0.87859537477E-01  0.51100000000E-03 0.  1.
         11    1    4    4    0    0  0.37005783520E-01 -0.17502642634E-01  0.23006426369E-02  0.41003958231E-01  0.51100000000E-03 0. -1.
</event>
<event>
 8    1  0.1129602E+005  0.1043930E+01  0.7957747E-01            NaN
         13   -1    0    0    0    0  0.00000000000E+00  0.00000000000E+00  0.74505805969E-08  0.10566000000E+00  0.10566000000E+00 0.  1.
     999900   -1    0    0    0    0 -0.00000000000E+00 -0.00000000000E+00 -0.74505805969E-08  0.93827000000E+00  0.93827000000E+00 0. -1.
     999902    2    1    2    0    0 -0.14203877623E-02 -0.77739151831E-02 -0.22185089886E-01  0.10203794274E+01  0.10201076151E+01 0.  0.
     999903    2    3    3    0    0  0.37007859743E-01  0.85640107875E-01 -0.92307110852E-01  0.13183004340E+00  0.12439769623E-01 0.  0.
         14    1    1    2    0    0  0.14203877623E-02  0.77739151831E-02  0.22185089886E-01  0.23550572646E-01  0.00000000000E+00 0.  1.
     999901    1    3    3    0    0 -0.38428247505E-01 -0.93414023058E-01  0.70122020965E-01  0.88854938396E+00  0.88000000000E+00 0. -1.
        -11    1    4    4    0    0  0.23962401135E-01  0.43411554601E-01 -0.43274149250E-01  0.65815445416E-01  0.51100000000E-03 0.  1.
         11    1    4    4    0    0  0.13045458607E-01  0.42228553274E-01 -0.49032961602E-01  0.66014597979E-01  0.51100000000E-03 0. -1.
</event>
<event>
 8    1  0.1129602E+005  0.1043930E+01  0.7957747E-01            NaN
         13   -1    0    0    0    0  0.00000000000E+00  0.00000000000E+00  0.74505805969E-08  0.10566000000E+00  0.10566000000E+00 0. -1.
     999900   -1    0    0    0    0 -0.00000000000E+00 -0.00000000000E+00 -0.74505805969E-08  0.93827000000E+00  0.93827000000E+00 0.  1.
     999902    2    1    2    0    0  0.15396342819E-01  0.96603649838E-02  0.15360850155E-01  0.10201324005E+01  0.10198547881E+01 0.  0.
     999903    2    3    3    0    0 -0.27606410264E-01 -0.12426502563E+00  0.89980305943E-02  0.12893896893E+00  0.18449462658E-01 0.  0.
         14    1    1    2    0    0 -0.15396342819E-01 -0.96603649838E-02 -0.15360850155E-01  0.23797599487E-01  0.00000000000E+00 0.  1.
     999901    1    3    3    0    0  0.43002753084E-01  0.13392539061E+00  0.63628195611E-02  0.89119343158E+00  0.88000000000E+00 0. -1.
        -11    1    4    4    0    0 -0.58410438493E-02 -0.68041784951E-01  0.31876078523E-02  0.68368298629E-01  0.51100000000E-03 0.  1.
         11    1    4    4    0    0 -0.21765366415E-01 -0.56223240677E-01  0.58104227420E-02  0.60570670302E-01  0.51100000000E-03 0. -1.
</event>
<event>
 8    1  0.1129602E+005  0.1043930E+01  0.7957747E-01            NaN
         13   -1    0    0    0    0  0.00000000000E+00  0.00000000000E+00  0.74505805969E-08  0.10566000000E+00  0.10566000000E+00 0.  1.
     999900   -1    0    0    0    0 -0.00000000000E+00 -0.00000000000E+00 -0.74505805969E-08  0.93827000000E+00  0.93827000000E+00 0. -1.
     999902    2    1    2    0    0  0.81009259077E-02  0.16652301917E-01  0.14834003699E-01  0.10202029727E+01  0.10199270237E+01 0.  0.
     999903    2    3    3    0    0 -0.34902958765E-01 -0.11069327996E+00 -0.49305002151E-01  0.12768964315E+00  0.20060981299E-01 0.  0.
         14    1    1    2    0    0 -0.81009259077E-02 -0.16652301917E-01 -0.14834003699E-01  0.23727027320E-01  0.00000000000E+00 0.  1.
     999901    1    3    3    0    0  0.43003884673E-01  0.12734558188E+00  0.64139005849E-01  0.89251332953E+00  0.88000000000E+00 0.  1.
        -11    1    4    4    0    0 -0.29365604541E-01 -0.63979928589E-01 -0.34307352448E-01  0.78313635756E-01  0.51100000000E-03 0.  1.
         11    1    4    4    0    0 -0.55373542243E-02 -0.46713351374E-01 -0.14997649703E-01  0.49376007392E-01  0.51100000000E-03 0. -1.
</event>
<event>
 8    1  0.1129602E+005  0.1043930E+01  0.7957747E-01            NaN
         13   -1    0    0    0    0  0.00000000000E+00  0.00000000000E+00  0.74505805969E-08  0.10566000000E+00  0.10566000000E+00 0. -1.
     999900   -1    0    0    0    0 -0.00000000000E+00 -0.00000000000E+00 -0.74505805969E-08  0.93827000000E+00  0.93827000000E+00 0. -1.
     999902    2    1    2    0    0 -0.78970838351E-02 -0.55842048233E-02 -0.21373872085E-01  0.10204696146E+01  0.10201999042E+01 0.  0.
     999903    2    3    3    0    0  0.12252131009E+00 -0.34750680513E-01  0.16192791897E-01  0.12958752640E+00  0.17653307533E-01 0.  0.
         14    1    1    2    0    0  0.78970838351E-02  0.55842048233E-02  0.21373872085E-01  0.23460385429E-01  0.00000000000E+00 0. -1.
     999901    1    3    3    0    0 -0.13041839393E+00  0.29166475690E-01 -0.37566663982E-01  0.89088208817E+00  0.88000000000E+00 0.  1.
        -11    1    4    4    0    0  0.77368478334E-01 -0.20270751833E-01  0.16920496154E-02  0.79999431076E-01  0.51100000000E-03 0. -1.
         11    1    4    4    0    0  0.45152831756E-01 -0.14479928680E-01  0.14500742282E-01  0.49588095325E-01  0.51100000000E-03 0.  1.
</event>
<event>
 8    1  0.1129602E+005  0.1043930E+01  0.7957747E-01            NaN
         13   -1    0    0    0    0  0.00000000000E+00  0.00000000000E+00  0.74505805969E-08  0.10566000000E+00  0.10566000000E+00 0.  1.
     999900   -1    0    0    0    0 -0.00000000000E+00 -0.00000000000E+00 -0.74505805969E-08  0.93827000000E+00  0.93827000000E+00 0. -1.
     999902    2    1    2    0    0 -0.16298670395E-01 -0.11100434948E-01 -0.11438142651E-01  0.10211331270E+01  0.10208786243E+01 0.  0.
     999903    2    3    3    0    0 -0.18106205934E-01  0.12659706346E+00 -0.15502351663E-01  0.13041409941E+00  0.20319036595E-01 0.  0.
         14    1    1    2    0    0  0.16298670395E-01  0.11100434948E-01  0.11438142651E-01  0.22796873031E-01  0.00000000000E+00 0.  1.
     999901    1    3    3    0    0  0.18075355395E-02 -0.13769749841E+00  0.40642090116E-02  0.89071902755E+00  0.88000000000E+00 0. -1.
        -11    1    4    4    0    0 -0.94765656256E-02  0.74061348107E-01  0.99826356149E-03  0.74673597949E-01  0.51100000000E-03 0. -1.
         11    1    4    4    0    0 -0.86296403086E-02  0.52535715356E-01 -0.16500615224E-01  0.55740501465E-01  0.51100000000E-03 0.  1.
</event>
<event>
 8    1  0.1297415E+005  0.1043930E+01  0.7957747E-01            NaN
         13   -1    0    0    0    0  0.00000000000E+00  0.00000000000E+00  0.74505805969E-08  0.10566000000E+00  0.10566000000E+00 0. -1.
     999900   -1    0    0    0    0 -0.00000000000E+00 -0.00000000000E+00 -0.74505805969E-08  0.93827000000E+00  0.93827000000E+00 0.  1.
     999902    2    1    2    0    0  0.26687355796E-02 -0.29933903154E-02  0.23429758614E-01  0.10201595115E+01  0.10198825387E+01 0.  0.
     999903    2    3    3    0    0 -0.45141228624E-01 -0.15702771969E-02  0.12379262578E+00  0.13316428995E+00  0.19181179013E-01 0.  0.
         14    1    1    2    0    0 -0.26687355796E-02  0.29933903154E-02 -0.23429758614E-01  0.23770488507E-01  0.00000000000E+00 0.  1.
     999901    1    3    3    0    0  0.47809964204E-01 -0.14231131184E-02 -0.10036286717E+00  0.88699522154E+00  0.88000000000E+00 0.  1.
        -11    1    4    4    0    0 -0.25783274777E-01 -0.85116500778E-02  0.54635560022E-01  0.61012547768E-01  0.51100000000E-03 0. -1.
         11    1    4    4    0    0 -0.19357953847E-01  0.69413728809E-02  0.69157065761E-01  0.72151742185E-01  0.51100000000E-03 0.  1.
</event>
<event>
 8    1  0.1129602E+005  0.1043930E+01  0.7957747E-01            NaN
         13   -1    0    0    0    0  0.00000000000E+00  0.00000000000E+00  0.74505805969E-08  0.10566000000E+00  0.10566000000E+00 0. -1.
     999900   -1    0    0    0    0 -0.00000000000E+00 -0.00000000000E+00 -0.74505805969E-08  0.93827000000E+00  0.93827000000E+00 0. -1.
     999902    2    1    2    0    0  0.66086802828E-02  0.20396142846E-01 -0.10721754144E-01  0.10199584896E+01  0.10196767562E+01 0.  0.
     999903    2    3    3    0    0 -0.10572557916E+00 -0.27914449160E-01 -0.66652794355E-01  0.12974436908E+00  0.20830068475E-01 0.  0.
         14    1    1    2    0    0 -0.66086802828E-02 -0.20396142846E-01  0.10721754144E-01  0.23971510382E-01  0.00000000000E+00 0. -1.
     999901    1    3    3    0    0  0.11233425944E+00  0.48310592006E-01  0.55931040211E-01  0.89021412054E+00  0.88000000000E+00 0.  1.
        -11    1    4    4    0    0 -0.39452272371E-01 -0.16020701382E-01 -0.16021486047E-01  0.45498283530E-01  0.51100000000E-03 0.  1.
         11    1    4    4    0    0 -0.66273306788E-01 -0.11893747778E-01 -0.50631308308E-01  0.84246085552E-01  0.51100000000E-03 0. -1.
</event>
<event>
 8    1  0.1129602E+005  0.1043930E+01  0.7957747E-01            NaN
         13   -1    0    0    0    0  0.00000000000E+00  0.00000000000E+00  0.74505805969E-08  0.10566000000E+00  0.10566000000E+00 0. -1.
     999900   -1    0    0    0    0 -0.00000000000E+00 -0.00000000000E+00 -0.74505805969E-08  0.93827000000E+00  0.93827000000E+00 0.  1.
     999902    2    1    2    0    0  0.31182470692E-03  0.24806307600E-01 -0.10335294923E-01  0.10170549474E+01  0.10166998070E+01 0.  0.
     999903    2    3    3    0    0 -0.58351308331E-01  0.78413241904E-01  0.81141173493E-01  0.12875150214E+00  0.20965389977E-01 0.  0.
         14    1    1    2    0    0 -0.31182470692E-03 -0.24806307600E-01  0.10335294923E-01  0.26875052605E-01  0.00000000000E+00 0. -1.
     999901    1    3    3    0    0  0.58663133038E-01 -0.53606934304E-01 -0.91476468416E-01  0.88830344526E+00  0.88000000000E+00 0.  1.
        -11    1    4    4    0    0 -0.31198842222E-01  0.45401750584E-01  0.32361653264E-01  0.63892287759E-01  0.51100000000E-03 0.  1.
         11    1    4    4    0    0 -0.27152466109E-01  0.33011491319E-01  0.48779520229E-01  0.64859214378E-01  0.51100000000E-03 0. -1.
</event>
<event>
 8    1  0.1129602E+005  0.1043930E+01  0.7957747E-01            NaN
         13   -1    0    0    0    0  0.00000000000E+00  0.00000000000E+00  0.74505805969E-08  0.10566000000E+00  0.10566000000E+00 0. -1.
     999900   -1    0    0    0    0 -0.00000000000E+00 -0.00000000000E+00 -0.74505805969E-08  0.93827000000E+00  0.93827000000E+00 0.  1.
     999902    2    1    2    0    0 -0.11799475278E-01  0.19623712509E-01  0.45480131917E-02  0.10205847192E+01  0.10203176795E+01 0.  0.
     999903    2    3    3    0    0  0.24155237987E-01 -0.10142328076E+00 -0.72097391543E-01  0.12827331954E+00  0.19643147286E-01 0.  0.
         14    1    1    2    0    0  0.11799475278E-01 -0.19623712509E-01 -0.45480131917E-02  0.23345280753E-01  0.00000000000E+00 0. -1.
     999901    1    3    3    0    0 -0.35954713264E-01  0.12104699327E+00  0.76645404734E-01  0.89231139971E+00  0.88000000000E+00 0. -1.
        -11    1    4    4    0    0  0.21665444418E-01 -0.49260751384E-01 -0.34564926199E-01  0.63960990868E-01  0.51100000000E-03 0. -1.
         11    1    4    4    0    0  0.24897935693E-02 -0.52162529376E-01 -0.37532465344E-01  0.64312328668E-01  0.51100000000E-03 0.  1.
</event>
<event>
 8    1  0.1129602E+005  0.1043930E+01  0.7957747E-01            NaN
         13   -1    0    0    0    0  0.00000000000E+00  0.00000000000E+00  0.74505805969E-08  0.10566000000E+00  0.10566000000E+00 0.  1.
     999900   -1    0    0    0    0 -0.00000000000E+00 -0.00000000000E+00 -0.74505805969E-08  0.93827000000E+00  0.93827000000E+00 0.  1.
     999902    2    1    2    0    0  0.19397534181E-01  0.11646050502E-01  0.66426219649E-02  0.10203499395E+01  0.10200774382E+01 0.  0.
     999903    2    3    3    0    0  0.11929819640E+00  0.47428503633E-01  0.29924281724E-01  0.13366929695E+00  0.22147137301E-01 0.  0.
         14    1    1    2    0    0 -0.19397534181E-01 -0.11646050502E-01 -0.66426219649E-02  0.23580060457E-01  0.00000000000E+00 0.  1.
     999901    1    3    3    0    0 -0.99900662217E-01 -0.35782453131E-01 -0.23281659759E-01  0.88668064259E+00  0.88000000000E+00 0.  1.
        -11    1    4    4    0    0  0.88798540925E-01  0.41954927683E-01  0.15285254874E-01  0.99394652597E-01  0.51100000000E-03 0.  1.
         11    1    4    4    0    0  0.30499655472E-01  0.54735759502E-02  0.14639026850E-01  0.34274644356E-01  0.51100000000E-03 0. -1.
</event>
<event>
 8    1  0.1129602E+005  0.1043930E+01  0.7957747E-01            NaN
         13   -1    0    0    0    0  0.00000000000E+00  0.00000000000E+00  0.74505805969E-08  0.10566000000E+00  0.10566000000E+00 0. -1.
     999900   -1    0    0    0    0 -0.00000000000E+00 -0.00000000000E+00 -0.74505805969E-08  0.93827000000E+00  0.93827000000E+00 0.  1.
     999902    2    1    2    0    0 -0.17474535799E-01 -0.73751241363E-02  0.16301594423E-01  0.10189201252E+01  0.10186131394E+01 0.  0.
     999903    2    3    3    0    0 -0.92386984445E-01 -0.44485051978E-01  0.81584747715E-01  0.13255061318E+00  0.19982974033E-01 0.  0.
         14    1    1    2    0    0  0.17474535799E-01  0.73751241363E-02 -0.16301594423E-01  0.25009874813E-01  0.00000000000E+00 0.  1.
     999901    1    3    3    0    0  0.74912448646E-01  0.37109927842E-01 -0.65283153292E-01  0.88636951200E+00  0.88000000000E+00 0. -1.
        -11    1    4    4    0    0 -0.53597284748E-01 -0.29073958471E-01  0.60046917352E-01  0.85579538431E-01  0.51100000000E-03 0.  1.
         11    1    4    4    0    0 -0.38789699697E-01 -0.15411093507E-01  0.21537830363E-01  0.46971074752E-01  0.51100000000E-03 0. -1.
</event>
<event>
 8    1  0.1129602E+005  0.1043930E+01  0.7957747E-01            NaN
         13   -1    0    0    0    0  0.00000000000E+00  0.00000000000E+00  0.74505805969E-08  0.10566000000E+00  0.10566000000E+00 0. -1.
     999900   -1    0    0    0    0 -0.00000000000E+00 -0.00000000000E+00 -0.74505805969E-08  0.93827000000E+00  0.93827000000E+00 0. -1.
     999902    2    1    2    0    0  0.64514570015E-02  0.23207693880E-01  0.90144867916E-02  0.10182107596E+01  0.10178858834E+01 0.  0.
     999903    2    3    3    0    0  0.65261318800E-02 -0.79241208240E-01 -0.95773567139E-01  0.12609175448E+00  0.20119515502E-01 0.  0.
         14    1    1    2    0    0 -0.64514570015E-02 -0.23207693880E-01 -0.90144867916E-02  0.25719240362E-01  0.00000000000E+00 0.  1.
     999901    1    3    3    0    0 -0.74674878544E-04  0.10244890212E+00  0.10478805393E+00  0.89211900516E+00  0.88000000000E+00 0.  1.
        -11    1    4    4    0    0 -0.46283987598E-02 -0.52792357469E-01 -0.67236033538E-01  0.85611917448E-01  0.51100000000E-03 0. -1.
         11    1    4    4    0    0  0.11154530640E-01 -0.26448850771E-01 -0.28537533602E-01  0.40479837030E-01  0.51100000000E-03 0.  1.
</event>
<event>
 8    1  0.1129602E+005  0.1043930E+01  0.7957747E-01            NaN
         13   -1    0    0    0    0  0.00000000000E+00  0.00000000000E+00  0.74505805969E-08  0.10566000000E+00  0.10566000000E+00 0. -1.
     999900   -1    0    0    0    0 -0.00000000000E+00 -0.00000000000E+00 -0.74505805969E-08  0.93827000000E+00  0.93827000000E+00 0.  1.
     999902    2    1    2    0    0 -0.19971667125E-01 -0.50453692258E-03  0.13205422200E-01  0.10199820310E+01  0.10197008573E+01 0.  0.
     999903    2    3    3    0    0  0.52304358671E-01 -0.11555943849E+00  0.16898579307E-01  0.12954669155E+00  0.20175568133E-01 0.  0.
         14    1    1    2    0    0  0.19971667125E-01  0.50453692258E-03 -0.13205422200E-01  0.23947969032E-01  0.00000000000E+00 0.  1.
     999901    1    3    3    0    0 -0.72276025796E-01  0.11505490156E+00 -0.36931571071E-02  0.89043533942E+00  0.88000000000E+00 0. -1.
        -11    1    4    4    0    0  0.27926853125E-01 -0.80662092159E-01  0.58326448683E-02  0.85560289294E-01  0.51100000000E-03 0.  1.
         11    1    4    4    0    0  0.24377505546E-01 -0.34897346327E-01  0.11065934439E-01  0.43986402254E-01  0.51100000000E-03 0. -1.
</event>
<event>
 8    1  0.1129602E+005  0.1043930E+01  0.7957747E-01            NaN
         13   -1    0    0    0    0  0.00000000000E+00  0.00000000000E+00  0.74505805969E-08  0.10566000000E+00  0.10566000000E+00 0.  1.
     999900   -1    0    0    0    0 -0.00000000000E+00 -0.00000000000E+00 -0.74505805969E-08  0.93827000000E+00  0.93827000000E+00 0. -1.
     999902    2    1    2    0    0  0.84721313567E-02  0.22294274432E-01  0.31902981243E-04  0.10200802055E+01  0.10198013595E+01 0.  0.
     999903    2    3    3    0    0  0.13962235148E-01  0.12905144847E+00 -0.23621494260E-01  0.13329572281E+00  0.18988269151E-01 0.  0.
         14    1    1    2    0    0 -0.84721313567E-02 -0.22294274432E-01 -0.31902981243E-04  0.23849794548E-01  0.00000000000E+00 0.  1.
     999901    1    3    3    0    0 -0.54901037909E-02 -0.10675717404E+00  0.23653397241E-01  0.88678448264E+00  0.88000000000E+00 0.  1.
        -11    1    4    4    0    0  0.84225179945E-02  0.66840629403E-01 -0.21798990672E-01  0.70810067530E-01  0.51100000000E-03 0.  1.
         11    1    4    4    0    0  0.55397171531E-02  0.62210819072E-01 -0.18225035879E-02  0.62485655282E-01  0.51100000000E-03 0. -1.
</event>
<event>
 8    1  0.1129602E+005  0.1043930E+01  0.7957747E-01            NaN
         13   -1    0    0    0    0  0.00000000000E+00  0.00000000000E+00  0.74505805969E-08  0.10566000000E+00  0.10566000000E+00 0. -1.
     999900   -1    0    0    0    0 -0.00000000000E+00 -0.00000000000E+00 -0.74505805969E-08  0.93827000000E+00  0.93827000000E+00 0. -1.
     999902    2    1    2    0    0  0.16631619154E-01  0.25376251898E-03  0.16456891454E-01  0.10205311875E+01  0.10202629074E+01 0.  0.
     999903    2    3    3    0    0  0.77328879680E-01 -0.10057949226E+00 -0.28587688887E-01  0.13155395666E+00  0.19829212308E-01 0.  0.
         14    1    1    2    0    0 -0.16631619154E-01 -0.25376251898E-03 -0.16456891454E-01  0.23398812522E-01  0.00000000000E+00 0.  1.
     999901    1    3    3    0    0 -0.60697260526E-01  0.10083325477E+00  0.45044580341E-01  0.88897723082E+00  0.88000000000E+00 0.  1.
        -11    1    4    4    0    0  0.39957665610E-01 -0.36812221385E-01 -0.88249830783E-02  0.55044492291E-01  0.51100000000E-03 0. -1.
         11    1    4    4    0    0  0.37371214071E-01 -0.63767270870E-01 -0.19762705809E-01  0.76509464364E-01  0.51100000000E-03 0.  1.
</event>
<event>
 8    1  0.1129602E+005  0.1043930E+01  0.7957747E-01            NaN
         13   -1    0    0    0    0  0.00000000000E+00  0.00000000000E+00  0.74505805969E-08  0.10566000000E+00  0.10566000000E+00 0. -1.
     999900   -1    0    0    0    0 -0.00000000000E+00 -0.00000000000E+00 -0.74505805969E-08  0.93827000000E+00  0.93827000000E+00 0. -1.
     999902    2    1    2    0    0  0.15197150904E-01 -0.18745884201E-01 -0.32555265986E-03  0.10197956354E+01  0.10195100149E+01 0.  0.
     999903    2    3    3    0    0  0.90409620992E-01  0.89879759410E-01  0.15068727241E-01  0.12979932644E+00  0.19197080108E-01 0.  0.
         14    1    1    2    0    0 -0.15197150904E-01  0.18745884201E-01  0.32555265986E-03  0.24134364599E-01  0.00000000000E+00 0.  1.
     999901    1    3    3    0    0 -0.75212470088E-01 -0.10862564361E+00 -0.15394279901E-01  0.88999630896E+00  0.88000000000E+00 0. -1.
        -11    1    4    4    0    0  0.52159715747E-01  0.63784908939E-01  0.60211364997E-02  0.82617587479E-01  0.51100000000E-03 0.  1.
         11    1    4    4    0    0  0.38249905245E-01  0.26094850471E-01  0.90475907415E-02  0.47181738963E-01  0.51100000000E-03 0. -1.
</event>
<event>
 8    1  0.1129602E+005  0.1043930E+01  0.7957747E-01            NaN
         13   -1    0    0    0    0  0.00000000000E+00  0.00000000000E+00  0.74505805969E-08  0.10566000000E+00  0.10566000000E+00 0.  1.
     999900   -1    0    0    0    0 -0.00000000000E+00 -0.00000000000E+00 -0.74505805969E-08  0.93827000000E+00  0.93827000000E+00 0.  1.
     999902    2    1    2    0    0  0.10196152610E-01 -0.20009347534E-01  0.35594395818E-02  0.10211922533E+01  0.10209390839E+01 0.  0.
     999903    2    3    3    0    0  0.25241060645E-01  0.55342857718E-01  0.11417455829E+00  0.13094509175E+00  0.20269293254E-01 0.  0.
         14    1    1    2    0    0 -0.10196152610E-01  0.20009347534E-01 -0.35594395818E-02  0.22737746742E-01  0.00000000000E+00 0.  1.
     999901    1    3    3    0    0 -0.15044908035E-01 -0.75352205252E-01 -0.11061511871E+00  0.89024716151E+00  0.88000000000E+00 0.  1.
        -11    1    4    4    0    0  0.19099229909E-01  0.39327010129E-01  0.98226660743E-01  0.10751805574E+00  0.51100000000E-03 0.  1.
         11    1    4    4    0    0  0.61418307365E-02  0.16015847590E-01  0.15947897545E-01  0.23427036004E-01  0.51100000000E-03 0. -1.
</event>
<event>
 8    1  0.1129602E+005  0.1043930E+01  0.7957747E-01            NaN
         13   -1    0    0    0    0  0.00000000000E+00  0.00000000000E+00  0.74505805969E-08  0.10566000000E+00  0.10566000000E+00 0. -1.
     999900   -1    0    0    0    0 -0.00000000000E+00 -0.00000000000E+00 -0.74505805969E-08  0.93827000000E+00  0.93827000000E+00 0.  1.
     999902    2    1    2    0    0  0.39282578922E-02  0.11941564286E-01  0.20767950354E-01  0.10196536755E+01  0.10193646443E+01 0.  0.
     999903    2    3    3    0    0  0.43781198697E-01  0.68944966573E-01 -0.97858689374E-01  0.12897420209E+00  0.19693144581E-01 0.  0.
         14    1    1    2    0    0 -0.39282578922E-02 -0.11941564286E-01 -0.20767950354E-01  0.24276324466E-01  0.00000000000E+00 0.  1.
     999901    1    3    3    0    0 -0.39852940804E-01 -0.57003402287E-01  0.11862663973E+00  0.89067947344E+00  0.88000000000E+00 0. -1.
        -11    1    4    4    0    0  0.36314511421E-01  0.47662080204E-01 -0.59322560992E-01  0.84319896779E-01  0.51100000000E-03 0.  1.
         11    1    4    4    0    0  0.74666872752E-02  0.21282886369E-01 -0.38536128382E-01  0.44654305310E-01  0.51100000000E-03 0. -1.
</event>
<event>
 8    1  0.1129602E+005  0.1043930E+01  0.7957747E-01            NaN
         13   -1    0    0    0    0  0.00000000000E+00  0.00000000000E+00  0.74505805969E-08  0.10566000000E+00  0.10566000000E+00 0. -1.
     999900   -1    0    0    0    0 -0.00000000000E+00 -0.00000000000E+00 -0.74505805969E-08  0.93827000000E+00  0.93827000000E+00 0. -1.
     999902    2    1    2    0    0  0.20847755404E-01 -0.48282269551E-02 -0.83031922830E-02  0.10209760530E+01  0.10207179910E+01 0.  0.
     999903    2    3    3    0    0 -0.10415359221E+00  0.71342293446E-01  0.67736789037E-02  0.12875713528E+00  0.24389004801E-01 0.  0.
         14    1    1    2    0    0 -0.20847755404E-01  0.48282269551E-02  0.83031922830E-02  0.22953947002E-01  0.00000000000E+00 0. -1.
     999901    1    3    3    0    0  0.12500134762E+00 -0.76170520401E-01 -0.15076871187E-01  0.89221891772E+00  0.88000000000E+00 0. -1.
        -11    1    4    4    0    0 -0.26953150803E-01  0.14294278864E-01  0.11597795539E-01  0.32643050237E-01  0.51100000000E-03 0. -1.
         11    1    4    4    0    0 -0.77200441410E-01  0.57048014583E-01 -0.48241166353E-02  0.96114085045E-01  0.51100000000E-03 0.  1.
</event>
<event>
 8    1  0.1129602E+005  0.1043930E+01  0.7957747E-01            NaN
         13   -1    0    0    0    0  0.00000000000E+00  0.00000000000E+00  0.74505805969E-08  0.10566000000E+00  0.10566000000E+00 0. -1.
     999900   -1    0    0    0    0 -0.00000000000E+00 -0.00000000000E+00 -0.74505805969E-08  0.93827000000E+00  0.93827000000E+00 0.  1.
     999902    2    1    2    0    0  0.75405857650E-02  0.11615357101E-01 -0.19234613412E-01  0.10202287910E+01  0.10199534493E+01 0.  0.
     999903    2    3    3    0    0 -0.32640537133E-01 -0.27229247753E-01 -0.12367742832E+00  0.13229200974E+00  0.19955775276E-01 0.  0.
         14    1    1    2    0    0 -0.75405857650E-02 -0.11615357101E-01  0.19234613412E-01  0.23701208985E-01  0.00000000000E+00 0.  1.
     999901    1    3    3    0    0  0.40181122897E-01  0.38844604853E-01  0.10444281491E+00  0.88793678128E+00  0.88000000000E+00 0. -1.
        -11    1    4    4    0    0 -0.26690436285E-01 -0.17446689289E-01 -0.10956409112E+00  0.11411098781E+00  0.51100000000E-03 0. -1.
         11    1    4    4    0    0 -0.59501008479E-02 -0.97825584638E-02 -0.14113337201E-01  0.18181021922E-01  0.51100000000E-03 0.  1.
</event>
<event>
 8    1  0.1129602E+005  0.1043930E+01  0.7957747E-01            NaN
         13   -1    0    0    0    0  0.00000000000E+00  0.00000000000E+00  0.74505805969E-08  0.10566000000E+00  0.10566000000E+00 0. -1.
     999900   -1    0    0    0    0 -0.00000000000E+00 -0.00000000000E+00 -0.74505805969E-08  0.93827000000E+00  0.93827000000E+00 0. -1.
     999902    2    1    2    0    0 -0.54318763412E-02  0.22880687920E-01  0.10157981540E-02  0.10203914570E+01  0.10201199256E+01 0.  0.
     999903    2    3    3    0    0  0.73902400138E-01  0.56838119842E-01  0.90844770258E-01  0.13161911336E+00  0.19459756030E-01 0.  0.
         14    1    1    2    0    0  0.54318763412E-02 -0.22880687920E-01 -0.10157981540E-02  0.23538542991E-01  0.00000000000E+00 0.  1.
     999901    1    3    3    0    0 -0.79334276479E-01 -0.33957431922E-01 -0.89828972104E-01  0.88877234365E+00  0.88000000000E+00 0.  1.
        -11    1    4    4    0    0  0.35697183121E-01  0.25600573038E-01  0.29638698761E-01  0.52994262028E-01  0.51100000000E-03 0. -1.
         11    1    4    4    0    0  0.38205217018E-01  0.31237546803E-01  0.61206071498E-01  0.78624851331E-01  0.51100000000E-03 0.  1.
</event>
<event>
 8    1  0.1129602E+005  0.1043930E+01  0.7957747E-01            NaN
         13   -1    0    0    0    0  0.00000000000E+00  0.00000000000E+00  0.74505805969E-08  0.10566000000E+00  0.10566000000E+00 0.  1.
     999900   -1    0    0    0    0 -0.00000000000E+00 -0.00000000000E+00 -0.74505805969E-08  0.93827000000E+00  0.93827000000E+00 0. -1.
     999902    2    1    2    0    0  0.20002828728E-01  0.75881225345E-02 -0.90561049402E-02  0.10206984310E+01  0.10204340161E+01 0.  0.
     999903    2    3    3    0    0  0.78752724054E-01  0.10086058851E+00 -0.31237646442E-01  0.13354380870E+00  0.21984276808E-01 0.  0.
         14    1    1    2    0    0 -0.20002828728E-01 -0.75881225345E-02  0.90561049402E-02  0.23231568983E-01  0.00000000000E+00 0. -1.
     999901    1    3    3    0    0 -0.58749895327E-01 -0.93272465977E-01  0.22181541502E-01  0.88715462231E+00  0.88000000000E+00 0.  1.
        -11    1    4    4    0    0  0.33866758027E-01  0.59054083785E-01 -0.11071071749E-01  0.68972254288E-01  0.51100000000E-03 0.  1.
         11    1    4    4    0    0  0.44885966027E-01  0.41806504727E-01 -0.20166574694E-01  0.64571554415E-01  0.51100000000E-03 0. -1.
</event>
<event>
 8    1  0.1129602E+005  0.1043930E+01  0.7957747E-01            NaN
         13   -1    0    0    0    0  0.00000000000E+00  0.00000000000E+00  0.74505805969E-08  0.10566000000E+00  0.10566000000E+00 0.  1.
     999900   -1    0    0    0    0 -0.00000000000E+00 -0.00000000000E+00 -0.74505805969E-08  0.93827000000E+00  0.93827000000E+00 0. -1.
     999902    2    1    2    0    0  0.21009801502E-01  0.67993867860E-02 -0.16950769722E-01  0.10160916808E+01  0.10157102598E+01 0.  0.
     999903    2    3    3    0    0  0.39308571639E-01  0.10655965681E+00 -0.58646948339E-01  0.12928531653E+00  0.19367608437E-01 0.  0.
         14    1    1    2    0    0 -0.21009801502E-01 -0.67993867860E-02  0.16950769722E-01  0.27838319166E-01  0.00000000000E+00 0.  1.
     999901    1    3    3    0    0 -0.18298770137E-01 -0.99760270023E-01  0.41696178617E-01  0.88680636431E+00  0.88000000000E+00 0.  1.
        -11    1    4    4    0    0  0.20009532046E-01  0.68299860903E-01 -0.45442294346E-01  0.84442380405E-01  0.51100000000E-03 0. -1.
         11    1    4    4    0    0  0.19299039593E-01  0.38259795907E-01 -0.13204653993E-01  0.44842936123E-01  0.51100000000E-03 0.  1.
</event>
<event>
 8    1  0.1129602E+005  0.1043930E+01  0.7957747E-01            NaN
         13   -1    0    0    0    0  0.00000000000E+00  0.00000000000E+00  0.74505805969E-08  0.10566000000E+00  0.10566000000E+00 0. -1.
     999900   -1    0    0    0    0 -0.00000000000E+00 -0.00000000000E+00 -0.74505805969E-08  0.93827000000E+00  0.93827000000E+00 0.  1.
     999902    2    1    2    0    0 -0.14701349498E-01 -0.18027663290E-01 -0.84841157229E-02  0.10191690117E+01  0.10188681799E+01 0.  0.
     999903    2    3    3    0    0 -0.36713208630E-01 -0.52936565410E-01 -0.11344010071E+00  0.13197178891E+00  0.19943845514E-01 0.  0.
         14    1    1    2    0    0  0.14701349498E-01  0.18027663290E-01  0.84841157229E-02  0.24760988275E-01  0.00000000000E+00 0. -1.
     999901    1    3    3    0    0  0.22011859132E-01  0.34908902121E-01  0.10495598498E+00  0.88719722282E+00  0.88000000000E+00 0. -1.
        -11    1    4    4    0    0 -0.10749458479E-01 -0.37691731918E-02 -0.25409871475E-01  0.27851036130E-01  0.51100000000E-03 0. -1.
         11    1    4    4    0    0 -0.25963750151E-01 -0.49167392219E-01 -0.88030229232E-01  0.10412075278E+00  0.51100000000E-03 0.  1.
</event>
<event>
 8    1  0.1129602E+005  0.1043930E+01  0.7957747E-01            NaN
         13   -1    0    0    0    0  0.00000000000E+00  0.00000000000E+00  0.74505805969E-08  0.10566000000E+00  0.10566000000E+00 0. -1.
     999900   -1    0    0    0    0 -0.00000000000E+00 -0.00000000000E+00 -0.74505805969E-08  0.93827000000E+00  0.93827000000E+00 0.  1.
     999902    2    1    2    0    0 -0.21376155998E-02  0.45365984871E-02  0.22198033741E-01  0.10211725215E+01  0.10209189076E+01 0.  0.
     999903    2    3    3    0    0 -0.90182171392E-01 -0.72544697844E-01 -0.55823687771E-01  0.13000432239E+00  0.19730243342E-01 0.  0.
         14    1    1    2    0    0  0.21376155998E-02 -0.45365984871E-02 -0.22198033741E-01  0.22757478513E-01  0.00000000000E+00 0.  1.
     999901    1    3    3    0    0  0.88044555792E-01  0.77081296331E-01  0.78021721512E-01  0.89116819909E+00  0.88000000000E+00 0.  1.
        -11    1    4    4    0    0 -0.44520541568E-01 -0.34758864172E-01 -0.16391169807E-01  0.58814869112E-01  0.51100000000E-03 0.  1.
         11    1    4    4    0    0 -0.45661629824E-01 -0.37785833672E-01 -0.39432517964E-01  0.71189453281E-01  0.51100000000E-03 0. -1.
</event>
<event>
 8    1  0.1129602E+005  0.1043930E+01  0.7957747E-01            NaN
         13   -1    0    0    0    0  0.00000000000E+00  0.00000000000E+00  0.74505805969E-08  0.10566000000E+00  0.10566000000E+00 0.  1.
     999900   -1    0    0    0    0 -0.00000000000E+00 -0.00000000000E+00 -0.74505805969E-08  0.93827000000E+00  0.93827000000E+00 0. -1.
     999902    2    1    2    0    0  0.46213468726E-02 -0.27381544761E-01 -0.64905565293E-02  0.10154127567E+01  0.10150122331E+01 0.  0.
     999903    2    3    3    0    0  0.42523388568E-01 -0.10794427612E-01 -0.11795141730E+00  0.12741770003E+00  0.19949315618E-01 0.  0.
         14    1    1    2    0    0 -0.46213468726E-02  0.27381544761E-01  0.64905565293E-02  0.28517243283E-01  0.00000000000E+00 0.  1.
     999901    1    3    3    0    0 -0.37902041696E-01 -0.16587117149E-01  0.11146086077E+00  0.88799505669E+00  0.88000000000E+00 0.  1.
        -11    1    4    4    0    0  0.17737292922E-01 -0.12132248542E-01 -0.72596893005E-01  0.75712436295E-01  0.51100000000E-03 0. -1.
         11    1    4    4    0    0  0.24786095647E-01  0.13378209293E-02 -0.45354524299E-01  0.51705263732E-01  0.51100000000E-03 0.  1.
</event>
<event>
 8    1  0.1129602E+005  0.1043930E+01  0.7957747E-01            NaN
         13   -1    0    0    0    0  0.00000000000E+00  0.00000000000E+00  0.74505805969E-08  0.10566000000E+00  0.10566000000E+00 0. -1.
     999900   -1    0    0    0    0 -0.00000000000E+00 -0.00000000000E+00 -0.74505805969E-08  0.93827000000E+00  0.93827000000E+00 0. -1.
     999902    2    1    2    0    0  0.69315815156E-02  0.27501622126E-02  0.22026117099E-01  0.10206757520E+01  0.10204108147E+01 0.  0.
     999903    2    3    3    0    0 -0.62481954553E-01  0.28083126170E-01  0.11214894256E+00  0.13299218131E+00  0.20417599049E-01 0.  0.
         14    1    1    2    0    0 -0.69315815156E-02 -0.27501622126E-02 -0.22026117099E-01  0.23254247977E-01  0.00000000000E+00 0.  1.
     999901    1    3    3    0    0  0.69413536069E-01 -0.25332963958E-01 -0.90122825460E-01  0.88768357072E+00  0.88000000000E+00 0. -1.
        -11    1    4    4    0    0 -0.16169862474E-01  0.16645079744E-01  0.29186202819E-01  0.37291000095E-01  0.51100000000E-03 0.  1.
         11    1    4    4    0    0 -0.46312092079E-01  0.11438046426E-01  0.82962739741E-01  0.95701181210E-01  0.51100000000E-03 0. -1.
</event>
<event>
 8    1  0.1129602E+005  0.1043930E+01  0.7957747E-01            NaN
         13   -1    0    0    0    0  0.00000000000E+00  0.00000000000E+00  0.74505805969E-08  0.10566000000E+00  0.10566000000E+00 0.  1.
     999900   -1    0    0    0    0 -0.00000000000E+00 -0.00000000000E+00 -0.74505805969E-08  0.93827000000E+00  0.93827000000E+00 0. -1.
     999902    2    1    2    0    0  0.18908646784E-01  0.41352560475E-02 -0.10040734465E-01  0.10221251011E+01  0.10218924937E+01 0.  0.
     999903    2    3    3    0    0 -0.11328317696E+00  0.58886436181E-01 -0.18468433796E-01  0.13052911858E+00  0.19901688474E-01 0.  0.
         14    1    1    2    0    0 -0.18908646784E-01 -0.41352560475E-02  0.10040734465E-01  0.21804898862E-01  0.00000000000E+00 0.  1.
     999901    1    3    3    0    0  0.13219182374E+00 -0.54751180133E-01  0.84276993314E-02  0.89159598255E+00  0.88000000000E+00 0.  1.
        -11    1    4    4    0    0 -0.46557053729E-01  0.20967689620E-01 -0.16819345360E-01  0.53762019672E-01  0.51100000000E-03 0. -1.
         11    1    4    4    0    0 -0.66726123228E-01  0.37918746561E-01 -0.16490884368E-02  0.76767098913E-01  0.51100000000E-03 0.  1.
</event>
<event>
 8    1  0.1129602E+005  0.1043930E+01  0.7957747E-01            NaN
         13   -1    0    0    0    0  0.00000000000E+00  0.00000000000E+00  0.74505805969E-08  0.10566000000E+00  0.10566000000E+00 0. -1.
     999900   -1    0    0    0    0 -0.00000000000E+00 -0.00000000000E+00 -0.74505805969E-08  0.93827000000E+00  0.93827000000E+00 0.  1.
     999902    2    1    2    0    0 -0.50997681367E-02 -0.87741079018E-02 -0.21147974164E-01  0.10204730306E+01  0.10202033997E+01 0.  0.
     999903    2    3    3    0    0 -0.94420833465E-02  0.17614342826E-01 -0.13034145761E+00  0.13332117046E+00  0.19652503886E-01 0.  0.
         14    1    1    2    0    0  0.50997681367E-02  0.87741079018E-02  0.21147974164E-01  0.23456969450E-01  0.00000000000E+00 0. -1.
     999901    1    3    3    0    0  0.43423152098E-02 -0.26388450728E-01  0.10919348345E+00  0.88715186009E+00  0.88000000000E+00 0. -1.
        -11    1    4    4    0    0 -0.24223161617E-02  0.11274612943E-01 -0.24792620978E-01  0.27348120384E-01  0.51100000000E-03 0. -1.
         11    1    4    4    0    0 -0.70197671847E-02  0.63397298833E-02 -0.10554883664E+00  0.10597305008E+00  0.51100000000E-03 0.  1.
</event>
<event>
 8    1  0.1129602E+005  0.1043930E+01  0.7957747E-01            NaN
         13   -1    0    0    0    0  0.00000000000E+00  0.00000000000E+00  0.74505805969E-08  0.10566000000E+00  0.10566000000E+00 0. -1.
     999900   -1    0    0    0    0 -0.00000000000E+00 -0.00000000000E+00 -0.74505805969E-08  0.93827000000E+00  0.93827000000E+00 0.  1.
     999902    2    1    2    0    0  0.22880047996E-01 -0.74915669370E-03 -0.64972872717E-02  0.10201335176E+01  0.10198559316E+01 0.  0.
     999903    2    3    3    0    0 -0.12056995373E+00 -0.84970085839E-02 -0.37059794123E-01  0.12796088912E+00  0.19779987556E-01 0.  0.
         14    1    1    2    0    0 -0.22880047996E-01  0.74915669370E-03  0.64972872717E-02  0.23796482386E-01  0.00000000000E+00 0.  1.
     999901    1    3    3    0    0  0.14345000172E+00  0.77478518902E-02  0.30562506851E-01  0.89217262849E+00  0.88000000000E+00 0. -1.
        -11    1    4    4    0    0 -0.88839256423E-01 -0.14673996042E-01 -0.29556518688E-01  0.94771243316E-01  0.51100000000E-03 0. -1.
         11    1    4    4    0    0 -0.31730697306E-01  0.61769874585E-02 -0.75032754346E-02  0.33189645807E-01  0.51100000000E-03 0.  1.
</event>
<event>
 8    1  0.1129602E+005  0.1043930E+01  0.7957747E-01            NaN
         13   -1    0    0    0    0  0.00000000000E+00  0.00000000000E+00  0.74505805969E-08  0.10566000000E+00  0.10566000000E+00 0. -1.
     999900   -1    0    0    0    0 -0.00000000000E+00 -0.00000000000E+00 -0.74505805969E-08  0.93827000000E+00  0.93827000000E+00 0.  1.
     999902    2    1    2    0    0 -0.59845026382E-02  0.14835848498E-01 -0.17043195102E-01  0.10205550739E+01  0.10202873476E+01 0.  0.
     999903    2    3    3    0    0  0.39896517942E-01  0.12370369781E+00 -0.17333675787E-01  0.13266016959E+00  0.20097942288E-01 0.  0.
         14    1    1    2    0    0  0.59845026382E-02 -0.14835848498E-01  0.17043195102E-01  0.23374926134E-01  0.00000000000E+00 0. -1.
     999901    1    3    3    0    0 -0.45881020580E-01 -0.10886784931E+00  0.29048068512E-03  0.88789490428E+00  0.88000000000E+00 0. -1.
        -11    1    4    4    0    0  0.11080084168E-02  0.30055878186E-01 -0.20538099143E-02  0.30150667527E-01  0.51100000000E-03 0. -1.
         11    1    4    4    0    0  0.38788509525E-01  0.93647819620E-01 -0.15279865873E-01  0.10250950206E+00  0.51100000000E-03 0.  1.
</event>
<event>
 8    1  0.1129602E+005  0.1043930E+01  0.7957747E-01            NaN
         13   -1    0    0    0    0  0.00000000000E+00  0.00000000000E+00  0.74505805969E-08  0.10566000000E+00  0.10566000000E+00 0. -1.
     999900   -1    0    0    0    0 -0.00000000000E+00 -0.00000000000E+00 -0.74505805969E-08  0.93827000000E+00  0.93827000000E+00 0.  1.
     999902    2    1    2    0    0  0.45733277843E-02 -0.23152209698E-01 -0.27123357393E-02  0.10201750656E+01  0.10198984595E+01 0.  0.
     999903    2    3    3    0    0  0.14412677743E-01  0.42558021733E-01  0.11951666725E+00  0.12924601320E+00  0.20034662050E-01 0.  0.
         14    1    1    2    0    0 -0.45733277843E-02  0.23152209698E-01  0.27123357393E-02  0.23754934352E-01  0.00000000000E+00 0.  1.
     999901    1    3    3    0    0 -0.98393499586E-02 -0.65710231431E-01 -0.12222900299E+00  0.89092905245E+00  0.88000000000E+00 0.  1.
        -11    1    4    4    0    0  0.15808730555E-01  0.22851990378E-01  0.52849196051E-01  0.59711205566E-01  0.51100000000E-03 0. -1.
         11    1    4    4    0    0 -0.13960528117E-02  0.19706031355E-01  0.66667471202E-01  0.69534807634E-01  0.51100000000E-03 0.  1.
</event>
<event>
 8    1  0.1129602E+005  0.1043930E+01  0.7957747E-01            NaN
         13   -1    0    0    0    0  0.00000000000E+00  0.00000000000E+00  0.74505805969E-08  0.10566000000E+00  0.10566000000E+00 0.  1.
     999900   -1    0    0    0    0 -0.00000000000E+00 -0.00000000000E+00 -0.74505805969E-08  0.93827000000E+00  0.93827000000E+00 0. -1.
     999902    2    1    2    0    0  0.23635087280E-01  0.20986258981E-02 -0.12808892992E-02  0.10201673769E+01  0.10198905895E+01 0.  0.
     999903    2    3    3    0    0 -0.98320348425E-01  0.78874798271E-02 -0.79564895127E-01  0.12829573548E+00  0.20002998575E-01 0.  0.
         14    1    1    2    0    0 -0.23635087280E-01 -0.20986258981E-02  0.12808892992E-02  0.23762623146E-01  0.00000000000E+00 0. -1.
     999901    1    3    3    0    0  0.12195543571E+00 -0.57888539289E-02  0.78284005828E-01  0.89187164138E+00  0.88000000000E+00 0.  1.
        -11    1    4    4    0    0 -0.88201241109E-01  0.63690281729E-02 -0.62138691822E-01  0.10808099553E+00  0.51100000000E-03 0.  1.
         11    1    4    4    0    0 -0.10119107317E-01  0.15184516541E-02 -0.17426203305E-01  0.20214739942E-01  0.51100000000E-03 0. -1.
</event>
<event>
 8    1  0.1137244E+005  0.1043930E+01  0.7957747E-01            NaN
         13   -1    0    0    0    0  0.00000000000E+00  0.00000000000E+00  0.74505805969E-08  0.10566000000E+00  0.10566000000E+00 0. -1.
     999900   -1    0    0    0    0 -0.00000000000E+00 -0.00000000000E+00 -0.74505805969E-08  0.93827000000E+00  0.93827000000E+00 0.  1.
     999902    2    1    2    0    0 -0.14719117237E-01  0.13617549872E-01  0.11152753968E-01  0.10209849788E+01  0.10207271197E+01 0.  0.
     999903    2    3    3    0    0 -0.98909611426E-01 -0.79974666962E-01  0.28639759002E-01  0.13185431478E+00  0.19653649570E-01 0.  0.
         14    1    1    2    0    0  0.14719117237E-01 -0.13617549872E-01 -0.11152753968E-01  0.22945021199E-01  0.00000000000E+00 0.  1.
     999901    1    3    3    0    0  0.84190494189E-01  0.93592216834E-01 -0.17487005034E-01  0.88913066402E+00  0.88000000000E+00 0. -1.
        -11    1    4    4    0    0 -0.27148641433E-01 -0.33779960411E-01  0.85370810405E-02  0.44173264886E-01  0.51100000000E-03 0.  1.
         11    1    4    4    0    0 -0.71760969993E-01 -0.46194706551E-01  0.20102677962E-01  0.87681049891E-01  0.51100000000E-03 0. -1.
</event>
<event>
 8    1  0.1129602E+005  0.1043930E+01  0.7957747E-01            NaN
         13   -1    0    0    0    0  0.00000000000E+00  0.00000000000E+00  0.74505805969E-08  0.10566000000E+00  0.10566000000E+00 0. -1.
     999900   -1    0    0    0    0 -0.00000000000E+00 -0.00000000000E+00 -0.74505805969E-08  0.93827000000E+00  0.93827000000E+00 0. -1.
     999902    2    1    2    0    0 -0.59201932104E-02 -0.11529031063E-01  0.19239351217E-01  0.10207325889E+01  0.10204689600E+01 0.  0.
     999903    2    3    3    0    0  0.11861365973E+00 -0.11071433279E-01 -0.46656992988E-01  0.12952485888E+00  0.20199929810E-01 0.  0.
         14    1    1    2    0    0  0.59201932104E-02  0.11529031063E-01 -0.19239351217E-01  0.23197411066E-01  0.00000000000E+00 0.  1.
     999901    1    3    3    0    0 -0.12453385294E+00 -0.45759778395E-03  0.65896344205E-01  0.89120773005E+00  0.88000000000E+00 0.  1.
        -11    1    4    4    0    0  0.37534053924E-01 -0.12758786993E-01 -0.17603134393E-01  0.43378834827E-01  0.51100000000E-03 0.  1.
         11    1    4    4    0    0  0.81079605807E-01  0.16873537135E-02 -0.29053858595E-01  0.86146024056E-01  0.51100000000E-03 0. -1.
</event>
<event>
 8    1  0.1129602E+005  0.1043930E+01  0.7957747E-01            NaN
         13   -1    0    0    0    0  0.00000000000E+00  0.00000000000E+00  0.74505805969E-08  0.10566000000E+00  0.10566000000E+00 0.  1.
     999900   -1    0    0    0    0 -0.00000000000E+00 -0.00000000000E+00 -0.74505805969E-08  0.93827000000E+00  0.93827000000E+00 0.  1.
     999902    2    1    2    0    0  0.22347579498E-02  0.20257278507E-01  0.74970915875E-02  0.10222146170E+01  0.10219839360E+01 0.  0.
     999903    2    3    3    0    0 -0.70044679935E-01  0.26681607683E-01  0.10864397951E+00  0.13345352309E+00  0.19701856936E-01 0.  0.
         14    1    1    2    0    0 -0.22347579498E-02 -0.20257278507E-01 -0.74970915875E-02  0.21715382978E-01  0.00000000000E+00 0. -1.
     999901    1    3    3    0    0  0.72279437885E-01 -0.64243291763E-02 -0.10114688792E+00  0.88876109393E+00  0.88000000000E+00 0.  1.
        -11    1    4    4    0    0 -0.48808898883E-01  0.85793002585E-02  0.71323370899E-01  0.86851582372E-01  0.51100000000E-03 0. -1.
         11    1    4    4    0    0 -0.21235781052E-01  0.18102307425E-01  0.37320608609E-01  0.46601940721E-01  0.51100000000E-03 0.  1.
</event>
<event>
 8    1  0.1129602E+005  0.1043930E+01  0.7957747E-01            NaN
         13   -1    0    0    0    0  0.00000000000E+00  0.00000000000E+00  0.74505805969E-08  0.10566000000E+00  0.10566000000E+00 0. -1.
     999900   -1    0    0    0    0 -0.00000000000E+00 -0.00000000000E+00 -0.74505805969E-08  0.93827000000E+00  0.93827000000E+00 0.  1.
     999902    2    1    2    0    0 -0.21738606182E-01  0.20886174372E-01 -0.63344895392E-02  0.10131253731E+01  0.10126569491E+01 0.  0.
     999903    2    3    3    0    0 -0.10925630794E+00  0.45246763316E-01 -0.43722216212E-01  0.12765903921E+00  0.20024676913E-01 0.  0.
         14    1    1    2    0    0  0.21738606182E-01 -0.20886174372E-01  0.63344895392E-02  0.30804626866E-01  0.00000000000E+00 0.  1.
     999901    1    3    3    0    0  0.87517701756E-01 -0.24360588944E-01  0.37387726673E-01  0.88546633393E+00  0.88000000000E+00 0.  1.
        -11    1    4    4    0    0 -0.67182396547E-01  0.36047375399E-01 -0.21630311385E-01  0.79252881149E-01  0.51100000000E-03 0. -1.
         11    1    4    4    0    0 -0.42073911392E-01  0.91993879175E-02 -0.22091904828E-01  0.48406158056E-01  0.51100000000E-03 0.  1.
</event>
<event>
 8    1  0.1129602E+005  0.1043930E+01  0.7957747E-01            NaN
         13   -1    0    0    0    0  0.00000000000E+00  0.00000000000E+00  0.74505805969E-08  0.10566000000E+00  0.10566000000E+00 0. -1.
     999900   -1    0    0    0    0 -0.00000000000E+00 -0.00000000000E+00 -0.74505805969E-08  0.93827000000E+00  0.93827000000E+00 0. -1.
     999902    2    1    2    0    0 -0.22190115523E-01 -0.11196232558E-01  0.28166666437E-02  0.10189161946E+01  0.10186091111E+01 0.  0.
     999903    2    3    3    0    0 -0.85431581719E-01 -0.85560332113E-01 -0.48979356815E-01  0.13200451330E+00  0.20176435550E-01 0.  0.
         14    1    1    2    0    0  0.22190115523E-01  0.11196232558E-01 -0.28166666437E-02  0.25013805416E-01  0.00000000000E+00 0.  1.
     999901    1    3    3    0    0  0.63241466196E-01  0.74364099555E-01  0.51796023459E-01  0.88691168128E+00  0.88000000000E+00 0.  1.
        -11    1    4    4    0    0 -0.81078093799E-01 -0.82773878221E-01 -0.50780141553E-01  0.12650713856E+00  0.51100000000E-03 0.  1.
         11    1    4    4    0    0 -0.43534879194E-02 -0.27864538917E-02  0.18007847373E-02  0.54973747393E-02  0.51100000000E-03 0. -1.
</event>
<event>
 8    1  0.1129602E+005  0.1043930E+01  0.7957747E-01            NaN
         13   -1    0    0    0    0  0.00000000000E+00  0.00000000000E+00  0.74505805969E-08  0.10566000000E+00  0.10566000000E+00 0. -1.
     999900   -1    0    0    0    0 -0.00000000000E+00 -0.00000000000E+00 -0.74505805969E-08  0.93827000000E+00  0.93827000000E+00 0.  1.
     999902    2    1    2    0    0 -0.16038076274E-01  0.11271938553E-01  0.46276627599E-02  0.10237882088E+01  0.10235900570E+01 0.  0.
     999903    2    3    3    0    0 -0.84005118651E-01 -0.44640846949E-01  0.93507003277E-01  0.13494328669E+00  0.20407493330E-01 0.  0.
         14    1    1    2    0    0  0.16038076274E-01 -0.11271938553E-01 -0.46276627599E-02  0.20141791180E-01  0.00000000000E+00 0.  1.
     999901    1    3    3    0    0  0.67967042376E-01  0.55912785502E-01 -0.88879340517E-01  0.88884492213E+00  0.88000000000E+00 0.  1.
        -11    1    4    4    0    0 -0.37688514441E-01 -0.90005274558E-02  0.40267484618E-01  0.55885284769E-01  0.51100000000E-03 0.  1.
         11    1    4    4    0    0 -0.46316604209E-01 -0.35640319493E-01  0.53239518659E-01  0.79058001917E-01  0.51100000000E-03 0. -1.
</event>
<event>
 8    1  0.1129602E+005  0.1043930E+01  0.7957747E-01            NaN
         13   -1    0    0    0    0  0.00000000000E+00  0.00000000000E+00  0.74505805969E-08  0.10566000000E+00  0.10566000000E+00 0. -1.
     999900   -1    0    0    0    0 -0.00000000000E+00 -0.00000000000E+00 -0.74505805969E-08  0.93827000000E+00  0.93827000000E+00 0.  1.
     999902    2    1    2    0    0 -0.18609764739E-01  0.95187157263E-02  0.94501115321E-02  0.10209902114E+01  0.10207324713E+01 0.  0.
     999903    2    3    3    0    0  0.90802188367E-01 -0.86661119792E-01 -0.19208987198E-01  0.12855372617E+00  0.20047150097E-01 0.  0.
         14    1    1    2    0    0  0.18609764739E-01 -0.95187157263E-02 -0.94501115321E-02  0.22939788593E-01  0.00000000000E+00 0.  1.
     999901    1    3    3    0    0 -0.10941195311E+00  0.96179835518E-01  0.28659098730E-01  0.89243648524E+00  0.88000000000E+00 0.  1.
        -11    1    4    4    0    0  0.21539822942E-01 -0.29361784166E-01 -0.12115434284E-01  0.38381287246E-01  0.51100000000E-03 0. -1.
         11    1    4    4    0    0  0.69262365425E-01 -0.57299335626E-01 -0.70935529146E-02  0.90172438923E-01  0.51100000000E-03 0.  1.
</event>
<event>
 8    1  0.1129602E+005  0.1043930E+01  0.7957747E-01            NaN
         13   -1    0    0    0    0  0.00000000000E+00  0.00000000000E+00  0.74505805969E-08  0.10566000000E+00  0.10566000000E+00 0. -1.
     999900   -1    0    0    0    0 -0.00000000000E+00 -0.00000000000E+00 -0.74505805969E-08  0.93827000000E+00  0.93827000000E+00 0.  1.
     999902    2    1    2    0    0  0.17095894918E-01  0.87915597923E-02 -0.13948601248E-01  0.10201786922E+01  0.10199021715E+01 0.  0.
     999903    2    3    3    0    0  0.34103374433E-01 -0.25926331278E-02 -0.12656753078E+00  0.13276566686E+00  0.20919382250E-01 0.  0.
         14    1    1    2    0    0 -0.17095894918E-01 -0.87915597923E-02  0.13948601248E-01  0.23751307825E-01  0.00000000000E+00 0.  1.
     999901    1    3    3    0    0 -0.17007479515E-01  0.11384192920E-01  0.11261892954E+00  0.88741302531E+00  0.88000000000E+00 0. -1.
        -11    1    4    4    0    0  0.10821161499E-01 -0.27970586610E-02 -0.79159629683E-01  0.79946414340E-01  0.51100000000E-03 0. -1.
         11    1    4    4    0    0  0.23282212934E-01  0.20442553322E-03 -0.47407901102E-01  0.52819252520E-01  0.51100000000E-03 0.  1.
</event>
<event>
 8    1  0.1129602E+005  0.1043930E+01  0.7957747E-01            NaN
         13   -1    0    0    0    0  0.00000000000E+00  0.00000000000E+00  0.74505805969E-08  0.10566000000E+00  0.10566000000E+00 0. -1.
     999900   -1    0    0    0    0 -0.00000000000E+00 -0.00000000000E+00 -0.74505805969E-08  0.93827000000E+00  0.93827000000E+00 0.  1.
     999902    2    1    2    0    0  0.54558751752E-02 -0.23213357386E-01  0.52121298809E-02  0.10195211321E+01  0.10192288977E+01 0.  0.
     999903    2    3    3    0    0 -0.47939726374E-01 -0.77173333616E-01  0.93514769336E-01  0.13184995116E+00  0.19633052538E-01 0.  0.
         14    1    1    2    0    0 -0.54558751752E-02  0.23213357386E-01 -0.52121298809E-02  0.24408867916E-01  0.00000000000E+00 0.  1.
     999901    1    3    3    0    0  0.53395601549E-01  0.53959976230E-01 -0.88302639455E-01  0.88767118092E+00  0.88000000000E+00 0.  1.
        -11    1    4    4    0    0 -0.42399650279E-03 -0.22808341217E-02  0.91004794670E-02  0.94054146562E-02  0.51100000000E-03 0.  1.
         11    1    4    4    0    0 -0.47515729871E-01 -0.74892499494E-01  0.84414289869E-01  0.12244453651E+00  0.51100000000E-03 0. -1.
</event>
<event>
 8    1  0.1129602E+005  0.1043930E+01  0.7957747E-01            NaN
         13   -1    0    0    0    0  0.00000000000E+00  0.00000000000E+00  0.74505805969E-08  0.10566000000E+00  0.10566000000E+00 0.  1.
     999900   -1    0    0    0    0 -0.00000000000E+00 -0.00000000000E+00 -0.74505805969E-08  0.93827000000E+00  0.93827000000E+00 0.  1.
     999902    2    1    2    0    0  0.95805547785E-02  0.20332310237E-01 -0.73064471834E-02  0.10202958290E+01  0.10200220608E+01 0.  0.
     999903    2    3    3    0    0 -0.31488106142E-01  0.73480864133E-01  0.10174134236E+00  0.13102487809E+00  0.20622310978E-01 0.  0.
         14    1    1    2    0    0 -0.95805547785E-02 -0.20332310237E-01  0.73064471834E-02  0.23634171022E-01  0.00000000000E+00 0. -1.
     999901    1    3    3    0    0  0.41068660921E-01 -0.53148553896E-01 -0.10904778955E+00  0.88927095089E+00  0.88000000000E+00 0.  1.
        -11    1    4    4    0    0 -0.16947859375E-01  0.50537729542E-01  0.52686061012E-01  0.74949144029E-01  0.51100000000E-03 0. -1.
         11    1    4    4    0    0 -0.14540246767E-01  0.22943134591E-01  0.49055281351E-01  0.56075734060E-01  0.51100000000E-03 0.  1.
</event>
<event>
 8    1  0.1129602E+005  0.1043930E+01  0.7957747E-01            NaN
         13   -1    0    0    0    0  0.00000000000E+00  0.00000000000E+00  0.74505805969E-08  0.10566000000E+00  0.10566000000E+00 0.  1.
     999900   -1    0    0    0    0 -0.00000000000E+00 -0.00000000000E+00 -0.74505805969E-08  0.93827000000E+00  0.93827000000E+00 0.  1.
     999902    2    1    2    0    0  0.16631421451E-01  0.14831749719E-02  0.17147520618E-01  0.10199958936E+01  0.10197150491E+01 0.  0.
     999903    2    3    3    0    0 -0.10914963736E+00 -0.20763286024E-01  0.63580387212E-01  0.12956240875E+00  0.19979858392E-01 0.  0.
         14    1    1    2    0    0 -0.16631421451E-01 -0.14831749719E-02 -0.17147520618E-01  0.23934106435E-01  0.00000000000E+00 0. -1.
     999901    1    3    3    0    0  0.12578105881E+00  0.22246460996E-01 -0.46432866594E-01  0.89043348482E+00  0.88000000000E+00 0.  1.
        -11    1    4    4    0    0 -0.81940620202E-01 -0.23928727527E-01  0.45457092205E-01  0.96713275164E-01  0.51100000000E-03 0. -1.
         11    1    4    4    0    0 -0.27209017154E-01  0.31654415035E-02  0.18123295007E-01  0.32849133585E-01  0.51100000000E-03 0.  1.
</event>
<event>
 8    1  0.1129602E+005  0.1043930E+01  0.7957747E-01            NaN
         13   -1    0    0    0    0  0.00000000000E+00  0.00000000000E+00  0.74505805969E-08  0.10566000000E+00  0.10566000000E+00 0.  1.
     999900   -1    0    0    0    0 -0.00000000000E+00 -0.00000000000E+00 -0.74505805969E-08  0.93827000000E+00  0.93827000000E+00 0. -1.
     999902    2    1    2    0    0  0.96662268794E-02  0.20493527224E-01  0.94413067579E-02  0.10193829254E+01  0.10190873317E+01 0.  0.
     999903    2    3    3    0    0 -0.45534351639E-01  0.11808071982E+00  0.31494233774E-01  0.13199535749E+00  0.20358144940E-01 0.  0.
         14    1    1    2    0    0 -0.96662268794E-02 -0.20493527224E-01 -0.94413067579E-02  0.24547074641E-01  0.00000000000E+00 0. -1.
     999901    1    3    3    0    0  0.55200578519E-01 -0.97587192591E-01 -0.22052927016E-01  0.88738756787E+00  0.88000000000E+00 0.  1.
        -11    1    4    4    0    0 -0.22083045921E-01  0.67545368742E-01  0.79425079349E-02  0.71507917806E-01  0.51100000000E-03 0. -1.
         11    1    4    4    0    0 -0.23451305718E-01  0.50535351073E-01  0.23551725839E-01  0.60487439679E-01  0.51100000000E-03 0.  1.
</event>
<event>
 8    1  0.1129602E+005  0.1043930E+01  0.7957747E-01            NaN
         13   -1    0    0    0    0  0.00000000000E+00  0.00000000000E+00  0.74505805969E-08  0.10566000000E+00  0.10566000000E+00 0.  1.
     999900   -1    0    0    0    0 -0.00000000000E+00 -0.00000000000E+00 -0.74505805969E-08  0.93827000000E+00  0.93827000000E+00 0. -1.
     999902    2    1    2    0    0  0.15757692120E-01  0.14589570008E-01  0.12175233829E-01  0.10192440377E+01  0.10189450484E+01 0.  0.
     999903    2    3    3    0    0  0.38570824913E-01 -0.11299953722E+00  0.45162332659E-01  0.12913866870E+00  0.19507832160E-01 0.  0.
         14    1    1    2    0    0 -0.15757692120E-01 -0.14589570008E-01 -0.12175233829E-01  0.24685962261E-01  0.00000000000E+00 0. -1.
     999901    1    3    3    0    0 -0.22813132793E-01  0.12758910722E+00 -0.32987098830E-01  0.89010536904E+00  0.88000000000E+00 0.  1.
        -11    1    4    4    0    0  0.18123698301E-01 -0.69874513497E-01  0.35482278442E-01  0.80437362469E-01  0.51100000000E-03 0. -1.
         11    1    4    4    0    0  0.20447126611E-01 -0.43125023720E-01  0.96800542167E-02  0.48701306226E-01  0.51100000000E-03 0.  1.
</event>
<event>
 8    1  0.1129602E+005  0.1043930E+01  0.7957747E-01            NaN
         13   -1    0    0    0    0  0.00000000000E+00  0.00000000000E+00  0.74505805969E-08  0.10566000000E+00  0.10566000000E+00 0. -1.
     999900   -1    0    0    0    0 -0.00000000000E+00 -0.00000000000E+00 -0.74505805969E-08  0.93827000000E+00  0.93827000000E+00 0.  1.
     999902    2    1    2    0    0  0.22086494293E-01  0.17127586784E-03 -0.75684916140E-02  0.10205820958E+01  0.10203149953E+01 0.  0.
     999903    2    3    3    0    0 -0.13931523502E-01  0.11820876706E+00  0.48735258891E-01  0.13018877863E+00  0.20164143058E-01 0.  0.
         14    1    1    2    0    0 -0.22086494293E-01 -0.17127586784E-03  0.75684916140E-02  0.23347904207E-01  0.00000000000E+00 0. -1.
     999901    1    3    3    0    0  0.36018017794E-01 -0.11803749119E+00 -0.56303750505E-01  0.89039331717E+00  0.88000000000E+00 0.  1.
        -11    1    4    4    0    0 -0.11960648401E-01  0.47840769712E-01  0.28419208480E-01  0.56918440671E-01  0.51100000000E-03 0.  1.
         11    1    4    4    0    0 -0.19708751010E-02  0.70367997344E-01  0.20316050411E-01  0.73270337956E-01  0.51100000000E-03 0. -1.
</event>
<event>
 8    1  0.1129602E+005  0.1043930E+01  0.7957747E-01            NaN
         13   -1    0    0    0    0  0.00000000000E+00  0.00000000000E+00  0.74505805969E-08  0.10566000000E+00  0.10566000000E+00 0.  1.
     999900   -1    0    0    0    0 -0.00000000000E+00 -0.00000000000E+00 -0.74505805969E-08  0.93827000000E+00  0.93827000000E+00 0.  1.
     999902    2    1    2    0    0 -0.20319810286E-01  0.35254804906E-02  0.13273172664E-01  0.10194044864E+01  0.10191094182E+01 0.  0.
     999903    2    3    3    0    0  0.42866284754E-01  0.10779459656E+00  0.55492497930E-01  0.12999625475E+00  0.19037213753E-01 0.  0.
         14    1    1    2    0    0  0.20319810286E-01 -0.35254804906E-02 -0.13273172664E-01  0.24525513558E-01  0.00000000000E+00 0. -1.
     999901    1    3    3    0    0 -0.63186095040E-01 -0.10426911607E+00 -0.42219325266E-01  0.88940823169E+00  0.88000000000E+00 0.  1.
        -11    1    4    4    0    0  0.26245311224E-01  0.53588807558E-01  0.19238345820E-01  0.62697302395E-01  0.51100000000E-03 0. -1.
         11    1    4    4    0    0  0.16620973530E-01  0.54205788999E-01  0.36254152110E-01  0.67298952357E-01  0.51100000000E-03 0.  1.
</event>
<event>
 8    1  0.1129602E+005  0.1043930E+01  0.7957747E-01            NaN
         13   -1    0    0    0    0  0.00000000000E+00  0.00000000000E+00  0.74505805969E-08  0.10566000000E+00  0.10566000000E+00 0.  1.
     999900   -1    0    0    0    0 -0.00000000000E+00 -0.00000000000E+00 -0.74505805969E-08  0.93827000000E+00  0.93827000000E+00 0.  1.
     999902    2    1    2    0    0  0.77478616581E-02 -0.38170073457E-02 -0.21800475035E-01  0.10204809144E+01  0.10202114668E+01 0.  0.
     999903    2    3    3    0    0 -0.14620422304E-01  0.44591827885E-01  0.11725060791E+00  0.12796819226E+00  0.20638927071E-01 0.  0.
         14    1    1    2    0    0 -0.77478616581E-02  0.38170073457E-02  0.21800475035E-01  0.23449085635E-01  0.00000000000E+00 0.  1.
     999901    1    3    3    0    0  0.22368283962E-01 -0.48408835230E-01 -0.13905108295E+00  0.89251272211E+00  0.88000000000E+00 0.  1.
        -11    1    4    4    0    0 -0.12208024202E-01  0.25077273333E-01  0.90911168565E-01  0.95094727422E-01  0.51100000000E-03 0.  1.
         11    1    4    4    0    0 -0.24123981022E-02  0.19514554551E-01  0.26339439350E-01  0.32873464834E-01  0.51100000000E-03 0. -1.
</event>
<event>
 8    1  0.1129602E+005  0.1043930E+01  0.7957747E-01            NaN
         13   -1    0    0    0    0  0.00000000000E+00  0.00000000000E+00  0.74505805969E-08  0.10566000000E+00  0.10566000000E+00 0.  1.
     999900   -1    0    0    0    0 -0.00000000000E+00 -0.00000000000E+00 -0.74505805969E-08  0.93827000000E+00  0.93827000000E+00 0. -1.
     999902    2    1    2    0    0  0.41807821447E-02 -0.14756539078E-01  0.16985332986E-01  0.10210447226E+01  0.10207882198E+01 0.  0.
     999903    2    3    3    0    0  0.15979251204E-01 -0.67718624133E-01  0.11293971016E+00  0.13416737549E+00  0.20108654644E-01 0.  0.
         14    1    1    2    0    0 -0.41807821447E-02  0.14756539078E-01 -0.16985332986E-01  0.22885277397E-01  0.00000000000E+00 0. -1.
     999901    1    3    3    0    0 -0.11798469059E-01  0.52962085055E-01 -0.95954377172E-01  0.88687734711E+00  0.88000000000E+00 0. -1.
        -11    1    4    4    0    0 -0.18613043932E-03 -0.25779143134E-02 -0.17294258718E-03  0.26403251478E-02  0.51100000000E-03 0. -1.
         11    1    4    4    0    0  0.16165381643E-01 -0.65140709820E-01  0.11311265275E+00  0.13152705034E+00  0.51100000000E-03 0.  1.
</event>
<event>
 8    1  0.1129602E+005  0.1043930E+01  0.7957747E-01            NaN
         13   -1    0    0    0    0  0.00000000000E+00  0.00000000000E+00  0.74505805969E-08  0.10566000000E+00  0.10566000000E+00 0. -1.
     999900   -1    0    0    0    0 -0.00000000000E+00 -0.00000000000E+00 -0.74505805969E-08  0.93827000000E+00  0.93827000000E+00 0.  1.
     999902    2    1    2    0    0  0.22814166536E-01 -0.26965470208E-02  0.12045595395E-02  0.10209254673E+01  0.10206662536E+01 0.  0.
     999903    2    3    3    0    0  0.11571521392E+00  0.48917074021E-01 -0.40652185921E-01  0.13354361173E+00  0.19960088928E-01 0.  0.
         14    1    1    2    0    0 -0.22814166536E-01  0.26965470208E-02 -0.12045595395E-02  0.23004532689E-01  0.00000000000E+00 0.  1.
     999901    1    3    3    0    0 -0.92901047381E-01 -0.51613621041E-01  0.41856745460E-01  0.88738185559E+00  0.88000000000E+00 0. -1.
        -11    1    4    4    0    0  0.98730910533E-02 -0.12775681279E-02 -0.46028161882E-02  0.10979851781E-01  0.51100000000E-03 0.  1.
         11    1    4    4    0    0  0.10584212286E+00  0.50194642148E-01 -0.36049369732E-01  0.12256375994E+00  0.51100000000E-03 0. -1.
</event>
<event>
 8    1  0.1129602E+005  0.1043930E+01  0.7957747E-01            NaN
         13   -1    0    0    0    0  0.00000000000E+00  0.00000000000E+00  0.74505805969E-08  0.10566000000E+00  0.10566000000E+00 0.  1.
     999900   -1    0    0    0    0 -0.00000000000E+00 -0.00000000000E+00 -0.74505805969E-08  0.93827000000E+00  0.93827000000E+00 0. -1.
     999902    2    1    2    0    0 -0.90250309850E-02 -0.21383865132E-01  0.90956259571E-03  0.10207018237E+01  0.10204374869E+01 0.  0.
     999903    2    3    3    0    0 -0.47653700048E-01 -0.76525196971E-01  0.95726127329E-01  0.13305159890E+00  0.20304078841E-01 0.  0.
         14    1    1    2    0    0  0.90250309850E-02  0.21383865132E-01 -0.90956259571E-03  0.23228176347E-01  0.00000000000E+00 0. -1.
     999901    1    3    3    0    0  0.38628669063E-01  0.55141331839E-01 -0.94816564733E-01  0.88765022475E+00  0.88000000000E+00 0. -1.
        -11    1    4    4    0    0 -0.28400706799E-02 -0.18788570010E-01  0.15532108306E-01  0.24547583872E-01  0.51100000000E-03 0.  1.
         11    1    4    4    0    0 -0.44813629368E-01 -0.57736626961E-01  0.80194019023E-01  0.10850401503E+00  0.51100000000E-03 0. -1.
</event>
<event>
 8    1  0.1129602E+005  0.1043930E+01  0.7957747E-01            NaN
         13   -1    0    0    0    0  0.00000000000E+00  0.00000000000E+00  0.74505805969E-08  0.10566000000E+00  0.10566000000E+00 0.  1.
     999900   -1    0    0    0    0 -0.00000000000E+00 -0.00000000000E+00 -0.74505805969E-08  0.93827000000E+00  0.93827000000E+00 0.  1.
     999902    2    1    2    0    0  0.14993159439E-01 -0.30022179883E-01  0.90107034395E-02  0.10091835053E+01  0.10085851618E+01 0.  0.
     999903    2    3    3    0    0 -0.93167967411E-01  0.60360840037E-01 -0.30943115773E-01  0.11707127735E+00  0.20603553225E-01 0.  0.
         14    1    1    2    0    0 -0.14993159439E-01  0.30022179883E-01 -0.90107034395E-02  0.34746494663E-01  0.00000000000E+00 0. -1.
     999901    1    3    3    0    0  0.10816112685E+00 -0.90383019921E-01  0.39953819212E-01  0.89211222799E+00  0.88000000000E+00 0.  1.
        -11    1    4    4    0    0 -0.53864154766E-01  0.40546611470E-01 -0.94330258908E-02  0.68078028532E-01  0.51100000000E-03 0. -1.
         11    1    4    4    0    0 -0.39303812645E-01  0.19814228567E-01 -0.21510089882E-01  0.48993248819E-01  0.51100000000E-03 0.  1.
</event>
<event>
 8    1  0.1129602E+005  0.1043930E+01  0.7957747E-01            NaN
         13   -1    0    0    0    0  0.00000000000E+00  0.00000000000E+00  0.74505805969E-08  0.10566000000E+00  0.10566000000E+00 0. -1.
     999900   -1    0    0    0    0 -0.00000000000E+00 -0.00000000000E+00 -0.74505805969E-08  0.93827000000E+00  0.93827000000E+00 0. -1.
     999902    2    1    2    0    0  0.15267239394E-01  0.35578193683E-02 -0.17777295063E-01  0.10202281246E+01  0.10199527672E+01 0.  0.
     999903    2    3    3    0    0  0.23492786116E-01  0.11865336360E-01  0.12465977365E+00  0.12869854405E+00  0.18181277954E-01 0.  0.
         14    1    1    2    0    0 -0.15267239394E-01 -0.35578193683E-02  0.17777295063E-01  0.23701875392E-01  0.00000000000E+00 0. -1.
     999901    1    3    3    0    0 -0.82255467221E-02 -0.83075169920E-02 -0.14243706872E+00  0.89152958055E+00  0.88000000000E+00 0. -1.
        -11    1    4    4    0    0  0.85121707473E-02 -0.44257436829E-02  0.45385229807E-01  0.46390995501E-01  0.51100000000E-03 0.  1.
         11    1    4    4    0    0  0.14980615369E-01  0.16291080043E-01  0.79274543846E-01  0.82307548553E-01  0.51100000000E-03 0. -1.
</event>
<event>
 8    1  0.1129602E+005  0.1043930E+01  0.7957747E-01            NaN
         13   -1    0    0    0    0  0.00000000000E+00  0.00000000000E+00  0.74505805969E-08  0.10566000000E+00  0.10566000000E+00 0.  1.
     999900   -1    0    0    0    0 -0.00000000000E+00 -0.00000000000E+00 -0.74505805969E-08  0.93827000000E+00  0.93827000000E+00 0. -1.
     999902    2    1    2    0    0 -0.18070163408E-01 -0.14250149212E-01 -0.24485256948E-02  0.10207871213E+01  0.10205247445E+01 0.  0.
     999903    2    3    3    0    0  0.39721150869E-01 -0.25014770944E-01  0.12010976952E+00  0.13035113321E+00  0.19014536654E-01 0.  0.
         14    1    1    2    0    0  0.18070163408E-01  0.14250149212E-01  0.24485256948E-02  0.23142878737E-01  0.00000000000E+00 0.  1.
     999901    1    3    3    0    0 -0.57791314277E-01  0.10764621732E-01 -0.12255829522E+00  0.89043598805E+00  0.88000000000E+00 0. -1.
        -11    1    4    4    0    0  0.68181078301E-02 -0.93521535728E-02  0.14082955926E-01  0.18235683136E-01  0.51100000000E-03 0. -1.
         11    1    4    4    0    0  0.32903043039E-01 -0.15662617371E-01  0.10602681359E+00  0.11211545008E+00  0.51100000000E-03 0.  1.
</event>
<event>
 8    1  0.1129602E+005  0.1043930E+01  0.7957747E-01            NaN
         13   -1    0    0    0    0  0.00000000000E+00  0.00000000000E+00  0.74505805969E-08  0.10566000000E+00  0.10566000000E+00 0.  1.
     999900   -1    0    0    0    0 -0.00000000000E+00 -0.00000000000E+00 -0.74505805969E-08  0.93827000000E+00  0.93827000000E+00 0.  1.
     999902    2    1    2    0    0 -0.20419322536E-01 -0.11429647012E-01 -0.38252004233E-02  0.10202188692E+01  0.10199432942E+01 0.  0.
     999903    2    3    3    0    0  0.12199148766E+00  0.11992069438E-01 -0.30742094963E-01  0.12805636449E+00  0.20679054493E-01 0.  0.
         14    1    1    2    0    0  0.20419322536E-01  0.11429647012E-01  0.38252004233E-02  0.23711130760E-01  0.00000000000E+00 0.  1.
     999901    1    3    3    0    0 -0.14241081019E+00 -0.23421716450E-01  0.26916894540E-01  0.89216250475E+00  0.88000000000E+00 0. -1.
        -11    1    4    4    0    0  0.67708954199E-01  0.61798830190E-02 -0.64400186751E-02  0.68296620666E-01  0.51100000000E-03 0. -1.
         11    1    4    4    0    0  0.54282533458E-01  0.58121864190E-02 -0.24302076288E-01  0.59759743829E-01  0.51100000000E-03 0.  1.
</event>
<event>
 8    1  0.1129602E+005  0.1043930E+01  0.7957747E-01            NaN
         13   -1    0    0    0    0  0.00000000000E+00  0.00000000000E+00  0.74505805969E-08  0.10566000000E+00  0.10566000000E+00 0.  1.
     999900   -1    0    0    0    0 -0.00000000000E+00 -0.00000000000E+00 -0.74505805969E-08  0.93827000000E+00  0.93827000000E+00 0. -1.
     999902    2    1    2    0    0  0.18847995738E-01 -0.13206967507E-02  0.13655481580E-01  0.10206176994E+01  0.10203514223E+01 0.  0.
     999903    2    3    3    0    0  0.19073811935E-01  0.10607914487E+00  0.73783234159E-01  0.13205136893E+00  0.19416568055E-01 0.  0.
         14    1    1    2    0    0 -0.18847995738E-01  0.13206967507E-02 -0.13655481580E-01  0.23312300625E-01  0.00000000000E+00 0.  1.
     999901    1    3    3    0    0 -0.22581619706E-03 -0.10739984162E+00 -0.60127752579E-01  0.88856633045E+00  0.88000000000E+00 0. -1.
        -11    1    4    4    0    0  0.68386935361E-02  0.53872941303E-01  0.48309155372E-01  0.72684916920E-01  0.51100000000E-03 0. -1.
         11    1    4    4    0    0  0.12235118399E-01  0.52206203566E-01  0.25474078787E-01  0.59366452008E-01  0.51100000000E-03 0.  1.
</event>
<event>
 8    1  0.1129602E+005  0.1043930E+01  0.7957747E-01            NaN
         13   -1    0    0    0    0  0.00000000000E+00  0.00000000000E+00  0.74505805969E-08  0.10566000000E+00  0.10566000000E+00 0.  1.
     999900   -1    0    0    0    0 -0.00000000000E+00 -0.00000000000E+00 -0.74505805969E-08  0.93827000000E+00  0.93827000000E+00 0.  1.
     999902    2    1    2    0    0  0.18092464626E-01  0.35594746785E-02  0.13777462031E-01  0.10209120593E+01  0.10206525399E+01 0.  0.
     999903    2    3    3    0    0 -0.10906102833E+00 -0.35404277401E-01 -0.56514854413E-01  0.12814826379E+00  0.89597981804E-02 0.  0.
         14    1    1    2    0    0 -0.18092464626E-01 -0.35594746785E-02 -0.13777462031E-01  0.23017940747E-01  0.00000000000E+00 0. -1.
     999901    1    3    3    0    0  0.12715349295E+00  0.38963752080E-01  0.70292316445E-01  0.89276379547E+00  0.88000000000E+00 0. -1.
        -11    1    4    4    0    0 -0.63588362155E-01 -0.20642034417E-01 -0.37812159178E-01  0.76808813877E-01  0.51100000000E-03 0. -1.
         11    1    4    4    0    0 -0.45472666173E-01 -0.14762242984E-01 -0.18702695235E-01  0.51339449908E-01  0.51100000000E-03 0.  1.
</event>
<event>
 8    1  0.1129602E+005  0.1043930E+01  0.7957747E-01            NaN
         13   -1    0    0    0    0  0.00000000000E+00  0.00000000000E+00  0.74505805969E-08  0.10566000000E+00  0.10566000000E+00 0.  1.
     999900   -1    0    0    0    0 -0.00000000000E+00 -0.00000000000E+00 -0.74505805969E-08  0.93827000000E+00  0.93827000000E+00 0. -1.
     999902    2    1    2    0    0 -0.97276529581E-02 -0.22508411856E-01  0.23745635945E-02  0.10192947734E+01  0.10189970269E+01 0.  0.
     999903    2    3    3    0    0  0.85460284306E-01 -0.79996699658E-01 -0.54062123573E-01  0.13050303950E+00  0.20134496826E-01 0.  0.
         14    1    1    2    0    0  0.97276529581E-02  0.22508411856E-01 -0.23745635945E-02  0.24635226580E-01  0.00000000000E+00 0. -1.
     999901    1    3    3    0    0 -0.95187937264E-01  0.57488287802E-01  0.56436687167E-01  0.88879173393E+00  0.88000000000E+00 0.  1.
        -11    1    4    4    0    0  0.77704718458E-01 -0.78009354885E-01 -0.53616460448E-01  0.12246823536E+00  0.51100000000E-03 0.  1.
         11    1    4    4    0    0  0.77555658480E-02 -0.19873447727E-02 -0.44566312486E-03  0.80348041351E-02  0.51100000000E-03 0. -1.
</event>
<event>
 8    1  0.1129602E+005  0.1043930E+01  0.7957747E-01            NaN
         13   -1    0    0    0    0  0.00000000000E+00  0.00000000000E+00  0.74505805969E-08  0.10566000000E+00  0.10566000000E+00 0. -1.
     999900   -1    0    0    0    0 -0.00000000000E+00 -0.00000000000E+00 -0.74505805969E-08  0.93827000000E+00  0.93827000000E+00 0. -1.
     999902    2    1    2    0    0 -0.48786821031E-03  0.69678932322E-02  0.22241645077E-01  0.10206173355E+01  0.10203510500E+01 0.  0.
     999903    2    3    3    0    0  0.94510649198E-01  0.59994167550E-01 -0.62750016440E-01  0.12985356960E+00  0.19819738178E-01 0.  0.
         14    1    1    2    0    0  0.48786821031E-03 -0.69678932322E-02 -0.22241645077E-01  0.23312664524E-01  0.00000000000E+00 0.  1.
     999901    1    3    3    0    0 -0.94998517409E-01 -0.53026274318E-01  0.84991661518E-01  0.89076376588E+00  0.88000000000E+00 0.  1.
        -11    1    4    4    0    0  0.73172344809E-01  0.37039451559E-01 -0.40919778803E-01  0.91655891436E-01  0.51100000000E-03 0.  1.
         11    1    4    4    0    0  0.21338304389E-01  0.22954715992E-01 -0.21830237638E-01  0.38197678160E-01  0.51100000000E-03 0. -1.
</event>
<event>
 8    1  0.1129602E+005  0.1043930E+01  0.7957747E-01            NaN
         13   -1    0    0    0    0  0.00000000000E+00  0.00000000000E+00  0.74505805969E-08  0.10566000000E+00  0.10566000000E+00 0. -1.
     999900   -1    0    0    0    0 -0.00000000000E+00 -0.00000000000E+00 -0.74505805969E-08  0.93827000000E+00  0.93827000000E+00 0.  1.
     999902    2    1    2    0    0 -0.18607161567E-01  0.15899111473E-01 -0.66693158152E-02  0.10185629351E+01  0.10182470058E+01 0.  0.
     999903    2    3    3    0    0 -0.78388864507E-01  0.49911848474E-02  0.10146142281E+00  0.12986439708E+00  0.20015376769E-01 0.  0.
         14    1    1    2    0    0  0.18607161567E-01 -0.15899111473E-01  0.66693158152E-02  0.25367064880E-01  0.00000000000E+00 0. -1.
     999901    1    3    3    0    0  0.59781702940E-01  0.10907926625E-01 -0.10813073862E+00  0.88869853803E+00  0.88000000000E+00 0.  1.
        -11    1    4    4    0    0 -0.12061546988E-01  0.34580283089E-02  0.68396560330E-02  0.14299681506E-01  0.51100000000E-03 0.  1.
         11    1    4    4    0    0 -0.66327317519E-01  0.15331565385E-02  0.94621766775E-01  0.11556471558E+00  0.51100000000E-03 0. -1.
</event>
<event>
 8    1  0.1129602E+005  0.1043930E+01  0.7957747E-01            NaN
         13   -1    0    0    0    0  0.00000000000E+00  0.00000000000E+00  0.74505805969E-08  0.10566000000E+00  0.10566000000E+00 0.  1.
     999900   -1    0    0    0    0 -0.00000000000E+00 -0.00000000000E+00 -0.74505805969E-08  0.93827000000E+00  0.93827000000E+00 0.  1.
     999902    2    1    2    0    0 -0.18294465842E-01 -0.50949522773E-02 -0.11466399507E-01  0.10217461244E+01  0.10215052709E+01 0.  0.
     999903    2    3    3    0    0 -0.10940429837E+00  0.68902113921E-01  0.24941848301E-01  0.13320680174E+00  0.20128448244E-01 0.  0.
         14    1    1    2    0    0  0.18294465842E-01  0.50949522773E-02  0.11466399507E-01  0.22183875604E-01  0.00000000000E+00 0.  1.
     999901    1    3    3    0    0  0.91109832533E-01 -0.73997066198E-01 -0.36408247808E-01  0.88853932265E+00  0.88000000000E+00 0.  1.
        -11    1    4    4    0    0 -0.14782145379E-01  0.76915400444E-02 -0.33712995982E-02  0.17008773978E-01  0.51100000000E-03 0.  1.
         11    1    4    4    0    0 -0.94622152996E-01  0.61210573877E-01  0.28313147899E-01  0.11619802777E+00  0.51100000000E-03 0. -1.
</event>
<event>
 8    1  0.1129602E+005  0.1043930E+01  0.7957747E-01            NaN
         13   -1    0    0    0    0  0.00000000000E+00  0.00000000000E+00  0.74505805969E-08  0.10566000000E+00  0.10566000000E+00 0. -1.
     999900   -1    0    0    0    0 -0.00000000000E+00 -0.00000000000E+00 -0.74505805969E-08  0.93827000000E+00  0.93827000000E+00 0. -1.
     999902    2    1    2    0    0 -0.11068644884E-01  0.20228328199E-01  0.61295329318E-02  0.10200705923E+01  0.10197915189E+01 0.  0.
     999903    2    3    3    0    0  0.73436030478E-01 -0.86133518740E-01 -0.55251359147E-01  0.12753404037E+00  0.20009626239E-01 0.  0.
         14    1    1    2    0    0  0.11068644884E-01 -0.20228328199E-01 -0.61295329318E-02  0.23859407688E-01  0.00000000000E+00 0.  1.
     999901    1    3    3    0    0 -0.84504675361E-01  0.10636184694E+00  0.61380892079E-01  0.89253655194E+00  0.88000000000E+00 0.  1.
        -11    1    4    4    0    0  0.54752329161E-01 -0.51060312332E-01 -0.40666669923E-01  0.85199836899E-01  0.51100000000E-03 0. -1.
         11    1    4    4    0    0  0.18683701317E-01 -0.35073206408E-01 -0.14584689224E-01  0.42334203470E-01  0.51100000000E-03 0.  1.
</event>
<event>
 8    1  0.1129602E+005  0.1043930E+01  0.7957747E-01            NaN
         13   -1    0    0    0    0  0.00000000000E+00  0.00000000000E+00  0.74505805969E-08  0.10566000000E+00  0.10566000000E+00 0. -1.
     999900   -1    0    0    0    0 -0.00000000000E+00 -0.00000000000E+00 -0.74505805969E-08  0.93827000000E+00  0.93827000000E+00 0. -1.
     999902    2    1    2    0    0 -0.22151352696E-01  0.34316538106E-02 -0.71042586700E-02  0.10204155541E+01  0.10201445848E+01 0.  0.
     999903    2    3    3    0    0 -0.66225921664E-02 -0.75707326975E-01 -0.10567183748E+00  0.13124757883E+00  0.16850270853E-01 0.  0.
         14    1    1    2    0    0  0.22151352696E-01 -0.34316538106E-02  0.71042586700E-02  0.23514445887E-01  0.00000000000E+00 0.  1.
     999901    1    3    3    0    0 -0.15528760529E-01  0.79138980785E-01  0.98567578805E-01  0.88916797529E+00  0.88000000000E+00 0.  1.
        -11    1    4    4    0    0 -0.98749757737E-02 -0.61683078169E-01 -0.93162392779E-01  0.11216866687E+00  0.51100000000E-03 0.  1.
         11    1    4    4    0    0  0.32523836073E-02 -0.14024248806E-01 -0.12509444696E-01  0.19078911953E-01  0.51100000000E-03 0. -1.
</event>
<event>
 8    1  0.1129602E+005  0.1043930E+01  0.7957747E-01            NaN
         13   -1    0    0    0    0  0.00000000000E+00  0.00000000000E+00  0.74505805969E-08  0.10566000000E+00  0.10566000000E+00 0.  1.
     999900   -1    0    0    0    0 -0.00000000000E+00 -0.00000000000E+00 -0.74505805969E-08  0.93827000000E+00  0.93827000000E+00 0. -1.
     999902    2    1    2    0    0  0.24999466307E-01  0.42927864401E-02 -0.15359852851E-01  0.10142765616E+01  0.10138429942E+01 0.  0.
     999903    2    3    3    0    0 -0.22749526900E-01  0.42671285201E-01 -0.11491605958E+00  0.12654669623E+00  0.21679161045E-01 0.  0.
         14    1    1    2    0    0 -0.24999466307E-01 -0.42927864401E-02  0.15359852851E-01  0.29653438429E-01  0.00000000000E+00 0.  1.
     999901    1    3    3    0    0  0.47748993207E-01 -0.38378498761E-01  0.99556206725E-01  0.88772986534E+00  0.88000000000E+00 0.  1.
        -11    1    4    4    0    0  0.22480278836E-02  0.11243974748E-01 -0.15195906135E-01  0.19043562738E-01  0.51100000000E-03 0.  1.
         11    1    4    4    0    0 -0.24997554784E-01  0.31427310453E-01 -0.99720153441E-01  0.10750313349E+00  0.51100000000E-03 0. -1.
</event>
<event>
 8    1  0.1129602E+005  0.1043930E+01  0.7957747E-01            NaN
         13   -1    0    0    0    0  0.00000000000E+00  0.00000000000E+00  0.74505805969E-08  0.10566000000E+00  0.10566000000E+00 0. -1.
     999900   -1    0    0    0    0 -0.00000000000E+00 -0.00000000000E+00 -0.74505805969E-08  0.93827000000E+00  0.93827000000E+00 0. -1.
     999902    2    1    2    0    0  0.13285900231E-01  0.17306655376E-01 -0.67697064848E-03  0.10221012631E+01  0.10218681413E+01 0.  0.
     999903    2    3    3    0    0  0.83708518601E-01 -0.99333531192E-01  0.58742828017E-02  0.13159174759E+00  0.20189460847E-01 0.  0.
         14    1    1    2    0    0 -0.13285900231E-01 -0.17306655376E-01  0.67697064848E-03  0.21828736897E-01  0.00000000000E+00 0. -1.
     999901    1    3    3    0    0 -0.70422618369E-01  0.11664018657E+00 -0.65512534502E-02  0.89050951551E+00  0.88000000000E+00 0. -1.
        -11    1    4    4    0    0  0.57819586908E-01 -0.61762772307E-01  0.12361582676E-01  0.85503301225E-01  0.51100000000E-03 0. -1.
         11    1    4    4    0    0  0.25888931693E-01 -0.37570758885E-01 -0.64872998738E-02  0.46088446362E-01  0.51100000000E-03 0.  1.
</event>
<event>
 8    1  0.1129602E+005  0.1043930E+01  0.7957747E-01            NaN
         13   -1    0    0    0    0  0.00000000000E+00  0.00000000000E+00  0.74505805969E-08  0.10566000000E+00  0.10566000000E+00 0.  1.
     999900   -1    0    0    0    0 -0.00000000000E+00 -0.00000000000E+00 -0.74505805969E-08  0.93827000000E+00  0.93827000000E+00 0.  1.
     999902    2    1    2    0    0 -0.18053301183E-01  0.17387242262E-01 -0.22980200053E-01  0.10099251846E+01  0.10093525405E+01 0.  0.
     999903    2    3    3    0    0  0.45641716967E-01 -0.75131881945E-01  0.75297019863E-01  0.11735851725E+00  0.19375612467E-01 0.  0.
         14    1    1    2    0    0  0.18053301183E-01 -0.17387242262E-01  0.22980200053E-01  0.34004815417E-01  0.00000000000E+00 0. -1.
     999901    1    3    3    0    0 -0.63695018149E-01  0.92519124207E-01 -0.98277219916E-01  0.89256666733E+00  0.88000000000E+00 0.  1.
        -11    1    4    4    0    0  0.10551049257E-01 -0.35493937053E-01  0.32823729935E-01  0.49485377393E-01  0.51100000000E-03 0. -1.
         11    1    4    4    0    0  0.35090667710E-01 -0.39637944892E-01  0.42473289928E-01  0.67873139856E-01  0.51100000000E-03 0.  1.
</event>
<event>
 8    1  0.1129602E+005  0.1043930E+01  0.7957747E-01            NaN
         13   -1    0    0    0    0  0.00000000000E+00  0.00000000000E+00  0.74505805969E-08  0.10566000000E+00  0.10566000000E+00 0. -1.
     999900   -1    0    0    0    0 -0.00000000000E+00 -0.00000000000E+00 -0.74505805969E-08  0.93827000000E+00  0.93827000000E+00 0. -1.
     999902    2    1    2    0    0  0.20911910018E-01 -0.10229529924E-01 -0.73085378233E-02  0.10195298773E+01  0.10192378548E+01 0.  0.
     999903    2    3    3    0    0  0.18975558614E-01 -0.10006679346E+00  0.79324397322E-01  0.13072182781E+00  0.20552403188E-01 0.  0.
         14    1    1    2    0    0 -0.20911910018E-01  0.10229529924E-01  0.73085378233E-02  0.24400122709E-01  0.00000000000E+00 0. -1.
     999901    1    3    3    0    0  0.19363514038E-02  0.89837263535E-01 -0.86632935146E-01  0.88880804948E+00  0.88000000000E+00 0. -1.
        -11    1    4    4    0    0  0.14962748096E-01 -0.95792332365E-01  0.69581499445E-01  0.11933943588E+00  0.51100000000E-03 0.  1.
         11    1    4    4    0    0  0.40128105188E-02 -0.42744610943E-02  0.97428978774E-02  0.11382391926E-01  0.51100000000E-03 0. -1.
</event>
<event>
 8    1  0.1129602E+005  0.1043930E+01  0.7957747E-01            NaN
         13   -1    0    0    0    0  0.00000000000E+00  0.00000000000E+00  0.74505805969E-08  0.10566000000E+00  0.10566000000E+00 0.  1.
     999900   -1    0    0    0    0 -0.00000000000E+00 -0.00000000000E+00 -0.74505805969E-08  0.93827000000E+00  0.93827000000E+00 0. -1.
     999902    2    1    2    0    0 -0.21070904924E-01 -0.12518212367E-02  0.88869957734E-02  0.10210274066E+01  0.10207705111E+01 0.  0.
     999903    2    3    3    0    0 -0.10915183031E+00 -0.25610828297E-01 -0.68653779692E-01  0.13290343862E+00  0.19492202124E-01 0.  0.
         14    1    1    2    0    0  0.21070904924E-01  0.12518212367E-02 -0.88869957734E-02  0.22902593404E-01  0.00000000000E+00 0. -1.
     999901    1    3    3    0    0  0.88080925386E-01  0.24359007060E-01  0.77540775466E-01  0.88812396798E+00  0.88000000000E+00 0.  1.
        -11    1    4    4    0    0 -0.84337963723E-01 -0.27995442002E-01 -0.53675332383E-01  0.10381685473E+00  0.51100000000E-03 0.  1.
         11    1    4    4    0    0 -0.24813866587E-01  0.23846137059E-02 -0.14978447309E-01  0.29086583889E-01  0.51100000000E-03 0. -1.
</event>
<event>
 8    1  0.1129602E+005  0.1043930E+01  0.7957747E-01            NaN
         13   -1    0    0    0    0  0.00000000000E+00  0.00000000000E+00  0.74505805969E-08  0.10566000000E+00  0.10566000000E+00 0.  1.
     999900   -1    0    0    0    0 -0.00000000000E+00 -0.00000000000E+00 -0.74505805969E-08  0.93827000000E+00  0.93827000000E+00 0.  1.
     999902    2    1    2    0    0 -0.29719249419E-02  0.19938993042E-01 -0.11435398564E-01  0.10207531986E+01  0.10204900433E+01 0.  0.
     999903    2    3    3    0    0 -0.21031041471E-01 -0.66910047561E-01 -0.10878211415E+00  0.13095250714E+00  0.19893506393E-01 0.  0.
         14    1    1    2    0    0  0.29719249419E-02 -0.19938993042E-01  0.11435398564E-01  0.23176801369E-01  0.00000000000E+00 0. -1.
     999901    1    3    3    0    0  0.18059116529E-01  0.86849040603E-01  0.97346715588E-01  0.88980069149E+00  0.88000000000E+00 0. -1.
        -11    1    4    4    0    0 -0.34943770786E-02 -0.43299431896E-01 -0.62576559973E-01  0.76178333223E-01  0.51100000000E-03 0. -1.
         11    1    4    4    0    0 -0.17536664393E-01 -0.23610615665E-01 -0.46205554179E-01  0.54774173916E-01  0.51100000000E-03 0.  1.
</event>
<event>
 8    1  0.1129602E+005  0.1043930E+01  0.7957747E-01            NaN
         13   -1    0    0    0    0  0.00000000000E+00  0.00000000000E+00  0.74505805969E-08  0.10566000000E+00  0.10566000000E+00 0.  1.
     999900   -1    0    0    0    0 -0.00000000000E+00 -0.00000000000E+00 -0.74505805969E-08  0.93827000000E+00  0.93827000000E+00 0.  1.
     999902    2    1    2    0    0  0.15952540375E-01  0.17509865056E-01  0.33322113052E-02  0.10200096624E+01  0.10197291448E+01 0.  0.
     999903    2    3    3    0    0  0.42236152231E-01 -0.68947033676E-01 -0.98550679754E-01  0.12953465035E+00  0.23008762549E-01 0.  0.
         14    1    1    2    0    0 -0.15952540375E-01 -0.17509865056E-01 -0.33322113052E-02  0.23920337600E-01  0.00000000000E+00 0.  1.
     999901    1    3    3    0    0 -0.26283611855E-01  0.86456898732E-01  0.10188289106E+00  0.89047501205E+00  0.88000000000E+00 0. -1.
        -11    1    4    4    0    0  0.39005260210E-01 -0.43607722767E-01 -0.69351033360E-01  0.90735168253E-01  0.51100000000E-03 0. -1.
         11    1    4    4    0    0  0.32308920212E-02 -0.25339310910E-01 -0.29199646394E-01  0.38799482099E-01  0.51100000000E-03 0.  1.
</event>
<event>
 8    1  0.1129602E+005  0.1043930E+01  0.7957747E-01            NaN
         13   -1    0    0    0    0  0.00000000000E+00  0.00000000000E+00  0.74505805969E-08  0.10566000000E+00  0.10566000000E+00 0.  1.
     999900   -1    0    0    0    0 -0.00000000000E+00 -0.00000000000E+00 -0.74505805969E-08  0.93827000000E+00  0.93827000000E+00 0. -1.
     999902    2    1    2    0    0 -0.10605949151E-01 -0.92516958081E-03 -0.21585221071E-01  0.10198620989E+01  0.10195780680E+01 0.  0.
     999903    2    3    3    0    0 -0.10786305569E+00 -0.69067973674E-01  0.19361862176E-01  0.13094193927E+00  0.19133373510E-01 0.  0.
         14    1    1    2    0    0  0.10605949151E-01  0.92516958081E-03  0.21585221071E-01  0.24067901130E-01  0.00000000000E+00 0.  1.
     999901    1    3    3    0    0  0.97257106540E-01  0.68142804093E-01 -0.40947083247E-01  0.88892015960E+00  0.88000000000E+00 0. -1.
        -11    1    4    4    0    0 -0.53834335544E-01 -0.36323323433E-01  0.19340262358E-01  0.67763016298E-01  0.51100000000E-03 0. -1.
         11    1    4    4    0    0 -0.54028720147E-01 -0.32744650240E-01  0.21599818039E-04  0.63178922970E-01  0.51100000000E-03 0.  1.
</event>
<event>
 8    1  0.1129602E+005  0.1043930E+01  0.7957747E-01            NaN
         13   -1    0    0    0    0  0.00000000000E+00  0.00000000000E+00  0.74505805969E-08  0.10566000000E+00  0.10566000000E+00 0. -1.
     999900   -1    0    0    0    0 -0.00000000000E+00 -0.00000000000E+00 -0.74505805969E-08  0.93827000000E+00  0.93827000000E+00 0.  1.
     999902    2    1    2    0    0  0.21741428770E-01 -0.11330417814E-01 -0.19446618946E-02  0.10193363056E+01  0.10190395744E+01 0.  0.
     999903    2    3    3    0    0 -0.75292824079E-02  0.12503933800E+00  0.17553504499E-01  0.12813842450E+00  0.20489123258E-01 0.  0.
         14    1    1    2    0    0 -0.21741428770E-01  0.11330417814E-01  0.19446618946E-02  0.24593694368E-01  0.00000000000E+00 0.  1.
     999901    1    3    3    0    0  0.29270711178E-01 -0.13636975582E+00 -0.19498166393E-01  0.89119788113E+00  0.88000000000E+00 0.  1.
        -11    1    4    4    0    0 -0.14217860901E-01  0.67268401796E-01  0.85311961386E-02  0.69283676846E-01  0.51100000000E-03 0. -1.
         11    1    4    4    0    0  0.66885784927E-02  0.57770936209E-01  0.90223083603E-02  0.58854747657E-01  0.51100000000E-03 0.  1.
</event>
<event>
 8    1  0.1129602E+005  0.1043930E+01  0.7957747E-01            NaN
         13   -1    0    0    0    0  0.00000000000E+00  0.00000000000E+00  0.74505805969E-08  0.10566000000E+00  0.10566000000E+00 0.  1.
     999900   -1    0    0    0    0 -0.00000000000E+00 -0.00000000000E+00 -0.74505805969E-08  0.93827000000E+00  0.93827000000E+00 0. -1.
     999902    2    1    2    0    0 -0.12815988168E-01 -0.14539392523E-02 -0.21934360723E-01  0.10184843781E+01  0.10181664642E+01 0.  0.
     999903    2    3    3    0    0 -0.60420335468E-01  0.96759817081E-01  0.55346660377E-01  0.12838074819E+00  0.20131680267E-01 0.  0.
         14    1    1    2    0    0  0.12815988168E-01  0.14539392523E-02  0.21934360723E-01  0.25445621871E-01  0.00000000000E+00 0.  1.
     999901    1    3    3    0    0  0.47604347300E-01 -0.98213756334E-01 -0.77281021100E-01  0.89010362994E+00  0.88000000000E+00 0. -1.
        -11    1    4    4    0    0 -0.48230641640E-01  0.74558703830E-01  0.33433158243E-01  0.94885363997E-01  0.51100000000E-03 0.  1.
         11    1    4    4    0    0 -0.12189693828E-01  0.22201113251E-01  0.21913502134E-01  0.33495384189E-01  0.51100000000E-03 0. -1.
</event>
<event>
 8    1  0.1129602E+005  0.1043930E+01  0.7957747E-01            NaN
         13   -1    0    0    0    0  0.00000000000E+00  0.00000000000E+00  0.74505805969E-08  0.10566000000E+00  0.10566000000E+00 0.  1.
     999900   -1    0    0    0    0 -0.00000000000E+00 -0.00000000000E+00 -0.74505805969E-08  0.93827000000E+00  0.93827000000E+00 0. -1.
     999902    2    1    2    0    0 -0.29334978568E-02  0.18238574714E-01  0.16485730155E-01  0.10191705510E+01  0.10188697570E+01 0.  0.
     999903    2    3    3    0    0  0.77076823956E-01  0.91557034270E-01  0.51432333891E-01  0.13181576667E+00  0.20163929655E-01 0.  0.
         14    1    1    2    0    0  0.29334978568E-02 -0.18238574714E-01 -0.16485730155E-01  0.24759449025E-01  0.00000000000E+00 0. -1.
     999901    1    3    3    0    0 -0.80010321813E-01 -0.73318459556E-01 -0.34946603736E-01  0.88735478430E+00  0.88000000000E+00 0. -1.
        -11    1    4    4    0    0  0.52842193366E-01  0.58822972941E-01  0.23736761639E-01  0.82559884444E-01  0.51100000000E-03 0. -1.
         11    1    4    4    0    0  0.24234630590E-01  0.32734061328E-01  0.27695572252E-01  0.49255882230E-01  0.51100000000E-03 0.  1.
</event>
<event>
 8    1  0.1129602E+005  0.1043930E+01  0.7957747E-01            NaN
         13   -1    0    0    0    0  0.00000000000E+00  0.00000000000E+00  0.74505805969E-08  0.10566000000E+00  0.10566000000E+00 0.  1.
     999900   -1    0    0    0    0 -0.00000000000E+00 -0.00000000000E+00 -0.74505805969E-08  0.93827000000E+00  0.93827000000E+00 0. -1.
     999902    2    1    2    0    0 -0.12955100304E-01 -0.52158481659E-02 -0.20910963388E-01  0.10187842631E+01  0.10184738910E+01 0.  0.
     999903    2    3    3    0    0 -0.96313556353E-01 -0.29140700494E-01 -0.83580360193E-01  0.13230330780E+00  0.19824406246E-01 0.  0.
         14    1    1    2    0    0  0.12955100304E-01  0.52158481659E-02  0.20910963388E-01  0.25145736931E-01  0.00000000000E+00 0.  1.
     999901    1    3    3    0    0  0.83358456049E-01  0.23924852328E-01  0.62669396805E-01  0.88648095527E+00  0.88000000000E+00 0.  1.
        -11    1    4    4    0    0 -0.78153699340E-01 -0.21663530300E-01 -0.56478857204E-01  0.98830317705E-01  0.51100000000E-03 0. -1.
         11    1    4    4    0    0 -0.18159857013E-01 -0.74771701931E-02 -0.27101502989E-01  0.33472990098E-01  0.51100000000E-03 0.  1.
</event>
<event>
 8    1  0.1129602E+005  0.1043930E+01  0.7957747E-01            NaN
         13   -1    0    0    0    0  0.00000000000E+00  0.00000000000E+00  0.74505805969E-08  0.10566000000E+00  0.10566000000E+00 0. -1.
     999900   -1    0    0    0    0 -0.00000000000E+00 -0.00000000000E+00 -0.74505805969E-08  0.93827000000E+00  0.93827000000E+00 0.  1.
     999902    2    1    2    0    0  0.74000579668E-02 -0.14768681352E-01  0.15071827650E-01  0.10215685422E+01  0.10213237741E+01 0.  0.
     999903    2    3    3    0    0 -0.18992538945E-01 -0.11639227350E+00  0.60673091248E-01  0.13415465966E+00  0.20208187482E-01 0.  0.
         14    1    1    2    0    0 -0.74000579668E-02  0.14768681352E-01 -0.15071827650E-01  0.22361457812E-01  0.00000000000E+00 0.  1.
     999901    1    3    3    0    0  0.26392596912E-01  0.10162359215E+00 -0.45601263599E-01  0.88741388252E+00  0.88000000000E+00 0. -1.
        -11    1    4    4    0    0 -0.19129755482E-01 -0.10288235879E+00  0.59977990018E-01  0.12061653163E+00  0.51100000000E-03 0.  1.
         11    1    4    4    0    0  0.13721653749E-03 -0.13509914717E-01  0.69510123053E-03  0.13538128037E-01  0.51100000000E-03 0. -1.
</event>
<event>
 8    1  0.1129602E+005  0.1043930E+01  0.7957747E-01            NaN
         13   -1    0    0    0    0  0.00000000000E+00  0.00000000000E+00  0.74505805969E-08  0.10566000000E+00  0.10566000000E+00 0.  1.
     999900   -1    0    0    0    0 -0.00000000000E+00 -0.00000000000E+00 -0.74505805969E-08  0.93827000000E+00  0.93827000000E+00 0.  1.
     999902    2    1    2    0    0  0.22214546738E-01  0.11311685953E-02  0.59831924383E-02  0.10208960203E+01  0.10206361350E+01 0.  0.
     999903    2    3    3    0    0  0.85751266175E-01  0.59575085319E-01 -0.79254223609E-01  0.13257286783E+00  0.19795526844E-01 0.  0.
         14    1    1    2    0    0 -0.22214546738E-01 -0.11311685953E-02 -0.59831924383E-02  0.23033979702E-01  0.00000000000E+00 0.  1.
     999901    1    3    3    0    0 -0.63536719437E-01 -0.58443916724E-01  0.85237416047E-01  0.88832315247E+00  0.88000000000E+00 0. -1.
        -11    1    4    4    0    0  0.76367645181E-01  0.58177311131E-01 -0.67023650115E-01  0.11708564197E+00  0.51100000000E-03 0. -1.
         11    1    4    4    0    0  0.93836209941E-02  0.13977741875E-02 -0.12230573494E-01  0.15487225854E-01  0.51100000000E-03 0.  1.
</event>
<event>
 8    1  0.1129602E+005  0.1043930E+01  0.7957747E-01            NaN
         13   -1    0    0    0    0  0.00000000000E+00  0.00000000000E+00  0.74505805969E-08  0.10566000000E+00  0.10566000000E+00 0. -1.
     999900   -1    0    0    0    0 -0.00000000000E+00 -0.00000000000E+00 -0.74505805969E-08  0.93827000000E+00  0.93827000000E+00 0.  1.
     999902    2    1    2    0    0 -0.58500751758E-02  0.23054204464E-01 -0.12229442615E-02  0.10201137174E+01  0.10198356638E+01 0.  0.
     999903    2    3    3    0    0  0.10239245213E+00  0.71868331571E-01  0.34918653602E-01  0.13140370914E+00  0.19958734228E-01 0.  0.
         14    1    1    2    0    0  0.58500751758E-02 -0.23054204464E-01  0.12229442615E-02  0.23816282575E-01  0.00000000000E+00 0. -1.
     999901    1    3    3    0    0 -0.10824252730E+00 -0.48814127107E-01 -0.36141597863E-01  0.88871000828E+00  0.88000000000E+00 0.  1.
        -11    1    4    4    0    0  0.33124783301E-01  0.32498883560E-01  0.67555067969E-02  0.46896979588E-01  0.51100000000E-03 0. -1.
         11    1    4    4    0    0  0.69267668827E-01  0.39369448011E-01  0.28163146805E-01  0.84506729556E-01  0.51100000000E-03 0.  1.
</event>
<event>
 7    1  0.1129602E+005  0.1043930E+01  0.7957747E-01            NaN
         13   -1    0    0    0    0  0.00000000000E+00  0.00000000000E+00  0.74505805969E-08  0.10566000000E+00  0.10566000000E+00 0.  1.
     999900   -1    0    0    0    0 -0.00000000000E+00 -0.00000000000E+00 -0.74505805969E-08  0.93827000000E+00  0.93827000000E+00 0.  1.
     999903    2    1    2    0    0  0.48579694997E-01 -0.60990900846E-01 -0.72781356397E-01  0.10897349823E+00  0.22320858525E-01 0.  0.
         14    1    1    2    0    0 -0.44944910071E-01 -0.34594917286E-02  0.24420656561E-01  0.51267743184E-01  0.00000000000E+00 0.  1.
     999901    1    1    2    0    0 -0.36347849259E-02  0.64450392574E-01  0.48360699836E-01  0.88368875859E+00  0.88000000000E+00 0.  1.
        -11    1    3    3    0    0  0.26069499046E-01 -0.41672726654E-01 -0.32437074770E-01  0.58895329764E-01  0.51100000000E-03 0. -1.
         11    1    3    3    0    0  0.22510195951E-01 -0.19318174191E-01 -0.40344281627E-01  0.50078168465E-01  0.51100000000E-03 0.  1.
</event>
<event>
 8    1  0.1129602E+005  0.1043930E+01  0.7957747E-01            NaN
         13   -1    0    0    0    0  0.00000000000E+00  0.00000000000E+00  0.74505805969E-08  0.10566000000E+00  0.10566000000E+00 0. -1.
     999900   -1    0    0    0    0 -0.00000000000E+00 -0.00000000000E+00 -0.74505805969E-08  0.93827000000E+00  0.93827000000E+00 0.  1.
     999902    2    1    2    0    0 -0.22902529323E-01 -0.56294124513E-02 -0.14623605957E-02  0.10203004712E+01  0.10200268118E+01 0.  0.
     999903    2    3    3    0    0  0.12347011624E+00 -0.25658093465E-01 -0.88268107609E-02  0.12795505904E+00  0.19783255099E-01 0.  0.
         14    1    1    2    0    0  0.22902529323E-01  0.56294124513E-02  0.14623605957E-02  0.23629528825E-01  0.00000000000E+00 0.  1.
     999901    1    3    3    0    0 -0.14637264556E+00  0.20028681014E-01  0.73644501652E-02  0.89234541213E+00  0.88000000000E+00 0. -1.
        -11    1    4    4    0    0  0.99531800353E-01 -0.27047816434E-01 -0.11679642941E-01  0.10380192116E+00  0.51100000000E-03 0. -1.
         11    1    4    4    0    0  0.23938315883E-01  0.13897229690E-02  0.28528321804E-02  0.24153137885E-01  0.51100000000E-03 0.  1.
</event>
<event>
 8    1  0.1129602E+005  0.1043930E+01  0.7957747E-01            NaN
         13   -1    0    0    0    0  0.00000000000E+00  0.00000000000E+00  0.74505805969E-08  0.10566000000E+00  0.10566000000E+00 0. -1.
     999900   -1    0    0    0    0 -0.00000000000E+00 -0.00000000000E+00 -0.74505805969E-08  0.93827000000E+00  0.93827000000E+00 0. -1.
     999902    2    1    2    0    0 -0.15338024384E-01 -0.13689922029E-01 -0.10484414318E-02  0.10233443694E+01  0.10231372978E+01 0.  0.
     999903    2    3    3    0    0  0.91779113902E-01 -0.94411707179E-01 -0.13216448627E-02  0.13318137167E+00  0.19963837653E-01 0.  0.
         14    1    1    2    0    0  0.15338024384E-01  0.13689922029E-01  0.10484414318E-02  0.20585630586E-01  0.00000000000E+00 0.  1.
     999901    1    3    3    0    0 -0.10711713829E+00  0.80721785150E-01  0.27320343091E-03  0.89016299774E+00  0.88000000000E+00 0.  1.
        -11    1    4    4    0    0  0.35354988364E-01 -0.30465309960E-01 -0.90755928545E-02  0.47547216741E-01  0.51100000000E-03 0. -1.
         11    1    4    4    0    0  0.56424125538E-01 -0.63946397219E-01  0.77539479918E-02  0.85634154930E-01  0.51100000000E-03 0.  1.
</event>
<event>
 8    1  0.1129602E+005  0.1043930E+01  0.7957747E-01            NaN
         13   -1    0    0    0    0  0.00000000000E+00  0.00000000000E+00  0.74505805969E-08  0.10566000000E+00  0.10566000000E+00 0. -1.
     999900   -1    0    0    0    0 -0.00000000000E+00 -0.00000000000E+00 -0.74505805969E-08  0.93827000000E+00  0.93827000000E+00 0.  1.
     999902    2    1    2    0    0 -0.11812408896E-01  0.20681677023E-01  0.51769922887E-02  0.10195565305E+01  0.10192651533E+01 0.  0.
     999903    2    3    3    0    0  0.29915639408E-01 -0.11863335398E+00  0.28829784667E-01  0.12730692274E+00  0.20176172474E-01 0.  0.
         14    1    1    2    0    0  0.11812408896E-01 -0.20681677023E-01 -0.51769922887E-02  0.24373469543E-01  0.00000000000E+00 0.  1.
     999901    1    3    3    0    0 -0.41728048304E-01  0.13931503101E+00 -0.23652792379E-01  0.89224960771E+00  0.88000000000E+00 0. -1.
        -11    1    4    4    0    0  0.37228857518E-02 -0.82737320715E-02 -0.28779060584E-02  0.95319454989E-02  0.51100000000E-03 0.  1.
         11    1    4    4    0    0  0.26192753656E-01 -0.11035962191E+00  0.31707690726E-01  0.11777497724E+00  0.51100000000E-03 0. -1.
</event>
<event>
 8    1  0.1129602E+005  0.1043930E+01  0.7957747E-01            NaN
         13   -1    0    0    0    0  0.00000000000E+00  0.00000000000E+00  0.74505805969E-08  0.10566000000E+00  0.10566000000E+00 0. -1.
     999900   -1    0    0    0    0 -0.00000000000E+00 -0.00000000000E+00 -0.74505805969E-08  0.93827000000E+00  0.93827000000E+00 0.  1.
     999902    2    1    2    0    0 -0.16750862770E-01 -0.12067181946E-01 -0.11061193661E-01  0.10205086788E+01  0.10202398763E+01 0.  0.
     999903    2    3    3    0    0 -0.32204436804E-01 -0.12504471238E+00  0.21911614123E-01  0.13253911768E+00  0.20327150300E-01 0.  0.
         14    1    1    2    0    0  0.16750862770E-01  0.12067181946E-01  0.11061193661E-01  0.23421321246E-01  0.00000000000E+00 0.  1.
     999901    1    3    3    0    0  0.15453574033E-01  0.11297753043E+00 -0.32972807785E-01  0.88796956107E+00  0.88000000000E+00 0. -1.
        -11    1    4    4    0    0 -0.41776903694E-02 -0.48565284174E-01  0.13905994051E-01  0.50691988670E-01  0.51100000000E-03 0. -1.
         11    1    4    4    0    0 -0.28026746434E-01 -0.76479428205E-01  0.80056200723E-02  0.81847129015E-01  0.51100000000E-03 0.  1.
</event>
<event>
 8    1  0.1129602E+005  0.1043930E+01  0.7957747E-01            NaN
         13   -1    0    0    0    0  0.00000000000E+00  0.00000000000E+00  0.74505805969E-08  0.10566000000E+00  0.10566000000E+00 0. -1.
     999900   -1    0    0    0    0 -0.00000000000E+00 -0.00000000000E+00 -0.74505805969E-08  0.93827000000E+00  0.93827000000E+00 0. -1.
     999902    2    1    2    0    0  0.23346542740E-01 -0.28946250001E-02  0.42744110634E-02  0.10200195315E+01  0.10197392482E+01 0.  0.
     999903    2    3    3    0    0 -0.32666997388E-02  0.12341090719E+00  0.35892130778E-01  0.13004142376E+00  0.19534674355E-01 0.  0.
         14    1    1    2    0    0 -0.23346542740E-01  0.28946250001E-02 -0.42744110634E-02  0.23910468455E-01  0.00000000000E+00 0.  1.
     999901    1    3    3    0    0  0.26613242479E-01 -0.12630553219E+00 -0.31617719714E-01  0.88997810778E+00  0.88000000000E+00 0. -1.
        -11    1    4    4    0    0  0.72550554180E-02  0.63278274549E-01  0.22409020373E-01  0.67521857011E-01  0.51100000000E-03 0.  1.
         11    1    4    4    0    0 -0.10521755157E-01  0.60132632637E-01  0.13483110405E-01  0.62519566750E-01  0.51100000000E-03 0. -1.
</event>
<event>
 8    1  0.1129602E+005  0.1043930E+01  0.7957747E-01            NaN
         13   -1    0    0    0    0  0.00000000000E+00  0.00000000000E+00  0.74505805969E-08  0.10566000000E+00  0.10566000000E+00 0. -1.
     999900   -1    0    0    0    0 -0.00000000000E+00 -0.00000000000E+00 -0.74505805969E-08  0.93827000000E+00  0.93827000000E+00 0.  1.
     999902    2    1    2    0    0 -0.13267601535E-01 -0.97169329722E-02 -0.18109057199E-01  0.10194680706E+01  0.10191745488E+01 0.  0.
     999903    2    3    3    0    0 -0.11878989584E+00  0.13043663917E-01  0.48716320426E-01  0.13035692432E+00  0.18397590009E-01 0.  0.
         14    1    1    2    0    0  0.13267601535E-01  0.97169329722E-02  0.18109057199E-01  0.24461929391E-01  0.00000000000E+00 0. -1.
     999901    1    3    3    0    0  0.10552229431E+00 -0.22760596889E-01 -0.66825377626E-01  0.88911114629E+00  0.88000000000E+00 0.  1.
        -11    1    4    4    0    0 -0.71678601080E-01 -0.23008841919E-03  0.33302259657E-01  0.79039081553E-01  0.51100000000E-03 0.  1.
         11    1    4    4    0    0 -0.47111294765E-01  0.13273752336E-01  0.15414060770E-01  0.51317842764E-01  0.51100000000E-03 0. -1.
</event>
<event>
 8    1  0.1129602E+005  0.1043930E+01  0.7957747E-01            NaN
         13   -1    0    0    0    0  0.00000000000E+00  0.00000000000E+00  0.74505805969E-08  0.10566000000E+00  0.10566000000E+00 0. -1.
     999900   -1    0    0    0    0 -0.00000000000E+00 -0.00000000000E+00 -0.74505805969E-08  0.93827000000E+00  0.93827000000E+00 0.  1.
     999902    2    1    2    0    0 -0.11501917766E-01 -0.69265103558E-02 -0.19598582358E-01  0.10201734201E+01  0.10198967752E+01 0.  0.
     999903    2    3    3    0    0  0.38498151635E-01  0.88629020597E-01  0.81187082856E-01  0.12787940087E+00  0.20605527753E-01 0.  0.
         14    1    1    2    0    0  0.11501917766E-01  0.69265103558E-02  0.19598582358E-01  0.23756579898E-01  0.00000000000E+00 0. -1.
     999901    1    3    3    0    0 -0.50000069402E-01 -0.95555530953E-01 -0.10078566521E+00  0.89229401923E+00  0.88000000000E+00 0.  1.
        -11    1    4    4    0    0  0.21444119283E-01  0.68521571606E-01  0.65544680851E-01  0.97218425908E-01  0.51100000000E-03 0. -1.
         11    1    4    4    0    0  0.17054032352E-01  0.20107448991E-01  0.15642402005E-01  0.30660974966E-01  0.51100000000E-03 0.  1.
</event>
<event>
 8    1  0.1129602E+005  0.1043930E+01  0.7957747E-01            NaN
         13   -1    0    0    0    0  0.00000000000E+00  0.00000000000E+00  0.74505805969E-08  0.10566000000E+00  0.10566000000E+00 0.  1.
     999900   -1    0    0    0    0 -0.00000000000E+00 -0.00000000000E+00 -0.74505805969E-08  0.93827000000E+00  0.93827000000E+00 0.  1.
     999902    2    1    2    0    0 -0.17931308699E-01 -0.14075033361E-01 -0.91430242946E-02  0.10193691920E+01  0.10190732635E+01 0.  0.
     999903    2    3    3    0    0  0.10148440952E+00 -0.73610177534E-01 -0.24251110304E-01  0.12918224456E+00  0.19554854827E-01 0.  0.
         14    1    1    2    0    0  0.17931308699E-01  0.14075033361E-01  0.91430242946E-02  0.24560807988E-01  0.00000000000E+00 0. -1.
     999901    1    3    3    0    0 -0.11941571822E+00  0.59535144173E-01  0.15108086009E-01  0.89018694745E+00  0.88000000000E+00 0.  1.
        -11    1    4    4    0    0  0.69429527463E-01 -0.58802595807E-01 -0.22992943407E-01  0.93846369801E-01  0.51100000000E-03 0. -1.
         11    1    4    4    0    0  0.32054882055E-01 -0.14807581727E-01 -0.12581668966E-02  0.35335874761E-01  0.51100000000E-03 0.  1.
</event>
<event>
 8    1  0.1129602E+005  0.1043930E+01  0.7957747E-01            NaN
         13   -1    0    0    0    0  0.00000000000E+00  0.00000000000E+00  0.74505805969E-08  0.10566000000E+00  0.10566000000E+00 0. -1.
     999900   -1    0    0    0    0 -0.00000000000E+00 -0.00000000000E+00 -0.74505805969E-08  0.93827000000E+00  0.93827000000E+00 0. -1.
     999902    2    1    2    0    0 -0.27182109311E-02  0.20434748202E-01 -0.11599305680E-01  0.10202760046E+01  0.10200017716E+01 0.  0.
     999903    2    3    3    0    0 -0.83094472605E-01  0.10169061271E+00 -0.25838607338E-02  0.13283916901E+00  0.19846823355E-01 0.  0.
         14    1    1    2    0    0  0.27182109311E-02 -0.20434748202E-01  0.11599305680E-01  0.23653995371E-01  0.00000000000E+00 0. -1.
     999901    1    3    3    0    0  0.80376261674E-01 -0.81255864508E-01 -0.90154449465E-02  0.88743683561E+00  0.88000000000E+00 0. -1.
        -11    1    4    4    0    0 -0.25008337971E-01  0.19358249920E-01  0.39017698160E-02  0.31869165925E-01  0.51100000000E-03 0. -1.
         11    1    4    4    0    0 -0.58086134634E-01  0.82332362790E-01 -0.64856305498E-02  0.10097000309E+00  0.51100000000E-03 0.  1.
</event>
<event>
 8    1  0.1129602E+005  0.1043930E+01  0.7957747E-01            NaN
         13   -1    0    0    0    0  0.00000000000E+00  0.00000000000E+00  0.74505805969E-08  0.10566000000E+00  0.10566000000E+00 0.  1.
     999900   -1    0    0    0    0 -0.00000000000E+00 -0.00000000000E+00 -0.74505805969E-08  0.93827000000E+00  0.93827000000E+00 0.  1.
     999902    2    1    2    0    0 -0.24870446238E-01 -0.34808382311E-02  0.27899250614E-02  0.10186626493E+01  0.10183492299E+01 0.  0.
     999903    2    3    3    0    0 -0.99822870857E-01  0.20569493712E-01 -0.80222239360E-01  0.13125783530E+00  0.20132114193E-01 0.  0.
         14    1    1    2    0    0  0.24870446238E-01  0.34808382311E-02 -0.27899250614E-02  0.25267350726E-01  0.00000000000E+00 0.  1.
     999901    1    3    3    0    0  0.74952424618E-01 -0.24050331943E-01  0.83012164421E-01  0.88740481397E+00  0.88000000000E+00 0. -1.
        -11    1    4    4    0    0 -0.28041499703E-01  0.91740021828E-02 -0.34465786713E-01  0.45372233760E-01  0.51100000000E-03 0. -1.
         11    1    4    4    0    0 -0.71781371154E-01  0.11395491530E-01 -0.45756452647E-01  0.85885601539E-01  0.51100000000E-03 0.  1.
</event>
<event>
 8    1  0.1129602E+005  0.1043930E+01  0.7957747E-01            NaN
         13   -1    0    0    0    0  0.00000000000E+00  0.00000000000E+00  0.74505805969E-08  0.10566000000E+00  0.10566000000E+00 0. -1.
     999900   -1    0    0    0    0 -0.00000000000E+00 -0.00000000000E+00 -0.74505805969E-08  0.93827000000E+00  0.93827000000E+00 0. -1.
     999902    2    1    2    0    0 -0.21698711232E-02 -0.23374100768E-01  0.58775507080E-04  0.10204553247E+01  0.10201852818E+01 0.  0.
     999903    2    3    3    0    0 -0.33445326848E-01 -0.96983820538E-02  0.12467636721E+00  0.13102026601E+00  0.20235243058E-01 0.  0.
         14    1    1    2    0    0  0.21698711232E-02  0.23374100768E-01 -0.58775507080E-04  0.23474675332E-01  0.00000000000E+00 0. -1.
     999901    1    3    3    0    0  0.31275455725E-01 -0.13675718714E-01 -0.12461759170E+00  0.88943505866E+00  0.88000000000E+00 0. -1.
        -11    1    4    4    0    0 -0.32336922307E-01 -0.12255151280E-01  0.93087919582E-01  0.99305020872E-01  0.51100000000E-03 0. -1.
         11    1    4    4    0    0 -0.11084045411E-02  0.25567692263E-02  0.31588447627E-01  0.31715245135E-01  0.51100000000E-03 0.  1.
</event>
<event>
 8    1  0.1129602E+005  0.1043930E+01  0.7957747E-01            NaN
         13   -1    0    0    0    0  0.00000000000E+00  0.00000000000E+00  0.74505805969E-08  0.10566000000E+00  0.10566000000E+00 0.  1.
     999900   -1    0    0    0    0 -0.00000000000E+00 -0.00000000000E+00 -0.74505805969E-08  0.93827000000E+00  0.93827000000E+00 0. -1.
     999902    2    1    2    0    0  0.22451644456E-01 -0.67045591119E-03 -0.67196473301E-02  0.10204847551E+01  0.10202153968E+01 0.  0.
     999903    2    3    3    0    0 -0.73918762399E-01  0.34566182443E-01 -0.98851359310E-01  0.12974510267E+00  0.20084721188E-01 0.  0.
         14    1    1    2    0    0 -0.22451644456E-01  0.67045591119E-03  0.67196473301E-02  0.23445244936E-01  0.00000000000E+00 0. -1.
     999901    1    3    3    0    0  0.96370406855E-01 -0.35236638354E-01  0.92131711980E-01  0.89073965240E+00  0.88000000000E+00 0.  1.
        -11    1    4    4    0    0 -0.31090293063E-01  0.22840911668E-01 -0.56228021061E-01  0.68192118621E-01  0.51100000000E-03 0.  1.
         11    1    4    4    0    0 -0.42828469336E-01  0.11725270775E-01 -0.42623338249E-01  0.61552984045E-01  0.51100000000E-03 0. -1.
</event>
<event>
 8    1  0.1129602E+005  0.1043930E+01  0.7957747E-01            NaN
         13   -1    0    0    0    0  0.00000000000E+00  0.00000000000E+00  0.74505805969E-08  0.10566000000E+00  0.10566000000E+00 0.  1.
     999900   -1    0    0    0    0 -0.00000000000E+00 -0.00000000000E+00 -0.74505805969E-08  0.93827000000E+00  0.93827000000E+00 0.  1.
     999902    2    1    2    0    0  0.75852593782E-02  0.22493793819E-01 -0.84410186793E-03  0.10201766965E+01  0.10199001287E+01 0.  0.
     999903    2    3    3    0    0 -0.10301823386E+00  0.32356119344E-01  0.70567362484E-01  0.13032839737E+00  0.18602783305E-01 0.  0.
         14    1    1    2    0    0 -0.75852593782E-02 -0.22493793819E-01  0.84410186793E-03  0.23753303521E-01  0.00000000000E+00 0. -1.
     999901    1    3    3    0    0  0.11060349324E+00 -0.98623255253E-02 -0.71411464352E-01  0.88984829911E+00  0.88000000000E+00 0.  1.
        -11    1    4    4    0    0 -0.67101929137E-01  0.15636797474E-01  0.53289220356E-01  0.87104422714E-01  0.51100000000E-03 0. -1.
         11    1    4    4    0    0 -0.35916304725E-01  0.16719321870E-01  0.17278142128E-01  0.43223974659E-01  0.51100000000E-03 0.  1.
</event>
<event>
 8    1  0.1129602E+005  0.1043930E+01  0.7957747E-01            NaN
         13   -1    0    0    0    0  0.00000000000E+00  0.00000000000E+00  0.74505805969E-08  0.10566000000E+00  0.10566000000E+00 0.  1.
     999900   -1    0    0    0    0 -0.00000000000E+00 -0.00000000000E+00 -0.74505805969E-08  0.93827000000E+00  0.93827000000E+00 0. -1.
     999902    2    1    2    0    0  0.21539337484E-01 -0.16226227706E-02 -0.89470115180E-02  0.10205499876E+01  0.10202821435E+01 0.  0.
     999903    2    3    3    0    0 -0.14364099970E-01 -0.12773196731E+00 -0.77211882942E-02  0.13083423175E+00  0.23155919480E-01 0.  0.
         14    1    1    2    0    0 -0.21539337484E-01  0.16226227706E-02  0.89470115180E-02  0.23380012383E-01  0.00000000000E+00 0.  1.
     999901    1    3    3    0    0  0.35903437454E-01  0.12610934454E+00 -0.12258232238E-02  0.88971575587E+00  0.88000000000E+00 0. -1.
        -11    1    4    4    0    0 -0.14119452506E-02 -0.86792262092E-01 -0.12200742723E-01  0.87658482718E-01  0.51100000000E-03 0. -1.
         11    1    4    4    0    0 -0.12952154719E-01 -0.40939705219E-01  0.44795544291E-02  0.43175749029E-01  0.51100000000E-03 0.  1.
</event>
<event>
 8    1  0.1129602E+005  0.1043930E+01  0.7957747E-01            NaN
         13   -1    0    0    0    0  0.00000000000E+00  0.00000000000E+00  0.74505805969E-08  0.10566000000E+00  0.10566000000E+00 0. -1.
     999900   -1    0    0    0    0 -0.00000000000E+00 -0.00000000000E+00 -0.74505805969E-08  0.93827000000E+00  0.93827000000E+00 0.  1.
     999902    2    1    2    0    0 -0.91366538279E-02  0.29094315321E-03 -0.21616265062E-01  0.10204603173E+01  0.10201903906E+01 0.  0.
     999903    2    3    3    0    0 -0.16306398453E-01  0.11224370247E+00  0.59543319055E-01  0.12963390118E+00  0.19874458851E-01 0.  0.
         14    1    1    2    0    0  0.91366538279E-02 -0.29094315321E-03  0.21616265062E-01  0.23469682706E-01  0.00000000000E+00 0. -1.
     999901    1    3    3    0    0  0.71697446247E-02 -0.11195275932E+00 -0.81159584118E-01  0.89082641612E+00  0.88000000000E+00 0.  1.
        -11    1    4    4    0    0  0.75019871897E-03  0.41858309717E-01  0.29542894364E-01  0.51241824898E-01  0.51100000000E-03 0. -1.
         11    1    4    4    0    0 -0.17056597172E-01  0.70385392757E-01  0.30000424691E-01  0.78392076279E-01  0.51100000000E-03 0.  1.
</event>
<event>
 8    1  0.1129602E+005  0.1043930E+01  0.7957747E-01            NaN
         13   -1    0    0    0    0  0.00000000000E+00  0.00000000000E+00  0.74505805969E-08  0.10566000000E+00  0.10566000000E+00 0.  1.
     999900   -1    0    0    0    0 -0.00000000000E+00 -0.00000000000E+00 -0.74505805969E-08  0.93827000000E+00  0.93827000000E+00 0. -1.
     999902    2    1    2    0    0 -0.20485041245E-01 -0.11051998475E-01 -0.38469759019E-02  0.10203379927E+01  0.10200652119E+01 0.  0.
     999903    2    3    3    0    0  0.87383554915E-01 -0.70153598479E-01  0.60422353028E-01  0.12946247962E+00  0.23500209229E-01 0.  0.
         14    1    1    2    0    0  0.20485041245E-01  0.11051998475E-01  0.38469759019E-02  0.23592007305E-01  0.00000000000E+00 0.  1.
     999901    1    3    3    0    0 -0.10786859616E+00  0.59101600005E-01 -0.64269328930E-01  0.89087551308E+00  0.88000000000E+00 0. -1.
        -11    1    4    4    0    0  0.39351050670E-01 -0.28142189073E-01  0.39015780908E-01  0.62152878256E-01  0.51100000000E-03 0. -1.
         11    1    4    4    0    0  0.48032504245E-01 -0.42011409407E-01  0.21406572120E-01  0.67309601360E-01  0.51100000000E-03 0.  1.
</event>
<event>
 8    1  0.1129602E+005  0.1043930E+01  0.7957747E-01            NaN
         13   -1    0    0    0    0  0.00000000000E+00  0.00000000000E+00  0.74505805969E-08  0.10566000000E+00  0.10566000000E+00 0.  1.
     999900   -1    0    0    0    0 -0.00000000000E+00 -0.00000000000E+00 -0.74505805969E-08  0.93827000000E+00  0.93827000000E+00 0. -1.
     999902    2    1    2    0    0  0.22486394797E-01  0.84316248503E-02  0.38190142494E-02  0.10196130282E+01  0.10193230166E+01 0.  0.
     999903    2    3    3    0    0  0.12663588818E+00  0.36197598310E-01 -0.53081336665E-03  0.13302575822E+00  0.18672340244E-01 0.  0.
         14    1    1    2    0    0 -0.22486394797E-01 -0.84316248503E-02 -0.38190142494E-02  0.24316971818E-01  0.00000000000E+00 0. -1.
     999901    1    3    3    0    0 -0.10414949338E+00 -0.27765973459E-01  0.43498276161E-02  0.88658726996E+00  0.88000000000E+00 0.  1.
        -11    1    4    4    0    0  0.57149880484E-01  0.20919973661E-01  0.79374031150E-02  0.61376034627E-01  0.51100000000E-03 0.  1.
         11    1    4    4    0    0  0.69486007693E-01  0.15277624649E-01 -0.84682164817E-02  0.71649723596E-01  0.51100000000E-03 0. -1.
</event>
<event>
 8    1  0.1129602E+005  0.1043930E+01  0.7957747E-01            NaN
         13   -1    0    0    0    0  0.00000000000E+00  0.00000000000E+00  0.74505805969E-08  0.10566000000E+00  0.10566000000E+00 0. -1.
     999900   -1    0    0    0    0 -0.00000000000E+00 -0.00000000000E+00 -0.74505805969E-08  0.93827000000E+00  0.93827000000E+00 0.  1.
     999902    2    1    2    0    0  0.20001974899E-01  0.85209358492E-02 -0.99480550462E-02  0.10200208146E+01  0.10197405616E+01 0.  0.
     999903    2    3    3    0    0  0.93315151946E-01  0.16287111693E-01 -0.91399802470E-01  0.13318964544E+00  0.20311823452E-01 0.  0.
         14    1    1    2    0    0 -0.20001974899E-01 -0.85209358492E-02  0.99480550462E-02  0.23909185407E-01  0.00000000000E+00 0.  1.
     999901    1    3    3    0    0 -0.73313177047E-01 -0.77661758438E-02  0.81451747424E-01  0.88683116915E+00  0.88000000000E+00 0. -1.
        -11    1    4    4    0    0  0.84845244165E-01  0.14983414882E-01 -0.73159437150E-01  0.11303000727E+00  0.51100000000E-03 0. -1.
         11    1    4    4    0    0  0.84699077814E-02  0.13036968107E-02 -0.18240365320E-01  0.20159638172E-01  0.51100000000E-03 0.  1.
</event>
<event>
 8    1  0.1129602E+005  0.1043930E+01  0.7957747E-01            NaN
         13   -1    0    0    0    0  0.00000000000E+00  0.00000000000E+00  0.74505805969E-08  0.10566000000E+00  0.10566000000E+00 0.  1.
     999900   -1    0    0    0    0 -0.00000000000E+00 -0.00000000000E+00 -0.74505805969E-08  0.93827000000E+00  0.93827000000E+00 0.  1.
     999902    2    1    2    0    0  0.92450561361E-02  0.18655240925E-01  0.10653317295E-01  0.10205423484E+01  0.10202743272E+01 0.  0.
     999903    2    3    3    0    0  0.69508484465E-01  0.95982427925E-01 -0.56032408322E-01  0.13259068271E+00  0.19914880757E-01 0.  0.
         14    1    1    2    0    0 -0.92450561361E-02 -0.18655240925E-01 -0.10653317295E-01  0.23387651578E-01  0.00000000000E+00 0. -1.
     999901    1    3    3    0    0 -0.60263428329E-01 -0.77327187001E-01  0.66685725617E-01  0.88795166571E+00  0.88000000000E+00 0. -1.
        -11    1    4    4    0    0  0.56650036506E-01  0.74068684059E-01 -0.34997610654E-01  0.99601658956E-01  0.51100000000E-03 0.  1.
         11    1    4    4    0    0  0.12858447959E-01  0.21913743866E-01 -0.21034797669E-01  0.32989023752E-01  0.51100000000E-03 0. -1.
</event>
<event>
 8    1  0.1129602E+005  0.1043930E+01  0.7957747E-01            NaN
         13   -1    0    0    0    0  0.00000000000E+00  0.00000000000E+00  0.74505805969E-08  0.10566000000E+00  0.10566000000E+00 0.  1.
     999900   -1    0    0    0    0 -0.00000000000E+00 -0.00000000000E+00 -0.74505805969E-08  0.93827000000E+00  0.93827000000E+00 0. -1.
     999902    2    1    2    0    0 -0.70782305265E-02  0.26890517345E-03 -0.23085456841E-01  0.10197822884E+01  0.10194963481E+01 0.  0.
     999903    2    3    3    0    0  0.27949123429E-01  0.12533895321E+00 -0.54030358408E-02  0.13007329079E+00  0.19971516937E-01 0.  0.
         14    1    1    2    0    0  0.70782305265E-02 -0.26890517345E-03  0.23085456841E-01  0.24147711588E-01  0.00000000000E+00 0.  1.
     999901    1    3    3    0    0 -0.35027353955E-01 -0.12507004803E+00 -0.17682421000E-01  0.88970899762E+00  0.88000000000E+00 0. -1.
        -11    1    4    4    0    0  0.30445372226E-01  0.10110416812E+00 -0.40610699684E-02  0.10566800325E+00  0.51100000000E-03 0.  1.
         11    1    4    4    0    0 -0.24962487973E-02  0.24234785087E-01 -0.13419658725E-02  0.24405287536E-01  0.51100000000E-03 0. -1.
</event>
<event>
 8    1  0.1129602E+005  0.1043930E+01  0.7957747E-01            NaN
         13   -1    0    0    0    0  0.00000000000E+00  0.00000000000E+00  0.74505805969E-08  0.10566000000E+00  0.10566000000E+00 0. -1.
     999900   -1    0    0    0    0 -0.00000000000E+00 -0.00000000000E+00 -0.74505805969E-08  0.93827000000E+00  0.93827000000E+00 0. -1.
     999902    2    1    2    0    0 -0.12112199953E-01 -0.74288946093E-02  0.25648600696E-01  0.10146085986E+01  0.10141848272E+01 0.  0.
     999903    2    3    3    0    0 -0.18880490823E-01  0.11902468780E+00  0.28680121521E-01  0.12553857414E+00  0.20347849704E-01 0.  0.
         14    1    1    2    0    0  0.12112199953E-01  0.74288946093E-02 -0.25648600696E-01  0.29321401407E-01  0.00000000000E+00 0.  1.
     999901    1    3    3    0    0  0.67682908699E-02 -0.12645358241E+00 -0.30315208253E-02  0.88907002445E+00  0.88000000000E+00 0.  1.
        -11    1    4    4    0    0 -0.13745986734E-01  0.10799619052E+00  0.20267640776E-01  0.11073918774E+00  0.51100000000E-03 0. -1.
         11    1    4    4    0    0 -0.51345040882E-02  0.11028497274E-01  0.84124807457E-02  0.14799386394E-01  0.51100000000E-03 0.  1.
</event>
<event>
 8    1  0.1129602E+005  0.1043930E+01  0.7957747E-01            NaN
         13   -1    0    0    0    0  0.00000000000E+00  0.00000000000E+00  0.74505805969E-08  0.10566000000E+00  0.10566000000E+00 0.  1.
     999900   -1    0    0    0    0 -0.00000000000E+00 -0.00000000000E+00 -0.74505805969E-08  0.93827000000E+00  0.93827000000E+00 0.  1.
     999902    2    1    2    0    0  0.13804521584E-01  0.60660376527E-02 -0.18314042691E-01  0.10202073149E+01  0.10199314681E+01 0.  0.
     999903    2    3    3    0    0 -0.44053706775E-01  0.11056649205E+00  0.46831836934E-01  0.12975130521E+00  0.21828925935E-01 0.  0.
         14    1    1    2    0    0 -0.13804521584E-01 -0.60660376527E-02  0.18314042691E-01  0.23722685106E-01  0.00000000000E+00 0.  1.
     999901    1    3    3    0    0  0.57858228358E-01 -0.10450045440E+00 -0.65145879625E-01  0.89045600969E+00  0.88000000000E+00 0.  1.
        -11    1    4    4    0    0 -0.11211092557E-01  0.16667611727E-01  0.72295636108E-03  0.20106756673E-01  0.51100000000E-03 0.  1.
         11    1    4    4    0    0 -0.32842614218E-01  0.93898880322E-01  0.46108880573E-01  0.10964454853E+00  0.51100000000E-03 0. -1.
</event>
<event>
 8    1  0.1129602E+005  0.1043930E+01  0.7957747E-01            NaN
         13   -1    0    0    0    0  0.00000000000E+00  0.00000000000E+00  0.74505805969E-08  0.10566000000E+00  0.10566000000E+00 0.  1.
     999900   -1    0    0    0    0 -0.00000000000E+00 -0.00000000000E+00 -0.74505805969E-08  0.93827000000E+00  0.93827000000E+00 0. -1.
     999902    2    1    2    0    0  0.55928828660E-02  0.12982766706E-01 -0.17769988729E-01  0.10212230612E+01  0.10209705851E+01 0.  0.
     999903    2    3    3    0    0  0.57635025987E-01  0.94444221897E-01 -0.73354045569E-01  0.13418645501E+00  0.19587787980E-01 0.  0.
         14    1    1    2    0    0 -0.55928828660E-02 -0.12982766706E-01  0.17769988729E-01  0.22706938797E-01  0.00000000000E+00 0. -1.
     999901    1    3    3    0    0 -0.52042143121E-01 -0.81461455190E-01  0.55584056840E-01  0.88703660619E+00  0.88000000000E+00 0.  1.
        -11    1    4    4    0    0  0.47529270062E-01  0.63301913812E-01 -0.46266294128E-01  0.91689666257E-01  0.51100000000E-03 0. -1.
         11    1    4    4    0    0  0.10105755925E-01  0.31142308084E-01 -0.27087751441E-01  0.42496788758E-01  0.51100000000E-03 0.  1.
</event>
<event>
 8    1  0.1129602E+005  0.1043930E+01  0.7957747E-01            NaN
         13   -1    0    0    0    0  0.00000000000E+00  0.00000000000E+00  0.74505805969E-08  0.10566000000E+00  0.10566000000E+00 0. -1.
     999900   -1    0    0    0    0 -0.00000000000E+00 -0.00000000000E+00 -0.74505805969E-08  0.93827000000E+00  0.93827000000E+00 0. -1.
     999902    2    1    2    0    0  0.16276172905E-01  0.16270474080E-01  0.58966498241E-02  0.10201726304E+01  0.10198959669E+01 0.  0.
     999903    2    3    3    0    0  0.27353877572E-01  0.12511513436E+00  0.29719193782E-01  0.13307771484E+00  0.20601365079E-01 0.  0.
         14    1    1    2    0    0 -0.16276172905E-01 -0.16270474080E-01 -0.58966498241E-02  0.23757369601E-01  0.00000000000E+00 0.  1.
     999901    1    3    3    0    0 -0.11077704668E-01 -0.10884466028E+00 -0.23822543958E-01  0.88709491556E+00  0.88000000000E+00 0. -1.
        -11    1    4    4    0    0  0.20617858923E-01  0.50682384841E-01  0.84095709310E-02  0.55360475468E-01  0.51100000000E-03 0. -1.
         11    1    4    4    0    0  0.67360186490E-02  0.74432749520E-01  0.21309622851E-01  0.77717239371E-01  0.51100000000E-03 0.  1.
</event>
<event>
 8    1  0.1181341E+005  0.1043930E+01  0.7957747E-01            NaN
         13   -1    0    0    0    0  0.00000000000E+00  0.00000000000E+00  0.74505805969E-08  0.10566000000E+00  0.10566000000E+00 0. -1.
     999900   -1    0    0    0    0 -0.00000000000E+00 -0.00000000000E+00 -0.74505805969E-08  0.93827000000E+00  0.93827000000E+00 0. -1.
     999902    2    1    2    0    0  0.50914281359E-02 -0.17639989378E-01  0.14958024145E-01  0.10202480585E+01  0.10199731695E+01 0.  0.
     999903    2    3    3    0    0 -0.12170481135E+00 -0.76562682321E-02 -0.38410371564E-01  0.12950390519E+00  0.20620990968E-01 0.  0.
         14    1    1    2    0    0 -0.50914281359E-02  0.17639989378E-01 -0.14958024145E-01  0.23681941475E-01  0.00000000000E+00 0.  1.
     999901    1    3    3    0    0  0.12679623948E+00 -0.99837211457E-02  0.53368395709E-01  0.89074415333E+00  0.88000000000E+00 0.  1.
        -11    1    4    4    0    0 -0.60503540267E-01 -0.32158267849E-02 -0.83216401826E-02  0.61159878541E-01  0.51100000000E-03 0.  1.
         11    1    4    4    0    0 -0.61201271079E-01 -0.44404414472E-02 -0.30088731381E-01  0.68344026652E-01  0.51100000000E-03 0. -1.
</event>
<event>
 8    1  0.1129602E+005  0.1043930E+01  0.7957747E-01            NaN
         13   -1    0    0    0    0  0.00000000000E+00  0.00000000000E+00  0.74505805969E-08  0.10566000000E+00  0.10566000000E+00 0. -1.
     999900   -1    0    0    0    0 -0.00000000000E+00 -0.00000000000E+00 -0.74505805969E-08  0.93827000000E+00  0.93827000000E+00 0.  1.
     999902    2    1    2    0    0  0.22488828535E-02  0.15294835811E-01  0.14406353327E-01  0.10227986845E+01  0.10225803717E+01 0.  0.
     999903    2    3    3    0    0  0.40359477425E-01 -0.10568405550E+00 -0.61922628031E-01  0.13043417217E+00  0.19510366534E-01 0.  0.
         14    1    1    2    0    0 -0.22488828535E-02 -0.15294835811E-01 -0.14406353327E-01  0.21131315453E-01  0.00000000000E+00 0. -1.
     999901    1    3    3    0    0 -0.38110594572E-01  0.12097889131E+00  0.76328981358E-01  0.89236451238E+00  0.88000000000E+00 0. -1.
        -11    1    4    4    0    0  0.54837450302E-02 -0.40171079076E-01 -0.20409582045E-01  0.45393823522E-01  0.51100000000E-03 0. -1.
         11    1    4    4    0    0  0.34875732395E-01 -0.65512976420E-01 -0.41513045986E-01  0.85040348645E-01  0.51100000000E-03 0.  1.
</event>
<event>
 8    1  0.1129602E+005  0.1043930E+01  0.7957747E-01            NaN
         13   -1    0    0    0    0  0.00000000000E+00  0.00000000000E+00  0.74505805969E-08  0.10566000000E+00  0.10566000000E+00 0.  1.
     999900   -1    0    0    0    0 -0.00000000000E+00 -0.00000000000E+00 -0.74505805969E-08  0.93827000000E+00  0.93827000000E+00 0. -1.
     999902    2    1    2    0    0 -0.12791573145E-01 -0.17942253458E-01 -0.76355941240E-02  0.10206093847E+01  0.10203429154E+01 0.  0.
     999903    2    3    3    0    0 -0.34526959893E-02  0.94410005289E-02 -0.12968696193E+00  0.13171479382E+00  0.20712923872E-01 0.  0.
         14    1    1    2    0    0  0.12791573145E-01  0.17942253458E-01  0.76355941240E-02  0.23320615350E-01  0.00000000000E+00 0. -1.
     999901    1    3    3    0    0 -0.93388771557E-02 -0.27383253987E-01  0.12205136781E+00  0.88889459083E+00  0.88000000000E+00 0.  1.
        -11    1    4    4    0    0 -0.73421690437E-02  0.10498537211E-01 -0.41526613018E-01  0.43460872513E-01  0.51100000000E-03 0.  1.
         11    1    4    4    0    0  0.38894730544E-02 -0.10575366819E-02 -0.88160348913E-01  0.88253921306E-01  0.51100000000E-03 0. -1.
</event>
<event>
 8    1  0.1129602E+005  0.1043930E+01  0.7957747E-01            NaN
         13   -1    0    0    0    0  0.00000000000E+00  0.00000000000E+00  0.74505805969E-08  0.10566000000E+00  0.10566000000E+00 0.  1.
     999900   -1    0    0    0    0 -0.00000000000E+00 -0.00000000000E+00 -0.74505805969E-08  0.93827000000E+00  0.93827000000E+00 0.  1.
     999902    2    1    2    0    0 -0.81278252762E-02 -0.17351143423E-01  0.14201983297E-01  0.10200800513E+01  0.10198012017E+01 0.  0.
     999903    2    3    3    0    0  0.21747952897E-01 -0.87249215498E-01 -0.92183575472E-01  0.13041933527E+00  0.20639582456E-01 0.  0.
         14    1    1    2    0    0  0.81278252762E-02  0.17351143423E-01 -0.14201983297E-01  0.23849948666E-01  0.00000000000E+00 0. -1.
     999901    1    3    3    0    0 -0.29875778173E-01  0.69898072075E-01  0.10638555877E+00  0.88966071607E+00  0.88000000000E+00 0. -1.
        -11    1    4    4    0    0  0.13890942240E-01 -0.36879565584E-01 -0.27490645875E-01  0.48052652014E-01  0.51100000000E-03 0. -1.
         11    1    4    4    0    0  0.78570106573E-02 -0.50369649914E-01 -0.64692929597E-01  0.82366683251E-01  0.51100000000E-03 0.  1.
</event>
<event>
 8    1  0.1142998E+005  0.1043930E+01  0.7957747E-01            NaN
         13   -1    0    0    0    0  0.00000000000E+00  0.00000000000E+00  0.74505805969E-08  0.10566000000E+00  0.10566000000E+00 0.  1.
     999900   -1    0    0    0    0 -0.00000000000E+00 -0.00000000000E+00 -0.74505805969E-08  0.93827000000E+00  0.93827000000E+00 0. -1.
     999902    2    1    2    0    0 -0.20766136387E-01  0.18915083128E-03  0.10478249231E-01  0.10206692626E+01  0.10204041756E+01 0.  0.
     999903    2    3    3    0    0  0.99630686194E-01  0.23393569901E-01  0.76941983264E-01  0.12968594742E+00  0.20611730270E-01 0.  0.
         14    1    1    2    0    0  0.20766136387E-01 -0.18915083128E-03 -0.10478249231E-01  0.23260737422E-01  0.00000000000E+00 0.  1.
     999901    1    3    3    0    0 -0.12039682258E+00 -0.23204419070E-01 -0.66463734033E-01  0.89098331516E+00  0.88000000000E+00 0.  1.
        -11    1    4    4    0    0  0.40606220300E-01 -0.67495620298E-03  0.31589805044E-01  0.51453839474E-01  0.51100000000E-03 0. -1.
         11    1    4    4    0    0  0.59024465894E-01  0.24068526104E-01  0.45352178220E-01  0.78232107943E-01  0.51100000000E-03 0.  1.
</event>
<event>
 8    1  0.1129602E+005  0.1043930E+01  0.7957747E-01            NaN
         13   -1    0    0    0    0  0.00000000000E+00  0.00000000000E+00  0.74505805969E-08  0.10566000000E+00  0.10566000000E+00 0.  1.
     999900   -1    0    0    0    0 -0.00000000000E+00 -0.00000000000E+00 -0.74505805969E-08  0.93827000000E+00  0.93827000000E+00 0.  1.
     999902    2    1    2    0    0  0.96255617080E-02 -0.19180461033E-01  0.10373803608E-01  0.10200939490E+01  0.10198154282E+01 0.  0.
     999903    2    3    3    0    0  0.12566791283E+00  0.31133943278E-01  0.26089694139E-02  0.13101709119E+00  0.19922969693E-01 0.  0.
         14    1    1    2    0    0 -0.96255617080E-02  0.19180461033E-01 -0.10373803608E-01  0.23836050951E-01  0.00000000000E+00 0. -1.
     999901    1    3    3    0    0 -0.11604235113E+00 -0.50314404311E-01  0.77648341942E-02  0.88907685786E+00  0.88000000000E+00 0.  1.
        -11    1    4    4    0    0  0.10347158590E+00  0.17589474576E-01  0.31394168220E-02  0.10500417022E+00  0.51100000000E-03 0.  1.
         11    1    4    4    0    0  0.22196326938E-01  0.13544468702E-01 -0.53044740816E-03  0.26012920970E-01  0.51100000000E-03 0. -1.
</event>
<event>
 8    1  0.1129602E+005  0.1043930E+01  0.7957747E-01            NaN
         13   -1    0    0    0    0  0.00000000000E+00  0.00000000000E+00  0.74505805969E-08  0.10566000000E+00  0.10566000000E+00 0.  1.
     999900   -1    0    0    0    0 -0.00000000000E+00 -0.00000000000E+00 -0.74505805969E-08  0.93827000000E+00  0.93827000000E+00 0.  1.
     999902    2    1    2    0    0 -0.14072392049E-01  0.11167563472E-01 -0.15624706327E-01  0.10201207972E+01  0.10198429108E+01 0.  0.
     999903    2    3    3    0    0 -0.16468799969E-01 -0.10335211049E+00  0.71720171529E-01  0.12840916991E+00  0.19805347696E-01 0.  0.
         14    1    1    2    0    0  0.14072392049E-01 -0.11167563472E-01  0.15624706327E-01  0.23809202836E-01  0.00000000000E+00 0.  1.
     999901    1    3    3    0    0  0.23964079197E-02  0.11451967396E+00 -0.87344877857E-01  0.89171162726E+00  0.88000000000E+00 0. -1.
        -11    1    4    4    0    0 -0.33677303733E-02 -0.60643463428E-01  0.50305065786E-01  0.78865911706E-01  0.51100000000E-03 0. -1.
         11    1    4    4    0    0 -0.13101069595E-01 -0.42708647061E-01  0.21415105743E-01  0.49543258203E-01  0.51100000000E-03 0.  1.
</event>
<event>
 8    1  0.1129602E+005  0.1043930E+01  0.7957747E-01            NaN
         13   -1    0    0    0    0  0.00000000000E+00  0.00000000000E+00  0.74505805969E-08  0.10566000000E+00  0.10566000000E+00 0. -1.
     999900   -1    0    0    0    0 -0.00000000000E+00 -0.00000000000E+00 -0.74505805969E-08  0.93827000000E+00  0.93827000000E+00 0. -1.
     999902    2    1    2    0    0  0.19096612589E-01 -0.32750008866E-02 -0.15139269837E-01  0.10193413088E+01  0.10190446998E+01 0.  0.
     999903    2    3    3    0    0  0.36474842716E-01 -0.95630054493E-01  0.76893373689E-01  0.12956523233E+00  0.19975911425E-01 0.  0.
         14    1    1    2    0    0 -0.19096612589E-01  0.32750008866E-02  0.15139269837E-01  0.24588691189E-01  0.00000000000E+00 0. -1.
     999901    1    3    3    0    0 -0.17378230126E-01  0.92355053606E-01 -0.92032643526E-01  0.88977607648E+00  0.88000000000E+00 0. -1.
        -11    1    4    4    0    0  0.20035265232E-01 -0.39369719609E-01  0.22398291582E-01  0.49531114078E-01  0.51100000000E-03 0. -1.
         11    1    4    4    0    0  0.16439577483E-01 -0.56260334884E-01  0.54495082106E-01  0.80034118249E-01  0.51100000000E-03 0.  1.
</event>
<event>
 8    1  0.1129602E+005  0.1043930E+01  0.7957747E-01            NaN
         13   -1    0    0    0    0  0.00000000000E+00  0.00000000000E+00  0.74505805969E-08  0.10566000000E+00  0.10566000000E+00 0.  1.
     999900   -1    0    0    0    0 -0.00000000000E+00 -0.00000000000E+00 -0.74505805969E-08  0.93827000000E+00  0.93827000000E+00 0. -1.
     999902    2    1    2    0    0 -0.57093054516E-02 -0.73342737276E-02  0.21671680339E-01  0.10203492988E+01  0.10200767825E+01 0.  0.
     999903    2    3    3    0    0  0.93926971418E-01 -0.81686640759E-01  0.37368575461E-01  0.13147244870E+00  0.19839634475E-01 0.  0.
         14    1    1    2    0    0  0.57093054516E-02  0.73342737276E-02 -0.21671680339E-01  0.23580701189E-01  0.00000000000E+00 0. -1.
     999901    1    3    3    0    0 -0.99636276869E-01  0.74352367032E-01 -0.15696895122E-01  0.88887685011E+00  0.88000000000E+00 0. -1.
        -11    1    4    4    0    0  0.37455438723E-01 -0.32048584423E-01  0.24997665200E-01  0.55273556425E-01  0.51100000000E-03 0.  1.
         11    1    4    4    0    0  0.56471532695E-01 -0.49638056336E-01  0.12370910261E-01  0.76198892272E-01  0.51100000000E-03 0. -1.
</event>
<event>
 8    1  0.1482310E+005  0.1043930E+01  0.7957747E-01            NaN
         13   -1    0    0    0    0  0.00000000000E+00  0.00000000000E+00  0.74505805969E-08  0.10566000000E+00  0.10566000000E+00 0. -1.
     999900   -1    0    0    0    0 -0.00000000000E+00 -0.00000000000E+00 -0.74505805969E-08  0.93827000000E+00  0.93827000000E+00 0.  1.
     999902    2    1    2    0    0 -0.50004829246E-02  0.22250965181E-01 -0.71659997504E-02  0.10200247321E+01  0.10197445721E+01 0.  0.
     999903    2    3    3    0    0  0.13686188897E-01  0.10327686527E-01  0.12694836361E+00  0.12958775020E+00  0.19573581736E-01 0.  0.
         14    1    1    2    0    0  0.50004829246E-02 -0.22250965181E-01  0.71659997504E-02  0.23905267900E-01  0.00000000000E+00 0. -1.
     999901    1    3    3    0    0 -0.18686671821E-01  0.11923278654E-01 -0.13411436336E+00  0.89043698190E+00  0.88000000000E+00 0.  1.
        -11    1    4    4    0    0  0.82756466726E-02  0.13632722644E-01  0.52576924081E-01  0.54944804316E-01  0.51100000000E-03 0. -1.
         11    1    4    4    0    0  0.54105422240E-02 -0.33050361174E-02  0.74371439532E-01  0.74642945882E-01  0.51100000000E-03 0.  1.
</event>
<event>
 8    1  0.1129602E+005  0.1043930E+01  0.7957747E-01            NaN
         13   -1    0    0    0    0  0.00000000000E+00  0.00000000000E+00  0.74505805969E-08  0.10566000000E+00  0.10566000000E+00 0.  1.
     999900   -1    0    0    0    0 -0.00000000000E+00 -0.00000000000E+00 -0.74505805969E-08  0.93827000000E+00  0.93827000000E+00 0. -1.
     999902    2    1    2    0    0  0.12490558472E-01 -0.98097714300E-02 -0.18191335412E-01  0.10197810797E+01  0.10194951104E+01 0.  0.
     999903    2    3    3    0    0 -0.45311724493E-01  0.87396521754E-01  0.78098953650E-01  0.12733388962E+00  0.20571059624E-01 0.  0.
         14    1    1    2    0    0 -0.12490558472E-01  0.98097714300E-02  0.18191335412E-01  0.24148920277E-01  0.00000000000E+00 0.  1.
     999901    1    3    3    0    0  0.57802282965E-01 -0.97206293184E-01 -0.96290289062E-01  0.89244719010E+00  0.88000000000E+00 0. -1.
        -11    1    4    4    0    0 -0.16394255635E-01  0.25198595961E-01  0.12965492844E-01  0.32743029516E-01  0.51100000000E-03 0.  1.
         11    1    4    4    0    0 -0.28917468858E-01  0.62197925794E-01  0.65133460806E-01  0.94590860107E-01  0.51100000000E-03 0. -1.
</event>
<event>
 8    1  0.1129602E+005  0.1043930E+01  0.7957747E-01            NaN
         13   -1    0    0    0    0  0.00000000000E+00  0.00000000000E+00  0.74505805969E-08  0.10566000000E+00  0.10566000000E+00 0. -1.
     999900   -1    0    0    0    0 -0.00000000000E+00 -0.00000000000E+00 -0.74505805969E-08  0.93827000000E+00  0.93827000000E+00 0. -1.
     999902    2    1    2    0    0  0.12350083311E-02 -0.24860916723E-01 -0.62950167852E-02  0.10182547656E+01  0.10179310143E+01 0.  0.
     999903    2    3    3    0    0  0.14272973776E-01  0.11563289559E+00  0.42799865395E-01  0.12566370172E+00  0.19617673867E-01 0.  0.
         14    1    1    2    0    0 -0.12350083311E-02  0.24860916723E-01  0.62950167852E-02  0.25675234414E-01  0.00000000000E+00 0.  1.
     999901    1    3    3    0    0 -0.13037965445E-01 -0.14049381232E+00 -0.49094882181E-01  0.89259106387E+00  0.88000000000E+00 0.  1.
        -11    1    4    4    0    0 -0.10134353081E-02  0.70035780316E-01  0.24513463284E-01  0.74210569185E-01  0.51100000000E-03 0. -1.
         11    1    4    4    0    0  0.15286409084E-01  0.45597115276E-01  0.18286402111E-01  0.51453132532E-01  0.51100000000E-03 0.  1.
</event>
<event>
 8    1  0.1129602E+005  0.1043930E+01  0.7957747E-01            NaN
         13   -1    0    0    0    0  0.00000000000E+00  0.00000000000E+00  0.74505805969E-08  0.10566000000E+00  0.10566000000E+00 0.  1.
     999900   -1    0    0    0    0 -0.00000000000E+00 -0.00000000000E+00 -0.74505805969E-08  0.93827000000E+00  0.93827000000E+00 0. -1.
     999902    2    1    2    0    0 -0.23011464410E-01 -0.51423949614E-02 -0.36781081640E-02  0.10200657967E+01  0.10197866097E+01 0.  0.
     999903    2    3    3    0    0 -0.27381459050E-01  0.32266614027E-01 -0.12264150343E+00  0.13126277001E+00  0.19952386983E-01 0.  0.
         14    1    1    2    0    0  0.23011464410E-01  0.51423949614E-02  0.36781081640E-02  0.23864203316E-01  0.00000000000E+00 0.  1.
     999901    1    3    3    0    0  0.43699946399E-02 -0.37409008988E-01  0.11896339527E+00  0.88880302667E+00  0.88000000000E+00 0.  1.
        -11    1    4    4    0    0 -0.12267802611E-01  0.23528856647E-01 -0.94376029764E-01  0.98036738986E-01  0.51100000000E-03 0. -1.
         11    1    4    4    0    0 -0.15113656438E-01  0.87377573799E-02 -0.28265473670E-01  0.33226031026E-01  0.51100000000E-03 0.  1.
</event>
<event>
 8    1  0.1129602E+005  0.1043930E+01  0.7957747E-01            NaN
         13   -1    0    0    0    0  0.00000000000E+00  0.00000000000E+00  0.74505805969E-08  0.10566000000E+00  0.10566000000E+00 0. -1.
     999900   -1    0    0    0    0 -0.00000000000E+00 -0.00000000000E+00 -0.74505805969E-08  0.93827000000E+00  0.93827000000E+00 0.  1.
     999902    2    1    2    0    0 -0.19281095114E-01 -0.72103982288E-03  0.12702213551E-01  0.10208296373E+01  0.10205682347E+01 0.  0.
     999903    2    3    3    0    0  0.12392548070E+00 -0.20104460186E-01  0.21628637738E-01  0.12899808293E+00  0.20272970772E-01 0.  0.
         14    1    1    2    0    0  0.19281095114E-01  0.72103982288E-03 -0.12702213551E-01  0.23100362688E-01  0.00000000000E+00 0.  1.
     999901    1    3    3    0    0 -0.14320657581E+00  0.19383420363E-01 -0.89264241874E-02  0.89183155438E+00  0.88000000000E+00 0.  1.
        -11    1    4    4    0    0  0.76599490285E-01 -0.20843992991E-01  0.82786011778E-02  0.79816980112E-01  0.51100000000E-03 0.  1.
         11    1    4    4    0    0  0.47325990413E-01  0.73953280575E-03  0.13350036560E-01  0.49181102819E-01  0.51100000000E-03 0. -1.
</event>
<event>
 8    1  0.1129602E+005  0.1043930E+01  0.7957747E-01            NaN
         13   -1    0    0    0    0  0.00000000000E+00  0.00000000000E+00  0.74505805969E-08  0.10566000000E+00  0.10566000000E+00 0.  1.
     999900   -1    0    0    0    0 -0.00000000000E+00 -0.00000000000E+00 -0.74505805969E-08  0.93827000000E+00  0.93827000000E+00 0.  1.
     999902    2    1    2    0    0  0.11343721453E-01 -0.14111615694E-01 -0.16677440648E-01  0.10193138520E+01  0.10190165721E+01 0.  0.
     999903    2    3    3    0    0  0.13740900638E-01  0.48126417253E-01  0.11529181212E+00  0.12729636180E+00  0.20179132718E-01 0.  0.
         14    1    1    2    0    0 -0.11343721453E-01  0.14111615694E-01  0.16677440648E-01  0.24616147962E-01  0.00000000000E+00 0.  1.
     999901    1    3    3    0    0 -0.23971791853E-02 -0.62238032947E-01 -0.13196925277E+00  0.89201749024E+00  0.88000000000E+00 0.  1.
        -11    1    4    4    0    0  0.10183769017E-01  0.28744298047E-01  0.45517507523E-01  0.54790952116E-01  0.51100000000E-03 0. -1.
         11    1    4    4    0    0  0.35571316209E-02  0.19382119206E-01  0.69774304599E-01  0.72505409685E-01  0.51100000000E-03 0.  1.
</event>
<event>
 8    1  0.1129602E+005  0.1043930E+01  0.7957747E-01            NaN
         13   -1    0    0    0    0  0.00000000000E+00  0.00000000000E+00  0.74505805969E-08  0.10566000000E+00  0.10566000000E+00 0.  1.
     999900   -1    0    0    0    0 -0.00000000000E+00 -0.00000000000E+00 -0.74505805969E-08  0.93827000000E+00  0.93827000000E+00 0.  1.
     999902    2    1    2    0    0  0.19945564012E-01  0.28440358126E-02  0.10226555198E-01  0.10213358305E+01  0.10210858839E+01 0.  0.
     999903    2    3    3    0    0 -0.77365012814E-02 -0.49673029281E-01  0.12112615278E+00  0.13239091681E+00  0.18125856524E-01 0.  0.
         14    1    1    2    0    0 -0.19945564012E-01 -0.28440358126E-02 -0.10226555198E-01  0.22594169484E-01  0.00000000000E+00 0.  1.
     999901    1    3    3    0    0  0.27682065293E-01  0.52517065094E-01 -0.11089959759E+00  0.88894491371E+00  0.88000000000E+00 0.  1.
        -11    1    4    4    0    0  0.21037094242E-02 -0.21817717385E-01  0.34625830806E-01  0.40983504795E-01  0.51100000000E-03 0. -1.
         11    1    4    4    0    0 -0.98402107056E-02 -0.27855311896E-01  0.86500321977E-01  0.91407412012E-01  0.51100000000E-03 0.  1.
</event>
<event>
 8    1  0.1129602E+005  0.1043930E+01  0.7957747E-01            NaN
         13   -1    0    0    0    0  0.00000000000E+00  0.00000000000E+00  0.74505805969E-08  0.10566000000E+00  0.10566000000E+00 0.  1.
     999900   -1    0    0    0    0 -0.00000000000E+00 -0.00000000000E+00 -0.74505805969E-08  0.93827000000E+00  0.93827000000E+00 0.  1.
     999902    2    1    2    0    0 -0.13502055952E-01  0.87521411520E-02 -0.19968624040E-01  0.10182852844E+01  0.10179623122E+01 0.  0.
     999903    2    3    3    0    0 -0.23121175537E-01  0.41048704300E-01 -0.12113674135E+00  0.13184826840E+00  0.22142061652E-01 0.  0.
         14    1    1    2    0    0  0.13502055952E-01 -0.87521411520E-02  0.19968624040E-01  0.25644715552E-01  0.00000000000E+00 0.  1.
     999901    1    3    3    0    0  0.96191195843E-02 -0.32296563148E-01  0.10116811731E+00  0.88643701604E+00  0.88000000000E+00 0. -1.
        -11    1    4    4    0    0 -0.55370417374E-02  0.19463898072E-01 -0.77371535333E-01  0.79975732321E-01  0.51100000000E-03 0.  1.
         11    1    4    4    0    0 -0.17584133799E-01  0.21584806228E-01 -0.43765206013E-01  0.51872536084E-01  0.51100000000E-03 0. -1.
</event>
<event>
 7    1  0.1129602E+005  0.1043930E+01  0.7957747E-01            NaN
         13   -1    0    0    0    0  0.00000000000E+00  0.00000000000E+00  0.74505805969E-08  0.10566000000E+00  0.10566000000E+00 0.  1.
     999900   -1    0    0    0    0 -0.00000000000E+00 -0.00000000000E+00 -0.74505805969E-08  0.93827000000E+00  0.93827000000E+00 0.  1.
     999903    2    1    2    0    0  0.11874693714E-01 -0.63796889362E-01  0.74192136110E-01  0.10056622203E+00  0.19950952582E-01 0.  0.
         14    1    1    2    0    0  0.42219668230E-01 -0.18944873132E-02 -0.40625510213E-01  0.58621852135E-01  0.00000000000E+00 0.  1.
     999901    1    1    2    0    0 -0.54094361944E-01  0.65691376675E-01 -0.33566625897E-01  0.88474192584E+00  0.88000000000E+00 0.  1.
        -11    1    3    3    0    0 -0.53778099107E-02 -0.12002637764E-01  0.12004080677E-01  0.17814129971E-01  0.51100000000E-03 0.  1.
         11    1    3    3    0    0  0.17252503624E-01 -0.51794251599E-01  0.62188055432E-01  0.82752092055E-01  0.51100000000E-03 0. -1.
</event>
<event>
 8    1  0.1129602E+005  0.1043930E+01  0.7957747E-01            NaN
         13   -1    0    0    0    0  0.00000000000E+00  0.00000000000E+00  0.74505805969E-08  0.10566000000E+00  0.10566000000E+00 0. -1.
     999900   -1    0    0    0    0 -0.00000000000E+00 -0.00000000000E+00 -0.74505805969E-08  0.93827000000E+00  0.93827000000E+00 0.  1.
     999902    2    1    2    0    0  0.10520821165E-02 -0.23750230316E-01  0.14662399991E-02  0.10201113062E+01  0.10198331956E+01 0.  0.
     999903    2    3    3    0    0  0.10446838706E-01  0.41315902721E-01  0.12114295408E+00  0.12958091419E+00  0.17304847392E-01 0.  0.
         14    1    1    2    0    0 -0.10520821165E-02  0.23750230316E-01 -0.14662399991E-02  0.23818693847E-01  0.00000000000E+00 0.  1.
     999901    1    3    3    0    0 -0.93947565896E-02 -0.65066133037E-01 -0.11967671408E+00  0.89053039196E+00  0.88000000000E+00 0.  1.
        -11    1    4    4    0    0  0.96337702641E-02  0.39000313076E-01  0.92749644429E-01  0.10107715673E+00  0.51100000000E-03 0. -1.
         11    1    4    4    0    0  0.81306844210E-03  0.23155896447E-02  0.28393309646E-01  0.28503757461E-01  0.51100000000E-03 0.  1.
</event>
<event>
 8    1  0.1129602E+005  0.1043930E+01  0.7957747E-01            NaN
         13   -1    0    0    0    0  0.00000000000E+00  0.00000000000E+00  0.74505805969E-08  0.10566000000E+00  0.10566000000E+00 0. -1.
     999900   -1    0    0    0    0 -0.00000000000E+00 -0.00000000000E+00 -0.74505805969E-08  0.93827000000E+00  0.93827000000E+00 0. -1.
     999902    2    1    2    0    0 -0.71146711437E-02  0.16087925682E-01  0.17492308516E-01  0.10191223247E+01  0.10188203433E+01 0.  0.
     999903    2    3    3    0    0 -0.78489463106E-01  0.67467689428E-01 -0.76083896926E-01  0.12980193961E+00  0.18635965763E-01 0.  0.
         14    1    1    2    0    0  0.71146711437E-02 -0.16087925682E-01 -0.17492308516E-01  0.24807675333E-01  0.00000000000E+00 0.  1.
     999901    1    3    3    0    0  0.71374791963E-01 -0.51379763746E-01  0.93576205441E-01  0.88932038506E+00  0.88000000000E+00 0.  1.
        -11    1    4    4    0    0 -0.45887937496E-01  0.31091018867E-01 -0.32022833841E-01  0.64016226615E-01  0.51100000000E-03 0. -1.
         11    1    4    4    0    0 -0.32601525610E-01  0.36376670561E-01 -0.44061063085E-01  0.65785712997E-01  0.51100000000E-03 0.  1.
</event>
<event>
 8    1  0.1129602E+005  0.1043930E+01  0.7957747E-01            NaN
         13   -1    0    0    0    0  0.00000000000E+00  0.00000000000E+00  0.74505805969E-08  0.10566000000E+00  0.10566000000E+00 0. -1.
     999900   -1    0    0    0    0 -0.00000000000E+00 -0.00000000000E+00 -0.74505805969E-08  0.93827000000E+00  0.93827000000E+00 0.  1.
     999902    2    1    2    0    0  0.21130420555E-01  0.92728475213E-02 -0.66829981589E-02  0.10199062027E+01  0.10196232242E+01 0.  0.
     999903    2    3    3    0    0  0.94471100604E-01 -0.46225960359E-01  0.75666694976E-01  0.13128904945E+00  0.21207015747E-01 0.  0.
         14    1    1    2    0    0 -0.21130420555E-01 -0.92728475213E-02  0.66829981589E-02  0.24023797334E-01  0.00000000000E+00 0. -1.
     999901    1    3    3    0    0 -0.73340680050E-01  0.55498807880E-01 -0.82349693135E-01  0.88861715321E+00  0.88000000000E+00 0. -1.
        -11    1    4    4    0    0  0.27810303548E-01 -0.17468442677E-01  0.35312788161E-01  0.48226689724E-01  0.51100000000E-03 0. -1.
         11    1    4    4    0    0  0.66660797056E-01 -0.28757517682E-01  0.40353906815E-01  0.83062359728E-01  0.51100000000E-03 0.  1.
</event>
<event>
 8    1  0.1129602E+005  0.1043930E+01  0.7957747E-01            NaN
         13   -1    0    0    0    0  0.00000000000E+00  0.00000000000E+00  0.74505805969E-08  0.10566000000E+00  0.10566000000E+00 0.  1.
     999900   -1    0    0    0    0 -0.00000000000E+00 -0.00000000000E+00 -0.74505805969E-08  0.93827000000E+00  0.93827000000E+00 0.  1.
     999902    2    1    2    0    0  0.22120215207E-01 -0.51315017137E-03 -0.88226035255E-02  0.10201097234E+01  0.10198315754E+01 0.  0.
     999903    2    3    3    0    0 -0.69581735564E-01 -0.21018170114E-01 -0.10541496134E+00  0.12985145346E+00  0.21580187510E-01 0.  0.
         14    1    1    2    0    0 -0.22120215207E-01  0.51315017137E-03  0.88226035255E-02  0.23820276591E-01  0.00000000000E+00 0. -1.
     999901    1    3    3    0    0  0.91701950771E-01  0.20505019943E-01  0.96592357815E-01  0.89025826995E+00  0.88000000000E+00 0.  1.
        -11    1    4    4    0    0 -0.36223815709E-01 -0.19869764677E-01 -0.69212240023E-01  0.80607491357E-01  0.51100000000E-03 0. -1.
         11    1    4    4    0    0 -0.33357919855E-01 -0.11484054369E-02 -0.36202721318E-01  0.49243962106E-01  0.51100000000E-03 0.  1.
</event>
<event>
 8    1  0.1129602E+005  0.1043930E+01  0.7957747E-01            NaN
         13   -1    0    0    0    0  0.00000000000E+00  0.00000000000E+00  0.74505805969E-08  0.10566000000E+00  0.10566000000E+00 0.  1.
     999900   -1    0    0    0    0 -0.00000000000E+00 -0.00000000000E+00 -0.74505805969E-08  0.93827000000E+00  0.93827000000E+00 0.  1.
     999902    2    1    2    0    0 -0.86349122639E-02 -0.54249388743E-02 -0.38192210264E-04  0.10337322978E+01  0.10336819967E+01 0.  0.
     999903    2    3    3    0    0 -0.13300647962E+00  0.49111099562E-01  0.81449299928E-02  0.14327767810E+00  0.18961261468E-01 0.  0.
         14    1    1    2    0    0  0.86349122639E-02  0.54249388743E-02  0.38192210264E-04  0.10197702204E-01  0.00000000000E+00 0.  1.
     999901    1    3    3    0    0  0.12437156735E+00 -0.54536038436E-01 -0.81831222031E-02  0.89045461970E+00  0.88000000000E+00 0. -1.
        -11    1    4    4    0    0 -0.54723822420E-01  0.30152318216E-01  0.25052804418E-02  0.62533163882E-01  0.51100000000E-03 0. -1.
         11    1    4    4    0    0 -0.78282657196E-01  0.18958781346E-01  0.56396495510E-02  0.80744514215E-01  0.51100000000E-03 0.  1.
</event>
<event>
 8    1  0.1327348E+005  0.1043930E+01  0.7957747E-01            NaN
         13   -1    0    0    0    0  0.00000000000E+00  0.00000000000E+00  0.74505805969E-08  0.10566000000E+00  0.10566000000E+00 0. -1.
     999900   -1    0    0    0    0 -0.00000000000E+00 -0.00000000000E+00 -0.74505805969E-08  0.93827000000E+00  0.93827000000E+00 0.  1.
     999902    2    1    2    0    0 -0.17582084059E-01 -0.88979473885E-02 -0.12913255416E-01  0.10203703881E+01  0.10200983647E+01 0.  0.
     999903    2    3    3    0    0  0.84749889552E-01  0.11238692554E-01  0.93053704931E-01  0.12789836401E+00  0.19752152432E-01 0.  0.
         14    1    1    2    0    0  0.17582084059E-01  0.88979473885E-02  0.12913255416E-01  0.23559611903E-01  0.00000000000E+00 0. -1.
     999901    1    3    3    0    0 -0.10233197361E+00 -0.20136639943E-01 -0.10596696035E+00  0.89247202409E+00  0.88000000000E+00 0.  1.
        -11    1    4    4    0    0  0.21009821594E-01 -0.54409426142E-02  0.26333427147E-01  0.34128096434E-01  0.51100000000E-03 0. -1.
         11    1    4    4    0    0  0.63740067958E-01  0.16679635168E-01  0.66720277784E-01  0.93770267576E-01  0.51100000000E-03 0.  1.
</event>
<event>
 8    1  0.1129602E+005  0.1043930E+01  0.7957747E-01            NaN
         13   -1    0    0    0    0  0.00000000000E+00  0.00000000000E+00  0.74505805969E-08  0.10566000000E+00  0.10566000000E+00 0. -1.
     999900   -1    0    0    0    0 -0.00000000000E+00 -0.00000000000E+00 -0.74505805969E-08  0.93827000000E+00  0.93827000000E+00 0.  1.
     999902    2    1    2    0    0 -0.95809227366E-03  0.49106916694E-02 -0.24379518485E-01  0.10190423775E+01  0.10187384224E+01 0.  0.
     999903    2    3    3    0    0 -0.82029261919E-03 -0.12220817834E+00  0.32901368475E-01  0.12806520262E+00  0.19562319455E-01 0.  0.
         14    1    1    2    0    0  0.95809227366E-03 -0.49106916694E-02  0.24379518485E-01  0.24887622526E-01  0.00000000000E+00 0. -1.
     999901    1    3    3    0    0 -0.13779965448E-03  0.12711887000E+00 -0.57280886960E-01  0.89097717485E+00  0.88000000000E+00 0. -1.
        -11    1    4    4    0    0 -0.44690143627E-02 -0.55282117356E-01  0.58041259196E-02  0.55767675112E-01  0.51100000000E-03 0. -1.
         11    1    4    4    0    0  0.36487217435E-02 -0.66926060980E-01  0.27097242556E-01  0.72297527508E-01  0.51100000000E-03 0.  1.
</event>
<event>
 8    1  0.1129602E+005  0.1043930E+01  0.7957747E-01            NaN
         13   -1    0    0    0    0  0.00000000000E+00  0.00000000000E+00  0.74505805969E-08  0.10566000000E+00  0.10566000000E+00 0.  1.
     999900   -1    0    0    0    0 -0.00000000000E+00 -0.00000000000E+00 -0.74505805969E-08  0.93827000000E+00  0.93827000000E+00 0.  1.
     999902    2    1    2    0    0 -0.17537706942E-01  0.81055361387E-02  0.13941980822E-01  0.10201045995E+01  0.10198263304E+01 0.  0.
     999903    2    3    3    0    0 -0.12969859039E+00 -0.12385301983E-02  0.20879694458E-01  0.13290929560E+00  0.20141025538E-01 0.  0.
         14    1    1    2    0    0  0.17537706942E-01 -0.81055361387E-02 -0.13941980822E-01  0.23825400524E-01  0.00000000000E+00 0. -1.
     999901    1    3    3    0    0  0.11216088345E+00  0.93440663370E-02 -0.69377136359E-02  0.88719530388E+00  0.88000000000E+00 0.  1.
        -11    1    4    4    0    0 -0.16275059765E-01  0.47576926043E-02  0.74756192466E-02  0.18538047723E-01  0.51100000000E-03 0. -1.
         11    1    4    4    0    0 -0.11342353063E+00 -0.59962228025E-02  0.13404075212E-01  0.11437124788E+00  0.51100000000E-03 0.  1.
</event>
<event>
 8    1  0.1129602E+005  0.1043930E+01  0.7957747E-01            NaN
         13   -1    0    0    0    0  0.00000000000E+00  0.00000000000E+00  0.74505805969E-08  0.10566000000E+00  0.10566000000E+00 0.  1.
     999900   -1    0    0    0    0 -0.00000000000E+00 -0.00000000000E+00 -0.74505805969E-08  0.93827000000E+00  0.93827000000E+00 0. -1.
     999902    2    1    2    0    0  0.14565327126E-02  0.16263695212E-01  0.16861672058E-01  0.10204577770E+01  0.10201877912E+01 0.  0.
     999903    2    3    3    0    0  0.76228249779E-01 -0.93812672619E-01 -0.39307759463E-01  0.12868279332E+00  0.20064838236E-01 0.  0.
         14    1    1    2    0    0 -0.14565327126E-02 -0.16263695212E-01 -0.16861672058E-01  0.23472223033E-01  0.00000000000E+00 0. -1.
     999901    1    3    3    0    0 -0.74771717067E-01  0.11007636783E+00  0.56169431521E-01  0.89177498365E+00  0.88000000000E+00 0.  1.
        -11    1    4    4    0    0  0.49833921356E-01 -0.60897891913E-01 -0.35468520682E-01  0.86314830924E-01  0.51100000000E-03 0.  1.
         11    1    4    4    0    0  0.26394328424E-01 -0.32914780706E-01 -0.38392387811E-02  0.42367962392E-01  0.51100000000E-03 0. -1.
</event>
<event>
 8    1  0.1129602E+005  0.1043930E+01  0.7957747E-01            NaN
         13   -1    0    0    0    0  0.00000000000E+00  0.00000000000E+00  0.74505805969E-08  0.10566000000E+00  0.10566000000E+00 0. -1.
     999900   -1    0    0    0    0 -0.00000000000E+00 -0.00000000000E+00 -0.74505805969E-08  0.93827000000E+00  0.93827000000E+00 0.  1.
     999902    2    1    2    0    0 -0.21077468077E-01 -0.19662407563E-02 -0.10930168792E-01  0.10201057612E+01  0.10198275196E+01 0.  0.
     999903    2    3    3    0    0  0.12470540411E+00  0.14680568321E-01 -0.13468003870E-01  0.12795319430E+00  0.20583388965E-01 0.  0.
         14    1    1    2    0    0  0.21077468077E-01  0.19662407563E-02  0.10930168792E-01  0.23824238772E-01  0.00000000000E+00 0. -1.
     999901    1    3    3    0    0 -0.14578287219E+00 -0.16646809077E-01  0.25378350783E-02  0.89215256693E+00  0.88000000000E+00 0.  1.
        -11    1    4    4    0    0  0.49977621603E-01  0.10758013134E-01  0.34187296504E-02  0.51239109488E-01  0.51100000000E-03 0.  1.
         11    1    4    4    0    0  0.74727782510E-01  0.39225551865E-02 -0.16886733521E-01  0.76714084809E-01  0.51100000000E-03 0. -1.
</event>
<event>
 8    1  0.1129602E+005  0.1043930E+01  0.7957747E-01            NaN
         13   -1    0    0    0    0  0.00000000000E+00  0.00000000000E+00  0.74505805969E-08  0.10566000000E+00  0.10566000000E+00 0.  1.
     999900   -1    0    0    0    0 -0.00000000000E+00 -0.00000000000E+00 -0.74505805969E-08  0.93827000000E+00  0.93827000000E+00 0. -1.
     999902    2    1    2    0    0 -0.68761090854E-02  0.13938105777E-01 -0.18629418773E-01  0.10196687776E+01  0.10193801102E+01 0.  0.
     999903    2    3    3    0    0  0.44723791430E-01 -0.26887040312E-01  0.11446888095E+00  0.12723144104E+00  0.19015373435E-01 0.  0.
         14    1    1    2    0    0  0.68761090854E-02 -0.13938105777E-01  0.18629418773E-01  0.24261222406E-01  0.00000000000E+00 0.  1.
     999901    1    3    3    0    0 -0.51599900516E-01  0.40825146089E-01 -0.13309829972E+00  0.89243733655E+00  0.88000000000E+00 0. -1.
        -11    1    4    4    0    0  0.31260942457E-01 -0.94862483990E-02  0.79004938441E-01  0.85494308881E-01  0.51100000000E-03 0.  1.
         11    1    4    4    0    0  0.13462848974E-01 -0.17400791913E-01  0.35463942508E-01  0.41737132159E-01  0.51100000000E-03 0. -1.
</event>
<event>
 8    1  0.1129602E+005  0.1043930E+01  0.7957747E-01            NaN
         13   -1    0    0    0    0  0.00000000000E+00  0.00000000000E+00  0.74505805969E-08  0.10566000000E+00  0.10566000000E+00 0. -1.
     999900   -1    0    0    0    0 -0.00000000000E+00 -0.00000000000E+00 -0.74505805969E-08  0.93827000000E+00  0.93827000000E+00 0. -1.
     999902    2    1    2    0    0 -0.59732987465E-03  0.20547017879E-01  0.97488614632E-02  0.10211796803E+01  0.10209262277E+01 0.  0.
     999903    2    3    3    0    0 -0.28714609351E-01  0.12713524875E+00  0.24639051197E-01  0.13417722815E+00  0.20212507132E-01 0.  0.
         14    1    1    2    0    0  0.59732987465E-03 -0.20547017879E-01 -0.97488614632E-02  0.22750319702E-01  0.00000000000E+00 0.  1.
     999901    1    3    3    0    0  0.28117279476E-01 -0.10658823087E+00 -0.14890189734E-01  0.88700245215E+00  0.88000000000E+00 0.  1.
        -11    1    4    4    0    0 -0.15132505352E-01  0.77670627269E-01  0.24637135855E-01  0.82879241325E-01  0.51100000000E-03 0. -1.
         11    1    4    4    0    0 -0.13582103999E-01  0.49464621484E-01  0.19153423498E-05  0.51297986825E-01  0.51100000000E-03 0.  1.
</event>
<event>
 8    1  0.1129602E+005  0.1043930E+01  0.7957747E-01            NaN
         13   -1    0    0    0    0  0.00000000000E+00  0.00000000000E+00  0.74505805969E-08  0.10566000000E+00  0.10566000000E+00 0. -1.
     999900   -1    0    0    0    0 -0.00000000000E+00 -0.00000000000E+00 -0.74505805969E-08  0.93827000000E+00  0.93827000000E+00 0.  1.
     999902    2    1    2    0    0 -0.13625489409E-01  0.15762147608E-01 -0.11308501866E-01  0.10202238516E+01  0.10199483937E+01 0.  0.
     999903    2    3    3    0    0  0.77815672565E-01 -0.71927505977E-01 -0.71087084512E-01  0.12914336116E+00  0.19894449839E-01 0.  0.
         14    1    1    2    0    0  0.13625489409E-01 -0.15762147608E-01  0.11308501866E-01  0.23706148429E-01  0.00000000000E+00 0.  1.
     999901    1    3    3    0    0 -0.91441161974E-01  0.87689653585E-01  0.59778582645E-01  0.89108049041E+00  0.88000000000E+00 0.  1.
        -11    1    4    4    0    0  0.39113773995E-01 -0.41848564034E-01 -0.27475516682E-01  0.63532312769E-01  0.51100000000E-03 0. -1.
         11    1    4    4    0    0  0.38701898570E-01 -0.30078941943E-01 -0.43611567830E-01  0.65611048390E-01  0.51100000000E-03 0.  1.
</event>
<event>
 8    1  0.1175545E+005  0.1043930E+01  0.7957747E-01            NaN
         13   -1    0    0    0    0  0.00000000000E+00  0.00000000000E+00  0.74505805969E-08  0.10566000000E+00  0.10566000000E+00 0. -1.
     999900   -1    0    0    0    0 -0.00000000000E+00 -0.00000000000E+00 -0.74505805969E-08  0.93827000000E+00  0.93827000000E+00 0. -1.
     999902    2    1    2    0    0  0.13713669955E-01 -0.13272036861E-01  0.11818322764E-01  0.10214826291E+01  0.10212359557E+01 0.  0.
     999903    2    3    3    0    0 -0.97194069711E-01 -0.18543460674E-01 -0.81393279167E-01  0.12962125125E+00  0.19653390552E-01 0.  0.
         14    1    1    2    0    0 -0.13713669955E-01  0.13272036861E-01 -0.11818322764E-01  0.22447370871E-01  0.00000000000E+00 0. -1.
     999901    1    3    3    0    0  0.11090773967E+00  0.52714238135E-02  0.93211601931E-01  0.89186137788E+00  0.88000000000E+00 0.  1.
        -11    1    4    4    0    0 -0.38412172283E-01 -0.12359601552E-01 -0.22602254723E-01  0.46253408195E-01  0.51100000000E-03 0.  1.
         11    1    4    4    0    0 -0.58781897427E-01 -0.61838591220E-02 -0.58791024443E-01  0.83367843050E-01  0.51100000000E-03 0. -1.
</event>
<event>
 8    1  0.1129602E+005  0.1043930E+01  0.7957747E-01            NaN
         13   -1    0    0    0    0  0.00000000000E+00  0.00000000000E+00  0.74505805969E-08  0.10566000000E+00  0.10566000000E+00 0. -1.
     999900   -1    0    0    0    0 -0.00000000000E+00 -0.00000000000E+00 -0.74505805969E-08  0.93827000000E+00  0.93827000000E+00 0. -1.
     999902    2    1    2    0    0 -0.12050069039E-01  0.21279400504E-01 -0.49569962097E-02  0.10189782694E+01  0.10186727269E+01 0.  0.
     999903    2    3    3    0    0 -0.95065103525E-01 -0.58358462677E-01  0.61608775549E-01  0.12899810827E+00  0.20044616164E-01 0.  0.
         14    1    1    2    0    0  0.12050069039E-01 -0.21279400504E-01  0.49569962097E-02  0.24951730623E-01  0.00000000000E+00 0. -1.
     999901    1    3    3    0    0  0.83015034485E-01  0.79637863181E-01 -0.66565771759E-01  0.88998016111E+00  0.88000000000E+00 0.  1.
        -11    1    4    4    0    0 -0.44084124107E-01 -0.37854653225E-01  0.27177751944E-01  0.64150417698E-01  0.51100000000E-03 0.  1.
         11    1    4    4    0    0 -0.50980979417E-01 -0.20503809452E-01  0.34431023605E-01  0.64847690567E-01  0.51100000000E-03 0. -1.
</event>
<event>
 8    1  0.1129602E+005  0.1043930E+01  0.7957747E-01            NaN
         13   -1    0    0    0    0  0.00000000000E+00  0.00000000000E+00  0.74505805969E-08  0.10566000000E+00  0.10566000000E+00 0.  1.
     999900   -1    0    0    0    0 -0.00000000000E+00 -0.00000000000E+00 -0.74505805969E-08  0.93827000000E+00  0.93827000000E+00 0. -1.
     999902    2    1    2    0    0 -0.21131585413E-01  0.70232993180E-02 -0.75235713991E-02  0.10204252183E+01  0.10201544743E+01 0.  0.
     999903    2    3    3    0    0  0.86240206641E-01  0.87099101490E-01  0.35157278938E-01  0.12926726890E+00  0.21221824258E-01 0.  0.
         14    1    1    2    0    0  0.21131585413E-01 -0.70232993180E-02  0.75235713991E-02  0.23504781683E-01  0.00000000000E+00 0.  1.
     999901    1    3    3    0    0 -0.10737179205E+00 -0.80075802172E-01 -0.42680850337E-01  0.89115794942E+00  0.88000000000E+00 0. -1.
        -11    1    4    4    0    0  0.24078280929E-01  0.19753493446E-01  0.18154972610E-01  0.36053131172E-01  0.51100000000E-03 0. -1.
         11    1    4    4    0    0  0.62161925712E-01  0.67345608044E-01  0.17002306328E-01  0.93214137729E-01  0.51100000000E-03 0.  1.
</event>
<event>
 8    1  0.1129602E+005  0.1043930E+01  0.7957747E-01            NaN
         13   -1    0    0    0    0  0.00000000000E+00  0.00000000000E+00  0.74505805969E-08  0.10566000000E+00  0.10566000000E+00 0.  1.
     999900   -1    0    0    0    0 -0.00000000000E+00 -0.00000000000E+00 -0.74505805969E-08  0.93827000000E+00  0.93827000000E+00 0. -1.
     999902    2    1    2    0    0 -0.98699484826E-02  0.13703116252E-01 -0.16081261515E-01  0.10206105178E+01  0.10203440747E+01 0.  0.
     999903    2    3    3    0    0 -0.98262922279E-01  0.83502220883E-01  0.23260756124E-01  0.13256039130E+00  0.20074157006E-01 0.  0.
         14    1    1    2    0    0  0.98699484826E-02 -0.13703116252E-01  0.16081261515E-01  0.23319482198E-01  0.00000000000E+00 0. -1.
     999901    1    3    3    0    0  0.88392973796E-01 -0.69799104631E-01 -0.39342017639E-01  0.88805012650E+00  0.88000000000E+00 0. -1.
        -11    1    4    4    0    0 -0.23733045933E-01  0.30270681358E-01  0.19119235389E-02  0.38516077056E-01  0.51100000000E-03 0. -1.
         11    1    4    4    0    0 -0.74529876346E-01  0.53231539525E-01  0.21348832585E-01  0.94044314247E-01  0.51100000000E-03 0.  1.
</event>
<event>
 8    1  0.1129602E+005  0.1043930E+01  0.7957747E-01            NaN
         13   -1    0    0    0    0  0.00000000000E+00  0.00000000000E+00  0.74505805969E-08  0.10566000000E+00  0.10566000000E+00 0.  1.
     999900   -1    0    0    0    0 -0.00000000000E+00 -0.00000000000E+00 -0.74505805969E-08  0.93827000000E+00  0.93827000000E+00 0.  1.
     999902    2    1    2    0    0  0.89059960630E-02  0.20625355284E-01 -0.37179398451E-02  0.10211584141E+01  0.10209044821E+01 0.  0.
     999903    2    3    3    0    0  0.67900279896E-01 -0.86656137944E-01 -0.67067953964E-01  0.13042676621E+00  0.19831707982E-01 0.  0.
         14    1    1    2    0    0 -0.89059960630E-02 -0.20625355284E-01  0.37179398451E-02  0.22771585873E-01  0.00000000000E+00 0. -1.
     999901    1    3    3    0    0 -0.58994283833E-01  0.10728149323E+00  0.63350014119E-01  0.89073164792E+00  0.88000000000E+00 0. -1.
        -11    1    4    4    0    0  0.37106164146E-01 -0.31545499242E-01 -0.30531883614E-01  0.57484284619E-01  0.51100000000E-03 0.  1.
         11    1    4    4    0    0  0.30794115750E-01 -0.55110638702E-01 -0.36536070350E-01  0.72942481590E-01  0.51100000000E-03 0. -1.
</event>
<event>
 8    1  0.1129602E+005  0.1043930E+01  0.7957747E-01            NaN
         13   -1    0    0    0    0  0.00000000000E+00  0.00000000000E+00  0.74505805969E-08  0.10566000000E+00  0.10566000000E+00 0.  1.
     999900   -1    0    0    0    0 -0.00000000000E+00 -0.00000000000E+00 -0.74505805969E-08  0.93827000000E+00  0.93827000000E+00 0. -1.
     999902    2    1    2    0    0 -0.18880260033E-01 -0.13255005439E-01 -0.18767450097E-02  0.10207852045E+01  0.10205227837E+01 0.  0.
     999903    2    3    3    0    0 -0.70607401511E-01 -0.64860714976E-01 -0.90532774224E-01  0.13331760623E+00  0.19623542653E-01 0.  0.
         14    1    1    2    0    0  0.18880260033E-01  0.13255005439E-01  0.18767450097E-02  0.23144795526E-01  0.00000000000E+00 0.  1.
     999901    1    3    3    0    0  0.51727141478E-01  0.51605709537E-01  0.88656029214E-01  0.88746759825E+00  0.88000000000E+00 0.  1.
        -11    1    4    4    0    0 -0.42006236380E-01 -0.35458617816E-01 -0.64429344665E-01  0.84694976517E-01  0.51100000000E-03 0.  1.
         11    1    4    4    0    0 -0.28601165130E-01 -0.29402097160E-01 -0.26103429559E-01  0.48622629711E-01  0.51100000000E-03 0. -1.
</event>
<event>
 8    1  0.1129602E+005  0.1043930E+01  0.7957747E-01            NaN
         13   -1    0    0    0    0  0.00000000000E+00  0.00000000000E+00  0.74505805969E-08  0.10566000000E+00  0.10566000000E+00 0.  1.
     999900   -1    0    0    0    0 -0.00000000000E+00 -0.00000000000E+00 -0.74505805969E-08  0.93827000000E+00  0.93827000000E+00 0. -1.
     999902    2    1    2    0    0  0.19928858418E-01 -0.11913624410E-01 -0.28536660043E-02  0.10205368973E+01  0.10202687496E+01 0.  0.
     999903    2    3    3    0    0  0.11029059578E+00 -0.72674660354E-01  0.11661905335E-01  0.13370667179E+00  0.17200356676E-01 0.  0.
         14    1    1    2    0    0 -0.19928858418E-01  0.11913624410E-01  0.28536660043E-02  0.23393102704E-01  0.00000000000E+00 0. -1.
     999901    1    3    3    0    0 -0.90361737358E-01  0.60761035944E-01 -0.14515571340E-01  0.88683022551E+00  0.88000000000E+00 0. -1.
        -11    1    4    4    0    0  0.45413624642E-01 -0.30703249324E-01  0.13325262397E-01  0.56417289558E-01  0.51100000000E-03 0. -1.
         11    1    4    4    0    0  0.64876971135E-01 -0.41971411030E-01 -0.16633570616E-02  0.77289382228E-01  0.51100000000E-03 0.  1.
</event>
<event>
 8    1  0.1129602E+005  0.1043930E+01  0.7957747E-01            NaN
         13   -1    0    0    0    0  0.00000000000E+00  0.00000000000E+00  0.74505805969E-08  0.10566000000E+00  0.10566000000E+00 0.  1.
     999900   -1    0    0    0    0 -0.00000000000E+00 -0.00000000000E+00 -0.74505805969E-08  0.93827000000E+00  0.93827000000E+00 0. -1.
     999902    2    1    2    0    0 -0.19443113406E-01  0.30712604714E-02 -0.12544979323E-01  0.10205881105E+01  0.10203211492E+01 0.  0.
     999903    2    3    3    0    0 -0.49591775175E-01 -0.11931418028E+00 -0.18074702181E-01  0.13158995765E+00  0.17146553997E-01 0.  0.
         14    1    1    2    0    0  0.19443113406E-01 -0.30712604714E-02  0.12544979323E-01  0.23341889512E-01  0.00000000000E+00 0. -1.
     999901    1    3    3    0    0  0.30148661770E-01  0.12238544075E+00  0.55297228583E-02  0.88899815284E+00  0.88000000000E+00 0.  1.
        -11    1    4    4    0    0 -0.13462008626E-01 -0.18837297305E-01 -0.72451086134E-02  0.24265658157E-01  0.51100000000E-03 0. -1.
         11    1    4    4    0    0 -0.36129766550E-01 -0.10047688298E+00 -0.10829593568E-01  0.10732429949E+00  0.51100000000E-03 0.  1.
</event>
<event>
 8    1  0.1129602E+005  0.1043930E+01  0.7957747E-01            NaN
         13   -1    0    0    0    0  0.00000000000E+00  0.00000000000E+00  0.74505805969E-08  0.10566000000E+00  0.10566000000E+00 0. -1.
     999900   -1    0    0    0    0 -0.00000000000E+00 -0.00000000000E+00 -0.74505805969E-08  0.93827000000E+00  0.93827000000E+00 0.  1.
     999902    2    1    2    0    0 -0.75780811652E-02 -0.19030922854E-01 -0.13302418607E-01  0.10195054697E+01  0.10192128556E+01 0.  0.
     999903    2    3    3    0    0  0.12269244938E+00  0.15899963658E-01 -0.30994280723E-01  0.12905413475E+00  0.19699702521E-01 0.  0.
         14    1    1    2    0    0  0.75780811652E-02  0.19030922854E-01  0.13302418607E-01  0.24424530284E-01  0.00000000000E+00 0. -1.
     999901    1    3    3    0    0 -0.13027053054E+00 -0.34930886511E-01  0.17691862116E-01  0.89045133497E+00  0.88000000000E+00 0. -1.
        -11    1    4    4    0    0  0.30354892072E-01 -0.13046946236E-02 -0.81990462589E-03  0.30398274053E-01  0.51100000000E-03 0. -1.
         11    1    4    4    0    0  0.92337557305E-01  0.17204658281E-01 -0.30174376097E-01  0.98655860696E-01  0.51100000000E-03 0.  1.
</event>
<event>
 8    1  0.1129602E+005  0.1043930E+01  0.7957747E-01            NaN
         13   -1    0    0    0    0  0.00000000000E+00  0.00000000000E+00  0.74505805969E-08  0.10566000000E+00  0.10566000000E+00 0. -1.
     999900   -1    0    0    0    0 -0.00000000000E+00 -0.00000000000E+00 -0.74505805969E-08  0.93827000000E+00  0.93827000000E+00 0.  1.
     999902    2    1    2    0    0  0.22313348435E-01  0.19396878764E-02 -0.89694144680E-02  0.10198032865E+01  0.10195178492E+01 0.  0.
     999903    2    3    3    0    0 -0.10010849292E+00 -0.74124324426E-01 -0.21100332191E-01  0.12799613227E+00  0.20534362208E-01 0.  0.
         14    1    1    2    0    0 -0.22313348435E-01 -0.19396878764E-02  0.89694144680E-02  0.24126713480E-01  0.00000000000E+00 0. -1.
     999901    1    3    3    0    0  0.12242184135E+00  0.76064012302E-01  0.12130917723E-01  0.89180715425E+00  0.88000000000E+00 0. -1.
        -11    1    4    4    0    0 -0.26879962274E-02 -0.65721102874E-02  0.15875413744E-02  0.72937895476E-02  0.51100000000E-03 0.  1.
         11    1    4    4    0    0 -0.97420496692E-01 -0.67552214139E-01 -0.22687873565E-01  0.12070234272E+00  0.51100000000E-03 0. -1.
</event>
<event>
 8    1  0.1129602E+005  0.1043930E+01  0.7957747E-01            NaN
         13   -1    0    0    0    0  0.00000000000E+00  0.00000000000E+00  0.74505805969E-08  0.10566000000E+00  0.10566000000E+00 0.  1.
     999900   -1    0    0    0    0 -0.00000000000E+00 -0.00000000000E+00 -0.74505805969E-08  0.93827000000E+00  0.93827000000E+00 0.  1.
     999902    2    1    2    0    0 -0.11955555648E-01 -0.84575441221E-02  0.17985720973E-01  0.10207362180E+01  0.10204726725E+01 0.  0.
     999903    2    3    3    0    0 -0.18802793641E-01  0.11784045941E+00 -0.45925112054E-01  0.12939864732E+00  0.19873980215E-01 0.  0.
         14    1    1    2    0    0  0.11955555648E-01  0.84575441221E-02 -0.17985720973E-01  0.23193781976E-01  0.00000000000E+00 0. -1.
     999901    1    3    3    0    0  0.68472379924E-02 -0.12629800353E+00  0.63910833027E-01  0.89133757070E+00  0.88000000000E+00 0. -1.
        -11    1    4    4    0    0 -0.19299899751E-01  0.70469227091E-01 -0.21894310069E-01  0.76275946612E-01  0.51100000000E-03 0. -1.
         11    1    4    4    0    0  0.49710611045E-03  0.47371232318E-01 -0.24030801986E-01  0.53122700712E-01  0.51100000000E-03 0.  1.
</event>
<event>
 8    1  0.1129602E+005  0.1043930E+01  0.7957747E-01            NaN
         13   -1    0    0    0    0  0.00000000000E+00  0.00000000000E+00  0.74505805969E-08  0.10566000000E+00  0.10566000000E+00 0.  1.
     999900   -1    0    0    0    0 -0.00000000000E+00 -0.00000000000E+00 -0.74505805969E-08  0.93827000000E+00  0.93827000000E+00 0. -1.
     999902    2    1    2    0    0  0.14575061145E-01  0.16961774228E-01 -0.79712771940E-02  0.10201881498E+01  0.10199118518E+01 0.  0.
     999903    2    3    3    0    0  0.71075895072E-01 -0.75669218069E-01 -0.76899822265E-01  0.13084907535E+00  0.20743298462E-01 0.  0.
         14    1    1    2    0    0 -0.14575061145E-01 -0.16961774228E-01  0.79712771940E-02  0.23741850232E-01  0.00000000000E+00 0.  1.
     999901    1    3    3    0    0 -0.56500833927E-01  0.92630992297E-01  0.68928545071E-01  0.88933907442E+00  0.88000000000E+00 0.  1.
        -11    1    4    4    0    0  0.17878357203E-01 -0.19803652788E-01 -0.92442498331E-02  0.28240708136E-01  0.51100000000E-03 0. -1.
         11    1    4    4    0    0  0.53197537868E-01 -0.55865565280E-01 -0.67655572432E-01  0.10260836721E+00  0.51100000000E-03 0.  1.
</event>
<event>
 8    1  0.1129602E+005  0.1043930E+01  0.7957747E-01            NaN
         13   -1    0    0    0    0  0.00000000000E+00  0.00000000000E+00  0.74505805969E-08  0.10566000000E+00  0.10566000000E+00 0.  1.
     999900   -1    0    0    0    0 -0.00000000000E+00 -0.00000000000E+00 -0.74505805969E-08  0.93827000000E+00  0.93827000000E+00 0. -1.
     999902    2    1    2    0    0 -0.10972560397E-01  0.13464984623E-01 -0.15949511432E-01  0.10203484435E+01  0.10200759071E+01 0.  0.
     999903    2    3    3    0    0  0.78531460600E-01  0.22292415261E-01  0.97298807853E-01  0.12854461129E+00  0.19812041788E-01 0.  0.
         14    1    1    2    0    0  0.10972560397E-01 -0.13464984623E-01  0.15949511432E-01  0.23581556510E-01  0.00000000000E+00 0.  1.
     999901    1    3    3    0    0 -0.89504020997E-01 -0.88274306381E-02 -0.11324831928E+00  0.89180383220E+00  0.88000000000E+00 0. -1.
        -11    1    4    4    0    0  0.57473413391E-01  0.20375690642E-01  0.59321372158E-01  0.85074369417E-01  0.51100000000E-03 0.  1.
         11    1    4    4    0    0  0.21058047210E-01  0.19167246190E-02  0.37977435694E-01  0.43470241872E-01  0.51100000000E-03 0. -1.
</event>
<event>
 8    1  0.1129602E+005  0.1043930E+01  0.7957747E-01            NaN
         13   -1    0    0    0    0  0.00000000000E+00  0.00000000000E+00  0.74505805969E-08  0.10566000000E+00  0.10566000000E+00 0. -1.
     999900   -1    0    0    0    0 -0.00000000000E+00 -0.00000000000E+00 -0.74505805969E-08  0.93827000000E+00  0.93827000000E+00 0. -1.
     999902    2    1    2    0    0  0.15264865226E-01 -0.10037171901E-01  0.15830526887E-01  0.10197563261E+01  0.10194697632E+01 0.  0.
     999903    2    3    3    0    0  0.86887767510E-01 -0.65178902442E-02  0.99240050270E-01  0.13290832665E+00  0.14968923755E-01 0.  0.
         14    1    1    2    0    0 -0.15264865226E-01  0.10037171901E-01 -0.15830526887E-01  0.24173673938E-01  0.00000000000E+00 0.  1.
     999901    1    3    3    0    0 -0.71622902284E-01 -0.35192816571E-02 -0.83409523382E-01  0.88684799941E+00  0.88000000000E+00 0. -1.
        -11    1    4    4    0    0  0.13137640990E-01 -0.18315371458E-02  0.80172890475E-02  0.15507745928E-01  0.51100000000E-03 0.  1.
         11    1    4    4    0    0  0.73750126520E-01 -0.46863530984E-02  0.91222761222E-01  0.11740058072E+00  0.51100000000E-03 0. -1.
</event>
<event>
 7    1  0.1129602E+005  0.1043930E+01  0.7957747E-01            NaN
         13   -1    0    0    0    0  0.00000000000E+00  0.00000000000E+00  0.74505805969E-08  0.10566000000E+00  0.10566000000E+00 0.  1.
     999900   -1    0    0    0    0 -0.00000000000E+00 -0.00000000000E+00 -0.74505805969E-08  0.93827000000E+00  0.93827000000E+00 0. -1.
     999903    2    1    2    0    0 -0.36406480092E-01  0.58833178467E-01  0.69068787749E-01  0.99932261060E-01  0.20716772875E-01 0.  0.
         14    1    1    2    0    0 -0.21509639824E-01 -0.13735885376E-01 -0.55220690158E-01  0.60833081247E-01  0.00000000000E+00 0. -1.
     999901    1    1    2    0    0  0.57916119916E-01 -0.45097293091E-01 -0.13848097590E-01  0.88316465769E+00  0.88000000000E+00 0. -1.
        -11    1    3    3    0    0 -0.27956242560E-01  0.25811515031E-01  0.34097238532E-01  0.51094702297E-01  0.51100000000E-03 0. -1.
         11    1    3    3    0    0 -0.84502375325E-02  0.33021663436E-01  0.34971549216E-01  0.48837558764E-01  0.51100000000E-03 0.  1.
</event>
<event>
 8    1  0.1129602E+005  0.1043930E+01  0.7957747E-01            NaN
         13   -1    0    0    0    0  0.00000000000E+00  0.00000000000E+00  0.74505805969E-08  0.10566000000E+00  0.10566000000E+00 0.  1.
     999900   -1    0    0    0    0 -0.00000000000E+00 -0.00000000000E+00 -0.74505805969E-08  0.93827000000E+00  0.93827000000E+00 0.  1.
     999902    2    1    2    0    0 -0.14360724461E-01  0.16563046611E-01  0.10372536577E-01  0.10196781045E+01  0.10193896617E+01 0.  0.
     999903    2    3    3    0    0 -0.11252036143E+00 -0.40809138401E-01 -0.47586200421E-01  0.13047278674E+00  0.20796251970E-01 0.  0.
         14    1    1    2    0    0  0.14360724461E-01 -0.16563046611E-01 -0.10372536577E-01  0.24251895496E-01  0.00000000000E+00 0.  1.
     999901    1    3    3    0    0  0.98159636970E-01  0.57372185013E-01  0.57958736998E-01  0.88920531776E+00  0.88000000000E+00 0. -1.
        -11    1    4    4    0    0 -0.27856082909E-01 -0.73613495436E-02 -0.20934493113E-01  0.35618323164E-01  0.51100000000E-03 0.  1.
         11    1    4    4    0    0 -0.84664278522E-01 -0.33447788858E-01 -0.26651707308E-01  0.94854463577E-01  0.51100000000E-03 0. -1.
</event>
<event>
 8    1  0.1129602E+005  0.1043930E+01  0.7957747E-01            NaN
         13   -1    0    0    0    0  0.00000000000E+00  0.00000000000E+00  0.74505805969E-08  0.10566000000E+00  0.10566000000E+00 0.  1.
     999900   -1    0    0    0    0 -0.00000000000E+00 -0.00000000000E+00 -0.74505805969E-08  0.93827000000E+00  0.93827000000E+00 0. -1.
     999902    2    1    2    0    0  0.13166417281E-01 -0.18838042372E-01 -0.56736649611E-02  0.10202568748E+01  0.10199821928E+01 0.  0.
     999903    2    3    3    0    0 -0.10949855590E+00  0.47378085985E-01 -0.43035509871E-01  0.12850176334E+00  0.20640525536E-01 0.  0.
         14    1    1    2    0    0 -0.13166417281E-01  0.18838042372E-01  0.56736649611E-02  0.23673125237E-01  0.00000000000E+00 0.  1.
     999901    1    3    3    0    0  0.12266497318E+00 -0.66216128356E-01  0.37361844910E-01  0.89175511143E+00  0.88000000000E+00 0. -1.
        -11    1    4    4    0    0 -0.50934166250E-01  0.32992440645E-01 -0.19171168024E-01  0.63644208187E-01  0.51100000000E-03 0.  1.
         11    1    4    4    0    0 -0.58564389652E-01  0.14385645339E-01 -0.23864341847E-01  0.64857555149E-01  0.51100000000E-03 0. -1.
</event>
<event>
 8    1  0.1129602E+005  0.1043930E+01  0.7957747E-01            NaN
         13   -1    0    0    0    0  0.00000000000E+00  0.00000000000E+00  0.74505805969E-08  0.10566000000E+00  0.10566000000E+00 0. -1.
     999900   -1    0    0    0    0 -0.00000000000E+00 -0.00000000000E+00 -0.74505805969E-08  0.93827000000E+00  0.93827000000E+00 0.  1.
     999902    2    1    2    0    0  0.49597949149E-02 -0.19611485657E-01 -0.10627946533E-01  0.10210791098E+01  0.10208233859E+01 0.  0.
     999903    2    3    3    0    0 -0.83489909830E-01  0.87046770499E-01 -0.43128080468E-01  0.12964453981E+00  0.19999251972E-01 0.  0.
         14    1    1    2    0    0 -0.49597949149E-02  0.19611485657E-01  0.10627946533E-01  0.22850890197E-01  0.00000000000E+00 0. -1.
     999901    1    3    3    0    0  0.88449704745E-01 -0.10665825616E+00  0.32500133935E-01  0.89143456999E+00  0.88000000000E+00 0. -1.
        -11    1    4    4    0    0 -0.49267205147E-01  0.56318979066E-01 -0.16964259583E-01  0.76727649059E-01  0.51100000000E-03 0. -1.
         11    1    4    4    0    0 -0.34222704683E-01  0.30727791434E-01 -0.26163820885E-01  0.52916890749E-01  0.51100000000E-03 0.  1.
</event>
<event>
 7    1  0.1129602E+005  0.1043930E+01  0.7957747E-01            NaN
         13   -1    0    0    0    0  0.00000000000E+00  0.00000000000E+00  0.74505805969E-08  0.10566000000E+00  0.10566000000E+00 0. -1.
     999900   -1    0    0    0    0 -0.00000000000E+00 -0.00000000000E+00 -0.74505805969E-08  0.93827000000E+00  0.93827000000E+00 0. -1.
     999902    2    1    2    0    0  0.40467104734E-02 -0.45698560726E-02 -0.23041026519E-01  0.10200941372E+01  0.10198156208E+01 0.  0.
         14    1    1    2    0    0 -0.40467104734E-02  0.45698560726E-02  0.23041026519E-01  0.23835862754E-01  0.00000000000E+00 0. -1.
     999901    1    3    3    0    0  0.19500940368E-01 -0.11602285611E+00  0.18835737729E-01  0.88802948984E+00  0.88000000000E+00 0.  1.
        -11    1    3    3    0    0 -0.75162884139E-03  0.37012538947E-01  0.12093300699E-01  0.38948710223E-01  0.51100000000E-03 0. -1.
         11    1    3    3    0    0 -0.14702601053E-01  0.74440461093E-01 -0.53970064947E-01  0.93115937180E-01  0.51100000000E-03 0.  1.
</event>
<event>
 8    1  0.1129602E+005  0.1043930E+01  0.7957747E-01            NaN
         13   -1    0    0    0    0  0.00000000000E+00  0.00000000000E+00  0.74505805969E-08  0.10566000000E+00  0.10566000000E+00 0. -1.
     999900   -1    0    0    0    0 -0.00000000000E+00 -0.00000000000E+00 -0.74505805969E-08  0.93827000000E+00  0.93827000000E+00 0.  1.
     999902    2    1    2    0    0  0.36871123450E-02  0.48746465061E-02 -0.81957395710E-02  0.10337061493E+01  0.10336555887E+01 0.  0.
     999903    2    3    3    0    0  0.21539747621E-01 -0.13836425105E+00 -0.59791611782E-03  0.14191367048E+00  0.23032708655E-01 0.  0.
         14    1    1    2    0    0 -0.36871123450E-02 -0.48746465061E-02  0.81957395710E-02  0.10223850699E-01  0.00000000000E+00 0. -1.
     999901    1    3    3    0    0 -0.17852635276E-01  0.14323889756E+00 -0.75978234532E-02  0.89179247882E+00  0.88000000000E+00 0.  1.
        -11    1    4    4    0    0  0.89572270332E-02 -0.16266220362E-01  0.43101117009E-02  0.19069872177E-01  0.51100000000E-03 0. -1.
         11    1    4    4    0    0  0.12582520588E-01 -0.12209803069E+00 -0.49080278187E-02  0.12284379830E+00  0.51100000000E-03 0.  1.
</event>
<event>
 8    1  0.1129602E+005  0.1043930E+01  0.7957747E-01            NaN
         13   -1    0    0    0    0  0.00000000000E+00  0.00000000000E+00  0.74505805969E-08  0.10566000000E+00  0.10566000000E+00 0.  1.
     999900   -1    0    0    0    0 -0.00000000000E+00 -0.00000000000E+00 -0.74505805969E-08  0.93827000000E+00  0.93827000000E+00 0. -1.
     999902    2    1    2    0    0  0.93441197072E-02 -0.20117448786E-01  0.93449232345E-02  0.10198602699E+01  0.10195761954E+01 0.  0.
     999903    2    3    3    0    0 -0.11888773603E+00 -0.47277596667E-01  0.79156026077E-02  0.13015069623E+00  0.22518482156E-01 0.  0.
         14    1    1    2    0    0 -0.93441197072E-02  0.20117448786E-01 -0.93449232345E-02  0.24069730140E-01  0.00000000000E+00 0. -1.
     999901    1    3    3    0    0  0.12823185574E+00  0.27160147881E-01  0.14293206268E-02  0.88970957363E+00  0.88000000000E+00 0. -1.
        -11    1    4    4    0    0 -0.48869628352E-01 -0.13239195641E-01  0.12523088576E-01  0.52159426233E-01  0.51100000000E-03 0. -1.
         11    1    4    4    0    0 -0.70018107678E-01 -0.34038401025E-01 -0.46074859684E-02  0.77991269993E-01  0.51100000000E-03 0.  1.
</event>
<event>
 8    1  0.1129602E+005  0.1043930E+01  0.7957747E-01            NaN
         13   -1    0    0    0    0  0.00000000000E+00  0.00000000000E+00  0.74505805969E-08  0.10566000000E+00  0.10566000000E+00 0.  1.
     999900   -1    0    0    0    0 -0.00000000000E+00 -0.00000000000E+00 -0.74505805969E-08  0.93827000000E+00  0.93827000000E+00 0. -1.
     999902    2    1    2    0    0 -0.24812189578E-01 -0.68782624006E-02  0.15736226887E-02  0.10181340404E+01  0.10178071982E+01 0.  0.
     999903    2    3    3    0    0  0.10530896987E+00  0.63939649088E-01  0.14468721740E-01  0.12565828366E+00  0.20059972137E-01 0.  0.
         14    1    1    2    0    0  0.24812189578E-01  0.68782624006E-02 -0.15736226887E-02  0.25795959639E-01  0.00000000000E+00 0.  1.
     999901    1    3    3    0    0 -0.13012115945E+00 -0.70817911488E-01 -0.12895099051E-01  0.89247575670E+00  0.88000000000E+00 0.  1.
        -11    1    4    4    0    0  0.50940690309E-01  0.20331709022E-01  0.22462179267E-02  0.54896620451E-01  0.51100000000E-03 0.  1.
         11    1    4    4    0    0  0.54368279562E-01  0.43607940066E-01  0.12222503813E-01  0.70761663207E-01  0.51100000000E-03 0. -1.
</event>
<event>
 8    1  0.1129602E+005  0.1043930E+01  0.7957747E-01            NaN
         13   -1    0    0    0    0  0.00000000000E+00  0.00000000000E+00  0.74505805969E-08  0.10566000000E+00  0.10566000000E+00 0.  1.
     999900   -1    0    0    0    0 -0.00000000000E+00 -0.00000000000E+00 -0.74505805969E-08  0.93827000000E+00  0.93827000000E+00 0.  1.
     999902    2    1    2    0    0  0.12804370937E-01  0.19441535482E-01  0.82275196262E-03  0.10206361781E+01  0.10203703278E+01 0.  0.
     999903    2    3    3    0    0  0.10667345027E-01  0.11923851002E+00 -0.54721566825E-01  0.13325284812E+00  0.20742640518E-01 0.  0.
         14    1    1    2    0    0 -0.12804370937E-01 -0.19441535482E-01 -0.82275196262E-03  0.23293821880E-01  0.00000000000E+00 0.  1.
     999901    1    3    3    0    0  0.21370259101E-02 -0.99796974537E-01  0.55544318787E-01  0.88738333000E+00  0.88000000000E+00 0.  1.
        -11    1    4    4    0    0 -0.51150873331E-03  0.61657732461E-01 -0.37284625453E-01  0.72057907474E-01  0.51100000000E-03 0. -1.
         11    1    4    4    0    0  0.11178853761E-01  0.57580777558E-01 -0.17436941372E-01  0.61194940649E-01  0.51100000000E-03 0.  1.
</event>
<event>
 8    1  0.1129602E+005  0.1043930E+01  0.7957747E-01            NaN
         13   -1    0    0    0    0  0.00000000000E+00  0.00000000000E+00  0.74505805969E-08  0.10566000000E+00  0.10566000000E+00 0.  1.
     999900   -1    0    0    0    0 -0.00000000000E+00 -0.00000000000E+00 -0.74505805969E-08  0.93827000000E+00  0.93827000000E+00 0. -1.
     999902    2    1    2    0    0 -0.14455849258E-01 -0.18828144345E-01 -0.98427167238E-03  0.10201720668E+01  0.10198953900E+01 0.  0.
     999903    2    3    3    0    0 -0.26347866105E-01  0.76573621036E-01 -0.99059019261E-01  0.12951973679E+00  0.20123206392E-01 0.  0.
         14    1    1    2    0    0  0.14455849258E-01  0.18828144345E-01  0.98427167238E-03  0.23757933159E-01  0.00000000000E+00 0.  1.
     999901    1    3    3    0    0  0.11892016847E-01 -0.95401765382E-01  0.98074747589E-01  0.89065233005E+00  0.88000000000E+00 0.  1.
        -11    1    4    4    0    0 -0.24410060622E-02  0.20941513384E-01 -0.14823400345E-01  0.25777893867E-01  0.51100000000E-03 0.  1.
         11    1    4    4    0    0 -0.23906860043E-01  0.55632107652E-01 -0.84235618916E-01  0.10374184293E+00  0.51100000000E-03 0. -1.
</event>
<event>
 8    1  0.1129602E+005  0.1043930E+01  0.7957747E-01            NaN
         13   -1    0    0    0    0  0.00000000000E+00  0.00000000000E+00  0.74505805969E-08  0.10566000000E+00  0.10566000000E+00 0.  1.
     999900   -1    0    0    0    0 -0.00000000000E+00 -0.00000000000E+00 -0.74505805969E-08  0.93827000000E+00  0.93827000000E+00 0.  1.
     999902    2    1    2    0    0  0.64727590068E-02 -0.15892153766E-01  0.16182569739E-01  0.10203432935E+01  0.10200706367E+01 0.  0.
     999903    2    3    3    0    0 -0.22309005382E-01  0.25938437318E-01  0.12590861595E+00  0.13207644534E+00  0.20511303974E-01 0.  0.
         14    1    1    2    0    0 -0.64727590068E-02  0.15892153766E-01 -0.16182569739E-01  0.23586706507E-01  0.00000000000E+00 0. -1.
     999901    1    3    3    0    0  0.28781764389E-01 -0.41830591084E-01 -0.10972604621E+00  0.88826684815E+00  0.88000000000E+00 0.  1.
        -11    1    4    4    0    0 -0.18025987214E-01  0.18731281285E-01  0.56909215813E-01  0.62567699966E-01  0.51100000000E-03 0. -1.
         11    1    4    4    0    0 -0.42830181681E-02  0.72071560327E-02  0.68999400140E-01  0.69508745373E-01  0.51100000000E-03 0.  1.
</event>
<event>
 8    1  0.1129602E+005  0.1043930E+01  0.7957747E-01            NaN
         13   -1    0    0    0    0  0.00000000000E+00  0.00000000000E+00  0.74505805969E-08  0.10566000000E+00  0.10566000000E+00 0.  1.
     999900   -1    0    0    0    0 -0.00000000000E+00 -0.00000000000E+00 -0.74505805969E-08  0.93827000000E+00  0.93827000000E+00 0. -1.
     999902    2    1    2    0    0  0.20692414685E-01  0.83488888969E-02  0.87868354076E-02  0.10199489982E+01  0.10196670390E+01 0.  0.
     999903    2    3    3    0    0  0.21290597048E-01  0.10888343903E+00 -0.67333842481E-01  0.13095973437E+00  0.17541746334E-01 0.  0.
         14    1    1    2    0    0 -0.20692414685E-01 -0.83488888969E-02 -0.87868354076E-02  0.23981001810E-01  0.00000000000E+00 0. -1.
     999901    1    3    3    0    0 -0.59818236279E-03 -0.10053455013E+00  0.76120677889E-01  0.88898926382E+00  0.88000000000E+00 0.  1.
        -11    1    4    4    0    0 -0.14798422516E-02  0.17584122634E-01 -0.15709237680E-01  0.23631177952E-01  0.51100000000E-03 0.  1.
         11    1    4    4    0    0  0.22770439300E-01  0.91299316395E-01 -0.51624604802E-01  0.10732855641E+00  0.51100000000E-03 0. -1.
</event>
<event>
 8    1  0.1129602E+005  0.1043930E+01  0.7957747E-01            NaN
         13   -1    0    0    0    0  0.00000000000E+00  0.00000000000E+00  0.74505805969E-08  0.10566000000E+00  0.10566000000E+00 0.  1.
     999900   -1    0    0    0    0 -0.00000000000E+00 -0.00000000000E+00 -0.74505805969E-08  0.93827000000E+00  0.93827000000E+00 0. -1.
     999902    2    1    2    0    0  0.16184382040E-01 -0.15041394863E-01 -0.86671604722E-02  0.10201961117E+01  0.10199200013E+01 0.  0.
     999903    2    3    3    0    0 -0.10964156798E+00 -0.52168002720E-01 -0.41713748193E-01  0.12985761899E+00  0.19498473880E-01 0.  0.
         14    1    1    2    0    0 -0.16184382040E-01  0.15041394863E-01  0.86671604722E-02  0.23733888263E-01  0.00000000000E+00 0.  1.
     999901    1    3    3    0    0  0.12582595002E+00  0.37126607856E-01  0.33046587720E-01  0.89033849275E+00  0.88000000000E+00 0. -1.
        -11    1    4    4    0    0 -0.61844216902E-01 -0.35987953683E-01 -0.32367944652E-01  0.78535246460E-01  0.51100000000E-03 0.  1.
         11    1    4    4    0    0 -0.47797351080E-01 -0.16180049037E-01 -0.93458035403E-02  0.51322372528E-01  0.51100000000E-03 0. -1.
</event>
<event>
 8    1  0.1129602E+005  0.1043930E+01  0.7957747E-01            NaN
         13   -1    0    0    0    0  0.00000000000E+00  0.00000000000E+00  0.74505805969E-08  0.10566000000E+00  0.10566000000E+00 0. -1.
     999900   -1    0    0    0    0 -0.00000000000E+00 -0.00000000000E+00 -0.74505805969E-08  0.93827000000E+00  0.93827000000E+00 0.  1.
     999902    2    1    2    0    0  0.23264992876E-02 -0.21185139933E-01 -0.16169971173E-01  0.10171776035E+01  0.10168257404E+01 0.  0.
     999903    2    3    3    0    0 -0.11764883805E+00  0.41140157978E-01 -0.11887730996E-01  0.12684235092E+00  0.20344585156E-01 0.  0.
         14    1    1    2    0    0 -0.23264992876E-02  0.21185139933E-01  0.16169971173E-01  0.26752396540E-01  0.00000000000E+00 0.  1.
     999901    1    3    3    0    0  0.11997533734E+00 -0.62325297911E-01 -0.42822401771E-02  0.89033525254E+00  0.88000000000E+00 0.  1.
        -11    1    4    4    0    0 -0.77490181547E-01  0.36571497214E-01 -0.11186988533E-01  0.86415348625E-01  0.51100000000E-03 0.  1.
         11    1    4    4    0    0 -0.40158656508E-01  0.45686607643E-02 -0.70074246260E-03  0.40427002297E-01  0.51100000000E-03 0. -1.
</event>
<event>
 8    1  0.1129602E+005  0.1043930E+01  0.7957747E-01            NaN
         13   -1    0    0    0    0  0.00000000000E+00  0.00000000000E+00  0.74505805969E-08  0.10566000000E+00  0.10566000000E+00 0. -1.
     999900   -1    0    0    0    0 -0.00000000000E+00 -0.00000000000E+00 -0.74505805969E-08  0.93827000000E+00  0.93827000000E+00 0.  1.
     999902    2    1    2    0    0  0.96096256823E-02  0.85123422823E-02  0.19719901163E-01  0.10203996073E+01  0.10201282661E+01 0.  0.
     999903    2    3    3    0    0  0.23544169078E-01  0.12295141635E+00 -0.33683962671E-01  0.13127506834E+00  0.20667741684E-01 0.  0.
         14    1    1    2    0    0 -0.96096256823E-02 -0.85123422823E-02 -0.19719901163E-01  0.23530392661E-01  0.00000000000E+00 0.  1.
     999901    1    3    3    0    0 -0.13934543396E-01 -0.11443907407E+00  0.53403863834E-01  0.88912453900E+00  0.88000000000E+00 0. -1.
        -11    1    4    4    0    0  0.17101786746E-01  0.95426328948E-01 -0.34732994862E-01  0.10298202474E+00  0.51100000000E-03 0. -1.
         11    1    4    4    0    0  0.64423823325E-02  0.27525087405E-01  0.10490321913E-02  0.28293043602E-01  0.51100000000E-03 0.  1.
</event>
<event>
 8    1  0.1129602E+005  0.1043930E+01  0.7957747E-01            NaN
         13   -1    0    0    0    0  0.00000000000E+00  0.00000000000E+00  0.74505805969E-08  0.10566000000E+00  0.10566000000E+00 0.  1.
     999900   -1    0    0    0    0 -0.00000000000E+00 -0.00000000000E+00 -0.74505805969E-08  0.93827000000E+00  0.93827000000E+00 0.  1.
     999902    2    1    2    0    0 -0.42260525767E-03  0.24298107450E-01 -0.42156452649E-03  0.10196245616E+01  0.10193348283E+01 0.  0.
     999903    2    3    3    0    0  0.86434184453E-01  0.95503487406E-01  0.21970877802E-01  0.13220373156E+00  0.20082898657E-01 0.  0.
         14    1    1    2    0    0  0.42260525767E-03 -0.24298107450E-01  0.42156452649E-03  0.24305438434E-01  0.00000000000E+00 0.  1.
     999901    1    3    3    0    0 -0.86856789711E-01 -0.71205379956E-01 -0.22392442328E-01  0.88742083001E+00  0.88000000000E+00 0. -1.
        -11    1    4    4    0    0  0.65577170303E-01  0.78968644059E-01  0.24286365482E-01  0.10548222921E+00  0.51100000000E-03 0. -1.
         11    1    4    4    0    0  0.20857014150E-01  0.16534843346E-01 -0.23154876801E-02  0.26721502352E-01  0.51100000000E-03 0.  1.
</event>
<event>
 8    1  0.1129602E+005  0.1043930E+01  0.7957747E-01            NaN
         13   -1    0    0    0    0  0.00000000000E+00  0.00000000000E+00  0.74505805969E-08  0.10566000000E+00  0.10566000000E+00 0. -1.
     999900   -1    0    0    0    0 -0.00000000000E+00 -0.00000000000E+00 -0.74505805969E-08  0.93827000000E+00  0.93827000000E+00 0. -1.
     999902    2    1    2    0    0  0.46533623683E-02  0.74831399839E-02  0.21940294916E-01  0.10202862332E+01  0.10200122401E+01 0.  0.
     999903    2    3    3    0    0 -0.12076430078E+00 -0.36337145039E-01 -0.19598395482E-01  0.12934556720E+00  0.21018425166E-01 0.  0.
         14    1    1    2    0    0 -0.46533623683E-02 -0.74831399839E-02 -0.21940294916E-01  0.23643766754E-01  0.00000000000E+00 0.  1.
     999901    1    3    3    0    0  0.12541766315E+00  0.43820285023E-01  0.41538690398E-01  0.89094066604E+00  0.88000000000E+00 0.  1.
        -11    1    4    4    0    0 -0.18532700874E-01 -0.13044815913E-01  0.42393149866E-04  0.22669167211E-01  0.51100000000E-03 0. -1.
         11    1    4    4    0    0 -0.10223159991E+00 -0.23292329126E-01 -0.19640788632E-01  0.10667639999E+00  0.51100000000E-03 0.  1.
</event>
<event>
 8    1  0.1129602E+005  0.1043930E+01  0.7957747E-01            NaN
         13   -1    0    0    0    0  0.00000000000E+00  0.00000000000E+00  0.74505805969E-08  0.10566000000E+00  0.10566000000E+00 0.  1.
     999900   -1    0    0    0    0 -0.00000000000E+00 -0.00000000000E+00 -0.74505805969E-08  0.93827000000E+00  0.93827000000E+00 0.  1.
     999902    2    1    2    0    0  0.20141494674E-01 -0.10459521593E-01 -0.14905327004E-01  0.10167776489E+01  0.10164150417E+01 0.  0.
     999903    2    3    3    0    0  0.11039703247E-02  0.12431780025E+00 -0.92233459058E-02  0.12629483671E+00  0.20228234223E-01 0.  0.
         14    1    1    2    0    0 -0.20141494674E-01  0.10459521593E-01  0.14905327004E-01  0.27152351146E-01  0.00000000000E+00 0. -1.
     999901    1    3    3    0    0  0.19037524349E-01 -0.13477732184E+00 -0.56819810978E-02  0.89048281215E+00  0.88000000000E+00 0. -1.
        -11    1    4    4    0    0  0.29711787405E-02  0.15718002188E-01  0.49604177223E-02  0.16755606849E-01  0.51100000000E-03 0. -1.
         11    1    4    4    0    0 -0.18672084157E-02  0.10859979806E+00 -0.14183763628E-01  0.10953922986E+00  0.51100000000E-03 0.  1.
</event>
<event>
 8    1  0.1129602E+005  0.1043930E+01  0.7957747E-01            NaN
         13   -1    0    0    0    0  0.00000000000E+00  0.00000000000E+00  0.74505805969E-08  0.10566000000E+00  0.10566000000E+00 0.  1.
     999900   -1    0    0    0    0 -0.00000000000E+00 -0.00000000000E+00 -0.74505805969E-08  0.93827000000E+00  0.93827000000E+00 0. -1.
     999902    2    1    2    0    0 -0.14203155502E-01  0.11620964175E-01  0.14621012401E-01  0.10204661888E+01  0.10201963987E+01 0.  0.
     999903    2    3    3    0    0 -0.11451149762E-01 -0.17271579151E-01  0.12943258560E+00  0.13253373077E+00  0.19569345932E-01 0.  0.
         14    1    1    2    0    0  0.14203155502E-01 -0.11620964175E-01 -0.14621012401E-01  0.23463811246E-01  0.00000000000E+00 0. -1.
     999901    1    3    3    0    0 -0.27520057394E-02  0.28892543325E-01 -0.11481157320E+00  0.88793245798E+00  0.88000000000E+00 0. -1.
        -11    1    4    4    0    0 -0.39628644634E-02 -0.19979523930E-01  0.86639328201E-01  0.89002921207E-01  0.51100000000E-03 0.  1.
         11    1    4    4    0    0 -0.74882852988E-02  0.27079447794E-02  0.42793257399E-01  0.43530809566E-01  0.51100000000E-03 0. -1.
</event>
<event>
 8    1  0.1129602E+005  0.1043930E+01  0.7957747E-01            NaN
         13   -1    0    0    0    0  0.00000000000E+00  0.00000000000E+00  0.74505805969E-08  0.10566000000E+00  0.10566000000E+00 0. -1.
     999900   -1    0    0    0    0 -0.00000000000E+00 -0.00000000000E+00 -0.74505805969E-08  0.93827000000E+00  0.93827000000E+00 0. -1.
     999902    2    1    2    0    0  0.15545759357E-01  0.14992583682E-01  0.85635888841E-02  0.10206967640E+01  0.10204323108E+01 0.  0.
     999903    2    3    3    0    0  0.46002618212E-01  0.12357717006E+00  0.68976452372E-02  0.13349836005E+00  0.19664098833E-01 0.  0.
         14    1    1    2    0    0 -0.15545759357E-01 -0.14992583682E-01 -0.85635888841E-02  0.23233235978E-01  0.00000000000E+00 0.  1.
     999901    1    3    3    0    0 -0.30456858855E-01 -0.10858458638E+00  0.16659436469E-02  0.88719840398E+00  0.88000000000E+00 0. -1.
        -11    1    4    4    0    0  0.43562506500E-01  0.96257659177E-01  0.22980443221E-02  0.10568240654E+00  0.51100000000E-03 0.  1.
         11    1    4    4    0    0  0.24401117118E-02  0.27319510882E-01  0.45996009152E-02  0.27815953508E-01  0.51100000000E-03 0. -1.
</event>
<event>
 8    1  0.1129602E+005  0.1043930E+01  0.7957747E-01            NaN
         13   -1    0    0    0    0  0.00000000000E+00  0.00000000000E+00  0.74505805969E-08  0.10566000000E+00  0.10566000000E+00 0.  1.
     999900   -1    0    0    0    0 -0.00000000000E+00 -0.00000000000E+00 -0.74505805969E-08  0.93827000000E+00  0.93827000000E+00 0.  1.
     999902    2    1    2    0    0  0.68385819154E-02  0.72293390580E-02  0.21379641035E-01  0.10203478331E+01  0.10200752825E+01 0.  0.
     999903    2    3    3    0    0 -0.66736216911E-01 -0.84902027866E-01 -0.65766817112E-01  0.12821782856E+00  0.21271115271E-01 0.  0.
         14    1    1    2    0    0 -0.68385819154E-02 -0.72293390580E-02 -0.21379641035E-01  0.23582166920E-01  0.00000000000E+00 0. -1.
     999901    1    3    3    0    0  0.73574798826E-01  0.92131366924E-01  0.87146458147E-01  0.89213000452E+00  0.88000000000E+00 0.  1.
        -11    1    4    4    0    0 -0.42323155684E-01 -0.38614116476E-01 -0.40070996127E-01  0.69915987799E-01  0.51100000000E-03 0.  1.
         11    1    4    4    0    0 -0.24413061226E-01 -0.46287911390E-01 -0.25695820985E-01  0.58301840763E-01  0.51100000000E-03 0. -1.
</event>
<event>
 8    1  0.1129602E+005  0.1043930E+01  0.7957747E-01            NaN
         13   -1    0    0    0    0  0.00000000000E+00  0.00000000000E+00  0.74505805969E-08  0.10566000000E+00  0.10566000000E+00 0.  1.
     999900   -1    0    0    0    0 -0.00000000000E+00 -0.00000000000E+00 -0.74505805969E-08  0.93827000000E+00  0.93827000000E+00 0. -1.
     999902    2    1    2    0    0 -0.11950746881E-01 -0.50955280288E-02  0.20682637244E-01  0.10195054992E+01  0.10192128858E+01 0.  0.
     999903    2    3    3    0    0 -0.27867779951E-01  0.35837036362E-01  0.12293636635E+00  0.13249667629E+00  0.19522108534E-01 0.  0.
         14    1    1    2    0    0  0.11950746881E-01  0.50955280288E-02 -0.20682637244E-01  0.24424500820E-01  0.00000000000E+00 0. -1.
     999901    1    3    3    0    0  0.15917033070E-01 -0.40932564391E-01 -0.10225372911E+00  0.88700882289E+00  0.88000000000E+00 0. -1.
        -11    1    4    4    0    0 -0.26174590291E-01  0.18771828797E-01  0.77457875215E-01  0.83889655424E-01  0.51100000000E-03 0. -1.
         11    1    4    4    0    0 -0.16931896601E-02  0.17065207564E-01  0.45478491136E-01  0.48607020866E-01  0.51100000000E-03 0.  1.
</event>
<event>
 8    1  0.1129602E+005  0.1043930E+01  0.7957747E-01            NaN
         13   -1    0    0    0    0  0.00000000000E+00  0.00000000000E+00  0.74505805969E-08  0.10566000000E+00  0.10566000000E+00 0.  1.
     999900   -1    0    0    0    0 -0.00000000000E+00 -0.00000000000E+00 -0.74505805969E-08  0.93827000000E+00  0.93827000000E+00 0.  1.
     999902    2    1    2    0    0 -0.15632467155E-01 -0.51269465338E-02  0.17344185868E-01  0.10200243439E+01  0.10197441747E+01 0.  0.
     999903    2    3    3    0    0  0.84401432286E-01  0.32778631753E-01  0.91588173869E-01  0.13044254122E+00  0.20708029753E-01 0.  0.
         14    1    1    2    0    0  0.15632467155E-01  0.51269465338E-02 -0.17344185868E-01  0.23905656099E-01  0.00000000000E+00 0. -1.
     999901    1    3    3    0    0 -0.10003389944E+00 -0.37905578287E-01 -0.74243988001E-01  0.88958180268E+00  0.88000000000E+00 0.  1.
        -11    1    4    4    0    0  0.32307589535E-01  0.21970848932E-01  0.31547183225E-01  0.50219363146E-01  0.51100000000E-03 0.  1.
         11    1    4    4    0    0  0.52093842751E-01  0.10807782820E-01  0.60040990644E-01  0.80223178076E-01  0.51100000000E-03 0. -1.
</event>
<event>
 8    1  0.1129602E+005  0.1043930E+01  0.7957747E-01            NaN
         13   -1    0    0    0    0  0.00000000000E+00  0.00000000000E+00  0.74505805969E-08  0.10566000000E+00  0.10566000000E+00 0.  1.
     999900   -1    0    0    0    0 -0.00000000000E+00 -0.00000000000E+00 -0.74505805969E-08  0.93827000000E+00  0.93827000000E+00 0.  1.
     999902    2    1    2    0    0  0.14659719962E-01 -0.18599155298E-01 -0.10535536004E-02  0.10202246010E+01  0.10199491608E+01 0.  0.
     999903    2    3    3    0    0  0.12087178293E+00  0.12723384452E-02  0.49482252996E-01  0.13217632171E+00  0.20260303638E-01 0.  0.
         14    1    1    2    0    0 -0.14659719962E-01  0.18599155298E-01  0.10535536004E-02  0.23705399013E-01  0.00000000000E+00 0. -1.
     999901    1    3    3    0    0 -0.10621206297E+00 -0.19871493744E-01 -0.50535806597E-01  0.88804827928E+00  0.88000000000E+00 0. -1.
        -11    1    4    4    0    0  0.29123448092E-01  0.79169921199E-02  0.77561832269E-02  0.31165260985E-01  0.51100000000E-03 0.  1.
         11    1    4    4    0    0  0.91748334842E-01 -0.66446536748E-02  0.41726069769E-01  0.10101106072E+00  0.51100000000E-03 0. -1.
</event>
<event>
 8    1  0.1129602E+005  0.1043930E+01  0.7957747E-01            NaN
         13   -1    0    0    0    0  0.00000000000E+00  0.00000000000E+00  0.74505805969E-08  0.10566000000E+00  0.10566000000E+00 0. -1.
     999900   -1    0    0    0    0 -0.00000000000E+00 -0.00000000000E+00 -0.74505805969E-08  0.93827000000E+00  0.93827000000E+00 0.  1.
     999902    2    1    2    0    0  0.22543935846E-01 -0.33449602996E-02 -0.12869609617E-02  0.10211029531E+01  0.10208477686E+01 0.  0.
     999903    2    3    3    0    0  0.18785769158E-01 -0.11227392774E+00 -0.64241497196E-01  0.13214687013E+00  0.19428982274E-01 0.  0.
         14    1    1    2    0    0 -0.22543935846E-01  0.33449602996E-02  0.12869609617E-02  0.22827046926E-01  0.00000000000E+00 0.  1.
     999901    1    3    3    0    0  0.37581666881E-02  0.10892896744E+00  0.62954536234E-01  0.88895608294E+00  0.88000000000E+00 0. -1.
        -11    1    4    4    0    0  0.19465667035E-01 -0.10013214197E+00 -0.63042222533E-01  0.11991639167E+00  0.51100000000E-03 0.  1.
         11    1    4    4    0    0 -0.67989787675E-03 -0.12141785767E-01 -0.11992746630E-02  0.12230478464E-01  0.51100000000E-03 0. -1.
</event>
<event>
 8    1  0.1129602E+005  0.1043930E+01  0.7957747E-01            NaN
         13   -1    0    0    0    0  0.00000000000E+00  0.00000000000E+00  0.74505805969E-08  0.10566000000E+00  0.10566000000E+00 0.  1.
     999900   -1    0    0    0    0 -0.00000000000E+00 -0.00000000000E+00 -0.74505805969E-08  0.93827000000E+00  0.93827000000E+00 0.  1.
     999902    2    1    2    0    0  0.21095102891E-02 -0.30017783655E-02  0.25842076739E-01  0.10178287809E+01  0.10174940558E+01 0.  0.
     999903    2    3    3    0    0  0.97704698071E-01 -0.64212912374E-01 -0.47065619371E-01  0.12754749110E+00  0.19587848770E-01 0.  0.
         14    1    1    2    0    0 -0.21095102891E-02  0.30017783655E-02 -0.25842076739E-01  0.26101219075E-01  0.00000000000E+00 0. -1.
     999901    1    3    3    0    0 -0.95595187782E-01  0.61211134009E-01  0.72907696109E-01  0.89028128982E+00  0.88000000000E+00 0. -1.
        -11    1    4    4    0    0  0.23853432276E-01 -0.25023632656E-01 -0.18379283143E-01  0.39156450203E-01  0.51100000000E-03 0.  1.
         11    1    4    4    0    0  0.73851265795E-01 -0.39189279718E-01 -0.28686336228E-01  0.88391040901E-01  0.51100000000E-03 0. -1.
</event>
<event>
 8    1  0.1129602E+005  0.1043930E+01  0.7957747E-01            NaN
         13   -1    0    0    0    0  0.00000000000E+00  0.00000000000E+00  0.74505805969E-08  0.10566000000E+00  0.10566000000E+00 0.  1.
     999900   -1    0    0    0    0 -0.00000000000E+00 -0.00000000000E+00 -0.74505805969E-08  0.93827000000E+00  0.93827000000E+00 0.  1.
     999902    2    1    2    0    0 -0.13193045708E-01 -0.10935646835E-01 -0.15601825315E-01  0.10207554066E+01  0.10204923019E+01 0.  0.
     999903    2    3    3    0    0 -0.15334997404E-02 -0.11286377831E+00 -0.67969263575E-01  0.13324899107E+00  0.19871808004E-01 0.  0.
         14    1    1    2    0    0  0.13193045708E-01  0.10935646835E-01  0.15601825315E-01  0.23174593414E-01  0.00000000000E+00 0.  1.
     999901    1    3    3    0    0 -0.11659545967E-01  0.10192813148E+00  0.52367438260E-01  0.88750641552E+00  0.88000000000E+00 0.  1.
        -11    1    4    4    0    0  0.11286618703E-02 -0.72548362389E-01 -0.32586923028E-01  0.79540602440E-01  0.51100000000E-03 0.  1.
         11    1    4    4    0    0 -0.26621616108E-02 -0.40315415921E-01 -0.35382340547E-01  0.53708388627E-01  0.51100000000E-03 0. -1.
</event>
<event>
 8    1  0.1129602E+005  0.1043930E+01  0.7957747E-01            NaN
         13   -1    0    0    0    0  0.00000000000E+00  0.00000000000E+00  0.74505805969E-08  0.10566000000E+00  0.10566000000E+00 0.  1.
     999900   -1    0    0    0    0 -0.00000000000E+00 -0.00000000000E+00 -0.74505805969E-08  0.93827000000E+00  0.93827000000E+00 0.  1.
     999902    2    1    2    0    0 -0.20562829649E-01  0.41726803840E-02 -0.10599491306E-01  0.10204227577E+01  0.10201519563E+01 0.  0.
     999903    2    3    3    0    0 -0.30067997950E-01  0.12679385944E+00  0.31324450056E-04  0.13180623972E+00  0.19801933124E-01 0.  0.
         14    1    1    2    0    0  0.20562829649E-01 -0.41726803840E-02  0.10599491306E-01  0.23507242304E-01  0.00000000000E+00 0. -1.
     999901    1    3    3    0    0  0.95051683007E-02 -0.12262117906E+00 -0.10630815756E-01  0.88861651798E+00  0.88000000000E+00 0.  1.
        -11    1    4    4    0    0 -0.25715102142E-01  0.73574921669E-01 -0.54223246489E-02  0.78129369013E-01  0.51100000000E-03 0. -1.
         11    1    4    4    0    0 -0.43528958083E-02  0.53218937771E-01  0.54536490990E-02  0.53676870706E-01  0.51100000000E-03 0.  1.
</event>
<event>
 8    1  0.1129602E+005  0.1043930E+01  0.7957747E-01            NaN
         13   -1    0    0    0    0  0.00000000000E+00  0.00000000000E+00  0.74505805969E-08  0.10566000000E+00  0.10566000000E+00 0.  1.
     999900   -1    0    0    0    0 -0.00000000000E+00 -0.00000000000E+00 -0.74505805969E-08  0.93827000000E+00  0.93827000000E+00 0.  1.
     999902    2    1    2    0    0  0.11266150994E-01  0.67895738124E-02 -0.19106808064E-01  0.10207331342E+01  0.10204695177E+01 0.  0.
     999903    2    3    3    0    0  0.24500167823E-01 -0.97717902315E-01 -0.83172833472E-01  0.13213794658E+00  0.19841119976E-01 0.  0.
         14    1    1    2    0    0 -0.11266150994E-01 -0.67895738124E-02  0.19106808064E-01  0.23196865848E-01  0.00000000000E+00 0.  1.
     999901    1    3    3    0    0 -0.13234016829E-01  0.10450747613E+00  0.64066025408E-01  0.88859518757E+00  0.88000000000E+00 0.  1.
        -11    1    4    4    0    0  0.25518072681E-02 -0.39960967613E-01 -0.41111085224E-01  0.57391402686E-01  0.51100000000E-03 0. -1.
         11    1    4    4    0    0  0.21948360555E-01 -0.57756934702E-01 -0.42061748248E-01  0.74746543892E-01  0.51100000000E-03 0.  1.
</event>
<event>
 8    1  0.1129602E+005  0.1043930E+01  0.7957747E-01            NaN
         13   -1    0    0    0    0  0.00000000000E+00  0.00000000000E+00  0.74505805969E-08  0.10566000000E+00  0.10566000000E+00 0. -1.
     999900   -1    0    0    0    0 -0.00000000000E+00 -0.00000000000E+00 -0.74505805969E-08  0.93827000000E+00  0.93827000000E+00 0.  1.
     999902    2    1    2    0    0 -0.19361153977E-01 -0.89052171674E-02  0.10057890090E-01  0.10203648068E+01  0.10200926530E+01 0.  0.
     999903    2    3    3    0    0 -0.43894041984E-01  0.11448319758E+00  0.41490065668E-01  0.13086239247E+00  0.19247097572E-01 0.  0.
         14    1    1    2    0    0  0.19361153977E-01  0.89052171674E-02 -0.10057890090E-01  0.23565193171E-01  0.00000000000E+00 0.  1.
     999901    1    3    3    0    0  0.24532888008E-01 -0.12338841474E+00 -0.31432175578E-01  0.88950241436E+00  0.88000000000E+00 0.  1.
        -11    1    4    4    0    0 -0.16027045424E-01  0.41083399572E-01  0.53319754287E-02  0.44423000669E-01  0.51100000000E-03 0.  1.
         11    1    4    4    0    0 -0.27866996560E-01  0.73399798005E-01  0.36158090239E-01  0.86439391803E-01  0.51100000000E-03 0. -1.
</event>
<event>
 8    1  0.1129602E+005  0.1043930E+01  0.7957747E-01            NaN
         13   -1    0    0    0    0  0.00000000000E+00  0.00000000000E+00  0.74505805969E-08  0.10566000000E+00  0.10566000000E+00 0. -1.
     999900   -1    0    0    0    0 -0.00000000000E+00 -0.00000000000E+00 -0.74505805969E-08  0.93827000000E+00  0.93827000000E+00 0. -1.
     999902    2    1    2    0    0 -0.23289296026E-01 -0.50141111834E-02  0.58246657085E-02  0.10194053318E+01  0.10191102841E+01 0.  0.
     999903    2    3    3    0    0 -0.12256777938E+00  0.40104809393E-01  0.22888319269E-01  0.13251012799E+00  0.20094839704E-01 0.  0.
         14    1    1    2    0    0  0.23289296026E-01  0.50141111834E-02 -0.58246657085E-02  0.24524668213E-01  0.00000000000E+00 0. -1.
     999901    1    3    3    0    0  0.99278483350E-01 -0.45118920576E-01 -0.17063653561E-01  0.88689520380E+00  0.88000000000E+00 0. -1.
        -11    1    4    4    0    0 -0.20389793832E-01 -0.28471313417E-03  0.64174852394E-03  0.20408275681E-01  0.51100000000E-03 0. -1.
         11    1    4    4    0    0 -0.10217798554E+00  0.40389522527E-01  0.22246570745E-01  0.11210185231E+00  0.51100000000E-03 0.  1.
</event>
<event>
 8    1  0.1129602E+005  0.1043930E+01  0.7957747E-01            NaN
         13   -1    0    0    0    0  0.00000000000E+00  0.00000000000E+00  0.74505805969E-08  0.10566000000E+00  0.10566000000E+00 0.  1.
     999900   -1    0    0    0    0 -0.00000000000E+00 -0.00000000000E+00 -0.74505805969E-08  0.93827000000E+00  0.93827000000E+00 0. -1.
     999902    2    1    2    0    0  0.18820964835E-02 -0.22999864454E-01  0.42568496915E-03  0.10208493315E+01  0.10205883795E+01 0.  0.
     999903    2    3    3    0    0 -0.86988549882E-01  0.76446265260E-01 -0.53447911888E-01  0.12917120068E+00  0.20432339954E-01 0.  0.
         14    1    1    2    0    0 -0.18820964835E-02  0.22999864454E-01 -0.42568496915E-03  0.23080668529E-01  0.00000000000E+00 0.  1.
     999901    1    3    3    0    0  0.88870646365E-01 -0.99446129714E-01  0.53873596857E-01  0.89167813080E+00  0.88000000000E+00 0. -1.
        -11    1    4    4    0    0 -0.86466864928E-01  0.70826512729E-01 -0.49376826213E-01  0.12219347660E+00  0.51100000000E-03 0. -1.
         11    1    4    4    0    0 -0.52168495441E-03  0.56197525303E-02 -0.40710856750E-02  0.69777240749E-02  0.51100000000E-03 0.  1.
</event>
<event>
 8    1  0.1129602E+005  0.1043930E+01  0.7957747E-01            NaN
         13   -1    0    0    0    0  0.00000000000E+00  0.00000000000E+00  0.74505805969E-08  0.10566000000E+00  0.10566000000E+00 0. -1.
     999900   -1    0    0    0    0 -0.00000000000E+00 -0.00000000000E+00 -0.74505805969E-08  0.93827000000E+00  0.93827000000E+00 0. -1.
     999902    2    1    2    0    0 -0.20406613772E-01 -0.96388237300E-04  0.12259221845E-01  0.10201239567E+01  0.10198461450E+01 0.  0.
     999903    2    3    3    0    0 -0.20053305178E-01  0.12714243414E+00  0.13707569084E-01  0.13097158482E+00  0.19958080406E-01 0.  0.
         14    1    1    2    0    0  0.20406613772E-01  0.96388237300E-04 -0.12259221845E-01  0.23806043278E-01  0.00000000000E+00 0. -1.
     999901    1    3    3    0    0 -0.35330859436E-03 -0.12723882237E+00 -0.14483472390E-02  0.88915237190E+00  0.88000000000E+00 0. -1.
        -11    1    4    4    0    0 -0.24048459896E-01  0.11383893767E+00  0.12240174685E-01  0.11699450906E+00  0.51100000000E-03 0. -1.
         11    1    4    4    0    0  0.39951547179E-02  0.13303496468E-01  0.14673943992E-02  0.13977075760E-01  0.51100000000E-03 0.  1.
</event>
<event>
 8    1  0.1129602E+005  0.1043930E+01  0.7957747E-01            NaN
         13   -1    0    0    0    0  0.00000000000E+00  0.00000000000E+00  0.74505805969E-08  0.10566000000E+00  0.10566000000E+00 0.  1.
     999900   -1    0    0    0    0 -0.00000000000E+00 -0.00000000000E+00 -0.74505805969E-08  0.93827000000E+00  0.93827000000E+00 0. -1.
     999902    2    1    2    0    0  0.54617574842E-02  0.95232308651E-02 -0.18427263972E-01  0.10224803665E+01  0.10222553561E+01 0.  0.
     999903    2    3    3    0    0 -0.12467552082E+00  0.15315941920E-01  0.33167604075E-01  0.13139602865E+00  0.19653570083E-01 0.  0.
         14    1    1    2    0    0 -0.54617574842E-02 -0.95232308651E-02  0.18427263972E-01  0.21449633527E-01  0.00000000000E+00 0.  1.
     999901    1    3    3    0    0  0.13013727830E+00 -0.57927110546E-02 -0.51594868047E-01  0.89108433782E+00  0.88000000000E+00 0. -1.
        -11    1    4    4    0    0 -0.19592665508E-01  0.68269216365E-02 -0.38915638735E-03  0.20757937384E-01  0.51100000000E-03 0.  1.
         11    1    4    4    0    0 -0.10508285531E+00  0.84890202832E-02  0.33556760462E-01  0.11063809127E+00  0.51100000000E-03 0. -1.
</event>
<event>
 8    1  0.1129602E+005  0.1043930E+01  0.7957747E-01            NaN
         13   -1    0    0    0    0  0.00000000000E+00  0.00000000000E+00  0.74505805969E-08  0.10566000000E+00  0.10566000000E+00 0. -1.
     999900   -1    0    0    0    0 -0.00000000000E+00 -0.00000000000E+00 -0.74505805969E-08  0.93827000000E+00  0.93827000000E+00 0.  1.
     999902    2    1    2    0    0  0.83210128097E-02 -0.78776244199E-02 -0.20544146024E-01  0.10204064340E+01  0.10201352520E+01 0.  0.
     999903    2    3    3    0    0  0.12724185723E+00  0.15133594363E-01  0.20581312704E-01  0.13115788227E+00  0.18954781413E-01 0.  0.
         14    1    1    2    0    0 -0.83210128097E-02  0.78776244199E-02  0.20544146024E-01  0.23523565983E-01  0.00000000000E+00 0. -1.
     999901    1    3    3    0    0 -0.11892084442E+00 -0.23011218783E-01 -0.41125458728E-01  0.88924855175E+00  0.88000000000E+00 0. -1.
        -11    1    4    4    0    0  0.11048641139E+00  0.13362480477E-01  0.11169484136E-01  0.11185178355E+00  0.51100000000E-03 0.  1.
         11    1    4    4    0    0  0.16755445842E-01  0.17711138862E-02  0.94118285681E-02  0.19306098719E-01  0.51100000000E-03 0. -1.
</event>
<event>
 8    1  0.1129602E+005  0.1043930E+01  0.7957747E-01            NaN
         13   -1    0    0    0    0  0.00000000000E+00  0.00000000000E+00  0.74505805969E-08  0.10566000000E+00  0.10566000000E+00 0. -1.
     999900   -1    0    0    0    0 -0.00000000000E+00 -0.00000000000E+00 -0.74505805969E-08  0.93827000000E+00  0.93827000000E+00 0. -1.
     999902    2    1    2    0    0  0.85719561741E-02 -0.62765308182E-02 -0.21085826278E-01  0.10203188725E+01  0.10200456442E+01 0.  0.
     999903    2    3    3    0    0 -0.36878049235E-02  0.28796268032E-03 -0.13165407228E+00  0.13329083950E+00  0.20493177345E-01 0.  0.
         14    1    1    2    0    0 -0.85719561741E-02  0.62765308182E-02  0.21085826278E-01  0.23611127495E-01  0.00000000000E+00 0. -1.
     999901    1    3    3    0    0  0.12259761098E-01 -0.65644934986E-02  0.11056824600E+00  0.88702803301E+00  0.88000000000E+00 0.  1.
        -11    1    4    4    0    0  0.64211511118E-02  0.52735244851E-02 -0.34805076738E-01  0.35786809440E-01  0.51100000000E-03 0.  1.
         11    1    4    4    0    0 -0.10108956035E-01 -0.49855618048E-02 -0.96848995544E-01  0.97504030057E-01  0.51100000000E-03 0. -1.
</event>
<event>
 7    1  0.1129602E+005  0.1043930E+01  0.7957747E-01            NaN
         13   -1    0    0    0    0  0.00000000000E+00  0.00000000000E+00  0.74505805969E-08  0.10566000000E+00  0.10566000000E+00 0.  1.
     999900   -1    0    0    0    0 -0.00000000000E+00 -0.00000000000E+00 -0.74505805969E-08  0.93827000000E+00  0.93827000000E+00 0.  1.
     999903    2    1    2    0    0  0.73651960244E-01 -0.35827372936E-01  0.16278964178E-01  0.85946188342E-01  0.20335454668E-01 0.  0.
         14    1    1    2    0    0  0.24030603889E-01  0.58503779367E-01  0.32182170913E-01  0.70963753059E-01  0.00000000000E+00 0.  1.
     999901    1    1    2    0    0 -0.97682564132E-01 -0.22676406432E-01 -0.48461135091E-01  0.88702005860E+00  0.88000000000E+00 0.  1.
        -11    1    3    3    0    0  0.61625575423E-01 -0.36121596270E-01  0.93196566065E-02  0.72038867173E-01  0.51100000000E-03 0.  1.
         11    1    3    3    0    0  0.12026384821E-01  0.29422333398E-03  0.69593075711E-02  0.13907321169E-01  0.51100000000E-03 0. -1.
</event>
<event>
 8    1  0.1129602E+005  0.1043930E+01  0.7957747E-01            NaN
         13   -1    0    0    0    0  0.00000000000E+00  0.00000000000E+00  0.74505805969E-08  0.10566000000E+00  0.10566000000E+00 0.  1.
     999900   -1    0    0    0    0 -0.00000000000E+00 -0.00000000000E+00 -0.74505805969E-08  0.93827000000E+00  0.93827000000E+00 0.  1.
     999902    2    1    2    0    0 -0.13337359197E-01  0.82685196031E-03 -0.19867911491E-01  0.10199862588E+01  0.10197051856E+01 0.  0.
     999903    2    3    3    0    0 -0.38280643213E-02  0.67631047651E-01 -0.11214941124E+00  0.13259170033E+00  0.20358189299E-01 0.  0.
         14    1    1    2    0    0  0.13337359197E-01 -0.82685196031E-03  0.19867911491E-01  0.23943741177E-01  0.00000000000E+00 0.  1.
     999901    1    3    3    0    0 -0.95092948759E-02 -0.66804195691E-01  0.92281499748E-01  0.88739455850E+00  0.88000000000E+00 0. -1.
        -11    1    4    4    0    0 -0.67827403139E-03  0.42739785788E-01 -0.51337331455E-01  0.66805179939E-01  0.51100000000E-03 0. -1.
         11    1    4    4    0    0 -0.31497902899E-02  0.24891261864E-01 -0.60812079785E-01  0.65786520388E-01  0.51100000000E-03 0.  1.
</event>
<event>
 8    1  0.1129602E+005  0.1043930E+01  0.7957747E-01            NaN
         13   -1    0    0    0    0  0.00000000000E+00  0.00000000000E+00  0.74505805969E-08  0.10566000000E+00  0.10566000000E+00 0. -1.
     999900   -1    0    0    0    0 -0.00000000000E+00 -0.00000000000E+00 -0.74505805969E-08  0.93827000000E+00  0.93827000000E+00 0.  1.
     999902    2    1    2    0    0  0.10898123967E-01 -0.20610119192E-01 -0.85902304318E-02  0.10190837090E+01  0.10187807751E+01 0.  0.
     999903    2    3    3    0    0  0.36199420689E-01  0.11349246701E+00  0.39656830405E-01  0.12725892902E+00  0.20766142914E-01 0.  0.
         14    1    1    2    0    0 -0.10898123967E-01  0.20610119192E-01  0.85902304318E-02  0.24846291031E-01  0.00000000000E+00 0. -1.
     999901    1    3    3    0    0 -0.25301296722E-01 -0.13410258621E+00 -0.48247060837E-01  0.89182477994E+00  0.88000000000E+00 0. -1.
        -11    1    4    4    0    0  0.17738692683E-01  0.35316817478E-01  0.21147876338E-01  0.44826695277E-01  0.51100000000E-03 0. -1.
         11    1    4    4    0    0  0.18460728006E-01  0.78175649537E-01  0.18508954068E-01  0.82432233748E-01  0.51100000000E-03 0.  1.
</event>
<event>
 8    1  0.1129602E+005  0.1043930E+01  0.7957747E-01            NaN
         13   -1    0    0    0    0  0.00000000000E+00  0.00000000000E+00  0.74505805969E-08  0.10566000000E+00  0.10566000000E+00 0.  1.
     999900   -1    0    0    0    0 -0.00000000000E+00 -0.00000000000E+00 -0.74505805969E-08  0.93827000000E+00  0.93827000000E+00 0. -1.
     999902    2    1    2    0    0 -0.55804407034E-02  0.21840768373E-01  0.10140953918E-01  0.10192115974E+01  0.10189118121E+01 0.  0.
     999903    2    3    3    0    0 -0.72926815190E-01  0.58558387933E-01 -0.88656101114E-01  0.13036708014E+00  0.19704470295E-01 0.  0.
         14    1    1    2    0    0  0.55804407034E-02 -0.21840768373E-01 -0.10140953918E-01  0.24718402617E-01  0.00000000000E+00 0. -1.
     999901    1    3    3    0    0  0.67346374486E-01 -0.36717619560E-01  0.98797055032E-01  0.88884451724E+00  0.88000000000E+00 0.  1.
        -11    1    4    4    0    0 -0.16921229977E-01  0.25284787008E-01 -0.28897308827E-01  0.41963842250E-01  0.51100000000E-03 0. -1.
         11    1    4    4    0    0 -0.56005585212E-01  0.33273600925E-01 -0.59758792288E-01  0.88403237894E-01  0.51100000000E-03 0.  1.
</event>
<event>
 8    1  0.1129602E+005  0.1043930E+01  0.7957747E-01            NaN
         13   -1    0    0    0    0  0.00000000000E+00  0.00000000000E+00  0.74505805969E-08  0.10566000000E+00  0.10566000000E+00 0.  1.
     999900   -1    0    0    0    0 -0.00000000000E+00 -0.00000000000E+00 -0.74505805969E-08  0.93827000000E+00  0.93827000000E+00 0. -1.
     999902    2    1    2    0    0 -0.51477289526E-02  0.26627793333E-02 -0.22322660721E-01  0.10208672446E+01  0.10206067021E+01 0.  0.
     999903    2    3    3    0    0  0.62338843616E-01 -0.11133525871E+00 -0.24526338647E-01  0.13094879528E+00  0.16259595413E-01 0.  0.
         14    1    1    2    0    0  0.51477289526E-02 -0.26627793333E-02  0.22322660721E-01  0.23062755447E-01  0.00000000000E+00 0.  1.
     999901    1    3    3    0    0 -0.67486572568E-01  0.11399803804E+00  0.22036779262E-02  0.88991844927E+00  0.88000000000E+00 0. -1.
        -11    1    4    4    0    0  0.80290080241E-02 -0.20532011537E-01  0.11126817390E-02  0.22080028289E-01  0.51100000000E-03 0.  1.
         11    1    4    4    0    0  0.54309835592E-01 -0.90803247174E-01 -0.25639020386E-01  0.10886876699E+00  0.51100000000E-03 0. -1.
</event>
<event>
 8    1  0.1129602E+005  0.1043930E+01  0.7957747E-01            NaN
         13   -1    0    0    0    0  0.00000000000E+00  0.00000000000E+00  0.74505805969E-08  0.10566000000E+00  0.10566000000E+00 0. -1.
     999900   -1    0    0    0    0 -0.00000000000E+00 -0.00000000000E+00 -0.74505805969E-08  0.93827000000E+00  0.93827000000E+00 0. -1.
     999902    2    1    2    0    0  0.19864031788E-01 -0.12948319269E-01 -0.19497973413E-02  0.10201383956E+01  0.10198609247E+01 0.  0.
     999903    2    3    3    0    0  0.10139791170E+00  0.76293187728E-01  0.30631650134E-01  0.13127768048E+00  0.13904834132E-01 0.  0.
         14    1    1    2    0    0 -0.19864031788E-01  0.12948319269E-01  0.19497973413E-02  0.23791604411E-01  0.00000000000E+00 0. -1.
     999901    1    3    3    0    0 -0.81533879909E-01 -0.89241506997E-01 -0.32581447475E-01  0.88886071511E+00  0.88000000000E+00 0. -1.
        -11    1    4    4    0    0  0.10230676652E-01  0.13209437212E-01  0.25364684204E-02  0.16907121850E-01  0.51100000000E-03 0.  1.
         11    1    4    4    0    0  0.91167235045E-01  0.63083750517E-01  0.28095181713E-01  0.11437055863E+00  0.51100000000E-03 0. -1.
</event>
<event>
 8    1  0.1129602E+005  0.1043930E+01  0.7957747E-01            NaN
         13   -1    0    0    0    0  0.00000000000E+00  0.00000000000E+00  0.74505805969E-08  0.10566000000E+00  0.10566000000E+00 0.  1.
     999900   -1    0    0    0    0 -0.00000000000E+00 -0.00000000000E+00 -0.74505805969E-08  0.93827000000E+00  0.93827000000E+00 0.  1.
     999902    2    1    2    0    0  0.10589561632E-01 -0.17157411089E-01 -0.12156920063E-01  0.10203862901E+01  0.10201146380E+01 0.  0.
     999903    2    3    3    0    0  0.12235567626E+00  0.87980396057E-02 -0.43741890316E-01  0.13237561440E+00  0.23698803851E-01 0.  0.
         14    1    1    2    0    0 -0.10589561632E-01  0.17157411089E-01  0.12156920063E-01  0.23543709908E-01  0.00000000000E+00 0. -1.
     999901    1    3    3    0    0 -0.11176611463E+00 -0.25955450694E-01  0.31584970253E-01  0.88801067569E+00  0.88000000000E+00 0. -1.
        -11    1    4    4    0    0  0.65492296974E-01  0.11142145436E-01 -0.34013331874E-01  0.74636159026E-01  0.51100000000E-03 0. -1.
         11    1    4    4    0    0  0.56863379289E-01 -0.23441058304E-02 -0.97285584418E-02  0.57739455372E-01  0.51100000000E-03 0.  1.
</event>
<event>
 8    1  0.1129602E+005  0.1043930E+01  0.7957747E-01            NaN
         13   -1    0    0    0    0  0.00000000000E+00  0.00000000000E+00  0.74505805969E-08  0.10566000000E+00  0.10566000000E+00 0. -1.
     999900   -1    0    0    0    0 -0.00000000000E+00 -0.00000000000E+00 -0.74505805969E-08  0.93827000000E+00  0.93827000000E+00 0.  1.
     999902    2    1    2    0    0 -0.21524899934E-04 -0.22164668999E-01  0.71506763093E-02  0.10206404060E+01  0.10203746534E+01 0.  0.
     999903    2    3    3    0    0  0.11960430249E+00 -0.50955714656E-01 -0.12103811627E-01  0.13187159572E+00  0.18491659511E-01 0.  0.
         14    1    1    2    0    0  0.21524899934E-04  0.22164668999E-01 -0.71506763093E-02  0.23289593960E-01  0.00000000000E+00 0.  1.
     999901    1    3    3    0    0 -0.11962582739E+00  0.28791045658E-01  0.19254487936E-01  0.88876881032E+00  0.88000000000E+00 0.  1.
        -11    1    4    4    0    0  0.80665453731E-01 -0.36460956973E-01  0.23936777034E-03  0.88524771827E-01  0.51100000000E-03 0.  1.
         11    1    4    4    0    0  0.38938848761E-01 -0.14494757683E-01 -0.12343179397E-01  0.43346823895E-01  0.51100000000E-03 0. -1.
</event>
<event>
 8    1  0.1129602E+005  0.1043930E+01  0.7957747E-01            NaN
         13   -1    0    0    0    0  0.00000000000E+00  0.00000000000E+00  0.74505805969E-08  0.10566000000E+00  0.10566000000E+00 0.  1.
     999900   -1    0    0    0    0 -0.00000000000E+00 -0.00000000000E+00 -0.74505805969E-08  0.93827000000E+00  0.93827000000E+00 0.  1.
     999902    2    1    2    0    0  0.14177542654E-01 -0.54548639928E-02 -0.18061698188E-01  0.10203295085E+01  0.10200565292E+01 0.  0.
     999903    2    3    3    0    0  0.21617437203E-01 -0.71153580636E-01  0.10397563757E+00  0.12945084971E+00  0.20406951112E-01 0.  0.
         14    1    1    2    0    0 -0.14177542654E-01  0.54548639928E-02  0.18061698188E-01  0.23600491484E-01  0.00000000000E+00 0.  1.
     999901    1    3    3    0    0 -0.74398945492E-02  0.65698716644E-01 -0.12203733576E+00  0.89087865881E+00  0.88000000000E+00 0.  1.
        -11    1    4    4    0    0  0.61895877581E-02 -0.24985316861E-01  0.53238597479E-01  0.59137014110E-01  0.51100000000E-03 0.  1.
         11    1    4    4    0    0  0.15427849445E-01 -0.46168263775E-01  0.50737040090E-01  0.70313835599E-01  0.51100000000E-03 0. -1.
</event>
<event>
 8    1  0.1129602E+005  0.1043930E+01  0.7957747E-01            NaN
         13   -1    0    0    0    0  0.00000000000E+00  0.00000000000E+00  0.74505805969E-08  0.10566000000E+00  0.10566000000E+00 0.  1.
     999900   -1    0    0    0    0 -0.00000000000E+00 -0.00000000000E+00 -0.74505805969E-08  0.93827000000E+00  0.93827000000E+00 0.  1.
     999902    2    1    2    0    0  0.17428956603E-01  0.13915505284E-01  0.60707835954E-02  0.10208158435E+01  0.10205541251E+01 0.  0.
     999903    2    3    3    0    0  0.80070217079E-01 -0.10151618379E+00 -0.43233332222E-02  0.13100887569E+00  0.20684754411E-01 0.  0.
         14    1    1    2    0    0 -0.17428956603E-01 -0.13915505284E-01 -0.60707835954E-02  0.23114156464E-01  0.00000000000E+00 0. -1.
     999901    1    3    3    0    0 -0.62641260475E-01  0.11543168908E+00  0.10394116818E-01  0.88980696784E+00  0.88000000000E+00 0. -1.
        -11    1    4    4    0    0  0.22559278332E-02 -0.57392039927E-02 -0.44208935031E-02  0.76048072443E-02  0.51100000000E-03 0. -1.
         11    1    4    4    0    0  0.77814289246E-01 -0.95776979802E-01  0.97560280814E-04  0.12340406845E+00  0.51100000000E-03 0.  1.
</event>
<event>
 8    1  0.1129602E+005  0.1043930E+01  0.7957747E-01            NaN
         13   -1    0    0    0    0  0.00000000000E+00  0.00000000000E+00  0.74505805969E-08  0.10566000000E+00  0.10566000000E+00 0.  1.
     999900   -1    0    0    0    0 -0.00000000000E+00 -0.00000000000E+00 -0.74505805969E-08  0.93827000000E+00  0.93827000000E+00 0. -1.
     999902    2    1    2    0    0  0.11272765910E-01 -0.18511451282E-01  0.17750893982E-01  0.10159149448E+01  0.10155285972E+01 0.  0.
     999903    2    3    3    0    0 -0.61025231076E-01  0.28390074177E-01  0.10643282503E+00  0.12726921206E+00  0.18423652008E-01 0.  0.
         14    1    1    2    0    0 -0.11272765910E-01  0.18511451282E-01 -0.17750893982E-01  0.28015055184E-01  0.00000000000E+00 0. -1.
     999901    1    3    3    0    0  0.72297996987E-01 -0.46901525459E-01 -0.88681931050E-01  0.88864573276E+00  0.88000000000E+00 0. -1.
        -11    1    4    4    0    0 -0.32298964955E-01  0.89859868494E-02  0.65841009723E-01  0.73886878261E-01  0.51100000000E-03 0.  1.
         11    1    4    4    0    0 -0.28726266121E-01  0.19404087327E-01  0.40591815308E-01  0.53382333794E-01  0.51100000000E-03 0. -1.
</event>
<event>
 8    1  0.1129602E+005  0.1043930E+01  0.7957747E-01            NaN
         13   -1    0    0    0    0  0.00000000000E+00  0.00000000000E+00  0.74505805969E-08  0.10566000000E+00  0.10566000000E+00 0.  1.
     999900   -1    0    0    0    0 -0.00000000000E+00 -0.00000000000E+00 -0.74505805969E-08  0.93827000000E+00  0.93827000000E+00 0. -1.
     999902    2    1    2    0    0  0.26011307709E-01  0.20773186824E-01  0.15954414468E-02  0.10106034512E+01  0.10100537990E+01 0.  0.
     999903    2    3    3    0    0  0.38148981065E-01  0.69986134365E-01 -0.92965327271E-01  0.12408724929E+00  0.20042195542E-01 0.  0.
         14    1    1    2    0    0 -0.26011307709E-01 -0.20773186824E-01 -0.15954414468E-02  0.33326548771E-01  0.00000000000E+00 0.  1.
     999901    1    3    3    0    0 -0.12137673356E-01 -0.49212947542E-01  0.94560768717E-01  0.88651620194E+00  0.88000000000E+00 0.  1.
        -11    1    4    4    0    0  0.76448787940E-02  0.28946964612E-01 -0.44471672190E-01  0.53613073782E-01  0.51100000000E-03 0. -1.
         11    1    4    4    0    0  0.30504102271E-01  0.41039169754E-01 -0.48493655081E-01  0.70474175508E-01  0.51100000000E-03 0.  1.
</event>
<event>
 8    1  0.1129602E+005  0.1043930E+01  0.7957747E-01            NaN
         13   -1    0    0    0    0  0.00000000000E+00  0.00000000000E+00  0.74505805969E-08  0.10566000000E+00  0.10566000000E+00 0.  1.
     999900   -1    0    0    0    0 -0.00000000000E+00 -0.00000000000E+00 -0.74505805969E-08  0.93827000000E+00  0.93827000000E+00 0.  1.
     999902    2    1    2    0    0  0.18780404041E-01  0.42946952463E-02 -0.14717545820E-01  0.10196863588E+01  0.10193981147E+01 0.  0.
     999903    2    3    3    0    0  0.23198553980E-01  0.84021692973E-01  0.93636444889E-01  0.12945239994E+00  0.19807126064E-01 0.  0.
         14    1    1    2    0    0 -0.18780404041E-01 -0.42946952463E-02  0.14717545820E-01  0.24243641190E-01  0.00000000000E+00 0.  1.
     999901    1    3    3    0    0 -0.44181499394E-02 -0.79726997727E-01 -0.10835399071E+00  0.89023395887E+00  0.88000000000E+00 0.  1.
        -11    1    4    4    0    0  0.26804072280E-01  0.72868584632E-01  0.80640857948E-01  0.11194417363E+00  0.51100000000E-03 0. -1.
         11    1    4    4    0    0 -0.36055182998E-02  0.11153108341E-01  0.12995586941E-01  0.17508226319E-01  0.51100000000E-03 0.  1.
</event>
<event>
 8    1  0.1129602E+005  0.1043930E+01  0.7957747E-01            NaN
         13   -1    0    0    0    0  0.00000000000E+00  0.00000000000E+00  0.74505805969E-08  0.10566000000E+00  0.10566000000E+00 0. -1.
     999900   -1    0    0    0    0 -0.00000000000E+00 -0.00000000000E+00 -0.74505805969E-08  0.93827000000E+00  0.93827000000E+00 0.  1.
     999902    2    1    2    0    0 -0.21962261118E-01 -0.59454302929E-02  0.62953610382E-02  0.10203223609E+01  0.10200492142E+01 0.  0.
     999903    2    3    3    0    0 -0.73262318572E-01  0.61128667091E-01  0.89615450565E-01  0.13236241371E+00  0.19616276936E-01 0.  0.
         14    1    1    2    0    0  0.21962261118E-01  0.59454302929E-02 -0.62953610382E-02  0.23607639132E-01  0.00000000000E+00 0.  1.
     999901    1    3    3    0    0  0.51300057454E-01 -0.67074097384E-01 -0.83320089527E-01  0.88795994716E+00  0.88000000000E+00 0.  1.
        -11    1    4    4    0    0 -0.35333953078E-01  0.38093063723E-01  0.58020026173E-01  0.77885520490E-01  0.51100000000E-03 0. -1.
         11    1    4    4    0    0 -0.37928365494E-01  0.23035603368E-01  0.31595424392E-01  0.54476893222E-01  0.51100000000E-03 0.  1.
</event>
<event>
 8    1  0.1129602E+005  0.1043930E+01  0.7957747E-01            NaN
         13   -1    0    0    0    0  0.00000000000E+00  0.00000000000E+00  0.74505805969E-08  0.10566000000E+00  0.10566000000E+00 0.  1.
     999900   -1    0    0    0    0 -0.00000000000E+00 -0.00000000000E+00 -0.74505805969E-08  0.93827000000E+00  0.93827000000E+00 0. -1.
     999902    2    1    2    0    0 -0.22557398529E-01  0.54012532197E-02  0.51676202573E-02  0.10201662868E+01  0.10198894738E+01 0.  0.
     999903    2    3    3    0    0 -0.87374430444E-01  0.67023109000E-01 -0.70608115308E-01  0.13239353277E+00  0.20399836701E-01 0.  0.
         14    1    1    2    0    0  0.22557398529E-01 -0.54012532197E-02 -0.51676202573E-02  0.23763713175E-01  0.00000000000E+00 0. -1.
     999901    1    3    3    0    0  0.64817031915E-01 -0.61621855780E-01  0.75775735565E-01  0.88777275405E+00  0.88000000000E+00 0.  1.
        -11    1    4    4    0    0 -0.38431749474E-01  0.36341587978E-01 -0.23621701613E-01  0.57930616193E-01  0.51100000000E-03 0.  1.
         11    1    4    4    0    0 -0.48942680970E-01  0.30681521022E-01 -0.46986413695E-01  0.74462916581E-01  0.51100000000E-03 0. -1.
</event>
<event>
 8    1  0.1129602E+005  0.1043930E+01  0.7957747E-01            NaN
         13   -1    0    0    0    0  0.00000000000E+00  0.00000000000E+00  0.74505805969E-08  0.10566000000E+00  0.10566000000E+00 0. -1.
     999900   -1    0    0    0    0 -0.00000000000E+00 -0.00000000000E+00 -0.74505805969E-08  0.93827000000E+00  0.93827000000E+00 0. -1.
     999902    2    1    2    0    0 -0.12818660759E-01  0.11559098934E-01 -0.16420002192E-01  0.10201067487E+01  0.10198285304E+01 0.  0.
     999903    2    3    3    0    0  0.95971854354E-01 -0.76651718059E-01  0.29324019201E-01  0.12785732171E+00  0.20037811864E-01 0.  0.
         14    1    1    2    0    0  0.12818660759E-01 -0.11559098934E-01  0.16420002192E-01  0.23823251328E-01  0.00000000000E+00 0. -1.
     999901    1    3    3    0    0 -0.10879051511E+00  0.88210816994E-01 -0.45744021393E-01  0.89224942696E+00  0.88000000000E+00 0. -1.
        -11    1    4    4    0    0  0.33652586111E-01 -0.22177012591E-01  0.82299217183E-03  0.40314449972E-01  0.51100000000E-03 0.  1.
         11    1    4    4    0    0  0.62319268242E-01 -0.54474705468E-01  0.28501027029E-01  0.87542871742E-01  0.51100000000E-03 0. -1.
</event>
<event>
 8    1  0.1129602E+005  0.1043930E+01  0.7957747E-01            NaN
         13   -1    0    0    0    0  0.00000000000E+00  0.00000000000E+00  0.74505805969E-08  0.10566000000E+00  0.10566000000E+00 0.  1.
     999900   -1    0    0    0    0 -0.00000000000E+00 -0.00000000000E+00 -0.74505805969E-08  0.93827000000E+00  0.93827000000E+00 0. -1.
     999902    2    1    2    0    0  0.18852528147E-01  0.11893697195E-01  0.71170982083E-02  0.10205306210E+01  0.10202623278E+01 0.  0.
     999903    2    3    3    0    0  0.12557344430E+00  0.13299079314E-01  0.38928620837E-01  0.13351128524E+00  0.19085867644E-01 0.  0.
         14    1    1    2    0    0 -0.18852528147E-01 -0.11893697195E-01 -0.71170982083E-02  0.23399378996E-01  0.00000000000E+00 0. -1.
     999901    1    3    3    0    0 -0.10672091615E+00 -0.14053821185E-02 -0.31811522629E-01  0.88701933576E+00  0.88000000000E+00 0. -1.
        -11    1    4    4    0    0  0.82820203353E-01  0.69866804723E-02  0.16201570268E-01  0.84680291612E-01  0.51100000000E-03 0.  1.
         11    1    4    4    0    0  0.42753240944E-01  0.63123988416E-02  0.22727050569E-01  0.48830993630E-01  0.51100000000E-03 0. -1.
</event>
<event>
 8    1  0.1129602E+005  0.1043930E+01  0.7957747E-01            NaN
         13   -1    0    0    0    0  0.00000000000E+00  0.00000000000E+00  0.74505805969E-08  0.10566000000E+00  0.10566000000E+00 0. -1.
     999900   -1    0    0    0    0 -0.00000000000E+00 -0.00000000000E+00 -0.74505805969E-08  0.93827000000E+00  0.93827000000E+00 0.  1.
     999902    2    1    2    0    0 -0.25830437128E-02  0.12768436563E-01 -0.20198347057E-01  0.10198950606E+01  0.10196118165E+01 0.  0.
     999903    2    3    3    0    0  0.82310232434E-01 -0.57994913937E-01 -0.81194898540E-01  0.13088724322E+00  0.20011858550E-01 0.  0.
         14    1    1    2    0    0  0.25830437128E-02 -0.12768436563E-01  0.20198347057E-01  0.24034939379E-01  0.00000000000E+00 0. -1.
     999901    1    3    3    0    0 -0.84893276147E-01  0.70763350501E-01  0.60996551483E-01  0.88900781740E+00  0.88000000000E+00 0. -1.
        -11    1    4    4    0    0  0.28694496359E-01 -0.30845347112E-01 -0.27647965283E-01  0.50393260116E-01  0.51100000000E-03 0. -1.
         11    1    4    4    0    0  0.53615736075E-01 -0.27149566825E-01 -0.53546933257E-01  0.80493983104E-01  0.51100000000E-03 0.  1.
</event>
<event>
 8    1  0.1129602E+005  0.1043930E+01  0.7957747E-01            NaN
         13   -1    0    0    0    0  0.00000000000E+00  0.00000000000E+00  0.74505805969E-08  0.10566000000E+00  0.10566000000E+00 0. -1.
     999900   -1    0    0    0    0 -0.00000000000E+00 -0.00000000000E+00 -0.74505805969E-08  0.93827000000E+00  0.93827000000E+00 0.  1.
     999902    2    1    2    0    0  0.10861097892E-01 -0.21321992839E-01  0.14356286760E-01  0.10160249145E+01  0.10156416362E+01 0.  0.
     999903    2    3    3    0    0 -0.22898726093E-01  0.95092442274E-01  0.75982647612E-01  0.12558128645E+00  0.20745422010E-01 0.  0.
         14    1    1    2    0    0 -0.10861097892E-01  0.21321992839E-01 -0.14356286760E-01  0.27905085479E-01  0.00000000000E+00 0.  1.
     999901    1    3    3    0    0  0.33759823985E-01 -0.11641443511E+00 -0.61626360852E-01  0.89044362807E+00  0.88000000000E+00 0.  1.
        -11    1    4    4    0    0  0.26515081114E-02  0.95089450199E-02  0.12813064365E-01  0.16182900546E-01  0.51100000000E-03 0. -1.
         11    1    4    4    0    0 -0.25550234204E-01  0.85583497254E-01  0.63169583247E-01  0.10939838590E+00  0.51100000000E-03 0.  1.
</event>
<event>
 8    1  0.1129602E+005  0.1043930E+01  0.7957747E-01            NaN
         13   -1    0    0    0    0  0.00000000000E+00  0.00000000000E+00  0.74505805969E-08  0.10566000000E+00  0.10566000000E+00 0.  1.
     999900   -1    0    0    0    0 -0.00000000000E+00 -0.00000000000E+00 -0.74505805969E-08  0.93827000000E+00  0.93827000000E+00 0. -1.
     999902    2    1    2    0    0  0.15902222582E-01 -0.43918008054E-02  0.16801483073E-01  0.10203830590E+01  0.10201113315E+01 0.  0.
     999903    2    3    3    0    0  0.78160038910E-01  0.57671943566E-01 -0.84389471259E-01  0.13023276084E+00  0.20098367594E-01 0.  0.
         14    1    1    2    0    0 -0.15902222582E-01  0.43918008054E-02 -0.16801483073E-01  0.23546941007E-01  0.00000000000E+00 0. -1.
     999901    1    3    3    0    0 -0.62257816329E-01 -0.62063744371E-01  0.10119095433E+00  0.89015029815E+00  0.88000000000E+00 0.  1.
        -11    1    4    4    0    0  0.68947375016E-01  0.50760210355E-01 -0.64317720186E-01  0.10708580544E+00  0.51100000000E-03 0. -1.
         11    1    4    4    0    0  0.92126638947E-02  0.69117332112E-02 -0.20071751073E-01  0.23146955397E-01  0.51100000000E-03 0.  1.
</event>
<event>
 8    1  0.1129602E+005  0.1043930E+01  0.7957747E-01            NaN
         13   -1    0    0    0    0  0.00000000000E+00  0.00000000000E+00  0.74505805969E-08  0.10566000000E+00  0.10566000000E+00 0.  1.
     999900   -1    0    0    0    0 -0.00000000000E+00 -0.00000000000E+00 -0.74505805969E-08  0.93827000000E+00  0.93827000000E+00 0.  1.
     999902    2    1    2    0    0  0.78814009038E-02  0.18985830810E-01 -0.11616139414E-01  0.10203182879E+01  0.10200450459E+01 0.  0.
     999903    2    3    3    0    0  0.69791895945E-02  0.10324941698E+00 -0.82001188187E-01  0.13349518211E+00  0.19688006214E-01 0.  0.
         14    1    1    2    0    0 -0.78814009038E-02 -0.18985830810E-01  0.11616139414E-01  0.23611712065E-01  0.00000000000E+00 0.  1.
     999901    1    3    3    0    0  0.90221130922E-03 -0.84263586166E-01  0.70385048772E-01  0.88682310583E+00  0.88000000000E+00 0. -1.
        -11    1    4    4    0    0  0.12349981694E-01  0.43093850023E-01 -0.38001489798E-01  0.58770539435E-01  0.51100000000E-03 0.  1.
         11    1    4    4    0    0 -0.53707920998E-02  0.60155566953E-01 -0.43999698388E-01  0.74724642672E-01  0.51100000000E-03 0. -1.
</event>
<event>
 8    1  0.1129602E+005  0.1043930E+01  0.7957747E-01            NaN
         13   -1    0    0    0    0  0.00000000000E+00  0.00000000000E+00  0.74505805969E-08  0.10566000000E+00  0.10566000000E+00 0. -1.
     999900   -1    0    0    0    0 -0.00000000000E+00 -0.00000000000E+00 -0.74505805969E-08  0.93827000000E+00  0.93827000000E+00 0. -1.
     999902    2    1    2    0    0  0.14209806429E-01 -0.15632596346E-01  0.11084175498E-01  0.10200730175E+01  0.10197940015E+01 0.  0.
     999903    2    3    3    0    0 -0.12351761913E+00 -0.25350521241E-01 -0.15303246955E-01  0.12891670244E+00  0.22047123141E-01 0.  0.
         14    1    1    2    0    0 -0.14209806429E-01  0.15632596346E-01 -0.11084175498E-01  0.23856982494E-01  0.00000000000E+00 0. -1.
     999901    1    3    3    0    0  0.13772742556E+00  0.97179248953E-02  0.26387422453E-01  0.89115631506E+00  0.88000000000E+00 0. -1.
        -11    1    4    4    0    0 -0.87515070738E-01 -0.78289405148E-02 -0.81924982860E-02  0.88247141965E-01  0.51100000000E-03 0. -1.
         11    1    4    4    0    0 -0.36002548391E-01 -0.17521580726E-01 -0.71107486688E-02  0.40669560477E-01  0.51100000000E-03 0.  1.
</event>
<event>
 8    1  0.1129602E+005  0.1043930E+01  0.7957747E-01            NaN
         13   -1    0    0    0    0  0.00000000000E+00  0.00000000000E+00  0.74505805969E-08  0.10566000000E+00  0.10566000000E+00 0.  1.
     999900   -1    0    0    0    0 -0.00000000000E+00 -0.00000000000E+00 -0.74505805969E-08  0.93827000000E+00  0.93827000000E+00 0.  1.
     999902    2    1    2    0    0  0.17910641856E-02 -0.20564919616E-01 -0.37791388726E-02  0.10229441543E+01  0.10227288678E+01 0.  0.
     999903    2    3    3    0    0  0.33211452491E-01  0.25836992750E-01 -0.12183891323E+00  0.13329338652E+00  0.33938994409E-01 0.  0.
         14    1    1    2    0    0 -0.17910641856E-02  0.20564919616E-01  0.37791388726E-02  0.20985845715E-01  0.00000000000E+00 0.  1.
     999901    1    3    3    0    0 -0.31420388305E-01 -0.46401912367E-01  0.11805977435E+00  0.88965076777E+00  0.88000000000E+00 0. -1.
        -11    1    4    4    0    0  0.11742913081E-01 -0.44695328140E-02 -0.58763794387E-01  0.60094237518E-01  0.51100000000E-03 0.  1.
         11    1    4    4    0    0  0.21468539410E-01  0.30306525564E-01 -0.63075118841E-01  0.73199148997E-01  0.51100000000E-03 0. -1.
</event>
<event>
 8    1  0.1129602E+005  0.1043930E+01  0.7957747E-01            NaN
         13   -1    0    0    0    0  0.00000000000E+00  0.00000000000E+00  0.74505805969E-08  0.10566000000E+00  0.10566000000E+00 0.  1.
     999900   -1    0    0    0    0 -0.00000000000E+00 -0.00000000000E+00 -0.74505805969E-08  0.93827000000E+00  0.93827000000E+00 0. -1.
     999902    2    1    2    0    0 -0.60016591363E-02 -0.24971653711E-01 -0.25306456323E-01  0.10078742081E+01  0.10072290698E+01 0.  0.
     999903    2    3    3    0    0 -0.11426679924E+00  0.22741451138E-01  0.13951605517E-01  0.11908903921E+00  0.20334132770E-01 0.  0.
         14    1    1    2    0    0  0.60016591363E-02  0.24971653711E-01  0.25306456323E-01  0.36055791949E-01  0.00000000000E+00 0. -1.
     999901    1    3    3    0    0  0.10826514010E+00 -0.47713104849E-01 -0.39258061840E-01  0.88878516884E+00  0.88000000000E+00 0.  1.
        -11    1    4    4    0    0 -0.18659042315E-01  0.23287137021E-03 -0.43695013458E-02  0.19172056546E-01  0.51100000000E-03 0.  1.
         11    1    4    4    0    0 -0.95607756921E-01  0.22508579768E-01  0.18321106863E-01  0.99916982663E-01  0.51100000000E-03 0. -1.
</event>
<event>
 8    1  0.1129602E+005  0.1043930E+01  0.7957747E-01            NaN
         13   -1    0    0    0    0  0.00000000000E+00  0.00000000000E+00  0.74505805969E-08  0.10566000000E+00  0.10566000000E+00 0.  1.
     999900   -1    0    0    0    0 -0.00000000000E+00 -0.00000000000E+00 -0.74505805969E-08  0.93827000000E+00  0.93827000000E+00 0. -1.
     999902    2    1    2    0    0 -0.29366937188E-02  0.20515422550E-01  0.11383076372E-01  0.10202851029E+01  0.10200110833E+01 0.  0.
     999903    2    3    3    0    0 -0.94127134417E-01  0.74284147581E-01 -0.50580673989E-01  0.13177720835E+00  0.20706908147E-01 0.  0.
         14    1    1    2    0    0  0.29366937188E-02 -0.20515422550E-01 -0.11383076372E-01  0.23644897126E-01  0.00000000000E+00 0.  1.
     999901    1    3    3    0    0  0.91190440699E-01 -0.53768725031E-01  0.61963750361E-01  0.88850789452E+00  0.88000000000E+00 0. -1.
        -11    1    4    4    0    0 -0.20784377168E-01  0.12529170271E-01 -0.21774088005E-02  0.24371554567E-01  0.51100000000E-03 0. -1.
         11    1    4    4    0    0 -0.73342757249E-01  0.61754977310E-01 -0.48403265188E-01  0.10740565379E+00  0.51100000000E-03 0.  1.
</event>
<event>
 8    1  0.1129602E+005  0.1043930E+01  0.7957747E-01            NaN
         13   -1    0    0    0    0  0.00000000000E+00  0.00000000000E+00  0.74505805969E-08  0.10566000000E+00  0.10566000000E+00 0. -1.
     999900   -1    0    0    0    0 -0.00000000000E+00 -0.00000000000E+00 -0.74505805969E-08  0.93827000000E+00  0.93827000000E+00 0. -1.
     999902    2    1    2    0    0  0.16039405123E-01 -0.18505854882E-01 -0.80857912993E-03  0.10194272862E+01  0.10191327730E+01 0.  0.
     999903    2    3    3    0    0 -0.20365381122E-01  0.48547637844E-01  0.11577765033E+00  0.12846498162E+00  0.18087711231E-01 0.  0.
         14    1    1    2    0    0 -0.16039405123E-01  0.18505854882E-01  0.80857912993E-03  0.24502713764E-01  0.00000000000E+00 0.  1.
     999901    1    3    3    0    0  0.36404786244E-01 -0.67053492726E-01 -0.11658622946E+00  0.89096230462E+00  0.88000000000E+00 0. -1.
        -11    1    4    4    0    0 -0.17507796292E-01  0.36889443979E-01  0.10360236989E+00  0.11136007443E+00  0.51100000000E-03 0.  1.
         11    1    4    4    0    0 -0.28575848300E-02  0.11658193865E-01  0.12175280437E-01  0.17104907190E-01  0.51100000000E-03 0. -1.
</event>
<event>
 8    1  0.1129602E+005  0.1043930E+01  0.7957747E-01            NaN
         13   -1    0    0    0    0  0.00000000000E+00  0.00000000000E+00  0.74505805969E-08  0.10566000000E+00  0.10566000000E+00 0. -1.
     999900   -1    0    0    0    0 -0.00000000000E+00 -0.00000000000E+00 -0.74505805969E-08  0.93827000000E+00  0.93827000000E+00 0. -1.
     999902    2    1    2    0    0  0.19029836947E-02 -0.19236433561E-01  0.14439900902E-01  0.10198017497E+01  0.10195162756E+01 0.  0.
     999903    2    3    3    0    0 -0.50386571153E-01 -0.10353632885E+00 -0.59701407662E-01  0.13112992980E+00  0.19293067917E-01 0.  0.
         14    1    1    2    0    0 -0.19029836947E-02  0.19236433561E-01 -0.14439900902E-01  0.24128250271E-01  0.00000000000E+00 0.  1.
     999901    1    3    3    0    0  0.52289554848E-01  0.84299895289E-01  0.74141308564E-01  0.88867181992E+00  0.88000000000E+00 0.  1.
        -11    1    4    4    0    0 -0.25661945128E-02 -0.88725134799E-02  0.33894998016E-03  0.92565035417E-02  0.51100000000E-03 0. -1.
         11    1    4    4    0    0 -0.47820376640E-01 -0.94663815370E-01 -0.60040357642E-01  0.12187342626E+00  0.51100000000E-03 0.  1.
</event>
<event>
 7    1  0.1442329E+005  0.1043930E+01  0.7957747E-01            NaN
         13   -1    0    0    0    0  0.00000000000E+00  0.00000000000E+00  0.74505805969E-08  0.10566000000E+00  0.10566000000E+00 0.  1.
     999900   -1    0    0    0    0 -0.00000000000E+00 -0.00000000000E+00 -0.74505805969E-08  0.93827000000E+00  0.93827000000E+00 0. -1.
     999903    2    1    2    0    0  0.23538556965E-02 -0.24669118581E-01  0.77402924730E-01  0.83472344743E-01  0.19034535244E-01 0.  0.
         14    1    1    2    0    0  0.61534154527E-01  0.39524584273E-01  0.94950259942E-02  0.73748223396E-01  0.00000000000E+00 0. -1.
     999901    1    1    2    0    0 -0.63888010224E-01 -0.14855465693E-01 -0.86897950724E-01  0.88670943186E+00  0.88000000000E+00 0. -1.
        -11    1    3    3    0    0  0.10678926581E-01 -0.12106934536E-01  0.38654620949E-01  0.41893414500E-01  0.51100000000E-03 0.  1.
         11    1    3    3    0    0 -0.83250708850E-02 -0.12562184045E-01  0.38748303781E-01  0.41578930243E-01  0.51100000000E-03 0. -1.
</event>
<event>
 8    1  0.1129602E+005  0.1043930E+01  0.7957747E-01            NaN
         13   -1    0    0    0    0  0.00000000000E+00  0.00000000000E+00  0.74505805969E-08  0.10566000000E+00  0.10566000000E+00 0. -1.
     999900   -1    0    0    0    0 -0.00000000000E+00 -0.00000000000E+00 -0.74505805969E-08  0.93827000000E+00  0.93827000000E+00 0. -1.
     999902    2    1    2    0    0 -0.94684465106E-02 -0.89222737328E-02 -0.17837516481E-01  0.10218520598E+01  0.10216135261E+01 0.  0.
     999903    2    3    3    0    0 -0.66554873347E-01 -0.78035005899E-01  0.80480602368E-01  0.13185100232E+00  0.19711573842E-01 0.  0.
         14    1    1    2    0    0  0.94684465106E-02  0.89222737328E-02  0.17837516481E-01  0.22077940169E-01  0.00000000000E+00 0. -1.
     999901    1    3    3    0    0  0.57086426836E-01  0.69112732166E-01 -0.98318118850E-01  0.89000105751E+00  0.88000000000E+00 0. -1.
        -11    1    4    4    0    0 -0.52334908561E-01 -0.65216642494E-01  0.55453483342E-01  0.10033694757E+00  0.51100000000E-03 0.  1.
         11    1    4    4    0    0 -0.14219964786E-01 -0.12818363405E-01  0.25027119027E-01  0.31514054748E-01  0.51100000000E-03 0. -1.
</event>
<event>
 8    1  0.1129602E+005  0.1043930E+01  0.7957747E-01            NaN
         13   -1    0    0    0    0  0.00000000000E+00  0.00000000000E+00  0.74505805969E-08  0.10566000000E+00  0.10566000000E+00 0. -1.
     999900   -1    0    0    0    0 -0.00000000000E+00 -0.00000000000E+00 -0.74505805969E-08  0.93827000000E+00  0.93827000000E+00 0.  1.
     999902    2    1    2    0    0  0.12554352619E-01 -0.38443307075E-02 -0.19329794447E-01  0.10205626809E+01  0.10202951309E+01 0.  0.
     999903    2    3    3    0    0 -0.65796330294E-01  0.10111091458E+00 -0.45509474432E-01  0.13048414017E+00  0.20060519603E-01 0.  0.
         14    1    1    2    0    0 -0.12554352619E-01  0.38443307075E-02  0.19329794447E-01  0.23367319094E-01  0.00000000000E+00 0. -1.
     999901    1    3    3    0    0  0.78350682913E-01 -0.10495524529E+00  0.26179679984E-01  0.89007854073E+00  0.88000000000E+00 0.  1.
        -11    1    4    4    0    0 -0.56538661718E-01  0.73754496373E-01 -0.39506459745E-01  0.10098201566E+00  0.51100000000E-03 0. -1.
         11    1    4    4    0    0 -0.92576685757E-02  0.27356418207E-01 -0.60030146868E-02  0.29502124515E-01  0.51100000000E-03 0.  1.
</event>
<event>
 8    1  0.1129602E+005  0.1043930E+01  0.7957747E-01            NaN
         13   -1    0    0    0    0  0.00000000000E+00  0.00000000000E+00  0.74505805969E-08  0.10566000000E+00  0.10566000000E+00 0. -1.
     999900   -1    0    0    0    0 -0.00000000000E+00 -0.00000000000E+00 -0.74505805969E-08  0.93827000000E+00  0.93827000000E+00 0.  1.
     999902    2    1    2    0    0  0.14287323683E-01  0.17312492594E-01 -0.76082651104E-02  0.10202290356E+01  0.10199536996E+01 0.  0.
     999903    2    3    3    0    0  0.68029961298E-01  0.63840015597E-01  0.91015829024E-01  0.13187111588E+00  0.20062074801E-01 0.  0.
         14    1    1    2    0    0 -0.14287323683E-01 -0.17312492594E-01  0.76082651104E-02  0.23700964449E-01  0.00000000000E+00 0. -1.
     999901    1    3    3    0    0 -0.53742637615E-01 -0.46527523002E-01 -0.98624094134E-01  0.88835791967E+00  0.88000000000E+00 0.  1.
        -11    1    4    4    0    0  0.23526323669E-01  0.31186009146E-01  0.27818060283E-01  0.47959990313E-01  0.51100000000E-03 0. -1.
         11    1    4    4    0    0  0.44503637629E-01  0.32654006451E-01  0.63197768741E-01  0.83911125569E-01  0.51100000000E-03 0.  1.
</event>
<event>
 8    1  0.1129602E+005  0.1043930E+01  0.7957747E-01            NaN
         13   -1    0    0    0    0  0.00000000000E+00  0.00000000000E+00  0.74505805969E-08  0.10566000000E+00  0.10566000000E+00 0.  1.
     999900   -1    0    0    0    0 -0.00000000000E+00 -0.00000000000E+00 -0.74505805969E-08  0.93827000000E+00  0.93827000000E+00 0. -1.
     999902    2    1    2    0    0  0.86412739287E-02 -0.21689572420E-01  0.39733618247E-02  0.10202467407E+01  0.10199718208E+01 0.  0.
     999903    2    3    3    0    0  0.31171889780E-02 -0.73719958121E-01  0.10788600632E+00  0.13258942268E+00  0.22275896257E-01 0.  0.
         14    1    1    2    0    0 -0.86412739287E-02  0.21689572420E-01 -0.39733618247E-02  0.23683259299E-01  0.00000000000E+00 0. -1.
     999901    1    3    3    0    0  0.55240849507E-02  0.52030385701E-01 -0.10391264450E+00  0.88765731802E+00  0.88000000000E+00 0. -1.
        -11    1    4    4    0    0  0.45897780171E-02 -0.32128276464E-01  0.65952989258E-01  0.73507483455E-01  0.51100000000E-03 0.  1.
         11    1    4    4    0    0 -0.14725890391E-02 -0.41591681656E-01  0.41933017063E-01  0.59081939224E-01  0.51100000000E-03 0. -1.
</event>
<event>
 8    1  0.1129602E+005  0.1043930E+01  0.7957747E-01            NaN
         13   -1    0    0    0    0  0.00000000000E+00  0.00000000000E+00  0.74505805969E-08  0.10566000000E+00  0.10566000000E+00 0.  1.
     999900   -1    0    0    0    0 -0.00000000000E+00 -0.00000000000E+00 -0.74505805969E-08  0.93827000000E+00  0.93827000000E+00 0. -1.
     999902    2    1    2    0    0 -0.81637054604E-02  0.21341678024E-01 -0.86772606430E-02  0.10194880655E+01  0.10191950292E+01 0.  0.
     999903    2    3    3    0    0 -0.15681336432E-01  0.13023236469E+00  0.92091397531E-03  0.13269281219E+00  0.20004029572E-01 0.  0.
         14    1    1    2    0    0  0.81637054604E-02 -0.21341678024E-01  0.86772606430E-02  0.24441934457E-01  0.00000000000E+00 0. -1.
     999901    1    3    3    0    0  0.75176309711E-02 -0.10889068666E+00 -0.95981746183E-02  0.88679525336E+00  0.88000000000E+00 0. -1.
        -11    1    4    4    0    0  0.26406188025E-02  0.46977713965E-01 -0.45181500721E-02  0.47271061741E-01  0.51100000000E-03 0. -1.
         11    1    4    4    0    0 -0.18321955234E-01  0.83254650724E-01  0.54390640474E-02  0.85421750447E-01  0.51100000000E-03 0.  1.
</event>
<event>
 8    1  0.1129602E+005  0.1043930E+01  0.7957747E-01            NaN
         13   -1    0    0    0    0  0.00000000000E+00  0.00000000000E+00  0.74505805969E-08  0.10566000000E+00  0.10566000000E+00 0.  1.
     999900   -1    0    0    0    0 -0.00000000000E+00 -0.00000000000E+00 -0.74505805969E-08  0.93827000000E+00  0.93827000000E+00 0. -1.
     999902    2    1    2    0    0 -0.11546187533E-01 -0.18590827403E-01 -0.83257844556E-03  0.10220296234E+01  0.10217949523E+01 0.  0.
     999903    2    3    3    0    0  0.92781904459E-01  0.83594933809E-01 -0.27002676866E-01  0.12961091299E+00  0.21754297369E-01 0.  0.
         14    1    1    2    0    0  0.11546187533E-01  0.18590827403E-01  0.83257844556E-03  0.21900376639E-01  0.00000000000E+00 0. -1.
     999901    1    3    3    0    0 -0.10432809199E+00 -0.10218576121E+00  0.26170098421E-01  0.89241871037E+00  0.88000000000E+00 0.  1.
        -11    1    4    4    0    0  0.80590501175E-01  0.74431232807E-01 -0.30680685411E-01  0.11391401527E+00  0.51100000000E-03 0. -1.
         11    1    4    4    0    0  0.12191403284E-01  0.91637010023E-02  0.36780085446E-02  0.15696897717E-01  0.51100000000E-03 0.  1.
</event>
<event>
 8    1  0.1129602E+005  0.1043930E+01  0.7957747E-01            NaN
         13   -1    0    0    0    0  0.00000000000E+00  0.00000000000E+00  0.74505805969E-08  0.10566000000E+00  0.10566000000E+00 0.  1.
     999900   -1    0    0    0    0 -0.00000000000E+00 -0.00000000000E+00 -0.74505805969E-08  0.93827000000E+00  0.93827000000E+00 0. -1.
     999902    2    1    2    0    0  0.12386915430E-01  0.14001064075E-01  0.13988129824E-01  0.10205819113E+01  0.10203148066E+01 0.  0.
     999903    2    3    3    0    0  0.56250910211E-01  0.10344332096E+00  0.60379789101E-01  0.13374700368E+00  0.19438531591E-01 0.  0.
         14    1    1    2    0    0 -0.12386915430E-01 -0.14001064075E-01 -0.13988129824E-01  0.23348088681E-01  0.00000000000E+00 0.  1.
     999901    1    3    3    0    0 -0.43863994781E-01 -0.89442256888E-01 -0.46391659278E-01  0.88683490764E+00  0.88000000000E+00 0. -1.
        -11    1    4    4    0    0  0.39328280542E-01  0.52161796595E-01  0.33895076559E-01  0.73598260919E-01  0.51100000000E-03 0.  1.
         11    1    4    4    0    0  0.16922629669E-01  0.51281524368E-01  0.26484712543E-01  0.60148742762E-01  0.51100000000E-03 0. -1.
</event>
<event>
 8    1  0.1129602E+005  0.1043930E+01  0.7957747E-01            NaN
         13   -1    0    0    0    0  0.00000000000E+00  0.00000000000E+00  0.74505805969E-08  0.10566000000E+00  0.10566000000E+00 0. -1.
     999900   -1    0    0    0    0 -0.00000000000E+00 -0.00000000000E+00 -0.74505805969E-08  0.93827000000E+00  0.93827000000E+00 0.  1.
     999902    2    1    2    0    0 -0.14645654848E-02 -0.19275845485E-01 -0.12894346236E-01  0.10206928027E+01  0.10204282583E+01 0.  0.
     999903    2    3    3    0    0  0.50121361769E-01  0.10020755096E+00 -0.57584722570E-01  0.12999946627E+00  0.32096055539E-01 0.  0.
         14    1    1    2    0    0  0.14645654848E-02  0.19275845485E-01  0.12894346236E-01  0.23237197251E-01  0.00000000000E+00 0.  1.
     999901    1    3    3    0    0 -0.51585927254E-01 -0.11948339645E+00  0.44690376334E-01  0.89069333648E+00  0.88000000000E+00 0. -1.
        -11    1    4    4    0    0  0.47747042653E-01  0.80510407141E-01 -0.35002584586E-01  0.99935718283E-01  0.51100000000E-03 0.  1.
         11    1    4    4    0    0  0.23743191164E-02  0.19697143820E-01 -0.22582137984E-01  0.30063747984E-01  0.51100000000E-03 0. -1.
</event>
<event>
 8    1  0.1129602E+005  0.1043930E+01  0.7957747E-01            NaN
         13   -1    0    0    0    0  0.00000000000E+00  0.00000000000E+00  0.74505805969E-08  0.10566000000E+00  0.10566000000E+00 0. -1.
     999900   -1    0    0    0    0 -0.00000000000E+00 -0.00000000000E+00 -0.74505805969E-08  0.93827000000E+00  0.93827000000E+00 0. -1.
     999902    2    1    2    0    0  0.11393380835E-02  0.20431113489E-01  0.13701178134E-01  0.10193037788E+01  0.10190062525E+01 0.  0.
     999903    2    3    3    0    0  0.24334806701E-01 -0.32333177548E-01 -0.11988565605E+00  0.12735784855E+00  0.14485643746E-01 0.  0.
         14    1    1    2    0    0 -0.11393380835E-02 -0.20431113489E-01 -0.13701178134E-01  0.24626221227E-01  0.00000000000E+00 0.  1.
     999901    1    3    3    0    0 -0.23195468617E-01  0.52764291037E-01  0.13358683418E+00  0.89194593022E+00  0.88000000000E+00 0.  1.
        -11    1    4    4    0    0  0.18339536637E-01 -0.21416505877E-01 -0.61513716179E-01  0.67669814003E-01  0.51100000000E-03 0.  1.
         11    1    4    4    0    0  0.59952700639E-02 -0.10916671671E-01 -0.58371939866E-01  0.59688034549E-01  0.51100000000E-03 0. -1.
</event>
<event>
 8    1  0.1129602E+005  0.1043930E+01  0.7957747E-01            NaN
         13   -1    0    0    0    0  0.00000000000E+00  0.00000000000E+00  0.74505805969E-08  0.10566000000E+00  0.10566000000E+00 0. -1.
     999900   -1    0    0    0    0 -0.00000000000E+00 -0.00000000000E+00 -0.74505805969E-08  0.93827000000E+00  0.93827000000E+00 0. -1.
     999902    2    1    2    0    0  0.19965943535E-01 -0.10550204482E-01 -0.14268801022E-02  0.10213029873E+01  0.10210523053E+01 0.  0.
     999903    2    3    3    0    0 -0.20321642852E-01 -0.93325839067E-01 -0.89131417970E-01  0.13216465092E+00  0.20010094397E-01 0.  0.
         14    1    1    2    0    0 -0.19965943535E-01  0.10550204482E-01  0.14268801022E-02  0.22627012677E-01  0.00000000000E+00 0. -1.
     999901    1    3    3    0    0  0.40287586388E-01  0.82775634585E-01  0.87704537868E-01  0.88913833640E+00  0.88000000000E+00 0.  1.
        -11    1    4    4    0    0 -0.56716882513E-02 -0.60621473475E-01 -0.64358107008E-01  0.88596603505E-01  0.51100000000E-03 0. -1.
         11    1    4    4    0    0 -0.14649954601E-01 -0.32704365592E-01 -0.24773310961E-01  0.43568047415E-01  0.51100000000E-03 0.  1.
</event>
<event>
 8    1  0.1129602E+005  0.1043930E+01  0.7957747E-01            NaN
         13   -1    0    0    0    0  0.00000000000E+00  0.00000000000E+00  0.74505805969E-08  0.10566000000E+00  0.10566000000E+00 0. -1.
     999900   -1    0    0    0    0 -0.00000000000E+00 -0.00000000000E+00 -0.74505805969E-08  0.93827000000E+00  0.93827000000E+00 0. -1.
     999902    2    1    2    0    0  0.12453623603E-01 -0.19959651872E-01  0.55000571167E-02  0.10197694729E+01  0.10194832253E+01 0.  0.
     999903    2    3    3    0    0 -0.11768401087E-01  0.67764765932E-01  0.10752336520E+00  0.12921288546E+00  0.20103157445E-01 0.  0.
         14    1    1    2    0    0 -0.12453623603E-01  0.19959651872E-01 -0.55000571167E-02  0.24160527146E-01  0.00000000000E+00 0.  1.
     999901    1    3    3    0    0  0.24222024689E-01 -0.87724417804E-01 -0.10202330808E+00  0.89055658739E+00  0.88000000000E+00 0. -1.
        -11    1    4    4    0    0  0.20214888198E-02  0.19976324972E-01  0.45290889854E-01  0.49544583975E-01  0.51100000000E-03 0.  1.
         11    1    4    4    0    0 -0.13789889906E-01  0.47788440960E-01  0.62232475344E-01  0.79668301485E-01  0.51100000000E-03 0. -1.
</event>
<event>
 8    1  0.1129602E+005  0.1043930E+01  0.7957747E-01            NaN
         13   -1    0    0    0    0  0.00000000000E+00  0.00000000000E+00  0.74505805969E-08  0.10566000000E+00  0.10566000000E+00 0.  1.
     999900   -1    0    0    0    0 -0.00000000000E+00 -0.00000000000E+00 -0.74505805969E-08  0.93827000000E+00  0.93827000000E+00 0. -1.
     999902    2    1    2    0    0  0.52228999496E-02 -0.20841474561E-01 -0.11563445730E-01  0.10195300200E+01  0.10192380010E+01 0.  0.
     999903    2    3    3    0    0 -0.97015213606E-01  0.60686449836E-01 -0.55644279118E-01  0.12877609542E+00  0.19804042231E-01 0.  0.
         14    1    1    2    0    0 -0.52228999496E-02  0.20841474561E-01  0.11563445730E-01  0.24399979978E-01  0.00000000000E+00 0.  1.
     999901    1    3    3    0    0  0.10223811356E+00 -0.81527924397E-01  0.44080833388E-01  0.89075392460E+00  0.88000000000E+00 0. -1.
        -11    1    4    4    0    0 -0.79701390918E-01  0.50533658984E-01 -0.36968070292E-01  0.10135512689E+00  0.51100000000E-03 0. -1.
         11    1    4    4    0    0 -0.17313822688E-01  0.10152790852E-01 -0.18676208825E-01  0.27420968533E-01  0.51100000000E-03 0.  1.
</event>
<event>
 8    1  0.1129602E+005  0.1043930E+01  0.7957747E-01            NaN
         13   -1    0    0    0    0  0.00000000000E+00  0.00000000000E+00  0.74505805969E-08  0.10566000000E+00  0.10566000000E+00 0. -1.
     999900   -1    0    0    0    0 -0.00000000000E+00 -0.00000000000E+00 -0.74505805969E-08  0.93827000000E+00  0.93827000000E+00 0.  1.
     999902    2    1    2    0    0 -0.48246890200E-02  0.48807011903E-02 -0.22475906413E-01  0.10204296758E+01  0.10201590357E+01 0.  0.
     999903    2    3    3    0    0  0.39205056883E-03 -0.12783132293E+00 -0.12414955174E-01  0.13040668820E+00  0.22600274149E-01 0.  0.
         14    1    1    2    0    0  0.48246890200E-02 -0.48807011903E-02  0.22475906413E-01  0.23500324197E-01  0.00000000000E+00 0. -1.
     999901    1    3    3    0    0 -0.52167395888E-02  0.13271202412E+00 -0.10060951239E-01  0.89002298760E+00  0.88000000000E+00 0. -1.
        -11    1    4    4    0    0 -0.13368438396E-02 -0.66880349980E-01 -0.17708095555E-01  0.69199755304E-01  0.51100000000E-03 0. -1.
         11    1    4    4    0    0  0.17288944084E-02 -0.60950972945E-01  0.52931403811E-02  0.61206932899E-01  0.51100000000E-03 0.  1.
</event>
<event>
 8    1  0.1129602E+005  0.1043930E+01  0.7957747E-01            NaN
         13   -1    0    0    0    0  0.00000000000E+00  0.00000000000E+00  0.74505805969E-08  0.10566000000E+00  0.10566000000E+00 0. -1.
     999900   -1    0    0    0    0 -0.00000000000E+00 -0.00000000000E+00 -0.74505805969E-08  0.93827000000E+00  0.93827000000E+00 0. -1.
     999902    2    1    2    0    0 -0.31992777197E-01  0.48760222818E-02  0.10046197245E-01  0.10100443177E+01  0.10094757472E+01 0.  0.
     999903    2    3    3    0    0 -0.27265679209E-01  0.10879470026E+00  0.46792128460E-01  0.12315554195E+00  0.19951946232E-01 0.  0.
         14    1    1    2    0    0  0.31992777197E-01 -0.48760222818E-02 -0.10046197245E-01  0.33885682303E-01  0.00000000000E+00 0. -1.
     999901    1    3    3    0    0 -0.47270979880E-02 -0.10391867798E+00 -0.36745931215E-01  0.88688877575E+00  0.88000000000E+00 0. -1.
        -11    1    4    4    0    0 -0.95434968902E-02  0.20404453835E-01  0.16944362774E-01  0.28192066615E-01  0.51100000000E-03 0. -1.
         11    1    4    4    0    0 -0.17722182319E-01  0.88390246428E-01  0.29847765686E-01  0.94963475332E-01  0.51100000000E-03 0.  1.
</event>
<event>
 8    1  0.1129602E+005  0.1043930E+01  0.7957747E-01            NaN
         13   -1    0    0    0    0  0.00000000000E+00  0.00000000000E+00  0.74505805969E-08  0.10566000000E+00  0.10566000000E+00 0.  1.
     999900   -1    0    0    0    0 -0.00000000000E+00 -0.00000000000E+00 -0.74505805969E-08  0.93827000000E+00  0.93827000000E+00 0. -1.
     999902    2    1    2    0    0  0.13677423432E-01 -0.15803508427E-01  0.11419186451E-01  0.10201136063E+01  0.10198355500E+01 0.  0.
     999903    2    3    3    0    0  0.12110936207E+00  0.45473359784E-01  0.93793994319E-02  0.13146258550E+00  0.21427417510E-01 0.  0.
         14    1    1    2    0    0 -0.13677423432E-01  0.15803508427E-01 -0.11419186451E-01  0.23816393714E-01  0.00000000000E+00 0. -1.
     999901    1    3    3    0    0 -0.10743193864E+00 -0.61276868211E-01  0.20397870186E-02  0.88865102079E+00  0.88000000000E+00 0. -1.
        -11    1    4    4    0    0  0.67864234221E-01  0.16861399645E-01 -0.19761307432E-02  0.69957324836E-01  0.51100000000E-03 0.  1.
         11    1    4    4    0    0  0.53245127848E-01  0.28611960139E-01  0.11355530175E-01  0.61505260662E-01  0.51100000000E-03 0. -1.
</event>
<event>
 8    1  0.1129602E+005  0.1043930E+01  0.7957747E-01            NaN
         13   -1    0    0    0    0  0.00000000000E+00  0.00000000000E+00  0.74505805969E-08  0.10566000000E+00  0.10566000000E+00 0. -1.
     999900   -1    0    0    0    0 -0.00000000000E+00 -0.00000000000E+00 -0.74505805969E-08  0.93827000000E+00  0.93827000000E+00 0. -1.
     999902    2    1    2    0    0 -0.21833261118E-01 -0.10133003016E-01  0.90739881164E-02  0.10182063474E+01  0.10178813583E+01 0.  0.
     999903    2    3    3    0    0 -0.23480108887E-01 -0.63626686109E-01 -0.10842953690E+00  0.12878442021E+00  0.15125862528E-01 0.  0.
         14    1    1    2    0    0  0.21833261118E-01  0.10133003016E-01 -0.90739881164E-02  0.25723652569E-01  0.00000000000E+00 0.  1.
     999901    1    3    3    0    0  0.16468477684E-02  0.53493683093E-01  0.11750352501E+00  0.88942192723E+00  0.88000000000E+00 0.  1.
        -11    1    4    4    0    0 -0.94084910221E-02 -0.88527079665E-02 -0.20682359048E-01  0.24390802333E-01  0.51100000000E-03 0. -1.
         11    1    4    4    0    0 -0.14071617864E-01 -0.54773978143E-01 -0.87747177850E-01  0.10439361787E+00  0.51100000000E-03 0.  1.
</event>
<event>
 8    1  0.1129602E+005  0.1043930E+01  0.7957747E-01            NaN
         13   -1    0    0    0    0  0.00000000000E+00  0.00000000000E+00  0.74505805969E-08  0.10566000000E+00  0.10566000000E+00 0. -1.
     999900   -1    0    0    0    0 -0.00000000000E+00 -0.00000000000E+00 -0.74505805969E-08  0.93827000000E+00  0.93827000000E+00 0. -1.
     999902    2    1    2    0    0  0.10767958445E-01 -0.19593537077E-01  0.76599933996E-02  0.10202967369E+01  0.10200229901E+01 0.  0.
     999903    2    3    3    0    0  0.35525161689E-01 -0.71769685964E-01 -0.10243413441E+00  0.13155831276E+00  0.20047763674E-01 0.  0.
         14    1    1    2    0    0 -0.10767958445E-01  0.19593537077E-01 -0.76599933996E-02  0.23633263066E-01  0.00000000000E+00 0. -1.
     999901    1    3    3    0    0 -0.24757203244E-01  0.52176148887E-01  0.11009412781E+00  0.88873842417E+00  0.88000000000E+00 0.  1.
        -11    1    4    4    0    0  0.26099910469E-01 -0.50536074445E-01 -0.85955310492E-01  0.10307122134E+00  0.51100000000E-03 0. -1.
         11    1    4    4    0    0  0.94252512205E-02 -0.21233611519E-01 -0.16478823915E-01  0.28487091416E-01  0.51100000000E-03 0.  1.
</event>
<event>
 8    1  0.1129602E+005  0.1043930E+01  0.7957747E-01            NaN
         13   -1    0    0    0    0  0.00000000000E+00  0.00000000000E+00  0.74505805969E-08  0.10566000000E+00  0.10566000000E+00 0.  1.
     999900   -1    0    0    0    0 -0.00000000000E+00 -0.00000000000E+00 -0.74505805969E-08  0.93827000000E+00  0.93827000000E+00 0.  1.
     999902    2    1    2    0    0 -0.19036959445E-01  0.10645762429E-01  0.15268694911E-01  0.10173053662E+01  0.10169569002E+01 0.  0.
     999903    2    3    3    0    0 -0.10997854264E+00 -0.54548471771E-01 -0.34019166070E-01  0.12885167971E+00  0.19355518355E-01 0.  0.
         14    1    1    2    0    0  0.19036959445E-01 -0.10645762429E-01 -0.15268694911E-01  0.26624633836E-01  0.00000000000E+00 0. -1.
     999901    1    3    3    0    0  0.90941583197E-01  0.65194234200E-01  0.49287860981E-01  0.88845368645E+00  0.88000000000E+00 0. -1.
        -11    1    4    4    0    0 -0.54276097914E-01 -0.34988400954E-01 -0.24399874341E-01  0.69034035048E-01  0.51100000000E-03 0.  1.
         11    1    4    4    0    0 -0.55702444728E-01 -0.19560070816E-01 -0.96192917283E-02  0.59817644666E-01  0.51100000000E-03 0. -1.
</event>
<event>
 8    1  0.1129602E+005  0.1043930E+01  0.7957747E-01            NaN
         13   -1    0    0    0    0  0.00000000000E+00  0.00000000000E+00  0.74505805969E-08  0.10566000000E+00  0.10566000000E+00 0.  1.
     999900   -1    0    0    0    0 -0.00000000000E+00 -0.00000000000E+00 -0.74505805969E-08  0.93827000000E+00  0.93827000000E+00 0. -1.
     999902    2    1    2    0    0  0.46370827926E-02 -0.22554790434E-01 -0.64743508006E-02  0.10200105868E+01  0.10197300912E+01 0.  0.
     999903    2    3    3    0    0 -0.37123042810E-02 -0.17665004999E-01 -0.12875704028E+00  0.13150246733E+00  0.19715219646E-01 0.  0.
         14    1    1    2    0    0 -0.46370827926E-02  0.22554790434E-01  0.64743508006E-02  0.23919413175E-01  0.00000000000E+00 0.  1.
     999901    1    3    3    0    0  0.83493870736E-02 -0.48897854349E-02  0.12228268948E+00  0.88850811950E+00  0.88000000000E+00 0.  1.
        -11    1    4    4    0    0 -0.99291312984E-02 -0.10223459129E-01 -0.45535079253E-01  0.47715944175E-01  0.51100000000E-03 0. -1.
         11    1    4    4    0    0  0.62168270175E-02 -0.74415458698E-02 -0.83221961031E-01  0.83786523152E-01  0.51100000000E-03 0.  1.
</event>
<event>
 8    1  0.1129602E+005  0.1043930E+01  0.7957747E-01            NaN
         13   -1    0    0    0    0  0.00000000000E+00  0.00000000000E+00  0.74505805969E-08  0.10566000000E+00  0.10566000000E+00 0.  1.
     999900   -1    0    0    0    0 -0.00000000000E+00 -0.00000000000E+00 -0.74505805969E-08  0.93827000000E+00  0.93827000000E+00 0.  1.
     999902    2    1    2    0    0 -0.37624592871E-02  0.53139150150E-02 -0.22768126682E-01  0.10202491768E+01  0.10199743141E+01 0.  0.
     999903    2    3    3    0    0  0.38517639037E-01  0.12183569700E+00  0.18687940363E-01  0.13059557129E+00  0.19452982880E-01 0.  0.
         14    1    1    2    0    0  0.37624592871E-02 -0.53139150150E-02  0.22768126682E-01  0.23680823154E-01  0.00000000000E+00 0.  1.
     999901    1    3    3    0    0 -0.42280098324E-01 -0.11652178199E+00 -0.41456067045E-01  0.88965360556E+00  0.88000000000E+00 0.  1.
        -11    1    4    4    0    0  0.24704910388E-01  0.66116234635E-01  0.19336310664E-01  0.73183625974E-01  0.51100000000E-03 0. -1.
         11    1    4    4    0    0  0.13812728649E-01  0.55719462369E-01 -0.64837030075E-03  0.57411945311E-01  0.51100000000E-03 0.  1.
</event>
<event>
 8    1  0.1129602E+005  0.1043930E+01  0.7957747E-01            NaN
         13   -1    0    0    0    0  0.00000000000E+00  0.00000000000E+00  0.74505805969E-08  0.10566000000E+00  0.10566000000E+00 0. -1.
     999900   -1    0    0    0    0 -0.00000000000E+00 -0.00000000000E+00 -0.74505805969E-08  0.93827000000E+00  0.93827000000E+00 0.  1.
     999902    2    1    2    0    0  0.21801605058E-01 -0.20575682186E-02  0.89500676727E-02  0.10202731346E+01  0.10199988342E+01 0.  0.
     999903    2    3    3    0    0 -0.47994819737E-01 -0.66685448823E-01  0.99438394577E-01  0.13053359900E+00  0.20014353506E-01 0.  0.
         14    1    1    2    0    0 -0.21801605058E-01  0.20575682186E-02 -0.89500676727E-02  0.23656865419E-01  0.00000000000E+00 0. -1.
     999901    1    3    3    0    0  0.69796424795E-01  0.64627880605E-01 -0.90488326904E-01  0.88973953558E+00  0.88000000000E+00 0.  1.
        -11    1    4    4    0    0 -0.29365322501E-01 -0.45779092977E-01  0.78779614822E-01  0.95731584923E-01  0.51100000000E-03 0.  1.
         11    1    4    4    0    0 -0.18629497236E-01 -0.20906355847E-01  0.20658779754E-01  0.34802014079E-01  0.51100000000E-03 0. -1.
</event>
<event>
 8    1  0.1129602E+005  0.1043930E+01  0.7957747E-01            NaN
         13   -1    0    0    0    0  0.00000000000E+00  0.00000000000E+00  0.74505805969E-08  0.10566000000E+00  0.10566000000E+00 0.  1.
     999900   -1    0    0    0    0 -0.00000000000E+00 -0.00000000000E+00 -0.74505805969E-08  0.93827000000E+00  0.93827000000E+00 0. -1.
     999902    2    1    2    0    0  0.30344700104E-02  0.21451502215E-01  0.86111216091E-02  0.10206163480E+01  0.10203500396E+01 0.  0.
     999903    2    3    3    0    0  0.55630301582E-01 -0.20782779277E-02  0.11771979852E+00  0.13200806789E+00  0.21659393627E-01 0.  0.
         14    1    1    2    0    0 -0.30344700104E-02 -0.21451502215E-01 -0.86111216091E-02  0.23313652028E-01  0.00000000000E+00 0. -1.
     999901    1    3    3    0    0 -0.52595831572E-01  0.23529780142E-01 -0.10910867691E+00  0.88860828008E+00  0.88000000000E+00 0.  1.
        -11    1    4    4    0    0  0.43935347639E-01 -0.43012497589E-02  0.69490112336E-01  0.82328320493E-01  0.51100000000E-03 0. -1.
         11    1    4    4    0    0  0.11694953943E-01  0.22229718312E-02  0.48229686181E-01  0.49679747398E-01  0.51100000000E-03 0.  1.
</event>
<event>
 8    1  0.1129602E+005  0.1043930E+01  0.7957747E-01            NaN
         13   -1    0    0    0    0  0.00000000000E+00  0.00000000000E+00  0.74505805969E-08  0.10566000000E+00  0.10566000000E+00 0.  1.
     999900   -1    0    0    0    0 -0.00000000000E+00 -0.00000000000E+00 -0.74505805969E-08  0.93827000000E+00  0.93827000000E+00 0.  1.
     999902    2    1    2    0    0  0.23425991869E-01 -0.95254220614E-03  0.42830536615E-02  0.10200966414E+01  0.10198181842E+01 0.  0.
     999903    2    3    3    0    0  0.78766695722E-02  0.11073531911E+00  0.66206545632E-01  0.13074267442E+00  0.19646562245E-01 0.  0.
         14    1    1    2    0    0 -0.23425991869E-01  0.95254220614E-03 -0.42830536615E-02  0.23833358563E-01  0.00000000000E+00 0. -1.
     999901    1    3    3    0    0  0.15549322297E-01 -0.11168786132E+00 -0.61923491971E-01  0.88935396702E+00  0.88000000000E+00 0.  1.
        -11    1    4    4    0    0  0.14480359245E-01  0.72387423890E-01  0.43072728881E-01  0.85470117793E-01  0.51100000000E-03 0.  1.
         11    1    4    4    0    0 -0.66036896723E-02  0.38347895222E-01  0.23133816751E-01  0.45272556629E-01  0.51100000000E-03 0. -1.
</event>
<event>
 8    1  0.1129602E+005  0.1043930E+01  0.7957747E-01            NaN
         13   -1    0    0    0    0  0.00000000000E+00  0.00000000000E+00  0.74505805969E-08  0.10566000000E+00  0.10566000000E+00 0. -1.
     999900   -1    0    0    0    0 -0.00000000000E+00 -0.00000000000E+00 -0.74505805969E-08  0.93827000000E+00  0.93827000000E+00 0.  1.
     999902    2    1    2    0    0  0.50862488397E-02 -0.24720841288E-01  0.68409219094E-02  0.10177806571E+01  0.10174446805E+01 0.  0.
     999903    2    3    3    0    0  0.98689192109E-01  0.56159172197E-01 -0.54035421797E-01  0.12704555799E+00  0.18092477322E-01 0.  0.
         14    1    1    2    0    0 -0.50862488397E-02  0.24720841288E-01 -0.68409219094E-02  0.26149342895E-01  0.00000000000E+00 0.  1.
     999901    1    3    3    0    0 -0.93602943269E-01 -0.80880013485E-01  0.60876343707E-01  0.89073509911E+00  0.88000000000E+00 0.  1.
        -11    1    4    4    0    0  0.89787065362E-01  0.47399301478E-01 -0.42608207440E-01  0.11010963332E+00  0.51100000000E-03 0.  1.
         11    1    4    4    0    0  0.89021267470E-02  0.87598707187E-02 -0.11427214357E-01  0.16935924675E-01  0.51100000000E-03 0. -1.
</event>
<event>
 8    1  0.1129602E+005  0.1043930E+01  0.7957747E-01            NaN
         13   -1    0    0    0    0  0.00000000000E+00  0.00000000000E+00  0.74505805969E-08  0.10566000000E+00  0.10566000000E+00 0. -1.
     999900   -1    0    0    0    0 -0.00000000000E+00 -0.00000000000E+00 -0.74505805969E-08  0.93827000000E+00  0.93827000000E+00 0.  1.
     999902    2    1    2    0    0 -0.42948706785E-02 -0.69733464854E-02 -0.22900530471E-01  0.10196090672E+01  0.10193189600E+01 0.  0.
     999903    2    3    3    0    0 -0.89348576704E-01 -0.40359631056E-01 -0.86874021675E-01  0.13256826518E+00  0.20375998465E-01 0.  0.
         14    1    1    2    0    0  0.42948706785E-02  0.69733464854E-02  0.22900530471E-01  0.24320932778E-01  0.00000000000E+00 0. -1.
     999901    1    3    3    0    0  0.85053706026E-01  0.33386284570E-01  0.63973491204E-01  0.88704080204E+00  0.88000000000E+00 0. -1.
        -11    1    4    4    0    0 -0.45269176097E-01 -0.20761267817E-01 -0.57564609273E-01  0.76120128137E-01  0.51100000000E-03 0. -1.
         11    1    4    4    0    0 -0.44079400607E-01 -0.19598363238E-01 -0.29309412402E-01  0.56448137045E-01  0.51100000000E-03 0.  1.
</event>
<event>
 8    1  0.1129602E+005  0.1043930E+01  0.7957747E-01            NaN
         13   -1    0    0    0    0  0.00000000000E+00  0.00000000000E+00  0.74505805969E-08  0.10566000000E+00  0.10566000000E+00 0.  1.
     999900   -1    0    0    0    0 -0.00000000000E+00 -0.00000000000E+00 -0.74505805969E-08  0.93827000000E+00  0.93827000000E+00 0.  1.
     999902    2    1    2    0    0 -0.96708137924E-02  0.25558954890E-02 -0.21841071173E-01  0.10199073101E+01  0.10196243580E+01 0.  0.
     999903    2    3    3    0    0  0.60391539491E-01 -0.18301363858E-01 -0.11439171721E+00  0.13203942537E+00  0.19153770521E-01 0.  0.
         14    1    1    2    0    0  0.96708137924E-02 -0.25558954890E-02  0.21841071173E-01  0.24022689923E-01  0.00000000000E+00 0.  1.
     999901    1    3    3    0    0 -0.70062353284E-01  0.20857259346E-01  0.92550646034E-01  0.88786788471E+00  0.88000000000E+00 0. -1.
        -11    1    4    4    0    0  0.46345347759E-01 -0.22149923291E-01 -0.89761470329E-01  0.10342095067E+00  0.51100000000E-03 0. -1.
         11    1    4    4    0    0  0.14046191732E-01  0.38485594337E-02 -0.24630246877E-01  0.28618474699E-01  0.51100000000E-03 0.  1.
</event>
<event>
 8    1  0.1129602E+005  0.1043930E+01  0.7957747E-01            NaN
         13   -1    0    0    0    0  0.00000000000E+00  0.00000000000E+00  0.74505805969E-08  0.10566000000E+00  0.10566000000E+00 0.  1.
     999900   -1    0    0    0    0 -0.00000000000E+00 -0.00000000000E+00 -0.74505805969E-08  0.93827000000E+00  0.93827000000E+00 0. -1.
     999902    2    1    2    0    0 -0.43821746413E-02 -0.14159069845E-01  0.11646368826E-01  0.10250800499E+01  0.10249067216E+01 0.  0.
     999903    2    3    3    0    0  0.78698624430E-01  0.66910547216E-01  0.83872549177E-01  0.13452330090E+00  0.19784316124E-01 0.  0.
         14    1    1    2    0    0  0.43821746413E-02  0.14159069845E-01 -0.11646368826E-01  0.18849950140E-01  0.00000000000E+00 0. -1.
     999901    1    3    3    0    0 -0.83080799071E-01 -0.81069617061E-01 -0.72226180352E-01  0.89055674896E+00  0.88000000000E+00 0.  1.
        -11    1    4    4    0    0  0.59565019960E-01  0.40522398943E-01  0.51315892989E-01  0.88451333586E-01  0.51100000000E-03 0. -1.
         11    1    4    4    0    0  0.19133604470E-01  0.26388148273E-01  0.32556656189E-01  0.46071967317E-01  0.51100000000E-03 0.  1.
</event>
<event>
 8    1  0.1129602E+005  0.1043930E+01  0.7957747E-01            NaN
         13   -1    0    0    0    0  0.00000000000E+00  0.00000000000E+00  0.74505805969E-08  0.10566000000E+00  0.10566000000E+00 0.  1.
     999900   -1    0    0    0    0 -0.00000000000E+00 -0.00000000000E+00 -0.74505805969E-08  0.93827000000E+00  0.93827000000E+00 0. -1.
     999902    2    1    2    0    0  0.87777893441E-02  0.21890195524E-01 -0.22834782687E-03  0.10203443605E+01  0.10200717287E+01 0.  0.
     999903    2    3    3    0    0 -0.76641634446E-01  0.87071281967E-01 -0.59332899309E-01  0.13184089966E+00  0.20156428496E-01 0.  0.
         14    1    1    2    0    0 -0.87777893441E-02 -0.21890195524E-01  0.22834782687E-03  0.23585639457E-01  0.00000000000E+00 0.  1.
     999901    1    3    3    0    0  0.85419423790E-01 -0.65181086443E-01  0.59104551482E-01  0.88850346088E+00  0.88000000000E+00 0. -1.
        -11    1    4    4    0    0 -0.69923477852E-01  0.72447338836E-01 -0.56608753273E-01  0.11551069962E+00  0.51100000000E-03 0. -1.
         11    1    4    4    0    0 -0.67181565940E-02  0.14623943131E-01 -0.27241460354E-02  0.16330200040E-01  0.51100000000E-03 0.  1.
</event>
<event>
 8    1  0.1129602E+005  0.1043930E+01  0.7957747E-01            NaN
         13   -1    0    0    0    0  0.00000000000E+00  0.00000000000E+00  0.74505805969E-08  0.10566000000E+00  0.10566000000E+00 0.  1.
     999900   -1    0    0    0    0 -0.00000000000E+00 -0.00000000000E+00 -0.74505805969E-08  0.93827000000E+00  0.93827000000E+00 0. -1.
     999902    2    1    2    0    0  0.18216604595E-01 -0.43032818637E-02  0.97841039335E-02  0.10228091192E+01  0.10225910241E+01 0.  0.
     999903    2    3    3    0    0  0.89608675600E-01 -0.72305576919E-01  0.68355421437E-01  0.13536800045E+00  0.19854992073E-01 0.  0.
         14    1    1    2    0    0 -0.18216604595E-01  0.43032818637E-02 -0.97841039335E-02  0.21120880842E-01  0.00000000000E+00 0. -1.
     999901    1    3    3    0    0 -0.71392071005E-01  0.68002295056E-01 -0.58571317503E-01  0.88744111871E+00  0.88000000000E+00 0. -1.
        -11    1    4    4    0    0  0.10108866798E-01 -0.17699665172E-01  0.12362245673E-01  0.23844361476E-01  0.51100000000E-03 0.  1.
         11    1    4    4    0    0  0.79499808802E-01 -0.54605911748E-01  0.55993175764E-01  0.11152363898E+00  0.51100000000E-03 0. -1.
</event>
<event>
 8    1  0.1129602E+005  0.1043930E+01  0.7957747E-01            NaN
         13   -1    0    0    0    0  0.00000000000E+00  0.00000000000E+00  0.74505805969E-08  0.10566000000E+00  0.10566000000E+00 0.  1.
     999900   -1    0    0    0    0 -0.00000000000E+00 -0.00000000000E+00 -0.74505805969E-08  0.93827000000E+00  0.93827000000E+00 0. -1.
     999902    2    1    2    0    0  0.20994821948E-01 -0.39482872423E-02 -0.89585100979E-02  0.10207648014E+01  0.10205019125E+01 0.  0.
     999903    2    3    3    0    0  0.12034797760E-01 -0.36453034320E-01  0.12195170477E+00  0.13044220543E+00  0.25870651193E-01 0.  0.
         14    1    1    2    0    0 -0.20994821948E-01  0.39482872423E-02  0.89585100979E-02  0.23165198552E-01  0.00000000000E+00 0.  1.
     999901    1    3    3    0    0  0.89600241884E-02  0.32504747078E-01 -0.13091021487E+00  0.89032259601E+00  0.88000000000E+00 0. -1.
        -11    1    4    4    0    0 -0.57696426486E-02 -0.23585987897E-01  0.61597900847E-01  0.66212914987E-01  0.51100000000E-03 0.  1.
         11    1    4    4    0    0  0.17804440408E-01 -0.12867046423E-01  0.60353803926E-01  0.64229290446E-01  0.51100000000E-03 0. -1.
</event>
<event>
 8    1  0.1129602E+005  0.1043930E+01  0.7957747E-01            NaN
         13   -1    0    0    0    0  0.00000000000E+00  0.00000000000E+00  0.74505805969E-08  0.10566000000E+00  0.10566000000E+00 0.  1.
     999900   -1    0    0    0    0 -0.00000000000E+00 -0.00000000000E+00 -0.74505805969E-08  0.93827000000E+00  0.93827000000E+00 0. -1.
     999902    2    1    2    0    0 -0.17155953067E-01  0.11181373390E-01  0.10513192553E-01  0.10209109415E+01  0.10206513966E+01 0.  0.
     999903    2    3    3    0    0  0.88799595498E-01  0.85321082836E-01 -0.36782667644E-01  0.13020326040E+00  0.20853513896E-01 0.  0.
         14    1    1    2    0    0  0.17155953067E-01 -0.11181373390E-01 -0.10513192553E-01  0.23019058499E-01  0.00000000000E+00 0. -1.
     999901    1    3    3    0    0 -0.10595554856E+00 -0.74139709445E-01  0.47295860197E-01  0.89070768111E+00  0.88000000000E+00 0.  1.
        -11    1    4    4    0    0  0.37655223574E-01  0.49880989405E-01 -0.14997815916E-01  0.64274602836E-01  0.51100000000E-03 0.  1.
         11    1    4    4    0    0  0.51144371923E-01  0.35440093431E-01 -0.21784851728E-01  0.65928657560E-01  0.51100000000E-03 0. -1.
</event>
<event>
 8    1  0.1129602E+005  0.1043930E+01  0.7957747E-01            NaN
         13   -1    0    0    0    0  0.00000000000E+00  0.00000000000E+00  0.74505805969E-08  0.10566000000E+00  0.10566000000E+00 0.  1.
     999900   -1    0    0    0    0 -0.00000000000E+00 -0.00000000000E+00 -0.74505805969E-08  0.93827000000E+00  0.93827000000E+00 0. -1.
     999902    2    1    2    0    0  0.22219432064E-01  0.27087358346E-02  0.19881838996E-02  0.10214579443E+01  0.10212107220E+01 0.  0.
     999903    2    3    3    0    0 -0.79444009852E-01 -0.67333024043E-01  0.74935570330E-01  0.12985117857E+00  0.20022538493E-01 0.  0.
         14    1    1    2    0    0 -0.22219432064E-01 -0.27087358346E-02 -0.19881838996E-02  0.22472055676E-01  0.00000000000E+00 0.  1.
     999901    1    3    3    0    0  0.10166344192E+00  0.70041759877E-01 -0.72947386430E-01  0.89160676575E+00  0.88000000000E+00 0. -1.
        -11    1    4    4    0    0 -0.65241983957E-01 -0.61337120747E-01  0.69982544217E-01  0.11365111732E+00  0.51100000000E-03 0.  1.
         11    1    4    4    0    0 -0.14202025895E-01 -0.59959032957E-02  0.49530261125E-02  0.16200061251E-01  0.51100000000E-03 0. -1.
</event>
<event>
 8    1  0.1129602E+005  0.1043930E+01  0.7957747E-01            NaN
         13   -1    0    0    0    0  0.00000000000E+00  0.00000000000E+00  0.74505805969E-08  0.10566000000E+00  0.10566000000E+00 0. -1.
     999900   -1    0    0    0    0 -0.00000000000E+00 -0.00000000000E+00 -0.74505805969E-08  0.93827000000E+00  0.93827000000E+00 0.  1.
     999902    2    1    2    0    0  0.92071146768E-02 -0.94248417501E-02  0.20309569600E-01  0.10197209682E+01  0.10194335563E+01 0.  0.
     999903    2    3    3    0    0 -0.80054022538E-01  0.98125981403E-01 -0.75682160529E-02  0.12825481568E+00  0.18832554275E-01 0.  0.
         14    1    1    2    0    0 -0.92071146768E-02  0.94248417501E-02 -0.20309569600E-01  0.24209031786E-01  0.00000000000E+00 0.  1.
     999901    1    3    3    0    0  0.89261137215E-01 -0.10755082315E+00  0.27877785653E-01  0.89146615253E+00  0.88000000000E+00 0. -1.
        -11    1    4    4    0    0 -0.56585747798E-01  0.55894218320E-01 -0.14483413131E-02  0.79551676972E-01  0.51100000000E-03 0.  1.
         11    1    4    4    0    0 -0.23468274740E-01  0.42231763082E-01 -0.61198747398E-02  0.48703138709E-01  0.51100000000E-03 0. -1.
</event>
<event>
 8    1  0.1129602E+005  0.1043930E+01  0.7957747E-01            NaN
         13   -1    0    0    0    0  0.00000000000E+00  0.00000000000E+00  0.74505805969E-08  0.10566000000E+00  0.10566000000E+00 0. -1.
     999900   -1    0    0    0    0 -0.00000000000E+00 -0.00000000000E+00 -0.74505805969E-08  0.93827000000E+00  0.93827000000E+00 0. -1.
     999902    2    1    2    0    0  0.52149449372E-03 -0.40008827203E-02  0.23852407252E-01  0.10197387547E+01  0.10194517700E+01 0.  0.
     999903    2    3    3    0    0  0.47768200940E-01 -0.47495052488E-01  0.11348828466E+00  0.13285737331E+00  0.15294111831E-01 0.  0.
         14    1    1    2    0    0 -0.52149449372E-03  0.40008827203E-02 -0.23852407252E-01  0.24191245333E-01  0.00000000000E+00 0.  1.
     999901    1    3    3    0    0 -0.47246706447E-01  0.43494169768E-01 -0.89635877407E-01  0.88688138135E+00  0.88000000000E+00 0. -1.
        -11    1    4    4    0    0  0.10139164313E-01 -0.15031442413E-01  0.20147486298E-01  0.27109578365E-01  0.51100000000E-03 0.  1.
         11    1    4    4    0    0  0.37629036628E-01 -0.32463610075E-01  0.93340798361E-01  0.10574779495E+00  0.51100000000E-03 0. -1.
</event>
<event>
 8    1  0.1129602E+005  0.1043930E+01  0.7957747E-01            NaN
         13   -1    0    0    0    0  0.00000000000E+00  0.00000000000E+00  0.74505805969E-08  0.10566000000E+00  0.10566000000E+00 0. -1.
     999900   -1    0    0    0    0 -0.00000000000E+00 -0.00000000000E+00 -0.74505805969E-08  0.93827000000E+00  0.93827000000E+00 0.  1.
     999902    2    1    2    0    0  0.36477074852E-02 -0.19520121332E-01 -0.82562301157E-02  0.10224240417E+01  0.10221978355E+01 0.  0.
     999903    2    3    3    0    0 -0.10388753876E+00 -0.71658740315E-01  0.37734216855E-01  0.13315614844E+00  0.19470310004E-01 0.  0.
         14    1    1    2    0    0 -0.36477074852E-02  0.19520121332E-01  0.82562301157E-02  0.21505958301E-01  0.00000000000E+00 0. -1.
     999901    1    3    3    0    0  0.10753524625E+00  0.52138618982E-01 -0.45990446971E-01  0.88926789326E+00  0.88000000000E+00 0.  1.
        -11    1    4    4    0    0 -0.82679423752E-01 -0.48764417950E-01  0.33449643227E-01  0.10165134196E+00  0.51100000000E-03 0.  1.
         11    1    4    4    0    0 -0.21208115009E-01 -0.22894322365E-01  0.42845736286E-02  0.31504806474E-01  0.51100000000E-03 0. -1.
</event>
<event>
 8    1  0.1129602E+005  0.1043930E+01  0.7957747E-01            NaN
         13   -1    0    0    0    0  0.00000000000E+00  0.00000000000E+00  0.74505805969E-08  0.10566000000E+00  0.10566000000E+00 0.  1.
     999900   -1    0    0    0    0 -0.00000000000E+00 -0.00000000000E+00 -0.74505805969E-08  0.93827000000E+00  0.93827000000E+00 0.  1.
     999902    2    1    2    0    0  0.17704817999E-01 -0.22266452773E-02  0.14938406870E-01  0.10206582461E+01  0.10203929051E+01 0.  0.
     999903    2    3    3    0    0  0.81059551155E-01  0.88910779393E-03 -0.10080364651E+00  0.13081570214E+00  0.19491829836E-01 0.  0.
         14    1    1    2    0    0 -0.17704817999E-01  0.22266452773E-02 -0.14938406870E-01  0.23271753896E-01  0.00000000000E+00 0. -1.
     999901    1    3    3    0    0 -0.63354733156E-01 -0.31157530712E-02  0.11574205338E+00  0.88984254397E+00  0.88000000000E+00 0. -1.
        -11    1    4    4    0    0  0.42786862783E-01 -0.85966604215E-02 -0.58437810402E-01  0.72937349847E-01  0.51100000000E-03 0. -1.
         11    1    4    4    0    0  0.38272688373E-01  0.94857682154E-02 -0.42365836106E-01  0.57878352291E-01  0.51100000000E-03 0.  1.
</event>
<event>
 8    1  0.1129602E+005  0.1043930E+01  0.7957747E-01            NaN
         13   -1    0    0    0    0  0.00000000000E+00  0.00000000000E+00  0.74505805969E-08  0.10566000000E+00  0.10566000000E+00 0. -1.
     999900   -1    0    0    0    0 -0.00000000000E+00 -0.00000000000E+00 -0.74505805969E-08  0.93827000000E+00  0.93827000000E+00 0. -1.
     999902    2    1    2    0    0  0.17359097606E-01  0.43132641657E-02 -0.13739904856E-01  0.10213750116E+01  0.10211259407E+01 0.  0.
     999903    2    3    3    0    0 -0.10299831415E+00 -0.22708674053E-02  0.74690004279E-01  0.12876697543E+00  0.19711105180E-01 0.  0.
         14    1    1    2    0    0 -0.17359097606E-01 -0.43132641657E-02  0.13739904856E-01  0.22554988427E-01  0.00000000000E+00 0.  1.
     999901    1    3    3    0    0  0.12035741175E+00  0.65841315710E-02 -0.88429909135E-01  0.89260803614E+00  0.88000000000E+00 0. -1.
        -11    1    4    4    0    0 -0.21912305217E-01 -0.67383989002E-02  0.10350782479E-01  0.25158596117E-01  0.51100000000E-03 0.  1.
         11    1    4    4    0    0 -0.81086008929E-01  0.44675314950E-02  0.64339221800E-01  0.10360837932E+00  0.51100000000E-03 0. -1.
</event>
<event>
 8    1  0.1129602E+005  0.1043930E+01  0.7957747E-01            NaN
         13   -1    0    0    0    0  0.00000000000E+00  0.00000000000E+00  0.74505805969E-08  0.10566000000E+00  0.10566000000E+00 0.  1.
     999900   -1    0    0    0    0 -0.00000000000E+00 -0.00000000000E+00 -0.74505805969E-08  0.93827000000E+00  0.93827000000E+00 0. -1.
     999902    2    1    2    0    0 -0.22831522254E-01 -0.85077441462E-02  0.12283967808E-01  0.10166434468E+01  0.10162771974E+01 0.  0.
     999903    2    3    3    0    0 -0.49367758725E-02  0.23373035628E-01 -0.12173027105E+00  0.12574703181E+00  0.20576359470E-01 0.  0.
         14    1    1    2    0    0  0.22831522254E-01  0.85077441462E-02 -0.12283967808E-01  0.27286553171E-01  0.00000000000E+00 0. -1.
     999901    1    3    3    0    0 -0.17894746381E-01 -0.31880779774E-01  0.13401423886E+00  0.89089641501E+00  0.88000000000E+00 0.  1.
        -11    1    4    4    0    0 -0.12385225737E-01  0.89544217021E-02 -0.59156262816E-01  0.61100736787E-01  0.51100000000E-03 0. -1.
         11    1    4    4    0    0  0.74484498645E-02  0.14418613926E-01 -0.62574008237E-01  0.64646295027E-01  0.51100000000E-03 0.  1.
</event>
<event>
 8    1  0.1129602E+005  0.1043930E+01  0.7957747E-01            NaN
         13   -1    0    0    0    0  0.00000000000E+00  0.00000000000E+00  0.74505805969E-08  0.10566000000E+00  0.10566000000E+00 0. -1.
     999900   -1    0    0    0    0 -0.00000000000E+00 -0.00000000000E+00 -0.74505805969E-08  0.93827000000E+00  0.93827000000E+00 0. -1.
     999902    2    1    2    0    0 -0.72223032156E-02 -0.13942083583E-01  0.17996702676E-01  0.10200464352E+01  0.10197667897E+01 0.  0.
     999903    2    3    3    0    0 -0.11346345951E+00  0.99339038309E-04  0.64206408457E-01  0.13234170857E+00  0.22757381855E-01 0.  0.
         14    1    1    2    0    0  0.72223032156E-02  0.13942083583E-01 -0.17996702676E-01  0.23883564759E-01  0.00000000000E+00 0.  1.
     999901    1    3    3    0    0  0.10624115629E+00 -0.14041422621E-01 -0.46209705780E-01  0.88770472667E+00  0.88000000000E+00 0. -1.
        -11    1    4    4    0    0 -0.54724152026E-01  0.68320042216E-02  0.20593409251E-01  0.58870694936E-01  0.51100000000E-03 0.  1.
         11    1    4    4    0    0 -0.58739307485E-01 -0.67326651833E-02  0.43612999206E-01  0.73471013638E-01  0.51100000000E-03 0. -1.
</event>
<event>
 8    1  0.1129602E+005  0.1043930E+01  0.7957747E-01            NaN
         13   -1    0    0    0    0  0.00000000000E+00  0.00000000000E+00  0.74505805969E-08  0.10566000000E+00  0.10566000000E+00 0.  1.
     999900   -1    0    0    0    0 -0.00000000000E+00 -0.00000000000E+00 -0.74505805969E-08  0.93827000000E+00  0.93827000000E+00 0.  1.
     999902    2    1    2    0    0  0.16965883413E-01  0.14044572828E-01  0.96638683507E-02  0.10198783560E+01  0.10195947134E+01 0.  0.
     999903    2    3    3    0    0 -0.39819081339E-01  0.12332877478E+00 -0.36783227762E-03  0.13124558372E+00  0.20729737501E-01 0.  0.
         14    1    1    2    0    0 -0.16965883413E-01 -0.14044572828E-01 -0.96638683507E-02  0.24051643965E-01  0.00000000000E+00 0. -1.
     999901    1    3    3    0    0  0.56784964752E-01 -0.10928420195E+00  0.10031700628E-01  0.88863277232E+00  0.88000000000E+00 0. -1.
        -11    1    4    4    0    0 -0.15172546098E-01  0.56431259190E-01 -0.10051809790E-01  0.59295810728E-01  0.51100000000E-03 0. -1.
         11    1    4    4    0    0 -0.24646535240E-01  0.66897515593E-01  0.96839775123E-02  0.71949772990E-01  0.51100000000E-03 0.  1.
</event>
<event>
 8    1  0.1129602E+005  0.1043930E+01  0.7957747E-01            NaN
         13   -1    0    0    0    0  0.00000000000E+00  0.00000000000E+00  0.74505805969E-08  0.10566000000E+00  0.10566000000E+00 0. -1.
     999900   -1    0    0    0    0 -0.00000000000E+00 -0.00000000000E+00 -0.74505805969E-08  0.93827000000E+00  0.93827000000E+00 0.  1.
     999902    2    1    2    0    0  0.81233787915E-02  0.22438202672E-01 -0.75629004373E-02  0.10188968283E+01  0.10185892632E+01 0.  0.
     999903    2    3    3    0    0  0.88002707410E-01 -0.51270452610E-01  0.75427508472E-01  0.12833460085E+00  0.20182292180E-01 0.  0.
         14    1    1    2    0    0 -0.81233787915E-02 -0.22438202672E-01  0.75629004373E-02  0.25033171696E-01  0.00000000000E+00 0. -1.
     999901    1    3    3    0    0 -0.79879328618E-01  0.73708655282E-01 -0.82990408910E-01  0.89056222746E+00  0.88000000000E+00 0.  1.
        -11    1    4    4    0    0  0.67945167020E-01 -0.34915069876E-01  0.46132788269E-01  0.89241823717E-01  0.51100000000E-03 0.  1.
         11    1    4    4    0    0  0.20057540390E-01 -0.16355382733E-01  0.29294720203E-01  0.39092777129E-01  0.51100000000E-03 0. -1.
</event>
<event>
 8    1  0.1129602E+005  0.1043930E+01  0.7957747E-01            NaN
         13   -1    0    0    0    0  0.00000000000E+00  0.00000000000E+00  0.74505805969E-08  0.10566000000E+00  0.10566000000E+00 0. -1.
     999900   -1    0    0    0    0 -0.00000000000E+00 -0.00000000000E+00 -0.74505805969E-08  0.93827000000E+00  0.93827000000E+00 0.  1.
     999902    2    1    2    0    0 -0.12520049068E-01 -0.71663237900E-02  0.18115906996E-01  0.10207719795E+01  0.10205092554E+01 0.  0.
     999903    2    3    3    0    0 -0.35368186315E-01 -0.11644135816E+00 -0.44936307506E-01  0.13148088419E+00  0.21411508151E-01 0.  0.
         14    1    1    2    0    0  0.12520049068E-01  0.71663237900E-02 -0.18115906996E-01  0.23158020460E-01  0.00000000000E+00 0.  1.
     999901    1    3    3    0    0  0.22848137247E-01  0.10927503437E+00  0.63052214502E-01  0.88929109535E+00  0.88000000000E+00 0. -1.
        -11    1    4    4    0    0 -0.17551977948E-01 -0.66576022861E-01 -0.14366418173E-01  0.70335580199E-01  0.51100000000E-03 0.  1.
         11    1    4    4    0    0 -0.17816208367E-01 -0.49865335302E-01 -0.30569889334E-01  0.61145303992E-01  0.51100000000E-03 0. -1.
</event>
<event>
 8    1  0.1129602E+005  0.1043930E+01  0.7957747E-01            NaN
         13   -1    0    0    0    0  0.00000000000E+00  0.00000000000E+00  0.74505805969E-08  0.10566000000E+00  0.10566000000E+00 0.  1.
     999900   -1    0    0    0    0 -0.00000000000E+00 -0.00000000000E+00 -0.74505805969E-08  0.93827000000E+00  0.93827000000E+00 0.  1.
     999902    2    1    2    0    0  0.14366543385E-01  0.17636087281E-01  0.68026887347E-02  0.10201875124E+01  0.10199111994E+01 0.  0.
     999903    2    3    3    0    0 -0.60198762141E-01 -0.15554862187E-01 -0.11075876092E+00  0.12862578242E+00  0.20279153853E-01 0.  0.
         14    1    1    2    0    0 -0.14366543385E-01 -0.17636087281E-01 -0.68026887347E-02  0.23742487600E-01  0.00000000000E+00 0. -1.
     999901    1    3    3    0    0  0.74565305527E-01  0.33190949468E-01  0.11756144966E+00  0.89156172998E+00  0.88000000000E+00 0. -1.
        -11    1    4    4    0    0 -0.45410588781E-01 -0.16465383483E-01 -0.68323960494E-01  0.83675893334E-01  0.51100000000E-03 0. -1.
         11    1    4    4    0    0 -0.14788173360E-01  0.91052129627E-03 -0.42434800431E-01  0.44949889088E-01  0.51100000000E-03 0.  1.
</event>
<event>
 8    1  0.1129602E+005  0.1043930E+01  0.7957747E-01            NaN
         13   -1    0    0    0    0  0.00000000000E+00  0.00000000000E+00  0.74505805969E-08  0.10566000000E+00  0.10566000000E+00 0. -1.
     999900   -1    0    0    0    0 -0.00000000000E+00 -0.00000000000E+00 -0.74505805969E-08  0.93827000000E+00  0.93827000000E+00 0. -1.
     999902    2    1    2    0    0 -0.18465695095E-02  0.14713165958E-01 -0.18253357859E-01  0.10204125141E+01  0.10201414739E+01 0.  0.
     999903    2    3    3    0    0  0.46820530987E-01 -0.41337088882E-01  0.11024774503E+00  0.12798736248E+00  0.18035593465E-01 0.  0.
         14    1    1    2    0    0  0.18465695095E-02 -0.14713165958E-01  0.18253357859E-01  0.23517485932E-01  0.00000000000E+00 0. -1.
     999901    1    3    3    0    0 -0.48667100497E-01  0.56050254840E-01 -0.12850110289E+00  0.89242515159E+00  0.88000000000E+00 0. -1.
        -11    1    4    4    0    0  0.34475199851E-01 -0.32371937362E-01  0.96400778091E-01  0.10737715246E+00  0.51100000000E-03 0.  1.
         11    1    4    4    0    0  0.12345331136E-01 -0.89651515196E-02  0.13846966940E-01  0.20610210020E-01  0.51100000000E-03 0. -1.
</event>
<event>
 8    1  0.1129602E+005  0.1043930E+01  0.7957747E-01            NaN
         13   -1    0    0    0    0  0.00000000000E+00  0.00000000000E+00  0.74505805969E-08  0.10566000000E+00  0.10566000000E+00 0. -1.
     999900   -1    0    0    0    0 -0.00000000000E+00 -0.00000000000E+00 -0.74505805969E-08  0.93827000000E+00  0.93827000000E+00 0. -1.
     999902    2    1    2    0    0  0.20009729268E-01 -0.93736377267E-02  0.88707235257E-02  0.10201194123E+01  0.10198414932E+01 0.  0.
     999903    2    3    3    0    0  0.72179437030E-01 -0.73351593307E-01  0.82330532802E-01  0.13320836786E+00  0.19386213315E-01 0.  0.
         14    1    1    2    0    0 -0.20009729268E-01  0.93736377267E-02 -0.88707235257E-02  0.23810587676E-01  0.00000000000E+00 0.  1.
     999901    1    3    3    0    0 -0.52169707762E-01  0.63977955580E-01 -0.73459809276E-01  0.88691104446E+00  0.88000000000E+00 0. -1.
        -11    1    4    4    0    0  0.72262557796E-02 -0.16891983518E-01  0.18319315370E-01  0.25950266210E-01  0.51100000000E-03 0.  1.
         11    1    4    4    0    0  0.64953181250E-01 -0.56459609789E-01  0.64011217432E-01  0.10725810165E+00  0.51100000000E-03 0. -1.
</event>
<event>
 8    1  0.1129602E+005  0.1043930E+01  0.7957747E-01            NaN
         13   -1    0    0    0    0  0.00000000000E+00  0.00000000000E+00  0.74505805969E-08  0.10566000000E+00  0.10566000000E+00 0.  1.
     999900   -1    0    0    0    0 -0.00000000000E+00 -0.00000000000E+00 -0.74505805969E-08  0.93827000000E+00  0.93827000000E+00 0. -1.
     999902    2    1    2    0    0  0.11848095110E-01  0.76270340897E-02  0.19092825525E-01  0.10202005880E+01  0.10199245829E+01 0.  0.
     999903    2    3    3    0    0 -0.74637009334E-01 -0.23191161148E-01 -0.98795255659E-01  0.12760491575E+00  0.20346962093E-01 0.  0.
         14    1    1    2    0    0 -0.11848095110E-01 -0.76270340897E-02 -0.19092825525E-01  0.23729411987E-01  0.00000000000E+00 0.  1.
     999901    1    3    3    0    0  0.86485104444E-01  0.30818195237E-01  0.11788808118E+00  0.89259567226E+00  0.88000000000E+00 0.  1.
        -11    1    4    4    0    0 -0.18944905251E-01  0.23540890199E-02 -0.29075002002E-01  0.34786032147E-01  0.51100000000E-03 0.  1.
         11    1    4    4    0    0 -0.55692104083E-01 -0.25545250168E-01 -0.69720253657E-01  0.92818883608E-01  0.51100000000E-03 0. -1.
</event>
<event>
 8    1  0.1129602E+005  0.1043930E+01  0.7957747E-01            NaN
         13   -1    0    0    0    0  0.00000000000E+00  0.00000000000E+00  0.74505805969E-08  0.10566000000E+00  0.10566000000E+00 0. -1.
     999900   -1    0    0    0    0 -0.00000000000E+00 -0.00000000000E+00 -0.74505805969E-08  0.93827000000E+00  0.93827000000E+00 0.  1.
     999902    2    1    2    0    0 -0.14803039992E-01  0.15469330807E-01  0.11071838929E-01  0.10198257305E+01  0.10195408304E+01 0.  0.
     999903    2    3    3    0    0  0.94830233080E-02 -0.95725392552E-01  0.84359176742E-01  0.12947461258E+00  0.19847571456E-01 0.  0.
         14    1    1    2    0    0  0.14803039992E-01 -0.15469330807E-01 -0.11071838929E-01  0.24104269454E-01  0.00000000000E+00 0.  1.
     999901    1    3    3    0    0 -0.24286063300E-01  0.11119472336E+00 -0.73287337813E-01  0.89035111796E+00  0.88000000000E+00 0.  1.
        -11    1    4    4    0    0  0.55542203312E-02 -0.59176046044E-01  0.39013039266E-01  0.71098045984E-01  0.51100000000E-03 0. -1.
         11    1    4    4    0    0  0.39288029768E-02 -0.36549346508E-01  0.45346137476E-01  0.58376566600E-01  0.51100000000E-03 0.  1.
</event>
<event>
 8    1  0.1129602E+005  0.1043930E+01  0.7957747E-01            NaN
         13   -1    0    0    0    0  0.00000000000E+00  0.00000000000E+00  0.74505805969E-08  0.10566000000E+00  0.10566000000E+00 0.  1.
     999900   -1    0    0    0    0 -0.00000000000E+00 -0.00000000000E+00 -0.74505805969E-08  0.93827000000E+00  0.93827000000E+00 0.  1.
     999902    2    1    2    0    0  0.11672976742E-01 -0.70559610662E-02 -0.20610655021E-01  0.10192147401E+01  0.10189150319E+01 0.  0.
     999903    2    3    3    0    0 -0.85676215584E-01 -0.57555774171E-01 -0.77515391479E-01  0.13058363247E+00  0.19757735119E-01 0.  0.
         14    1    1    2    0    0 -0.11672976742E-01  0.70559610662E-02  0.20610655021E-01  0.24715259922E-01  0.00000000000E+00 0.  1.
     999901    1    3    3    0    0  0.97349192325E-01  0.50499813104E-01  0.56904736457E-01  0.88863110760E+00  0.88000000000E+00 0. -1.
        -11    1    4    4    0    0 -0.70213907176E-01 -0.43480805042E-01 -0.70305360845E-01  0.10846049074E+00  0.51100000000E-03 0. -1.
         11    1    4    4    0    0 -0.15462308407E-01 -0.14074969128E-01 -0.72100306336E-02  0.22123141730E-01  0.51100000000E-03 0.  1.
</event>
<event>
 8    1  0.1129602E+005  0.1043930E+01  0.7957747E-01            NaN
         13   -1    0    0    0    0  0.00000000000E+00  0.00000000000E+00  0.74505805969E-08  0.10566000000E+00  0.10566000000E+00 0. -1.
     999900   -1    0    0    0    0 -0.00000000000E+00 -0.00000000000E+00 -0.74505805969E-08  0.93827000000E+00  0.93827000000E+00 0. -1.
     999902    2    1    2    0    0  0.23598858529E-01  0.38427058292E-02 -0.25935691595E-02  0.10198800704E+01  0.10195964687E+01 0.  0.
     999903    2    3    3    0    0 -0.56745722514E-01  0.11266113972E+00  0.20064077441E-01  0.12925665269E+00  0.19801657336E-01 0.  0.
         14    1    1    2    0    0 -0.23598858529E-01 -0.38427058292E-02  0.25935691595E-02  0.24049929583E-01  0.00000000000E+00 0. -1.
     999901    1    3    3    0    0  0.80344581043E-01 -0.10881843389E+00 -0.22657646600E-01  0.89062341773E+00  0.88000000000E+00 0.  1.
        -11    1    4    4    0    0 -0.27032749738E-01  0.48328243577E-01 -0.80332659675E-03  0.55383166578E-01  0.51100000000E-03 0. -1.
         11    1    4    4    0    0 -0.29712972776E-01  0.64332896146E-01  0.20867404037E-01  0.73873486110E-01  0.51100000000E-03 0.  1.
</event>
<event>
 8    1  0.1129602E+005  0.1043930E+01  0.7957747E-01            NaN
         13   -1    0    0    0    0  0.00000000000E+00  0.00000000000E+00  0.74505805969E-08  0.10566000000E+00  0.10566000000E+00 0. -1.
     999900   -1    0    0    0    0 -0.00000000000E+00 -0.00000000000E+00 -0.74505805969E-08  0.93827000000E+00  0.93827000000E+00 0.  1.
     999902    2    1    2    0    0  0.11443132197E-01  0.13130835542E-01 -0.16548275803E-01  0.10199048143E+01  0.10196218028E+01 0.  0.
     999903    2    3    3    0    0  0.21594311230E-01  0.10993258175E+00  0.64165847246E-01  0.13086691062E+00  0.21387041255E-01 0.  0.
         14    1    1    2    0    0 -0.11443132197E-01 -0.13130835542E-01  0.16548275803E-01  0.24025185713E-01  0.00000000000E+00 0. -1.
     999901    1    3    3    0    0 -0.10151179032E-01 -0.96801746208E-01 -0.80714123049E-01  0.88903790367E+00  0.88000000000E+00 0.  1.
        -11    1    4    4    0    0  0.18733534393E-01  0.52364168588E-01  0.23791014269E-01  0.60491527867E-01  0.51100000000E-03 0.  1.
         11    1    4    4    0    0  0.28607768370E-02  0.57568413162E-01  0.40374832977E-01  0.70375382749E-01  0.51100000000E-03 0. -1.
</event>
<event>
 8    1  0.1129602E+005  0.1043930E+01  0.7957747E-01            NaN
         13   -1    0    0    0    0  0.00000000000E+00  0.00000000000E+00  0.74505805969E-08  0.10566000000E+00  0.10566000000E+00 0. -1.
     999900   -1    0    0    0    0 -0.00000000000E+00 -0.00000000000E+00 -0.74505805969E-08  0.93827000000E+00  0.93827000000E+00 0.  1.
     999902    2    1    2    0    0 -0.18571681324E-01  0.14309656918E-01  0.11946992562E-01  0.10176164244E+01  0.10172761587E+01 0.  0.
     999903    2    3    3    0    0  0.10242573869E+00 -0.27462119983E-01  0.66255442025E-01  0.12669854680E+00  0.20433751068E-01 0.  0.
         14    1    1    2    0    0  0.18571681324E-01 -0.14309656918E-01 -0.11946992562E-01  0.26313575576E-01  0.00000000000E+00 0.  1.
     999901    1    3    3    0    0 -0.12099742001E+00  0.41771776901E-01 -0.54308449463E-01  0.89091787763E+00  0.88000000000E+00 0.  1.
        -11    1    4    4    0    0  0.36981103867E-01 -0.19078066586E-01  0.20391421115E-01  0.46342700007E-01  0.51100000000E-03 0. -1.
         11    1    4    4    0    0  0.65444634819E-01 -0.83840533978E-02  0.45864020911E-01  0.80355846788E-01  0.51100000000E-03 0.  1.
</event>
<event>
 8    1  0.1129602E+005  0.1043930E+01  0.7957747E-01            NaN
         13   -1    0    0    0    0  0.00000000000E+00  0.00000000000E+00  0.74505805969E-08  0.10566000000E+00  0.10566000000E+00 0.  1.
     999900   -1    0    0    0    0 -0.00000000000E+00 -0.00000000000E+00 -0.74505805969E-08  0.93827000000E+00  0.93827000000E+00 0.  1.
     999902    2    1    2    0    0  0.61055390899E-02 -0.21776329923E-01 -0.51170533435E-02  0.10207422794E+01  0.10204788731E+01 0.  0.
     999903    2    3    3    0    0 -0.75672657846E-01 -0.97619994056E-01  0.43151127673E-01  0.13239001131E+00  0.20225748228E-01 0.  0.
         14    1    1    2    0    0 -0.61055390899E-02  0.21776329923E-01  0.51170533435E-02  0.23187720617E-01  0.00000000000E+00 0.  1.
     999901    1    3    3    0    0  0.81778196936E-01  0.75843664133E-01 -0.48268181017E-01  0.88835226807E+00  0.88000000000E+00 0.  1.
        -11    1    4    4    0    0 -0.51992034926E-01 -0.58948306474E-01  0.36100660522E-01  0.86496204212E-01  0.51100000000E-03 0. -1.
         11    1    4    4    0    0 -0.23680622920E-01 -0.38671687582E-01  0.70504671509E-02  0.45893807103E-01  0.51100000000E-03 0.  1.
</event>
<event>
 8    1  0.1129602E+005  0.1043930E+01  0.7957747E-01            NaN
         13   -1    0    0    0    0  0.00000000000E+00  0.00000000000E+00  0.74505805969E-08  0.10566000000E+00  0.10566000000E+00 0. -1.
     999900   -1    0    0    0    0 -0.00000000000E+00 -0.00000000000E+00 -0.74505805969E-08  0.93827000000E+00  0.93827000000E+00 0.  1.
     999902    2    1    2    0    0  0.12720657684E-02  0.17528668204E-01  0.17008026914E-01  0.10194729900E+01  0.10191795877E+01 0.  0.
     999903    2    3    3    0    0  0.11134743169E+00 -0.74028454400E-02  0.65521025777E-01  0.13093954793E+00  0.19977680779E-01 0.  0.
         14    1    1    2    0    0 -0.12720657684E-02 -0.17528668204E-01 -0.17008026914E-01  0.24457010034E-01  0.00000000000E+00 0.  1.
     999901    1    3    3    0    0 -0.11007536592E+00  0.24931513644E-01 -0.48512998863E-01  0.88853344203E+00  0.88000000000E+00 0.  1.
        -11    1    4    4    0    0  0.65763742477E-01 -0.14407251644E-02  0.27573806924E-01  0.71326863543E-01  0.51100000000E-03 0.  1.
         11    1    4    4    0    0  0.45583689211E-01 -0.59621202756E-02  0.37947218852E-01  0.59612684388E-01  0.51100000000E-03 0. -1.
</event>
<event>
 8    1  0.1129602E+005  0.1043930E+01  0.7957747E-01            NaN
         13   -1    0    0    0    0  0.00000000000E+00  0.00000000000E+00  0.74505805969E-08  0.10566000000E+00  0.10566000000E+00 0. -1.
     999900   -1    0    0    0    0 -0.00000000000E+00 -0.00000000000E+00 -0.74505805969E-08  0.93827000000E+00  0.93827000000E+00 0.  1.
     999902    2    1    2    0    0  0.12566999762E-01 -0.16181382395E-01 -0.12109615524E-01  0.10201306427E+01  0.10198529888E+01 0.  0.
     999903    2    3    3    0    0  0.95226756078E-01 -0.90327353847E-01 -0.95933267203E-02  0.13314891116E+00  0.20234492804E-01 0.  0.
         14    1    1    2    0    0 -0.12566999762E-01  0.16181382395E-01  0.12109615524E-01  0.23799357289E-01  0.00000000000E+00 0. -1.
     999901    1    3    3    0    0 -0.82659756316E-01  0.74145971452E-01 -0.25162888034E-02  0.88698173155E+00  0.88000000000E+00 0.  1.
        -11    1    4    4    0    0  0.42841029287E-01 -0.40601254708E-01  0.57549991889E-02  0.59305959321E-01  0.51100000000E-03 0.  1.
         11    1    4    4    0    0  0.52385726791E-01 -0.49726099139E-01 -0.15348325909E-01  0.73842951839E-01  0.51100000000E-03 0. -1.
</event>
<event>
 8    1  0.1129602E+005  0.1043930E+01  0.7957747E-01            NaN
         13   -1    0    0    0    0  0.00000000000E+00  0.00000000000E+00  0.74505805969E-08  0.10566000000E+00  0.10566000000E+00 0. -1.
     999900   -1    0    0    0    0 -0.00000000000E+00 -0.00000000000E+00 -0.74505805969E-08  0.93827000000E+00  0.93827000000E+00 0.  1.
     999902    2    1    2    0    0 -0.21875420697E-01 -0.87394634594E-02  0.38587936843E-03  0.10203702641E+01  0.10200982378E+01 0.  0.
     999903    2    3    3    0    0 -0.18817372206E-01 -0.12930040532E+00  0.20305316933E-02  0.13214338023E+00  0.19622985711E-01 0.  0.
         14    1    1    2    0    0  0.21875420697E-01  0.87394634594E-02 -0.38587936843E-03  0.23559735888E-01  0.00000000000E+00 0.  1.
     999901    1    3    3    0    0 -0.30580484917E-02  0.12056094186E+00 -0.16446523248E-02  0.88822688388E+00  0.88000000000E+00 0. -1.
        -11    1    4    4    0    0 -0.17537036563E-01 -0.83543749266E-01 -0.63627472571E-02  0.85602870083E-01  0.51100000000E-03 0. -1.
         11    1    4    4    0    0 -0.12803356424E-02 -0.45756656053E-01  0.83932789504E-02  0.46540510150E-01  0.51100000000E-03 0.  1.
</event>
<event>
 8    1  0.1129602E+005  0.1043930E+01  0.7957747E-01            NaN
         13   -1    0    0    0    0  0.00000000000E+00  0.00000000000E+00  0.74505805969E-08  0.10566000000E+00  0.10566000000E+00 0. -1.
     999900   -1    0    0    0    0 -0.00000000000E+00 -0.00000000000E+00 -0.74505805969E-08  0.93827000000E+00  0.93827000000E+00 0. -1.
     999902    2    1    2    0    0 -0.13990586181E-01  0.18375580882E-01 -0.73776407388E-02  0.10196848344E+01  0.10193965535E+01 0.  0.
     999903    2    3    3    0    0 -0.74924307960E-01  0.85891813226E-01  0.63997866020E-01  0.13212310521E+00  0.19228431335E-01 0.  0.
         14    1    1    2    0    0  0.13990586181E-01 -0.18375580882E-01  0.73776407388E-02  0.24245165648E-01  0.00000000000E+00 0.  1.
     999901    1    3    3    0    0  0.60933721779E-01 -0.67516232345E-01 -0.71375506759E-01  0.88756172915E+00  0.88000000000E+00 0. -1.
        -11    1    4    4    0    0 -0.74628258303E-01  0.79039168688E-01  0.60494373463E-01  0.12440416981E+00  0.51100000000E-03 0.  1.
         11    1    4    4    0    0 -0.29604965728E-03  0.68526445383E-02  0.35034925577E-02  0.77189353975E-02  0.51100000000E-03 0. -1.
</event>
<event>
 8    1  0.1129602E+005  0.1043930E+01  0.7957747E-01            NaN
         13   -1    0    0    0    0  0.00000000000E+00  0.00000000000E+00  0.74505805969E-08  0.10566000000E+00  0.10566000000E+00 0. -1.
     999900   -1    0    0    0    0 -0.00000000000E+00 -0.00000000000E+00 -0.74505805969E-08  0.93827000000E+00  0.93827000000E+00 0. -1.
     999902    2    1    2    0    0 -0.14780164429E-01 -0.15622064525E-01 -0.11982508221E-01  0.10193112538E+01  0.10190139103E+01 0.  0.
     999903    2    3    3    0    0 -0.44178944159E-01  0.55205976401E-02  0.11918424101E+00  0.12885293558E+00  0.20394597237E-01 0.  0.
         14    1    1    2    0    0  0.14780164429E-01  0.15622064525E-01  0.11982508221E-01  0.24618746187E-01  0.00000000000E+00 0. -1.
     999901    1    3    3    0    0  0.29398779730E-01 -0.21142662165E-01 -0.13116674923E+00  0.89045831824E+00  0.88000000000E+00 0. -1.
        -11    1    4    4    0    0 -0.15935478032E-01 -0.93803504714E-03  0.69720452864E-01  0.71526373027E-01  0.51100000000E-03 0.  1.
         11    1    4    4    0    0 -0.28243466127E-01  0.64586326872E-02  0.49463788145E-01  0.57326562549E-01  0.51100000000E-03 0. -1.
</event>
<event>
 8    1  0.1129602E+005  0.1043930E+01  0.7957747E-01            NaN
         13   -1    0    0    0    0  0.00000000000E+00  0.00000000000E+00  0.74505805969E-08  0.10566000000E+00  0.10566000000E+00 0.  1.
     999900   -1    0    0    0    0 -0.00000000000E+00 -0.00000000000E+00 -0.74505805969E-08  0.93827000000E+00  0.93827000000E+00 0. -1.
     999902    2    1    2    0    0 -0.21065833988E-01 -0.64849983924E-02 -0.31526139740E-02  0.10216642519E+01  0.10214215976E+01 0.  0.
     999903    2    3    3    0    0 -0.48729597161E-01 -0.63433552415E-01  0.10425289964E+00  0.13287610727E+00  0.19723173893E-01 0.  0.
         14    1    1    2    0    0  0.21065833988E-01  0.64849983924E-02  0.31526139740E-02  0.22265748149E-01  0.00000000000E+00 0. -1.
     999901    1    3    3    0    0  0.27663763173E-01  0.56948554023E-01 -0.10740551361E+00  0.88878814458E+00  0.88000000000E+00 0. -1.
        -11    1    4    4    0    0 -0.32435824903E-01 -0.54372066626E-01  0.74606728764E-01  0.97851057553E-01  0.51100000000E-03 0.  1.
         11    1    4    4    0    0 -0.16293772258E-01 -0.90614857890E-02  0.29646170872E-01  0.35025049714E-01  0.51100000000E-03 0. -1.
</event>
<event>
 8    1  0.1129602E+005  0.1043930E+01  0.7957747E-01            NaN
         13   -1    0    0    0    0  0.00000000000E+00  0.00000000000E+00  0.74505805969E-08  0.10566000000E+00  0.10566000000E+00 0.  1.
     999900   -1    0    0    0    0 -0.00000000000E+00 -0.00000000000E+00 -0.74505805969E-08  0.93827000000E+00  0.93827000000E+00 0. -1.
     999902    2    1    2    0    0  0.13862680536E-01 -0.17351498071E-01 -0.92212536677E-02  0.10198825487E+01  0.10195990060E+01 0.  0.
     999903    2    3    3    0    0 -0.39325989259E-01  0.56690461227E-01  0.10440583739E+00  0.12790588856E+00  0.26438525342E-01 0.  0.
         14    1    1    2    0    0 -0.13862680536E-01  0.17351498071E-01  0.92212536677E-02  0.24047451344E-01  0.00000000000E+00 0. -1.
     999901    1    3    3    0    0  0.53188669794E-01 -0.74041959298E-01 -0.11362709106E+00  0.89197666009E+00  0.88000000000E+00 0.  1.
        -11    1    4    4    0    0 -0.11970729024E-01  0.47585669662E-02  0.33260792942E-01  0.35671890629E-01  0.51100000000E-03 0.  1.
         11    1    4    4    0    0 -0.27355260234E-01  0.51931894261E-01  0.71145044448E-01  0.92233997932E-01  0.51100000000E-03 0. -1.
</event>
<event>
 8    1  0.1129602E+005  0.1043930E+01  0.7957747E-01            NaN
         13   -1    0    0    0    0  0.00000000000E+00  0.00000000000E+00  0.74505805969E-08  0.10566000000E+00  0.10566000000E+00 0. -1.
     999900   -1    0    0    0    0 -0.00000000000E+00 -0.00000000000E+00 -0.74505805969E-08  0.93827000000E+00  0.93827000000E+00 0. -1.
     999902    2    1    2    0    0 -0.87636476088E-02 -0.17768357691E-02 -0.21645871905E-01  0.10205098712E+01  0.10202410964E+01 0.  0.
     999903    2    3    3    0    0 -0.96669899376E-01 -0.43536237312E-01  0.72683468357E-01  0.13013389374E+00  0.20284731275E-01 0.  0.
         14    1    1    2    0    0  0.87636476088E-02  0.17768357691E-02  0.21645871905E-01  0.23420128849E-01  0.00000000000E+00 0. -1.
     999901    1    3    3    0    0  0.87906251767E-01  0.41759401543E-01 -0.94329340262E-01  0.89037597741E+00  0.88000000000E+00 0. -1.
        -11    1    4    4    0    0 -0.21752091759E-01 -0.19489796688E-01  0.17942875826E-01  0.34281388314E-01  0.51100000000E-03 0. -1.
         11    1    4    4    0    0 -0.74917807617E-01 -0.24046440624E-01  0.54740592531E-01  0.95852505426E-01  0.51100000000E-03 0.  1.
</event>
<event>
 8    1  0.1129602E+005  0.1043930E+01  0.7957747E-01            NaN
         13   -1    0    0    0    0  0.00000000000E+00  0.00000000000E+00  0.74505805969E-08  0.10566000000E+00  0.10566000000E+00 0.  1.
     999900   -1    0    0    0    0 -0.00000000000E+00 -0.00000000000E+00 -0.74505805969E-08  0.93827000000E+00  0.93827000000E+00 0.  1.
     999902    2    1    2    0    0  0.15988168454E-01  0.56963687586E-02 -0.16097383964E-01  0.10205377808E+01  0.10202696537E+01 0.  0.
     999903    2    3    3    0    0  0.12569523588E-01  0.20249936992E-02  0.12685124289E+00  0.12898886122E+00  0.19616191628E-01 0.  0.
         14    1    1    2    0    0 -0.15988168454E-01 -0.56963687586E-02  0.16097383964E-01  0.23392219177E-01  0.00000000000E+00 0.  1.
     999901    1    3    3    0    0  0.34186448653E-02  0.36713750595E-02 -0.14294862685E+00  0.89154891960E+00  0.88000000000E+00 0.  1.
        -11    1    4    4    0    0  0.68168943951E-02  0.87056197597E-02  0.34869178115E-01  0.36583856659E-01  0.51100000000E-03 0.  1.
         11    1    4    4    0    0  0.57526291931E-02 -0.66806260606E-02  0.91982064772E-01  0.92405004560E-01  0.51100000000E-03 0. -1.
</event>
<event>
 8    1  0.1129602E+005  0.1043930E+01  0.7957747E-01            NaN
         13   -1    0    0    0    0  0.00000000000E+00  0.00000000000E+00  0.74505805969E-08  0.10566000000E+00  0.10566000000E+00 0. -1.
     999900   -1    0    0    0    0 -0.00000000000E+00 -0.00000000000E+00 -0.74505805969E-08  0.93827000000E+00  0.93827000000E+00 0.  1.
     999902    2    1    2    0    0 -0.82863850191E-02  0.10012968370E-01  0.19842539905E-01  0.10202097533E+01  0.10199339639E+01 0.  0.
     999903    2    3    3    0    0  0.70893062591E-01  0.76767276928E-01 -0.71130138752E-01  0.12947884509E+00  0.28039856560E-01 0.  0.
         14    1    1    2    0    0  0.82863850191E-02 -0.10012968370E-01 -0.19842539905E-01  0.23720246671E-01  0.00000000000E+00 0. -1.
     999901    1    3    3    0    0 -0.79179447610E-01 -0.66754308558E-01  0.90972678657E-01  0.89073090824E+00  0.88000000000E+00 0.  1.
        -11    1    4    4    0    0  0.32714148507E-01  0.54943404475E-01 -0.46558749960E-01  0.79101021021E-01  0.51100000000E-03 0.  1.
         11    1    4    4    0    0  0.38178914083E-01  0.21823872453E-01 -0.24571388792E-01  0.50377824066E-01  0.51100000000E-03 0. -1.
</event>
<event>
 8    1  0.1129602E+005  0.1043930E+01  0.7957747E-01            NaN
         13   -1    0    0    0    0  0.00000000000E+00  0.00000000000E+00  0.74505805969E-08  0.10566000000E+00  0.10566000000E+00 0. -1.
     999900   -1    0    0    0    0 -0.00000000000E+00 -0.00000000000E+00 -0.74505805969E-08  0.93827000000E+00  0.93827000000E+00 0.  1.
     999902    2    1    2    0    0  0.78770470685E-02  0.16489876882E-01 -0.14213587486E-01  0.10207785426E+01  0.10205159690E+01 0.  0.
     999903    2    3    3    0    0  0.10853589462E+00  0.22434272001E-01 -0.70944573193E-01  0.13320547848E+00  0.20669544032E-01 0.  0.
         14    1    1    2    0    0 -0.78770470685E-02 -0.16489876882E-01  0.14213587486E-01  0.23151457391E-01  0.00000000000E+00 0.  1.
     999901    1    3    3    0    0 -0.10065884755E+00 -0.59443951185E-02  0.56730985708E-01  0.88757306413E+00  0.88000000000E+00 0. -1.
        -11    1    4    4    0    0  0.46177030974E-01  0.41577183816E-03 -0.34907689388E-01  0.57890404690E-01  0.51100000000E-03 0. -1.
         11    1    4    4    0    0  0.62358863648E-01  0.22018500163E-01 -0.36036883805E-01  0.75315073792E-01  0.51100000000E-03 0.  1.
</event>
<event>
 8    1  0.1129602E+005  0.1043930E+01  0.7957747E-01            NaN
         13   -1    0    0    0    0  0.00000000000E+00  0.00000000000E+00  0.74505805969E-08  0.10566000000E+00  0.10566000000E+00 0.  1.
     999900   -1    0    0    0    0 -0.00000000000E+00 -0.00000000000E+00 -0.74505805969E-08  0.93827000000E+00  0.93827000000E+00 0.  1.
     999902    2    1    2    0    0  0.16253786270E-01  0.98766431360E-02  0.12555450095E-01  0.10211402441E+01  0.10208859021E+01 0.  0.
     999903    2    3    3    0    0  0.12621270912E+00 -0.30632940894E-01  0.20106699514E-01  0.13334014694E+00  0.22523108374E-01 0.  0.
         14    1    1    2    0    0 -0.16253786270E-01 -0.98766431360E-02 -0.12555450095E-01  0.22789755919E-01  0.00000000000E+00 0. -1.
     999901    1    3    3    0    0 -0.10995892285E+00  0.40509584030E-01 -0.75512494184E-02  0.88780009714E+00  0.88000000000E+00 0. -1.
        -11    1    4    4    0    0  0.96589762647E-01 -0.29741009061E-01  0.22706737817E-01  0.10358555368E+00  0.51100000000E-03 0.  1.
         11    1    4    4    0    0  0.29622946470E-01 -0.89193183273E-03 -0.26000383031E-02  0.29754593261E-01  0.51100000000E-03 0. -1.
</event>
<event>
 8    1  0.1129602E+005  0.1043930E+01  0.7957747E-01            NaN
         13   -1    0    0    0    0  0.00000000000E+00  0.00000000000E+00  0.74505805969E-08  0.10566000000E+00  0.10566000000E+00 0. -1.
     999900   -1    0    0    0    0 -0.00000000000E+00 -0.00000000000E+00 -0.74505805969E-08  0.93827000000E+00  0.93827000000E+00 0. -1.
     999902    2    1    2    0    0 -0.74335019796E-02 -0.21617418752E-01  0.91356183898E-02  0.10193123383E+01  0.10190150213E+01 0.  0.
     999903    2    3    3    0    0 -0.66107454704E-01  0.10172873706E+00  0.36668650559E-01  0.12834939026E+00  0.20249556414E-01 0.  0.
         14    1    1    2    0    0  0.74335019796E-02  0.21617418752E-01 -0.91356183898E-02  0.24617661720E-01  0.00000000000E+00 0. -1.
     999901    1    3    3    0    0  0.58673952724E-01 -0.12334615581E+00 -0.27533032169E-01  0.89096294802E+00  0.88000000000E+00 0. -1.
        -11    1    4    4    0    0 -0.37758845742E-01  0.41214284484E-01  0.12442430090E-01  0.57266245423E-01  0.51100000000E-03 0.  1.
         11    1    4    4    0    0 -0.28348608962E-01  0.60514452578E-01  0.24226220469E-01  0.71083144838E-01  0.51100000000E-03 0. -1.
</event>
<event>
 8    1  0.1129602E+005  0.1043930E+01  0.7957747E-01            NaN
         13   -1    0    0    0    0  0.00000000000E+00  0.00000000000E+00  0.74505805969E-08  0.10566000000E+00  0.10566000000E+00 0.  1.
     999900   -1    0    0    0    0 -0.00000000000E+00 -0.00000000000E+00 -0.74505805969E-08  0.93827000000E+00  0.93827000000E+00 0.  1.
     999902    2    1    2    0    0  0.31169720872E-02 -0.21206218375E-01  0.10847583480E-01  0.10199073174E+01  0.10196243655E+01 0.  0.
     999903    2    3    3    0    0 -0.88100308036E-01 -0.39326676422E-01 -0.84537454773E-01  0.12988077356E+00  0.20351469863E-01 0.  0.
         14    1    1    2    0    0 -0.31169720872E-02  0.21206218375E-01 -0.10847583480E-01  0.24022682617E-01  0.00000000000E+00 0.  1.
     999901    1    3    3    0    0  0.91217280124E-01  0.18120458047E-01  0.95385038253E-01  0.89002654383E+00  0.88000000000E+00 0. -1.
        -11    1    4    4    0    0 -0.20066351394E-01 -0.49185531317E-02 -0.28754894295E-01  0.35411236777E-01  0.51100000000E-03 0.  1.
         11    1    4    4    0    0 -0.68033956643E-01 -0.34408123291E-01 -0.55782560478E-01  0.94469536780E-01  0.51100000000E-03 0. -1.
</event>
<event>
 8    1  0.1129602E+005  0.1043930E+01  0.7957747E-01            NaN
         13   -1    0    0    0    0  0.00000000000E+00  0.00000000000E+00  0.74505805969E-08  0.10566000000E+00  0.10566000000E+00 0.  1.
     999900   -1    0    0    0    0 -0.00000000000E+00 -0.00000000000E+00 -0.74505805969E-08  0.93827000000E+00  0.93827000000E+00 0.  1.
     999902    2    1    2    0    0  0.13920182440E-01 -0.72289608870E-02  0.17525582237E-01  0.10204103191E+01  0.10201392278E+01 0.  0.
     999903    2    3    3    0    0 -0.60757003583E-01  0.11075103904E+00  0.19664055742E-01  0.12939935650E+00  0.20007804494E-01 0.  0.
         14    1    1    2    0    0 -0.13920182440E-01  0.72289608870E-02 -0.17525582237E-01  0.23519680853E-01  0.00000000000E+00 0. -1.
     999901    1    3    3    0    0  0.74677186023E-01 -0.11797999993E+00 -0.21384735047E-02  0.89101096265E+00  0.88000000000E+00 0.  1.
        -11    1    4    4    0    0 -0.28733863231E-01  0.38708209172E-01  0.28273078285E-03  0.48211009232E-01  0.51100000000E-03 0.  1.
         11    1    4    4    0    0 -0.32023140353E-01  0.72042829868E-01  0.19381324959E-01  0.81188347265E-01  0.51100000000E-03 0. -1.
</event>
<event>
 8    1  0.1129602E+005  0.1043930E+01  0.7957747E-01            NaN
         13   -1    0    0    0    0  0.00000000000E+00  0.00000000000E+00  0.74505805969E-08  0.10566000000E+00  0.10566000000E+00 0. -1.
     999900   -1    0    0    0    0 -0.00000000000E+00 -0.00000000000E+00 -0.74505805969E-08  0.93827000000E+00  0.93827000000E+00 0. -1.
     999902    2    1    2    0    0  0.31576138625E-02 -0.19095603919E-01 -0.70679817257E-02  0.10233249283E+01  0.10231174614E+01 0.  0.
     999903    2    3    3    0    0 -0.53643744091E-01 -0.11752862705E+00 -0.35456913670E-01  0.13556291865E+00  0.20723965101E-01 0.  0.
         14    1    1    2    0    0 -0.31576138625E-02  0.19095603919E-01  0.70679817257E-02  0.20605071706E-01  0.00000000000E+00 0. -1.
     999901    1    3    3    0    0  0.56801357954E-01  0.98433023132E-01  0.28388931945E-01  0.88776200964E+00  0.88000000000E+00 0. -1.
        -11    1    4    4    0    0 -0.97750293157E-02 -0.74018022520E-02 -0.25125996750E-02  0.12526458112E-01  0.51100000000E-03 0. -1.
         11    1    4    4    0    0 -0.43868714775E-01 -0.11012682480E+00 -0.32944313995E-01  0.12303646054E+00  0.51100000000E-03 0.  1.
</event>
<event>
 8    1  0.1129602E+005  0.1043930E+01  0.7957747E-01            NaN
         13   -1    0    0    0    0  0.00000000000E+00  0.00000000000E+00  0.74505805969E-08  0.10566000000E+00  0.10566000000E+00 0.  1.
     999900   -1    0    0    0    0 -0.00000000000E+00 -0.00000000000E+00 -0.74505805969E-08  0.93827000000E+00  0.93827000000E+00 0.  1.
     999902    2    1    2    0    0  0.24682890253E-01 -0.27779486158E-02 -0.25808986834E-02  0.10189575530E+01  0.10186514967E+01 0.  0.
     999903    2    3    3    0    0  0.11536417154E+00  0.56984071793E-01 -0.22094223512E-01  0.13206671211E+00  0.19934523336E-01 0.  0.
         14    1    1    2    0    0 -0.24682890253E-01  0.27779486158E-02  0.25808986834E-02  0.24972446972E-01  0.00000000000E+00 0.  1.
     999901    1    3    3    0    0 -0.90681281291E-01 -0.59762020409E-01  0.19513324828E-01  0.88689084092E+00  0.88000000000E+00 0.  1.
        -11    1    4    4    0    0  0.91682187568E-01  0.42427319210E-01 -0.25116951252E-01  0.10410006385E+00  0.51100000000E-03 0.  1.
         11    1    4    4    0    0  0.23681983976E-01  0.14556752583E-01  0.30227277407E-02  0.27966648258E-01  0.51100000000E-03 0. -1.
</event>
<event>
 8    1  0.1129602E+005  0.1043930E+01  0.7957747E-01            NaN
         13   -1    0    0    0    0  0.00000000000E+00  0.00000000000E+00  0.74505805969E-08  0.10566000000E+00  0.10566000000E+00 0.  1.
     999900   -1    0    0    0    0 -0.00000000000E+00 -0.00000000000E+00 -0.74505805969E-08  0.93827000000E+00  0.93827000000E+00 0. -1.
     999902    2    1    2    0    0 -0.15195173012E-01 -0.17098078500E-01 -0.66870933166E-02  0.10200981980E+01  0.10198197776E+01 0.  0.
     999903    2    3    3    0    0 -0.51951638575E-01 -0.66403729833E-01 -0.10081212855E+00  0.13294454314E+00  0.20068338249E-01 0.  0.
         14    1    1    2    0    0  0.15195173012E-01  0.17098078500E-01  0.66870933166E-02  0.23831802036E-01  0.00000000000E+00 0.  1.
     999901    1    3    3    0    0  0.36756465563E-01  0.49305651334E-01  0.94125035237E-01  0.88715365483E+00  0.88000000000E+00 0.  1.
        -11    1    4    4    0    0 -0.25255459084E-01 -0.37013436253E-01 -0.38621965648E-01  0.59158685147E-01  0.51100000000E-03 0.  1.
         11    1    4    4    0    0 -0.26696179491E-01 -0.29390293580E-01 -0.62190162906E-01  0.73785857990E-01  0.51100000000E-03 0. -1.
</event>
<event>
 8    1  0.1129602E+005  0.1043930E+01  0.7957747E-01            NaN
         13   -1    0    0    0    0  0.00000000000E+00  0.00000000000E+00  0.74505805969E-08  0.10566000000E+00  0.10566000000E+00 0. -1.
     999900   -1    0    0    0    0 -0.00000000000E+00 -0.00000000000E+00 -0.74505805969E-08  0.93827000000E+00  0.93827000000E+00 0. -1.
     999902    2    1    2    0    0  0.13459058256E-01 -0.18075415348E-01 -0.75404464844E-02  0.10201660520E+01  0.10198892335E+01 0.  0.
     999903    2    3    3    0    0 -0.58058384416E-01 -0.80456771375E-01 -0.83879481460E-01  0.13177772116E+00  0.22034798033E-01 0.  0.
         14    1    1    2    0    0 -0.13459058256E-01  0.18075415348E-01  0.75404464844E-02  0.23763947953E-01  0.00000000000E+00 0.  1.
     999901    1    3    3    0    0  0.71517442672E-01  0.62381356027E-01  0.76339034976E-01  0.88838833088E+00  0.88000000000E+00 0.  1.
        -11    1    4    4    0    0 -0.87550738065E-02 -0.29286318097E-01 -0.25742417412E-01  0.39965896965E-01  0.51100000000E-03 0.  1.
         11    1    4    4    0    0 -0.49303310609E-01 -0.51170453278E-01 -0.58137064048E-01  0.91811824200E-01  0.51100000000E-03 0. -1.
</event>
<event>
 8    1  0.1129602E+005  0.1043930E+01  0.7957747E-01            NaN
         13   -1    0    0    0    0  0.00000000000E+00  0.00000000000E+00  0.74505805969E-08  0.10566000000E+00  0.10566000000E+00 0.  1.
     999900   -1    0    0    0    0 -0.00000000000E+00 -0.00000000000E+00 -0.74505805969E-08  0.93827000000E+00  0.93827000000E+00 0.  1.
     999902    2    1    2    0    0 -0.17192498889E-01  0.15570202361E-01 -0.15609148814E-02  0.10206824265E+01  0.10204176429E+01 0.  0.
     999903    2    3    3    0    0 -0.92563633469E-01 -0.58152345494E-01 -0.70514833116E-01  0.13171084941E+00  0.20632126285E-01 0.  0.
         14    1    1    2    0    0  0.17192498889E-01 -0.15570202361E-01  0.15609148814E-02  0.23247573527E-01  0.00000000000E+00 0.  1.
     999901    1    3    3    0    0  0.75371134579E-01  0.73722547854E-01  0.68953918235E-01  0.88897157707E+00  0.88000000000E+00 0. -1.
        -11    1    4    4    0    0 -0.19020060199E-01 -0.69288523573E-02 -0.54863734938E-02  0.20979349372E-01  0.51100000000E-03 0. -1.
         11    1    4    4    0    0 -0.73543573270E-01 -0.51223493136E-01 -0.65028459622E-01  0.11073150004E+00  0.51100000000E-03 0.  1.
</event>
<event>
 8    1  0.1129602E+005  0.1043930E+01  0.7957747E-01            NaN
         13   -1    0    0    0    0  0.00000000000E+00  0.00000000000E+00  0.74505805969E-08  0.10566000000E+00  0.10566000000E+00 0. -1.
     999900   -1    0    0    0    0 -0.00000000000E+00 -0.00000000000E+00 -0.74505805969E-08  0.93827000000E+00  0.93827000000E+00 0.  1.
     999902    2    1    2    0    0 -0.96089572060E-03  0.48079682761E-02  0.23103994740E-01  0.10203114807E+01  0.10200380793E+01 0.  0.
     999903    2    3    3    0    0 -0.73366345212E-01  0.99397412772E-01 -0.37072824056E-01  0.13024914491E+00  0.18110195766E-01 0.  0.
         14    1    1    2    0    0  0.96089572060E-03 -0.48079682761E-02 -0.23103994740E-01  0.23618519270E-01  0.00000000000E+00 0.  1.
     999901    1    3    3    0    0  0.72405449491E-01 -0.94589444496E-01  0.60176818797E-01  0.89006233582E+00  0.88000000000E+00 0. -1.
        -11    1    4    4    0    0 -0.25348658501E-01  0.49338837400E-01 -0.15245985213E-01  0.57528919248E-01  0.51100000000E-03 0. -1.
         11    1    4    4    0    0 -0.48017686710E-01  0.50058575372E-01 -0.21826838844E-01  0.72720225661E-01  0.51100000000E-03 0.  1.
</event>
<event>
 8    1  0.1129602E+005  0.1043930E+01  0.7957747E-01            NaN
         13   -1    0    0    0    0  0.00000000000E+00  0.00000000000E+00  0.74505805969E-08  0.10566000000E+00  0.10566000000E+00 0.  1.
     999900   -1    0    0    0    0 -0.00000000000E+00 -0.00000000000E+00 -0.74505805969E-08  0.93827000000E+00  0.93827000000E+00 0.  1.
     999902    2    1    2    0    0  0.46520662159E-02 -0.17371091873E-01  0.16328479439E-01  0.10196397593E+01  0.10193503926E+01 0.  0.
     999903    2    3    3    0    0 -0.11021638295E-01 -0.57270546072E-01 -0.11454478640E+00  0.12892911987E+00  0.10040811763E-01 0.  0.
         14    1    1    2    0    0 -0.46520662159E-02  0.17371091873E-01 -0.16328479439E-01  0.24290240710E-01  0.00000000000E+00 0. -1.
     999901    1    3    3    0    0  0.15673704511E-01  0.39899454199E-01  0.13087326584E+00  0.89071063942E+00  0.88000000000E+00 0. -1.
        -11    1    4    4    0    0 -0.46726300623E-02 -0.45047542779E-01 -0.90950485069E-01  0.10160396861E+00  0.51100000000E-03 0.  1.
         11    1    4    4    0    0 -0.63490082332E-02 -0.12223003294E-01 -0.23594301335E-01  0.27325151263E-01  0.51100000000E-03 0. -1.
</event>
<event>
 8    1  0.1334945E+005  0.1043930E+01  0.7957747E-01            NaN
         13   -1    0    0    0    0  0.00000000000E+00  0.00000000000E+00  0.74505805969E-08  0.10566000000E+00  0.10566000000E+00 0.  1.
     999900   -1    0    0    0    0 -0.00000000000E+00 -0.00000000000E+00 -0.74505805969E-08  0.93827000000E+00  0.93827000000E+00 0. -1.
     999902    2    1    2    0    0 -0.12212323353E-01  0.46508807983E-02  0.20467548205E-01  0.10196464240E+01  0.10193572180E+01 0.  0.
     999903    2    3    3    0    0 -0.12878688713E+00  0.19260401763E-01  0.95472412345E-02  0.13177125252E+00  0.17761976343E-01 0.  0.
         14    1    1    2    0    0  0.12212323353E-01 -0.46508807983E-02 -0.20467548205E-01  0.24283576001E-01  0.00000000000E+00 0. -1.
     999901    1    3    3    0    0  0.11657456378E+00 -0.14609520964E-01  0.10920306970E-01  0.88787517148E+00  0.88000000000E+00 0. -1.
        -11    1    4    4    0    0 -0.57355694440E-01  0.46107319256E-02  0.12122518360E-01  0.58806046509E-01  0.51100000000E-03 0. -1.
         11    1    4    4    0    0 -0.71431192688E-01  0.14649669837E-01 -0.25752771258E-02  0.72965206013E-01  0.51100000000E-03 0.  1.
</event>
<event>
 8    1  0.1129602E+005  0.1043930E+01  0.7957747E-01            NaN
         13   -1    0    0    0    0  0.00000000000E+00  0.00000000000E+00  0.74505805969E-08  0.10566000000E+00  0.10566000000E+00 0.  1.
     999900   -1    0    0    0    0 -0.00000000000E+00 -0.00000000000E+00 -0.74505805969E-08  0.93827000000E+00  0.93827000000E+00 0. -1.
     999902    2    1    2    0    0  0.22428449871E-02  0.23231384409E-02  0.23565444877E-01  0.10201443422E+01  0.10198670116E+01 0.  0.
     999903    2    3    3    0    0 -0.85944296324E-01  0.43196888285E-01  0.89237558422E-01  0.13236032463E+00  0.17421838997E-01 0.  0.
         14    1    1    2    0    0 -0.22428449871E-02 -0.23231384409E-02 -0.23565444877E-01  0.23785657823E-01  0.00000000000E+00 0. -1.
     999901    1    3    3    0    0  0.88187141311E-01 -0.40873749844E-01 -0.65672113546E-01  0.88778401755E+00  0.88000000000E+00 0. -1.
        -11    1    4    4    0    0 -0.52623160521E-01  0.17360404494E-01  0.46768644016E-01  0.72513087450E-01  0.51100000000E-03 0. -1.
         11    1    4    4    0    0 -0.33321135804E-01  0.25836483791E-01  0.42468914406E-01  0.59847237177E-01  0.51100000000E-03 0.  1.
</event>
<event>
 8    1  0.1129602E+005  0.1043930E+01  0.7957747E-01            NaN
         13   -1    0    0    0    0  0.00000000000E+00  0.00000000000E+00  0.74505805969E-08  0.10566000000E+00  0.10566000000E+00 0. -1.
     999900   -1    0    0    0    0 -0.00000000000E+00 -0.00000000000E+00 -0.74505805969E-08  0.93827000000E+00  0.93827000000E+00 0.  1.
     999902    2    1    2    0    0  0.77204743541E-02 -0.17447308246E-01  0.13843910124E-01  0.10203573859E+01  0.10200850586E+01 0.  0.
     999903    2    3    3    0    0 -0.12141763147E+00  0.10209517931E-01  0.43769523002E-01  0.12999954056E+00  0.11731748113E-01 0.  0.
         14    1    1    2    0    0 -0.77204743541E-02  0.17447308246E-01 -0.13843910124E-01  0.23572614127E-01  0.00000000000E+00 0. -1.
     999901    1    3    3    0    0  0.12913810582E+00 -0.27656826176E-01 -0.29925612878E-01  0.89035784532E+00  0.88000000000E+00 0.  1.
        -11    1    4    4    0    0 -0.92707734718E-01  0.12649694731E-01  0.32377984324E-01  0.99011786386E-01  0.51100000000E-03 0.  1.
         11    1    4    4    0    0 -0.28709896749E-01 -0.24401768000E-02  0.11391538678E-01  0.30987754172E-01  0.51100000000E-03 0. -1.
</event>
<event>
 8    1  0.1129602E+005  0.1043930E+01  0.7957747E-01            NaN
         13   -1    0    0    0    0  0.00000000000E+00  0.00000000000E+00  0.74505805969E-08  0.10566000000E+00  0.10566000000E+00 0. -1.
     999900   -1    0    0    0    0 -0.00000000000E+00 -0.00000000000E+00 -0.74505805969E-08  0.93827000000E+00  0.93827000000E+00 0. -1.
     999902    2    1    2    0    0 -0.22103338804E-01  0.75645307147E-02 -0.33261136477E-02  0.10203324844E+01  0.10200595747E+01 0.  0.
     999903    2    3    3    0    0 -0.10462294892E+00 -0.75498310100E-01  0.22991554687E-01  0.13218748426E+00  0.17290550576E-01 0.  0.
         14    1    1    2    0    0  0.22103338804E-01 -0.75645307147E-02  0.33261136477E-02  0.23597515616E-01  0.00000000000E+00 0. -1.
     999901    1    3    3    0    0  0.82519610117E-01  0.83062840814E-01 -0.26317668335E-01  0.88814500012E+00  0.88000000000E+00 0. -1.
        -11    1    4    4    0    0 -0.29964830945E-01 -0.31477138538E-01  0.61570023754E-02  0.43896140415E-01  0.51100000000E-03 0. -1.
         11    1    4    4    0    0 -0.74658117977E-01 -0.44021171562E-01  0.16834552312E-01  0.88291343846E-01  0.51100000000E-03 0.  1.
</event>
<event>
 8    1  0.1129602E+005  0.1043930E+01  0.7957747E-01            NaN
         13   -1    0    0    0    0  0.00000000000E+00  0.00000000000E+00  0.74505805969E-08  0.10566000000E+00  0.10566000000E+00 0.  1.
     999900   -1    0    0    0    0 -0.00000000000E+00 -0.00000000000E+00 -0.74505805969E-08  0.93827000000E+00  0.93827000000E+00 0.  1.
     999902    2    1    2    0    0  0.17265274366E-01 -0.38041317875E-02 -0.16004798457E-01  0.10200822602E+01  0.10198034629E+01 0.  0.
     999903    2    3    3    0    0 -0.13849375233E-01  0.36096247124E-01 -0.12446830033E+00  0.13198063718E+00  0.20779474315E-01 0.  0.
         14    1    1    2    0    0 -0.17265274366E-01  0.38041317875E-02  0.16004798457E-01  0.23847739751E-01  0.00000000000E+00 0.  1.
     999901    1    3    3    0    0  0.31114649600E-01 -0.39900378912E-01  0.10846350187E+00  0.88810162307E+00  0.88000000000E+00 0. -1.
        -11    1    4    4    0    0 -0.15535008882E-01  0.22180762528E-01 -0.57506910195E-01  0.63565938744E-01  0.51100000000E-03 0. -1.
         11    1    4    4    0    0  0.16856336483E-02  0.13915484596E-01 -0.66961390135E-01  0.68414698437E-01  0.51100000000E-03 0.  1.
</event>
<event>
 8    1  0.1129602E+005  0.1043930E+01  0.7957747E-01            NaN
         13   -1    0    0    0    0  0.00000000000E+00  0.00000000000E+00  0.74505805969E-08  0.10566000000E+00  0.10566000000E+00 0.  1.
     999900   -1    0    0    0    0 -0.00000000000E+00 -0.00000000000E+00 -0.74505805969E-08  0.93827000000E+00  0.93827000000E+00 0. -1.
     999902    2    1    2    0    0  0.39074571177E-02 -0.25819514950E-01 -0.91669594413E-02  0.10162542214E+01  0.10158773026E+01 0.  0.
     999903    2    3    3    0    0  0.12293217584E+00 -0.28349269048E-01  0.11154130222E-01  0.12800525296E+00  0.18572271073E-01 0.  0.
         14    1    1    2    0    0 -0.39074571177E-02  0.25819514950E-01  0.91669594413E-02  0.27675778558E-01  0.00000000000E+00 0.  1.
     999901    1    3    3    0    0 -0.11902471872E+00  0.25297540976E-02 -0.20321089663E-01  0.88824896848E+00  0.88000000000E+00 0. -1.
        -11    1    4    4    0    0  0.58457785538E-01 -0.64613413622E-02  0.11419989797E-01  0.59914429899E-01  0.51100000000E-03 0. -1.
         11    1    4    4    0    0  0.64474390301E-01 -0.21887927685E-01 -0.26585957454E-03  0.68090823062E-01  0.51100000000E-03 0.  1.
</event>
<event>
 8    1  0.1129602E+005  0.1043930E+01  0.7957747E-01            NaN
         13   -1    0    0    0    0  0.00000000000E+00  0.00000000000E+00  0.74505805969E-08  0.10566000000E+00  0.10566000000E+00 0.  1.
     999900   -1    0    0    0    0 -0.00000000000E+00 -0.00000000000E+00 -0.74505805969E-08  0.93827000000E+00  0.93827000000E+00 0.  1.
     999902    2    1    2    0    0  0.82888116165E-02 -0.73750840782E-02 -0.23214172909E-01  0.10182007542E+01  0.10178756220E+01 0.  0.
     999903    2    3    3    0    0  0.42314657912E-01  0.86925760850E-01  0.79282955584E-01  0.12659766491E+00  0.19863623544E-01 0.  0.
         14    1    1    2    0    0 -0.82888116165E-02  0.73750840782E-02  0.23214172909E-01  0.25729245753E-01  0.00000000000E+00 0.  1.
     999901    1    3    3    0    0 -0.34025846295E-01 -0.94300844928E-01 -0.10249712849E+00  0.89160308934E+00  0.88000000000E+00 0.  1.
        -11    1    4    4    0    0  0.41156749436E-01  0.67779580281E-01  0.67015679865E-01  0.10382346554E+00  0.51100000000E-03 0. -1.
         11    1    4    4    0    0  0.11579084756E-02  0.19146180570E-01  0.12267275720E-01  0.22774199372E-01  0.51100000000E-03 0.  1.
</event>
<event>
 8    1  0.1129602E+005  0.1043930E+01  0.7957747E-01            NaN
         13   -1    0    0    0    0  0.00000000000E+00  0.00000000000E+00  0.74505805969E-08  0.10566000000E+00  0.10566000000E+00 0. -1.
     999900   -1    0    0    0    0 -0.00000000000E+00 -0.00000000000E+00 -0.74505805969E-08  0.93827000000E+00  0.93827000000E+00 0. -1.
     999902    2    1    2    0    0  0.85457220917E-02  0.14641610418E-01 -0.16319697440E-01  0.10203983480E+01  0.10201269774E+01 0.  0.
     999903    2    3    3    0    0 -0.19888742261E-02 -0.64814224728E-01 -0.11266595740E+00  0.13151882339E+00  0.19968565320E-01 0.  0.
         14    1    1    2    0    0 -0.85457220917E-02 -0.14641610418E-01  0.16319697440E-01  0.23531652008E-01  0.00000000000E+00 0. -1.
     999901    1    3    3    0    0  0.10534596318E-01  0.79455835146E-01  0.96346259956E-01  0.88887952461E+00  0.88000000000E+00 0.  1.
        -11    1    4    4    0    0 -0.10663816336E-01 -0.26886778881E-01 -0.46895177164E-01  0.55100223409E-01  0.51100000000E-03 0.  1.
         11    1    4    4    0    0  0.86749421095E-02 -0.37927445847E-01 -0.65770780231E-01  0.76418599976E-01  0.51100000000E-03 0. -1.
</event>
<event>
 8    1  0.1129602E+005  0.1043930E+01  0.7957747E-01            NaN
         13   -1    0    0    0    0  0.00000000000E+00  0.00000000000E+00  0.74505805969E-08  0.10566000000E+00  0.10566000000E+00 0.  1.
     999900   -1    0    0    0    0 -0.00000000000E+00 -0.00000000000E+00 -0.74505805969E-08  0.93827000000E+00  0.93827000000E+00 0.  1.
     999902    2    1    2    0    0  0.18993099098E-01 -0.48439738329E-03  0.14036418740E-01  0.10203081139E+01  0.10200346336E+01 0.  0.
     999903    2    3    3    0    0 -0.87646037449E-01 -0.92540785272E-01  0.46869199443E-02  0.12905411127E+00  0.19681757981E-01 0.  0.
         14    1    1    2    0    0 -0.18993099098E-01  0.48439738329E-03 -0.14036418740E-01  0.23621886148E-01  0.00000000000E+00 0. -1.
     999901    1    3    3    0    0  0.10663913655E+00  0.92056387889E-01  0.93494987953E-02  0.89125400258E+00  0.88000000000E+00 0.  1.
        -11    1    4    4    0    0 -0.34914467714E-01 -0.47132435184E-01  0.89343696786E-02  0.59334396303E-01  0.51100000000E-03 0. -1.
         11    1    4    4    0    0 -0.52731569735E-01 -0.45408350088E-01 -0.42474497344E-02  0.69719714964E-01  0.51100000000E-03 0.  1.
</event>
<event>
 8    1  0.1129602E+005  0.1043930E+01  0.7957747E-01            NaN
         13   -1    0    0    0    0  0.00000000000E+00  0.00000000000E+00  0.74505805969E-08  0.10566000000E+00  0.10566000000E+00 0.  1.
     999900   -1    0    0    0    0 -0.00000000000E+00 -0.00000000000E+00 -0.74505805969E-08  0.93827000000E+00  0.93827000000E+00 0.  1.
     999902    2    1    2    0    0 -0.16713886141E-01  0.16751353908E-01 -0.35490378167E-02  0.10200018259E+01  0.10197211223E+01 0.  0.
     999903    2    3    3    0    0  0.36904203360E-01 -0.91848334506E-01  0.78525285654E-01  0.12792280111E+00  0.19999644493E-01 0.  0.
         14    1    1    2    0    0  0.16713886141E-01 -0.16751353908E-01  0.35490378167E-02  0.23928174128E-01  0.00000000000E+00 0. -1.
     999901    1    3    3    0    0 -0.53618089502E-01  0.10859968841E+00 -0.82074323470E-01  0.89207902476E+00  0.88000000000E+00 0.  1.
        -11    1    4    4    0    0  0.16575599727E-01 -0.39329598176E-01  0.46567005722E-01  0.63168939693E-01  0.51100000000E-03 0. -1.
         11    1    4    4    0    0  0.20328603633E-01 -0.52518736329E-01  0.31958279932E-01  0.64753861418E-01  0.51100000000E-03 0.  1.
</event>
<event>
 8    1  0.1129602E+005  0.1043930E+01  0.7957747E-01            NaN
         13   -1    0    0    0    0  0.00000000000E+00  0.00000000000E+00  0.74505805969E-08  0.10566000000E+00  0.10566000000E+00 0. -1.
     999900   -1    0    0    0    0 -0.00000000000E+00 -0.00000000000E+00 -0.74505805969E-08  0.93827000000E+00  0.93827000000E+00 0.  1.
     999902    2    1    2    0    0 -0.14390954214E-01  0.17182172511E-01  0.60696784920E-02  0.10207100170E+01  0.10204458688E+01 0.  0.
     999903    2    3    3    0    0 -0.10678796425E+00 -0.45638750452E-01  0.59701723520E-01  0.13202555548E+00  0.19490681289E-01 0.  0.
         14    1    1    2    0    0  0.14390954214E-01 -0.17182172511E-01 -0.60696784920E-02  0.23219983041E-01  0.00000000000E+00 0. -1.
     999901    1    3    3    0    0  0.92397010032E-01  0.62820922963E-01 -0.53632045028E-01  0.88868446148E+00  0.88000000000E+00 0.  1.
        -11    1    4    4    0    0 -0.37264613740E-01 -0.61365675820E-02  0.17956995553E-01  0.41821330791E-01  0.51100000000E-03 0.  1.
         11    1    4    4    0    0 -0.69523350507E-01 -0.39502182870E-01  0.41744727968E-01  0.90204224687E-01  0.51100000000E-03 0. -1.
</event>
<event>
 8    1  0.1129602E+005  0.1043930E+01  0.7957747E-01            NaN
         13   -1    0    0    0    0  0.00000000000E+00  0.00000000000E+00  0.74505805969E-08  0.10566000000E+00  0.10566000000E+00 0.  1.
     999900   -1    0    0    0    0 -0.00000000000E+00 -0.00000000000E+00 -0.74505805969E-08  0.93827000000E+00  0.93827000000E+00 0. -1.
     999902    2    1    2    0    0 -0.64429726664E-02  0.22571143414E-01  0.12191044513E-02  0.10204256466E+01  0.10201549126E+01 0.  0.
     999903    2    3    3    0    0  0.12067122468E+00 -0.17323003574E-01 -0.38858263658E-01  0.12949593135E+00  0.19939926349E-01 0.  0.
         14    1    1    2    0    0  0.64429726664E-02 -0.22571143414E-01 -0.12191044513E-02  0.23504353373E-01  0.00000000000E+00 0. -1.
     999901    1    3    3    0    0 -0.12711419735E+00  0.39894146988E-01  0.40077368109E-01  0.89092971528E+00  0.88000000000E+00 0. -1.
        -11    1    4    4    0    0  0.60821706748E-01 -0.16347265705E-01 -0.13104137560E-01  0.64331117276E-01  0.51100000000E-03 0. -1.
         11    1    4    4    0    0  0.59849517932E-01 -0.97573786849E-03 -0.25754126098E-01  0.65164814073E-01  0.51100000000E-03 0.  1.
</event>
<event>
 8    1  0.1129602E+005  0.1043930E+01  0.7957747E-01            NaN
         13   -1    0    0    0    0  0.00000000000E+00  0.00000000000E+00  0.74505805969E-08  0.10566000000E+00  0.10566000000E+00 0. -1.
     999900   -1    0    0    0    0 -0.00000000000E+00 -0.00000000000E+00 -0.74505805969E-08  0.93827000000E+00  0.93827000000E+00 0. -1.
     999902    2    1    2    0    0  0.22182018253E-01 -0.84353105391E-02 -0.37803709640E-02  0.10198990283E+01  0.10196158788E+01 0.  0.
     999903    2    3    3    0    0  0.37883476040E-01  0.69441087179E-01 -0.10223485652E+00  0.13085203580E+00  0.20324050743E-01 0.  0.
         14    1    1    2    0    0 -0.22182018253E-01  0.84353105391E-02  0.37803709640E-02  0.24030971730E-01  0.00000000000E+00 0.  1.
     999901    1    3    3    0    0 -0.15701457787E-01 -0.77876397718E-01  0.98454485558E-01  0.88904699247E+00  0.88000000000E+00 0.  1.
        -11    1    4    4    0    0  0.35909403948E-01  0.67226061469E-01 -0.88523170118E-01  0.11681370383E+00  0.51100000000E-03 0.  1.
         11    1    4    4    0    0  0.19740720920E-02  0.22150257107E-02 -0.13711686404E-01  0.14038331972E-01  0.51100000000E-03 0. -1.
</event>
<event>
 8    1  0.1129602E+005  0.1043930E+01  0.7957747E-01            NaN
         13   -1    0    0    0    0  0.00000000000E+00  0.00000000000E+00  0.74505805969E-08  0.10566000000E+00  0.10566000000E+00 0. -1.
     999900   -1    0    0    0    0 -0.00000000000E+00 -0.00000000000E+00 -0.74505805969E-08  0.93827000000E+00  0.93827000000E+00 0. -1.
     999902    2    1    2    0    0 -0.22071938343E-01 -0.37406683021E-02  0.89035463160E-02  0.10198377565E+01  0.10195531439E+01 0.  0.
     999903    2    3    3    0    0  0.94032256402E-01 -0.30190044243E-01 -0.78223667539E-01  0.12755366218E+00  0.19937165191E-01 0.  0.
         14    1    1    2    0    0  0.22071938343E-01  0.37406683021E-02 -0.89035463160E-02  0.24092243535E-01  0.00000000000E+00 0. -1.
     999901    1    3    3    0    0 -0.11610419475E+00  0.26449375941E-01  0.87127213855E-01  0.89228409429E+00  0.88000000000E+00 0.  1.
        -11    1    4    4    0    0  0.21559208282E-01 -0.16096802932E-01 -0.21668621554E-01  0.34549917618E-01  0.51100000000E-03 0. -1.
         11    1    4    4    0    0  0.72473048120E-01 -0.14093241311E-01 -0.56555045985E-01  0.93003744558E-01  0.51100000000E-03 0.  1.
</event>
<event>
 8    1  0.1129602E+005  0.1043930E+01  0.7957747E-01            NaN
         13   -1    0    0    0    0  0.00000000000E+00  0.00000000000E+00  0.74505805969E-08  0.10566000000E+00  0.10566000000E+00 0.  1.
     999900   -1    0    0    0    0 -0.00000000000E+00 -0.00000000000E+00 -0.74505805969E-08  0.93827000000E+00  0.93827000000E+00 0.  1.
     999902    2    1    2    0    0  0.15924747504E-01  0.69310783210E-02 -0.16340359160E-01  0.10200837263E+01  0.10198049637E+01 0.  0.
     999903    2    3    3    0    0  0.37172661925E-01  0.61835920734E-01 -0.11004627230E+00  0.13315260515E+00  0.20345670851E-01 0.  0.
         14    1    1    2    0    0 -0.15924747504E-01 -0.69310783210E-02  0.16340359160E-01  0.23846273655E-01  0.00000000000E+00 0. -1.
     999901    1    3    3    0    0 -0.21247914420E-01 -0.54904842413E-01  0.93705913144E-01  0.88693112120E+00  0.88000000000E+00 0. -1.
        -11    1    4    4    0    0 -0.25203293377E-02  0.51925836013E-02 -0.85403850213E-02  0.10320575650E-01  0.51100000000E-03 0.  1.
         11    1    4    4    0    0  0.39692991263E-01  0.56643337133E-01 -0.10150588728E+00  0.12283202950E+00  0.51100000000E-03 0. -1.
</event>
<event>
 8    1  0.1129602E+005  0.1043930E+01  0.7957747E-01            NaN
         13   -1    0    0    0    0  0.00000000000E+00  0.00000000000E+00  0.74505805969E-08  0.10566000000E+00  0.10566000000E+00 0.  1.
     999900   -1    0    0    0    0 -0.00000000000E+00 -0.00000000000E+00 -0.74505805969E-08  0.93827000000E+00  0.93827000000E+00 0. -1.
     999902    2    1    2    0    0  0.94854926287E-02  0.22053685762E-01 -0.33102135122E-02  0.10196957858E+01  0.10194077684E+01 0.  0.
     999903    2    3    3    0    0 -0.11410188825E+00  0.58179322034E-01 -0.13055669171E-01  0.13027244662E+00  0.19909430823E-01 0.  0.
         14    1    1    2    0    0 -0.94854926287E-02 -0.22053685762E-01  0.33102135122E-02  0.24234214235E-01  0.00000000000E+00 0. -1.
     999901    1    3    3    0    0  0.12358738088E+00 -0.36125636272E-01  0.97454556593E-02  0.88942333914E+00  0.88000000000E+00 0.  1.
        -11    1    4    4    0    0 -0.85334968193E-01  0.39853266717E-01 -0.13043863850E-02  0.94192898933E-01  0.51100000000E-03 0.  1.
         11    1    4    4    0    0 -0.28766920060E-01  0.18326055317E-01 -0.11751282786E-01  0.36079547688E-01  0.51100000000E-03 0. -1.
</event>
<event>
 8    1  0.1129602E+005  0.1043930E+01  0.7957747E-01            NaN
         13   -1    0    0    0    0  0.00000000000E+00  0.00000000000E+00  0.74505805969E-08  0.10566000000E+00  0.10566000000E+00 0.  1.
     999900   -1    0    0    0    0 -0.00000000000E+00 -0.00000000000E+00 -0.74505805969E-08  0.93827000000E+00  0.93827000000E+00 0. -1.
     999902    2    1    2    0    0  0.81624585985E-02 -0.21010892756E-02 -0.21983666243E-01  0.10203859585E+01  0.10201142987E+01 0.  0.
     999903    2    3    3    0    0  0.11328188623E+00  0.56638564518E-01  0.26267763667E-01  0.13087562050E+00  0.19942915944E-01 0.  0.
         14    1    1    2    0    0 -0.81624585985E-02  0.21010892756E-02  0.21983666243E-01  0.23544041454E-01  0.00000000000E+00 0.  1.
     999901    1    3    3    0    0 -0.10511942763E+00 -0.58739653793E-01 -0.48251429910E-01  0.88951033804E+00  0.88000000000E+00 0.  1.
        -11    1    4    4    0    0  0.39396188597E-01  0.15602304971E-01  0.17699703864E-01  0.45924200965E-01  0.51100000000E-03 0.  1.
         11    1    4    4    0    0  0.73885697631E-01  0.41036259547E-01  0.85680598026E-02  0.84951419540E-01  0.51100000000E-03 0. -1.
</event>
<event>
 8    1  0.1129602E+005  0.1043930E+01  0.7957747E-01            NaN
         13   -1    0    0    0    0  0.00000000000E+00  0.00000000000E+00  0.74505805969E-08  0.10566000000E+00  0.10566000000E+00 0. -1.
     999900   -1    0    0    0    0 -0.00000000000E+00 -0.00000000000E+00 -0.74505805969E-08  0.93827000000E+00  0.93827000000E+00 0.  1.
     999902    2    1    2    0    0  0.19069427393E-01 -0.18664953375E-01  0.90544442862E-02  0.10157518789E+01  0.10153609570E+01 0.  0.
     999903    2    3    3    0    0 -0.41045572641E-01  0.10585957823E+00 -0.43850959021E-01  0.12338471576E+00  0.20245793164E-01 0.  0.
         14    1    1    2    0    0 -0.19069427393E-01  0.18664953375E-01 -0.90544442862E-02  0.28178121068E-01  0.00000000000E+00 0.  1.
     999901    1    3    3    0    0  0.60115000034E-01 -0.12452453160E+00  0.52905403307E-01  0.89236716317E+00  0.88000000000E+00 0.  1.
        -11    1    4    4    0    0 -0.99142059647E-02  0.23917023123E-01 -0.12576125635E-02  0.25926013680E-01  0.51100000000E-03 0.  1.
         11    1    4    4    0    0 -0.31131366676E-01  0.81942555106E-01 -0.42593346458E-01  0.97458702084E-01  0.51100000000E-03 0. -1.
</event>
<event>
 8    1  0.1129602E+005  0.1043930E+01  0.7957747E-01            NaN
         13   -1    0    0    0    0  0.00000000000E+00  0.00000000000E+00  0.74505805969E-08  0.10566000000E+00  0.10566000000E+00 0.  1.
     999900   -1    0    0    0    0 -0.00000000000E+00 -0.00000000000E+00 -0.74505805969E-08  0.93827000000E+00  0.93827000000E+00 0.  1.
     999902    2    1    2    0    0 -0.19070979719E-01  0.12068610431E-01 -0.11219805849E-01  0.10187260783E+01  0.10184142502E+01 0.  0.
     999903    2    3    3    0    0 -0.31871460790E-01  0.11052891219E+00 -0.60942114586E-01  0.13174772946E+00  0.20275414830E-01 0.  0.
         14    1    1    2    0    0  0.19070979719E-01 -0.12068610431E-01  0.11219805849E-01  0.25203921688E-01  0.00000000000E+00 0.  1.
     999901    1    3    3    0    0  0.12800481071E-01 -0.98460301757E-01  0.49722308737E-01  0.88697834885E+00  0.88000000000E+00 0. -1.
        -11    1    4    4    0    0 -0.21722226672E-01  0.66134803476E-01 -0.47459355403E-01  0.84251521640E-01  0.51100000000E-03 0.  1.
         11    1    4    4    0    0 -0.10149234118E-01  0.44394108713E-01 -0.13482759183E-01  0.47496207825E-01  0.51100000000E-03 0. -1.
</event>
<event>
 8    1  0.1129602E+005  0.1043930E+01  0.7957747E-01            NaN
         13   -1    0    0    0    0  0.00000000000E+00  0.00000000000E+00  0.74505805969E-08  0.10566000000E+00  0.10566000000E+00 0.  1.
     999900   -1    0    0    0    0 -0.00000000000E+00 -0.00000000000E+00 -0.74505805969E-08  0.93827000000E+00  0.93827000000E+00 0.  1.
     999902    2    1    2    0    0  0.19648134273E-01  0.13656215162E-01  0.11914741149E-01  0.10171998214E+01  0.10168485502E+01 0.  0.
     999903    2    3    3    0    0 -0.15246905349E-01 -0.12154338702E+00 -0.19428030467E-01  0.12563997169E+00  0.20067163948E-01 0.  0.
         14    1    1    2    0    0 -0.19648134273E-01 -0.13656215162E-01 -0.11914741149E-01  0.26730178631E-01  0.00000000000E+00 0. -1.
     999901    1    3    3    0    0  0.34895039622E-01  0.13519960218E+00  0.31342771616E-01  0.89155984968E+00  0.88000000000E+00 0.  1.
        -11    1    4    4    0    0 -0.30976568643E-02 -0.68918654222E-01 -0.24902397734E-02  0.69035054813E-01  0.51100000000E-03 0. -1.
         11    1    4    4    0    0 -0.12149248484E-01 -0.52624732796E-01 -0.16937790694E-01  0.56604916882E-01  0.51100000000E-03 0.  1.
</event>
<event>
 8    1  0.1129602E+005  0.1043930E+01  0.7957747E-01            NaN
         13   -1    0    0    0    0  0.00000000000E+00  0.00000000000E+00  0.74505805969E-08  0.10566000000E+00  0.10566000000E+00 0.  1.
     999900   -1    0    0    0    0 -0.00000000000E+00 -0.00000000000E+00 -0.74505805969E-08  0.93827000000E+00  0.93827000000E+00 0. -1.
     999902    2    1    2    0    0  0.19527633940E-01 -0.82297688115E-02 -0.10619515487E-01  0.10202270109E+01  0.10199516273E+01 0.  0.
     999903    2    3    3    0    0 -0.23285324609E-01 -0.57757356793E-01  0.11296293563E+00  0.12918349144E+00  0.70449292052E-02 0.  0.
         14    1    1    2    0    0 -0.19527633940E-01  0.82297688115E-02  0.10619515487E-01  0.23702989077E-01  0.00000000000E+00 0.  1.
     999901    1    3    3    0    0  0.42812958550E-01  0.49527587982E-01 -0.12358245112E+00  0.89104351948E+00  0.88000000000E+00 0. -1.
        -11    1    4    4    0    0 -0.16664777529E-01 -0.33323981172E-01  0.63830844192E-01  0.73911029776E-01  0.51100000000E-03 0.  1.
         11    1    4    4    0    0 -0.66205470800E-02 -0.24433375621E-01  0.49132091440E-01  0.55272461662E-01  0.51100000000E-03 0. -1.
</event>
<event>
 8    1  0.1129602E+005  0.1043930E+01  0.7957747E-01            NaN
         13   -1    0    0    0    0  0.00000000000E+00  0.00000000000E+00  0.74505805969E-08  0.10566000000E+00  0.10566000000E+00 0. -1.
     999900   -1    0    0    0    0 -0.00000000000E+00 -0.00000000000E+00 -0.74505805969E-08  0.93827000000E+00  0.93827000000E+00 0.  1.
     999902    2    1    2    0    0 -0.41284029115E-02 -0.21985063796E-01  0.91693159633E-02  0.10197543284E+01  0.10194677176E+01 0.  0.
     999903    2    3    3    0    0 -0.12838595178E+00 -0.14032870241E-01 -0.74249128577E-02  0.13083445338E+00  0.19561462066E-01 0.  0.
         14    1    1    2    0    0  0.41284029115E-02  0.21985063796E-01 -0.91693159633E-02  0.24175671571E-01  0.00000000000E+00 0. -1.
     999901    1    3    3    0    0  0.12425754887E+00 -0.79521935545E-02  0.16594228821E-01  0.88891987505E+00  0.88000000000E+00 0. -1.
        -11    1    4    4    0    0 -0.84790155027E-01 -0.18459477439E-01 -0.37767394833E-02  0.86859930802E-01  0.51100000000E-03 0. -1.
         11    1    4    4    0    0 -0.43595796751E-01  0.44266071984E-02 -0.36481733744E-02  0.43974522574E-01  0.51100000000E-03 0.  1.
</event>
<event>
 8    1  0.1129602E+005  0.1043930E+01  0.7957747E-01            NaN
         13   -1    0    0    0    0  0.00000000000E+00  0.00000000000E+00  0.74505805969E-08  0.10566000000E+00  0.10566000000E+00 0.  1.
     999900   -1    0    0    0    0 -0.00000000000E+00 -0.00000000000E+00 -0.74505805969E-08  0.93827000000E+00  0.93827000000E+00 0. -1.
     999902    2    1    2    0    0 -0.20217729622E-01 -0.89149464392E-02  0.78424488795E-02  0.10204835319E+01  0.10202141452E+01 0.  0.
     999903    2    3    3    0    0 -0.12171829400E+00 -0.51265349445E-01  0.58005749735E-02  0.13363512861E+00  0.19524901548E-01 0.  0.
         14    1    1    2    0    0  0.20217729622E-01  0.89149464392E-02 -0.78424488795E-02  0.23446468082E-01  0.00000000000E+00 0. -1.
     999901    1    3    3    0    0  0.10150056438E+00  0.42350403006E-01  0.20418739060E-02  0.88684840331E+00  0.88000000000E+00 0. -1.
        -11    1    4    4    0    0 -0.15152856037E-01  0.18951820143E-03  0.11170431913E-02  0.15203745253E-01  0.51100000000E-03 0. -1.
         11    1    4    4    0    0 -0.10656543796E+00 -0.51454867646E-01  0.46835317822E-02  0.11843138336E+00  0.51100000000E-03 0.  1.
</event>
<event>
 8    1  0.1129602E+005  0.1043930E+01  0.7957747E-01            NaN
         13   -1    0    0    0    0  0.00000000000E+00  0.00000000000E+00  0.74505805969E-08  0.10566000000E+00  0.10566000000E+00 0. -1.
     999900   -1    0    0    0    0 -0.00000000000E+00 -0.00000000000E+00 -0.74505805969E-08  0.93827000000E+00  0.93827000000E+00 0. -1.
     999902    2    1    2    0    0 -0.13709409247E-01 -0.19620778105E-01 -0.34806337855E-02  0.10197424485E+01  0.10194555526E+01 0.  0.
     999903    2    3    3    0    0 -0.29751889212E-01  0.10322043754E+00  0.67178423190E-01  0.12826052062E+00  0.19954622778E-01 0.  0.
         14    1    1    2    0    0  0.13709409247E-01  0.19620778105E-01  0.34806337855E-02  0.24187551486E-01  0.00000000000E+00 0. -1.
     999901    1    3    3    0    0  0.16042479965E-01 -0.12284121565E+00 -0.70659056975E-01  0.89148192789E+00  0.88000000000E+00 0. -1.
        -11    1    4    4    0    0 -0.26500555792E-01  0.86756713186E-01  0.64381708400E-01  0.11123970621E+00  0.51100000000E-03 0.  1.
         11    1    4    4    0    0 -0.32513334194E-02  0.16463724355E-01  0.27967147894E-02  0.17020814413E-01  0.51100000000E-03 0. -1.
</event>
<event>
 8    1  0.1129602E+005  0.1043930E+01  0.7957747E-01            NaN
         13   -1    0    0    0    0  0.00000000000E+00  0.00000000000E+00  0.74505805969E-08  0.10566000000E+00  0.10566000000E+00 0.  1.
     999900   -1    0    0    0    0 -0.00000000000E+00 -0.00000000000E+00 -0.74505805969E-08  0.93827000000E+00  0.93827000000E+00 0.  1.
     999902    2    1    2    0    0 -0.15491785251E-01  0.17373037051E-01  0.36641341456E-02  0.10203663902E+01  0.10200942734E+01 0.  0.
     999903    2    3    3    0    0 -0.79477938303E-01  0.10423384997E+00 -0.16248513105E-01  0.13355437964E+00  0.19781809433E-01 0.  0.
         14    1    1    2    0    0  0.15491785251E-01 -0.17373037051E-01 -0.36641341456E-02  0.23563609776E-01  0.00000000000E+00 0. -1.
     999901    1    3    3    0    0  0.63986153052E-01 -0.86860812923E-01  0.19912647250E-01  0.88681201059E+00  0.88000000000E+00 0.  1.
        -11    1    4    4    0    0 -0.30960004257E-01  0.39042864662E-01  0.34007615328E-02  0.49946906257E-01  0.51100000000E-03 0.  1.
         11    1    4    4    0    0 -0.48517934046E-01  0.65190985311E-01 -0.19649274637E-01  0.83607473378E-01  0.51100000000E-03 0. -1.
</event>
<event>
 8    1  0.1129602E+005  0.1043930E+01  0.7957747E-01            NaN
         13   -1    0    0    0    0  0.00000000000E+00  0.00000000000E+00  0.74505805969E-08  0.10566000000E+00  0.10566000000E+00 0. -1.
     999900   -1    0    0    0    0 -0.00000000000E+00 -0.00000000000E+00 -0.74505805969E-08  0.93827000000E+00  0.93827000000E+00 0. -1.
     999902    2    1    2    0    0  0.12113452876E-01  0.12208026386E-01 -0.16627956473E-01  0.10200080313E+01  0.10197274751E+01 0.  0.
     999903    2    3    3    0    0 -0.82367385467E-01 -0.17467573799E-01 -0.97828233033E-01  0.13073824382E+00  0.20799588816E-01 0.  0.
         14    1    1    2    0    0 -0.12113452876E-01 -0.12208026386E-01  0.16627956473E-01  0.23921968675E-01  0.00000000000E+00 0. -1.
     999901    1    3    3    0    0  0.94480838343E-01  0.29675600185E-01  0.81200276560E-01  0.88926978751E+00  0.88000000000E+00 0.  1.
        -11    1    4    4    0    0 -0.71548998985E-01 -0.22177462708E-01 -0.85208338948E-01  0.11345404909E+00  0.51100000000E-03 0. -1.
         11    1    4    4    0    0 -0.10818386482E-01  0.47098889086E-02 -0.12619894085E-01  0.17284194726E-01  0.51100000000E-03 0.  1.
</event>
<event>
 8    1  0.1129602E+005  0.1043930E+01  0.7957747E-01            NaN
         13   -1    0    0    0    0  0.00000000000E+00  0.00000000000E+00  0.74505805969E-08  0.10566000000E+00  0.10566000000E+00 0.  1.
     999900   -1    0    0    0    0 -0.00000000000E+00 -0.00000000000E+00 -0.74505805969E-08  0.93827000000E+00  0.93827000000E+00 0. -1.
     999902    2    1    2    0    0  0.18095159535E-01 -0.14048847863E-01 -0.65205378795E-02  0.10201114707E+01  0.10198333640E+01 0.  0.
     999903    2    3    3    0    0 -0.20733498602E-01 -0.33681721402E-01  0.12252893564E+00  0.12963582192E+00  0.15092048743E-01 0.  0.
         14    1    1    2    0    0 -0.18095159535E-01  0.14048847863E-01  0.65205378795E-02  0.23818529323E-01  0.00000000000E+00 0.  1.
     999901    1    3    3    0    0  0.38828658137E-01  0.19632873539E-01 -0.12904947352E+00  0.89047564876E+00  0.88000000000E+00 0. -1.
        -11    1    4    4    0    0  0.18828334731E-02 -0.72607734802E-02  0.23777932479E-01  0.24938225426E-01  0.51100000000E-03 0. -1.
         11    1    4    4    0    0 -0.22616332075E-01 -0.26420947921E-01  0.98751003159E-01  0.10469759649E+00  0.51100000000E-03 0.  1.
</event>
<event>
 8    1  0.1129602E+005  0.1043930E+01  0.7957747E-01            NaN
         13   -1    0    0    0    0  0.00000000000E+00  0.00000000000E+00  0.74505805969E-08  0.10566000000E+00  0.10566000000E+00 0.  1.
     999900   -1    0    0    0    0 -0.00000000000E+00 -0.00000000000E+00 -0.74505805969E-08  0.93827000000E+00  0.93827000000E+00 0.  1.
     999902    2    1    2    0    0 -0.79286757696E-02 -0.13338931293E-01  0.19196442487E-01  0.10192461107E+01  0.10189471722E+01 0.  0.
     999903    2    3    3    0    0  0.42482620426E-01 -0.12161817397E+00 -0.95104448321E-02  0.13071373730E+00  0.19996981776E-01 0.  0.
         14    1    1    2    0    0  0.79286757696E-02  0.13338931293E-01 -0.19196442487E-01  0.24683889314E-01  0.00000000000E+00 0.  1.
     999901    1    3    3    0    0 -0.50411296195E-01  0.10827924267E+00  0.28706887319E-01  0.88853237339E+00  0.88000000000E+00 0. -1.
        -11    1    4    4    0    0  0.92878531173E-02 -0.42027614684E-01 -0.11134591460E-01  0.44461498620E-01  0.51100000000E-03 0.  1.
         11    1    4    4    0    0  0.33194767309E-01 -0.79590559283E-01  0.16241466283E-02  0.86252238678E-01  0.51100000000E-03 0. -1.
</event>
<event>
 7    1  0.1129602E+005  0.1043930E+01  0.7957747E-01            NaN
         13   -1    0    0    0    0  0.00000000000E+00  0.00000000000E+00  0.74505805969E-08  0.10566000000E+00  0.10566000000E+00 0. -1.
     999900   -1    0    0    0    0 -0.00000000000E+00 -0.00000000000E+00 -0.74505805969E-08  0.93827000000E+00  0.93827000000E+00 0. -1.
     999902    2    1    2    0    0  0.17450092536E-01 -0.50372295059E-02 -0.14852865874E-01  0.10204675399E+01  0.10201977813E+01 0.  0.
         14    1    1    2    0    0 -0.17450092536E-01  0.50372295059E-02  0.14852865874E-01  0.23462460129E-01  0.00000000000E+00 0. -1.
     999901    1    3    3    0    0  0.37089063400E-01  0.24493372731E-01  0.10537568529E+00  0.88740045018E+00  0.88000000000E+00 0.  1.
        -11    1    3    3    0    0 -0.76421406857E-02  0.62416671426E-02 -0.67547934541E-01  0.68266721796E-01  0.51100000000E-03 0.  1.
         11    1    3    3    0    0 -0.11996830178E-01 -0.35772269379E-01 -0.52680616620E-01  0.64800367895E-01  0.51100000000E-03 0. -1.
</event>
<event>
 8    1  0.1129602E+005  0.1043930E+01  0.7957747E-01            NaN
         13   -1    0    0    0    0  0.00000000000E+00  0.00000000000E+00  0.74505805969E-08  0.10566000000E+00  0.10566000000E+00 0.  1.
     999900   -1    0    0    0    0 -0.00000000000E+00 -0.00000000000E+00 -0.74505805969E-08  0.93827000000E+00  0.93827000000E+00 0. -1.
     999902    2    1    2    0    0 -0.66583065878E-02  0.16303846471E-01 -0.17736144395E-01  0.10189356151E+01  0.10186290142E+01 0.  0.
     999903    2    3    3    0    0 -0.83506799342E-02 -0.11958985260E+00 -0.40658873936E-01  0.12820815228E+00  0.20315500984E-01 0.  0.
         14    1    1    2    0    0  0.66583065878E-02 -0.16303846471E-01  0.17736144395E-01  0.24994384857E-01  0.00000000000E+00 0.  1.
     999901    1    3    3    0    0  0.16923733464E-02  0.13589369907E+00  0.22922729541E-01  0.89072746287E+00  0.88000000000E+00 0. -1.
        -11    1    4    4    0    0 -0.13537604370E-02 -0.56580034887E-01 -0.88823314633E-02  0.57291272882E-01  0.51100000000E-03 0. -1.
         11    1    4    4    0    0 -0.69969194972E-02 -0.63009817713E-01 -0.31776542473E-01  0.70916879395E-01  0.51100000000E-03 0.  1.
</event>
<event>
 8    1  0.1129602E+005  0.1043930E+01  0.7957747E-01            NaN
         13   -1    0    0    0    0  0.00000000000E+00  0.00000000000E+00  0.74505805969E-08  0.10566000000E+00  0.10566000000E+00 0. -1.
     999900   -1    0    0    0    0 -0.00000000000E+00 -0.00000000000E+00 -0.74505805969E-08  0.93827000000E+00  0.93827000000E+00 0. -1.
     999902    2    1    2    0    0  0.22448497870E-01 -0.48990081891E-03 -0.75086313816E-02  0.10202539656E+01  0.10199792153E+01 0.  0.
     999903    2    3    3    0    0 -0.52430966518E-01 -0.11655637463E+00 -0.42215827922E-02  0.12947387758E+00  0.20279755857E-01 0.  0.
         14    1    1    2    0    0 -0.22448497870E-01  0.48990081891E-03  0.75086313816E-02  0.23676034394E-01  0.00000000000E+00 0. -1.
     999901    1    3    3    0    0  0.74879464388E-01  0.11606647381E+00 -0.32870485894E-02  0.89078008802E+00  0.88000000000E+00 0. -1.
        -11    1    4    4    0    0 -0.41311670142E-01 -0.71985236369E-01 -0.79737486626E-02  0.83380873909E-01  0.51100000000E-03 0. -1.
         11    1    4    4    0    0 -0.11119296375E-01 -0.44571138263E-01  0.37521658704E-02  0.46093003674E-01  0.51100000000E-03 0.  1.
</event>
<event>
 8    1  0.1129602E+005  0.1043930E+01  0.7957747E-01            NaN
         13   -1    0    0    0    0  0.00000000000E+00  0.00000000000E+00  0.74505805969E-08  0.10566000000E+00  0.10566000000E+00 0. -1.
     999900   -1    0    0    0    0 -0.00000000000E+00 -0.00000000000E+00 -0.74505805969E-08  0.93827000000E+00  0.93827000000E+00 0. -1.
     999902    2    1    2    0    0 -0.14250264354E-01 -0.17861009354E-01  0.58777827800E-02  0.10203369074E+01  0.10200641012E+01 0.  0.
     999903    2    3    3    0    0  0.12591154314E-01 -0.14803812977E-01 -0.12714110670E+00  0.12993035239E+00  0.18421330357E-01 0.  0.
         14    1    1    2    0    0  0.14250264354E-01  0.17861009354E-01 -0.58777827800E-02  0.23593092627E-01  0.00000000000E+00 0.  1.
     999901    1    3    3    0    0 -0.26841418668E-01 -0.30571963772E-02  0.13301888948E+00  0.89040655499E+00  0.88000000000E+00 0.  1.
        -11    1    4    4    0    0  0.11754038417E-01 -0.18809943598E-01 -0.11461848745E+00  0.11674600715E+00  0.51100000000E-03 0. -1.
         11    1    4    4    0    0  0.83711589627E-03  0.40061306210E-02 -0.12522619246E-01  0.13184345238E-01  0.51100000000E-03 0.  1.
</event>
<event>
 8    1  0.1129602E+005  0.1043930E+01  0.7957747E-01            NaN
         13   -1    0    0    0    0  0.00000000000E+00  0.00000000000E+00  0.74505805969E-08  0.10566000000E+00  0.10566000000E+00 0.  1.
     999900   -1    0    0    0    0 -0.00000000000E+00 -0.00000000000E+00 -0.74505805969E-08  0.93827000000E+00  0.93827000000E+00 0. -1.
     999902    2    1    2    0    0 -0.17028738421E-01  0.15305933102E-01 -0.73335192820E-02  0.10198877450E+01  0.10196043264E+01 0.  0.
     999903    2    3    3    0    0 -0.67093568895E-01  0.11247785279E+00 -0.12686844981E-01  0.13310844477E+00  0.20101932193E-01 0.  0.
         14    1    1    2    0    0  0.17028738421E-01 -0.15305933102E-01  0.73335192820E-02  0.24042254998E-01  0.00000000000E+00 0.  1.
     999901    1    3    3    0    0  0.50064830474E-01 -0.97171919688E-01  0.53533256991E-02  0.88677930023E+00  0.88000000000E+00 0.  1.
        -11    1    4    4    0    0 -0.63081398076E-01  0.99100740152E-01 -0.60334418330E-02  0.11763028106E+00  0.51100000000E-03 0. -1.
         11    1    4    4    0    0 -0.40121708186E-02  0.13377112638E-01 -0.66534031482E-02  0.15478163704E-01  0.51100000000E-03 0.  1.
</event>
<event>
 8    1  0.1129602E+005  0.1043930E+01  0.7957747E-01            NaN
         13   -1    0    0    0    0  0.00000000000E+00  0.00000000000E+00  0.74505805969E-08  0.10566000000E+00  0.10566000000E+00 0.  1.
     999900   -1    0    0    0    0 -0.00000000000E+00 -0.00000000000E+00 -0.74505805969E-08  0.93827000000E+00  0.93827000000E+00 0.  1.
     999902    2    1    2    0    0  0.70162540635E-02  0.17984696270E-01 -0.16307304791E-01  0.10186593587E+01  0.10183458567E+01 0.  0.
     999903    2    3    3    0    0 -0.30080918828E-01  0.42465957529E-01 -0.11923277915E+00  0.13154652167E+00  0.19488779199E-01 0.  0.
         14    1    1    2    0    0 -0.70162540635E-02 -0.17984696270E-01  0.16307304791E-01  0.25270641277E-01  0.00000000000E+00 0.  1.
     999901    1    3    3    0    0  0.37097172891E-01 -0.24481261259E-01  0.10292547436E+00  0.88711283705E+00  0.88000000000E+00 0. -1.
        -11    1    4    4    0    0 -0.14334280317E-01  0.30331251086E-01 -0.56224644375E-01  0.65474637385E-01  0.51100000000E-03 0.  1.
         11    1    4    4    0    0 -0.15746638511E-01  0.12134706444E-01 -0.63008134771E-01  0.66071884287E-01  0.51100000000E-03 0. -1.
</event>
<event>
 8    1  0.1129602E+005  0.1043930E+01  0.7957747E-01            NaN
         13   -1    0    0    0    0  0.00000000000E+00  0.00000000000E+00  0.74505805969E-08  0.10566000000E+00  0.10566000000E+00 0. -1.
     999900   -1    0    0    0    0 -0.00000000000E+00 -0.00000000000E+00 -0.74505805969E-08  0.93827000000E+00  0.93827000000E+00 0. -1.
     999902    2    1    2    0    0 -0.10354751687E-01  0.20652849315E-01  0.53981466672E-02  0.10202044641E+01  0.10199285502E+01 0.  0.
     999903    2    3    3    0    0  0.66609091144E-01 -0.10713161548E+00  0.31985294841E-02  0.12764794438E+00  0.19230523996E-01 0.  0.
         14    1    1    2    0    0  0.10354751687E-01 -0.20652849315E-01 -0.53981466672E-02  0.23725535922E-01  0.00000000000E+00 0.  1.
     999901    1    3    3    0    0 -0.76963842831E-01  0.12778446480E+00  0.21996171831E-02  0.89255651970E+00  0.88000000000E+00 0. -1.
        -11    1    4    4    0    0  0.15391430221E-01 -0.11887097951E-01  0.10695863695E-02  0.19483438042E-01  0.51100000000E-03 0.  1.
         11    1    4    4    0    0  0.51217660923E-01 -0.95244517533E-01  0.21289431145E-02  0.10816450633E+00  0.51100000000E-03 0. -1.
</event>
<event>
 8    1  0.1129602E+005  0.1043930E+01  0.7957747E-01            NaN
         13   -1    0    0    0    0  0.00000000000E+00  0.00000000000E+00  0.74505805969E-08  0.10566000000E+00  0.10566000000E+00 0. -1.
     999900   -1    0    0    0    0 -0.00000000000E+00 -0.00000000000E+00 -0.74505805969E-08  0.93827000000E+00  0.93827000000E+00 0. -1.
     999902    2    1    2    0    0  0.11358293168E-01  0.20265255689E-01 -0.13529357759E-02  0.10206593780E+01  0.10203940631E+01 0.  0.
     999903    2    3    3    0    0  0.34925157187E-01  0.54925973355E-01 -0.11387417900E+00  0.13250522890E+00  0.18806325819E-01 0.  0.
         14    1    1    2    0    0 -0.11358293168E-01 -0.20265255689E-01  0.13529357759E-02  0.23270621973E-01  0.00000000000E+00 0.  1.
     999901    1    3    3    0    0 -0.23566864019E-01 -0.34660717666E-01  0.11252124322E+00  0.88815414912E+00  0.88000000000E+00 0.  1.
        -11    1    4    4    0    0  0.14172253691E-01  0.18602610410E-01 -0.24777781498E-01  0.34075056357E-01  0.51100000000E-03 0.  1.
         11    1    4    4    0    0  0.20752903496E-01  0.36323362944E-01 -0.89096397500E-01  0.98430172546E-01  0.51100000000E-03 0. -1.
</event>
<event>
 8    1  0.1129602E+005  0.1043930E+01  0.7957747E-01            NaN
         13   -1    0    0    0    0  0.00000000000E+00  0.00000000000E+00  0.74505805969E-08  0.10566000000E+00  0.10566000000E+00 0.  1.
     999900   -1    0    0    0    0 -0.00000000000E+00 -0.00000000000E+00 -0.74505805969E-08  0.93827000000E+00  0.93827000000E+00 0. -1.
     999902    2    1    2    0    0  0.20113840439E-01 -0.87934911356E-03  0.82563567700E-02  0.10221697781E+01  0.10219381331E+01 0.  0.
     999903    2    3    3    0    0  0.72091648734E-01 -0.80239213677E-01 -0.75467226743E-01  0.13312010616E+00  0.19751534691E-01 0.  0.
         14    1    1    2    0    0 -0.20113840439E-01  0.87934911356E-03 -0.82563567700E-02  0.21760221947E-01  0.00000000000E+00 0. -1.
     999901    1    3    3    0    0 -0.51977808295E-01  0.79359864563E-01  0.83723583513E-01  0.88904967189E+00  0.88000000000E+00 0.  1.
        -11    1    4    4    0    0  0.43343820105E-01 -0.61176101143E-01 -0.48024109529E-01  0.89038072246E-01  0.51100000000E-03 0.  1.
         11    1    4    4    0    0  0.28747828629E-01 -0.19063112534E-01 -0.27443117214E-01  0.44082033912E-01  0.51100000000E-03 0. -1.
</event>
<event>
 8    1  0.1129602E+005  0.1043930E+01  0.7957747E-01            NaN
         13   -1    0    0    0    0  0.00000000000E+00  0.00000000000E+00  0.74505805969E-08  0.10566000000E+00  0.10566000000E+00 0.  1.
     999900   -1    0    0    0    0 -0.00000000000E+00 -0.00000000000E+00 -0.74505805969E-08  0.93827000000E+00  0.93827000000E+00 0.  1.
     999902    2    1    2    0    0  0.18196149897E-01  0.41725649394E-02  0.14530481150E-01  0.10202731817E+01  0.10199988825E+01 0.  0.
     999903    2    3    3    0    0 -0.39991485464E-01 -0.93013606945E-01 -0.76355989842E-01  0.12836998992E+00  0.19944100392E-01 0.  0.
         14    1    1    2    0    0 -0.18196149897E-01 -0.41725649394E-02 -0.14530481150E-01  0.23656818292E-01  0.00000000000E+00 0. -1.
     999901    1    3    3    0    0  0.58187635362E-01  0.97186171884E-01  0.90886470992E-01  0.89190319179E+00  0.88000000000E+00 0. -1.
        -11    1    4    4    0    0 -0.73257016403E-02 -0.40463484362E-01 -0.34329187080E-01  0.53569708584E-01  0.51100000000E-03 0.  1.
         11    1    4    4    0    0 -0.32665783824E-01 -0.52550122583E-01 -0.42026802762E-01  0.74800281335E-01  0.51100000000E-03 0. -1.
</event>
<event>
 8    1  0.1129602E+005  0.1043930E+01  0.7957747E-01            NaN
         13   -1    0    0    0    0  0.00000000000E+00  0.00000000000E+00  0.74505805969E-08  0.10566000000E+00  0.10566000000E+00 0. -1.
     999900   -1    0    0    0    0 -0.00000000000E+00 -0.00000000000E+00 -0.74505805969E-08  0.93827000000E+00  0.93827000000E+00 0. -1.
     999902    2    1    2    0    0 -0.16805953401E-01  0.68360524007E-03 -0.14807380565E-01  0.10215209415E+01  0.10212751186E+01 0.  0.
     999903    2    3    3    0    0 -0.72852119505E-01  0.59986460248E-01 -0.93360150249E-01  0.13426193813E+00  0.20108297964E-01 0.  0.
         14    1    1    2    0    0  0.16805953401E-01 -0.68360524007E-03  0.14807380565E-01  0.22409058548E-01  0.00000000000E+00 0.  1.
     999901    1    3    3    0    0  0.56046166105E-01 -0.59302855008E-01  0.78552769684E-01  0.88725900332E+00  0.88000000000E+00 0.  1.
        -11    1    4    4    0    0 -0.33237287213E-01  0.20705443414E-01 -0.50515993018E-01  0.63918380141E-01  0.51100000000E-03 0.  1.
         11    1    4    4    0    0 -0.39614832292E-01  0.39281016834E-01 -0.42844157231E-01  0.70343557991E-01  0.51100000000E-03 0. -1.
</event>
<event>
 8    1  0.1129602E+005  0.1043930E+01  0.7957747E-01            NaN
         13   -1    0    0    0    0  0.00000000000E+00  0.00000000000E+00  0.74505805969E-08  0.10566000000E+00  0.10566000000E+00 0. -1.
     999900   -1    0    0    0    0 -0.00000000000E+00 -0.00000000000E+00 -0.74505805969E-08  0.93827000000E+00  0.93827000000E+00 0. -1.
     999902    2    1    2    0    0  0.26672410399E-02 -0.97391120062E-02  0.23763360273E-01  0.10181102059E+01  0.10177827516E+01 0.  0.
     999903    2    3    3    0    0 -0.91086021534E-02 -0.11078226434E+00 -0.60646976331E-01  0.12823746551E+00  0.20275973398E-01 0.  0.
         14    1    1    2    0    0 -0.26672410399E-02  0.97391120062E-02 -0.23763360273E-01  0.25819794130E-01  0.00000000000E+00 0.  1.
     999901    1    3    3    0    0  0.11775843193E-01  0.10104315233E+00  0.84410336604E-01  0.88987274036E+00  0.88000000000E+00 0.  1.
        -11    1    4    4    0    0 -0.51522750060E-02 -0.34774944414E-01 -0.29887310089E-01  0.46144936040E-01  0.51100000000E-03 0.  1.
         11    1    4    4    0    0 -0.39563271474E-02 -0.76007319921E-01 -0.30759666242E-01  0.82092529468E-01  0.51100000000E-03 0. -1.
</event>
<event>
 8    1  0.1129602E+005  0.1043930E+01  0.7957747E-01            NaN
         13   -1    0    0    0    0  0.00000000000E+00  0.00000000000E+00  0.74505805969E-08  0.10566000000E+00  0.10566000000E+00 0. -1.
     999900   -1    0    0    0    0 -0.00000000000E+00 -0.00000000000E+00 -0.74505805969E-08  0.93827000000E+00  0.93827000000E+00 0. -1.
     999902    2    1    2    0    0 -0.88590517824E-02 -0.15863551485E-01  0.16533905053E-01  0.10193636596E+01  0.10190675961E+01 0.  0.
     999903    2    3    3    0    0 -0.67616593636E-01  0.83518397921E-01  0.70616080472E-01  0.13017633272E+00  0.20295818611E-01 0.  0.
         14    1    1    2    0    0  0.88590517824E-02  0.15863551485E-01 -0.16533905053E-01  0.24566340397E-01  0.00000000000E+00 0.  1.
     999901    1    3    3    0    0  0.58757541853E-01 -0.99381949405E-01 -0.54082175419E-01  0.88918732688E+00  0.88000000000E+00 0. -1.
        -11    1    4    4    0    0 -0.51136869171E-01  0.60495166389E-01  0.61949915592E-01  0.10056190983E+00  0.51100000000E-03 0.  1.
         11    1    4    4    0    0 -0.16479724465E-01  0.23023231532E-01  0.86661648796E-02  0.29614422894E-01  0.51100000000E-03 0. -1.
</event>
<event>
 8    1  0.1129602E+005  0.1043930E+01  0.7957747E-01            NaN
         13   -1    0    0    0    0  0.00000000000E+00  0.00000000000E+00  0.74505805969E-08  0.10566000000E+00  0.10566000000E+00 0. -1.
     999900   -1    0    0    0    0 -0.00000000000E+00 -0.00000000000E+00 -0.74505805969E-08  0.93827000000E+00  0.93827000000E+00 0.  1.
     999902    2    1    2    0    0  0.59323020086E-02  0.12188634226E-01 -0.19346085199E-01  0.10203074255E+01  0.10200339291E+01 0.  0.
     999903    2    3    3    0    0 -0.11165916705E+00 -0.58150167889E-01  0.18938181127E-01  0.12888104848E+00  0.20061364403E-01 0.  0.
         14    1    1    2    0    0 -0.59323020086E-02 -0.12188634226E-01  0.19346085199E-01  0.23622574456E-01  0.00000000000E+00 0. -1.
     999901    1    3    3    0    0  0.11759146906E+00  0.70338802115E-01 -0.38284266325E-01  0.89142637706E+00  0.88000000000E+00 0.  1.
        -11    1    4    4    0    0 -0.35316875568E-01 -0.84800640527E-02  0.74394146212E-02  0.37078284712E-01  0.51100000000E-03 0. -1.
         11    1    4    4    0    0 -0.76342291478E-01 -0.49670103837E-01  0.11498766505E-01  0.91802763768E-01  0.51100000000E-03 0.  1.
</event>
<event>
 8    1  0.1129602E+005  0.1043930E+01  0.7957747E-01            NaN
         13   -1    0    0    0    0  0.00000000000E+00  0.00000000000E+00  0.74505805969E-08  0.10566000000E+00  0.10566000000E+00 0.  1.
     999900   -1    0    0    0    0 -0.00000000000E+00 -0.00000000000E+00 -0.74505805969E-08  0.93827000000E+00  0.93827000000E+00 0.  1.
     999902    2    1    2    0    0  0.46907310126E-02 -0.12796227084E-01  0.17565850824E-01  0.10216970177E+01  0.10214550849E+01 0.  0.
     999903    2    3    3    0    0  0.45850481947E-01 -0.88514534106E-01 -0.83717460458E-01  0.13170505359E+00  0.20012958595E-01 0.  0.
         14    1    1    2    0    0 -0.46907310126E-02  0.12796227084E-01 -0.17565850824E-01  0.22232982260E-01  0.00000000000E+00 0.  1.
     999901    1    3    3    0    0 -0.41159750935E-01  0.75718307022E-01  0.10128331128E+00  0.88999196415E+00  0.88000000000E+00 0. -1.
        -11    1    4    4    0    0  0.17788917915E-01 -0.23392495335E-01 -0.34826405569E-01  0.45571856276E-01  0.51100000000E-03 0. -1.
         11    1    4    4    0    0  0.28061564032E-01 -0.65122038771E-01 -0.48891054888E-01  0.86133197309E-01  0.51100000000E-03 0.  1.
</event>
<event>
 8    1  0.1129602E+005  0.1043930E+01  0.7957747E-01            NaN
         13   -1    0    0    0    0  0.00000000000E+00  0.00000000000E+00  0.74505805969E-08  0.10566000000E+00  0.10566000000E+00 0.  1.
     999900   -1    0    0    0    0 -0.00000000000E+00 -0.00000000000E+00 -0.74505805969E-08  0.93827000000E+00  0.93827000000E+00 0.  1.
     999902    2    1    2    0    0 -0.10298090104E-01 -0.55988171956E-02  0.21171701139E-01  0.10197300342E+01  0.10194428402E+01 0.  0.
     999903    2    3    3    0    0 -0.48690102378E-01 -0.37170490599E-01 -0.11111532142E+00  0.12845534397E+00  0.20044682561E-01 0.  0.
         14    1    1    2    0    0  0.10298090104E-01  0.55988171956E-02 -0.21171701139E-01  0.24199965762E-01  0.00000000000E+00 0. -1.
     999901    1    3    3    0    0  0.38392012274E-01  0.31571673404E-01  0.13228702256E+00  0.89127469026E+00  0.88000000000E+00 0. -1.
        -11    1    4    4    0    0 -0.43353745536E-01 -0.33315505245E-01 -0.81705285389E-01  0.98313198114E-01  0.51100000000E-03 0.  1.
         11    1    4    4    0    0 -0.53363568420E-02 -0.38549853538E-02 -0.29410036035E-01  0.30142145859E-01  0.51100000000E-03 0. -1.
</event>
<event>
 8    1  0.1129602E+005  0.1043930E+01  0.7957747E-01            NaN
         13   -1    0    0    0    0  0.00000000000E+00  0.00000000000E+00  0.74505805969E-08  0.10566000000E+00  0.10566000000E+00 0.  1.
     999900   -1    0    0    0    0 -0.00000000000E+00 -0.00000000000E+00 -0.74505805969E-08  0.93827000000E+00  0.93827000000E+00 0.  1.
     999902    2    1    2    0    0  0.40451378322E-02  0.12340664126E-02 -0.23169953545E-01  0.10203772336E+01  0.10201053700E+01 0.  0.
     999903    2    3    3    0    0  0.78085598174E-01 -0.43302813611E-01  0.91426109388E-01  0.12875075285E+00  0.15669351400E-01 0.  0.
         14    1    1    2    0    0 -0.40451378322E-02 -0.12340664126E-02  0.23169953545E-01  0.23552766446E-01  0.00000000000E+00 0.  1.
     999901    1    3    3    0    0 -0.74040460342E-01  0.44536880023E-01 -0.11459606293E+00  0.89162648070E+00  0.88000000000E+00 0.  1.
        -11    1    4    4    0    0  0.19860801587E-01 -0.97076743501E-02  0.13810738169E-01  0.26070826430E-01  0.51100000000E-03 0. -1.
         11    1    4    4    0    0  0.58224796587E-01 -0.33595139260E-01  0.77615371219E-01  0.10267992642E+00  0.51100000000E-03 0.  1.
</event>
<event>
 8    1  0.1129602E+005  0.1043930E+01  0.7957747E-01            NaN
         13   -1    0    0    0    0  0.00000000000E+00  0.00000000000E+00  0.74505805969E-08  0.10566000000E+00  0.10566000000E+00 0. -1.
     999900   -1    0    0    0    0 -0.00000000000E+00 -0.00000000000E+00 -0.74505805969E-08  0.93827000000E+00  0.93827000000E+00 0.  1.
     999902    2    1    2    0    0  0.17353464893E-01  0.11899657860E-01  0.10567637792E-01  0.10203838842E+01  0.10201121760E+01 0.  0.
     999903    2    3    3    0    0  0.15053682567E-01  0.58836571757E-01 -0.11331208005E+00  0.13046560290E+00  0.22210144539E-01 0.  0.
         14    1    1    2    0    0 -0.17353464893E-01 -0.11899657860E-01 -0.10567637792E-01  0.23546115804E-01  0.00000000000E+00 0.  1.
     999901    1    3    3    0    0  0.22997823255E-02 -0.46936913897E-01  0.12387971784E+00  0.88991828129E+00  0.88000000000E+00 0. -1.
        -11    1    4    4    0    0  0.20665356851E-01  0.40992692102E-01 -0.82634014490E-01  0.94530943353E-01  0.51100000000E-03 0.  1.
         11    1    4    4    0    0 -0.56116742831E-02  0.17843879655E-01 -0.30678065561E-01  0.35934659550E-01  0.51100000000E-03 0. -1.
</event>
<event>
 8    1  0.1129602E+005  0.1043930E+01  0.7957747E-01            NaN
         13   -1    0    0    0    0  0.00000000000E+00  0.00000000000E+00  0.74505805969E-08  0.10566000000E+00  0.10566000000E+00 0. -1.
     999900   -1    0    0    0    0 -0.00000000000E+00 -0.00000000000E+00 -0.74505805969E-08  0.93827000000E+00  0.93827000000E+00 0.  1.
     999902    2    1    2    0    0 -0.17082020092E-01 -0.60303883280E-02 -0.15123260530E-01  0.10203318220E+01  0.10200588969E+01 0.  0.
     999903    2    3    3    0    0  0.12325320888E+00  0.17237735082E-01 -0.26744398911E-01  0.12883284116E+00  0.19853087394E-01 0.  0.
         14    1    1    2    0    0  0.17082020092E-01  0.60303883280E-02  0.15123260530E-01  0.23598177957E-01  0.00000000000E+00 0. -1.
     999901    1    3    3    0    0 -0.14033522897E+00 -0.23268123410E-01  0.11621138382E-01  0.89149898088E+00  0.88000000000E+00 0.  1.
        -11    1    4    4    0    0  0.15534040054E-01  0.73499590164E-02 -0.83264460277E-02  0.19102856393E-01  0.51100000000E-03 0. -1.
         11    1    4    4    0    0  0.10771916882E+00  0.98877760659E-02 -0.18417952884E-01  0.10972998477E+00  0.51100000000E-03 0.  1.
</event>
<event>
 8    1  0.1129602E+005  0.1043930E+01  0.7957747E-01            NaN
         13   -1    0    0    0    0  0.00000000000E+00  0.00000000000E+00  0.74505805969E-08  0.10566000000E+00  0.10566000000E+00 0. -1.
     999900   -1    0    0    0    0 -0.00000000000E+00 -0.00000000000E+00 -0.74505805969E-08  0.93827000000E+00  0.93827000000E+00 0. -1.
     999902    2    1    2    0    0 -0.13016302343E-01 -0.14497105283E-01  0.14217282856E-01  0.10198111004E+01  0.10195258501E+01 0.  0.
     999903    2    3    3    0    0  0.48077410872E-01 -0.10795642859E+00  0.55180445925E-01  0.13181049921E+00  0.19055135236E-01 0.  0.
         14    1    1    2    0    0  0.13016302343E-01  0.14497105283E-01 -0.14217282856E-01  0.24118899645E-01  0.00000000000E+00 0.  1.
     999901    1    3    3    0    0 -0.61093713215E-01  0.93459323308E-01 -0.40963163069E-01  0.88800060115E+00  0.88000000000E+00 0. -1.
        -11    1    4    4    0    0  0.19370983880E-01 -0.64132786137E-01  0.35703766177E-01  0.75916199288E-01  0.51100000000E-03 0. -1.
         11    1    4    4    0    0  0.28706426992E-01 -0.43823642454E-01  0.19476679748E-01  0.55894299920E-01  0.51100000000E-03 0.  1.
</event>
<event>
 8    1  0.1129602E+005  0.1043930E+01  0.7957747E-01            NaN
         13   -1    0    0    0    0  0.00000000000E+00  0.00000000000E+00  0.74505805969E-08  0.10566000000E+00  0.10566000000E+00 0. -1.
     999900   -1    0    0    0    0 -0.00000000000E+00 -0.00000000000E+00 -0.74505805969E-08  0.93827000000E+00  0.93827000000E+00 0. -1.
     999902    2    1    2    0    0  0.47951695062E-02 -0.22103030564E-01  0.65884043038E-02  0.10203727361E+01  0.10201007675E+01 0.  0.
     999903    2    3    3    0    0 -0.11354933164E+00  0.47119382063E-01 -0.33499335326E-01  0.12885482253E+00  0.19174799594E-01 0.  0.
         14    1    1    2    0    0 -0.47951695062E-02  0.22103030564E-01 -0.65884043038E-02  0.23557263890E-01  0.00000000000E+00 0.  1.
     999901    1    3    3    0    0  0.11834450115E+00 -0.69222412627E-01  0.40087739630E-01  0.89151791358E+00  0.88000000000E+00 0. -1.
        -11    1    4    4    0    0 -0.64243334622E-01  0.21043676660E-01 -0.10048417359E-01  0.68346720354E-01  0.51100000000E-03 0.  1.
         11    1    4    4    0    0 -0.49305997023E-01  0.26075705403E-01 -0.23450917968E-01  0.60508102178E-01  0.51100000000E-03 0. -1.
</event>
<event>
 8    1  0.1129602E+005  0.1043930E+01  0.7957747E-01            NaN
         13   -1    0    0    0    0  0.00000000000E+00  0.00000000000E+00  0.74505805969E-08  0.10566000000E+00  0.10566000000E+00 0.  1.
     999900   -1    0    0    0    0 -0.00000000000E+00 -0.00000000000E+00 -0.74505805969E-08  0.93827000000E+00  0.93827000000E+00 0.  1.
     999902    2    1    2    0    0  0.19363796070E-01 -0.12833235436E-01 -0.36894668258E-02  0.10204085057E+01  0.10201373720E+01 0.  0.
     999903    2    3    3    0    0  0.80055318937E-01  0.53323576631E-01  0.87157242221E-01  0.13118788666E+00  0.19016277764E-01 0.  0.
         14    1    1    2    0    0 -0.19363796070E-01  0.12833235436E-01  0.36894668258E-02  0.23521494328E-01  0.00000000000E+00 0.  1.
     999901    1    3    3    0    0 -0.60691522867E-01 -0.66156812067E-01 -0.90846709047E-01  0.88922061901E+00  0.88000000000E+00 0.  1.
        -11    1    4    4    0    0  0.54605874819E-01  0.32120333070E-01  0.67909911521E-01  0.92873756062E-01  0.51100000000E-03 0. -1.
         11    1    4    4    0    0  0.25449444118E-01  0.21203243561E-01  0.19247330700E-01  0.38314130598E-01  0.51100000000E-03 0.  1.
</event>
<event>
 8    1  0.1129602E+005  0.1043930E+01  0.7957747E-01            NaN
         13   -1    0    0    0    0  0.00000000000E+00  0.00000000000E+00  0.74505805969E-08  0.10566000000E+00  0.10566000000E+00 0.  1.
     999900   -1    0    0    0    0 -0.00000000000E+00 -0.00000000000E+00 -0.74505805969E-08  0.93827000000E+00  0.93827000000E+00 0.  1.
     999902    2    1    2    0    0 -0.12571469561E-01 -0.12399909009E-01 -0.16208640473E-01  0.10199608612E+01  0.10196791842E+01 0.  0.
     999903    2    3    3    0    0 -0.66578724952E-01  0.63773408754E-01 -0.92068357567E-01  0.13177515162E+00  0.19706187816E-01 0.  0.
         14    1    1    2    0    0  0.12571469561E-01  0.12399909009E-01  0.16208640473E-01  0.23969138832E-01  0.00000000000E+00 0.  1.
     999901    1    3    3    0    0  0.54007255390E-01 -0.76173317762E-01  0.75859717094E-01  0.88818570955E+00  0.88000000000E+00 0. -1.
        -11    1    4    4    0    0 -0.50552154239E-01  0.47861170430E-01 -0.80393516832E-01  0.10634655896E+00  0.51100000000E-03 0.  1.
         11    1    4    4    0    0 -0.16026570713E-01  0.15912238323E-01 -0.11674840735E-01  0.25428592656E-01  0.51100000000E-03 0. -1.
</event>
<event>
 8    1  0.1129602E+005  0.1043930E+01  0.7957747E-01            NaN
         13   -1    0    0    0    0  0.00000000000E+00  0.00000000000E+00  0.74505805969E-08  0.10566000000E+00  0.10566000000E+00 0.  1.
     999900   -1    0    0    0    0 -0.00000000000E+00 -0.00000000000E+00 -0.74505805969E-08  0.93827000000E+00  0.93827000000E+00 0. -1.
     999902    2    1    2    0    0 -0.12101327430E-01  0.15491355878E-01 -0.15376080460E-01  0.10189730755E+01  0.10186674042E+01 0.  0.
     999903    2    3    3    0    0  0.25090260047E-01  0.10123192016E+00 -0.78167080699E-01  0.13179926596E+00  0.19583952438E-01 0.  0.
         14    1    1    2    0    0  0.12101327430E-01 -0.15491355878E-01  0.15376080460E-01  0.24956924547E-01  0.00000000000E+00 0.  1.
     999901    1    3    3    0    0 -0.37191587477E-01 -0.85740564285E-01  0.62791000239E-01  0.88717380950E+00  0.88000000000E+00 0.  1.
        -11    1    4    4    0    0  0.13558279811E-01  0.23621430384E-01 -0.15206476305E-01  0.31197707727E-01  0.51100000000E-03 0.  1.
         11    1    4    4    0    0  0.11531980236E-01  0.77610489779E-01 -0.62960604394E-01  0.10060155823E+00  0.51100000000E-03 0. -1.
</event>
<event>
 8    1  0.1129602E+005  0.1043930E+01  0.7957747E-01            NaN
         13   -1    0    0    0    0  0.00000000000E+00  0.00000000000E+00  0.74505805969E-08  0.10566000000E+00  0.10566000000E+00 0.  1.
     999900   -1    0    0    0    0 -0.00000000000E+00 -0.00000000000E+00 -0.74505805969E-08  0.93827000000E+00  0.93827000000E+00 0.  1.
     999902    2    1    2    0    0  0.39267495235E-02  0.12750833511E-01  0.20912260856E-01  0.10191242392E+01  0.10188223049E+01 0.  0.
     999903    2    3    3    0    0 -0.12190292357E-01  0.81123964017E-01 -0.96873802532E-01  0.12850187207E+00  0.19962383222E-01 0.  0.
         14    1    1    2    0    0 -0.39267495235E-02 -0.12750833511E-01 -0.20912260856E-01  0.24805760846E-01  0.00000000000E+00 0. -1.
     999901    1    3    3    0    0  0.16117041881E-01 -0.68373130507E-01  0.11778606339E+00  0.89062236708E+00  0.88000000000E+00 0. -1.
        -11    1    4    4    0    0  0.24940094963E-02  0.41490297549E-01 -0.40450349713E-01  0.58001351596E-01  0.51100000000E-03 0. -1.
         11    1    4    4    0    0 -0.14684301853E-01  0.39633666469E-01 -0.56423452819E-01  0.70500520478E-01  0.51100000000E-03 0.  1.
</event>
<event>
 8    1  0.1129602E+005  0.1043930E+01  0.7957747E-01            NaN
         13   -1    0    0    0    0  0.00000000000E+00  0.00000000000E+00  0.74505805969E-08  0.10566000000E+00  0.10566000000E+00 0. -1.
     999900   -1    0    0    0    0 -0.00000000000E+00 -0.00000000000E+00 -0.74505805969E-08  0.93827000000E+00  0.93827000000E+00 0.  1.
     999902    2    1    2    0    0  0.70972625971E-02  0.10392384502E-01 -0.18186128172E-01  0.10218142127E+01  0.10215748515E+01 0.  0.
     999903    2    3    3    0    0 -0.10410743051E+00  0.21037163746E-02 -0.78844334661E-01  0.13270533079E+00  0.23483888139E-01 0.  0.
         14    1    1    2    0    0 -0.70972625971E-02 -0.10392384502E-01  0.18186128172E-01  0.22115787346E-01  0.00000000000E+00 0. -1.
     999901    1    3    3    0    0  0.11120469311E+00  0.82886681274E-02  0.60658206488E-01  0.88910888186E+00  0.88000000000E+00 0. -1.
        -11    1    4    4    0    0 -0.99232790451E-01  0.48038711415E-03 -0.66863701780E-01  0.11965948859E+00  0.51100000000E-03 0. -1.
         11    1    4    4    0    0 -0.48746400636E-02  0.16233292604E-02 -0.11980632880E-01  0.13045842206E-01  0.51100000000E-03 0.  1.
</event>
<event>
 8    1  0.1129602E+005  0.1043930E+01  0.7957747E-01            NaN
         13   -1    0    0    0    0  0.00000000000E+00  0.00000000000E+00  0.74505805969E-08  0.10566000000E+00  0.10566000000E+00 0. -1.
     999900   -1    0    0    0    0 -0.00000000000E+00 -0.00000000000E+00 -0.74505805969E-08  0.93827000000E+00  0.93827000000E+00 0. -1.
     999902    2    1    2    0    0  0.76973663376E-03  0.88324202097E-02 -0.22065765008E-01  0.10201497114E+01  0.10198725075E+01 0.  0.
     999903    2    3    3    0    0 -0.12092822348E+00  0.28095496605E-01 -0.37958112288E-01  0.13142364205E+00  0.20453929640E-01 0.  0.
         14    1    1    2    0    0 -0.76973663376E-03 -0.88324202097E-02  0.22065765008E-01  0.23780288615E-01  0.00000000000E+00 0. -1.
     999901    1    3    3    0    0  0.12169796012E+00 -0.19263076395E-01  0.15892347280E-01  0.88872606933E+00  0.88000000000E+00 0. -1.
        -11    1    4    4    0    0 -0.72296872046E-01  0.21588295393E-01 -0.32138062982E-01  0.82012245542E-01  0.51100000000E-03 0.  1.
         11    1    4    4    0    0 -0.48631351437E-01  0.65072012120E-02 -0.58200493052E-02  0.49411396511E-01  0.51100000000E-03 0. -1.
</event>
<event>
 8    1  0.1129602E+005  0.1043930E+01  0.7957747E-01            NaN
         13   -1    0    0    0    0  0.00000000000E+00  0.00000000000E+00  0.74505805969E-08  0.10566000000E+00  0.10566000000E+00 0.  1.
     999900   -1    0    0    0    0 -0.00000000000E+00 -0.00000000000E+00 -0.74505805969E-08  0.93827000000E+00  0.93827000000E+00 0. -1.
     999902    2    1    2    0    0  0.21739160842E-01 -0.11449160597E-02  0.98940038085E-02  0.10200178011E+01  0.10197374766E+01 0.  0.
     999903    2    3    3    0    0  0.66724647768E-01  0.14212547260E-01  0.11213474035E+00  0.13282407141E+00  0.20343520683E-01 0.  0.
         14    1    1    2    0    0 -0.21739160842E-01  0.11449160597E-02 -0.98940038085E-02  0.23912198943E-01  0.00000000000E+00 0. -1.
     999901    1    3    3    0    0 -0.44985486926E-01 -0.15357463320E-01 -0.10224073654E+00  0.88719372965E+00  0.88000000000E+00 0. -1.
        -11    1    4    4    0    0  0.35868787648E-01  0.12242582477E-01  0.44495159913E-01  0.58451100330E-01  0.51100000000E-03 0.  1.
         11    1    4    4    0    0  0.30855860120E-01  0.19699647830E-02  0.67639580436E-01  0.74372971082E-01  0.51100000000E-03 0. -1.
</event>
<event>
 8    1  0.1129602E+005  0.1043930E+01  0.7957747E-01            NaN
         13   -1    0    0    0    0  0.00000000000E+00  0.00000000000E+00  0.74505805969E-08  0.10566000000E+00  0.10566000000E+00 0. -1.
     999900   -1    0    0    0    0 -0.00000000000E+00 -0.00000000000E+00 -0.74505805969E-08  0.93827000000E+00  0.93827000000E+00 0. -1.
     999902    2    1    2    0    0  0.24222290343E-01  0.47933998548E-02  0.18101661018E-01  0.10133135638E+01  0.10128509330E+01 0.  0.
     999903    2    3    3    0    0  0.73545642709E-01  0.16936935425E-01 -0.96893967545E-01  0.12437922817E+00  0.19645103970E-01 0.  0.
         14    1    1    2    0    0 -0.24222290343E-01 -0.47933998548E-02 -0.18101661018E-01  0.30616436161E-01  0.00000000000E+00 0.  1.
     999901    1    3    3    0    0 -0.49323352366E-01 -0.12143535570E-01  0.11499562856E+00  0.88893433567E+00  0.88000000000E+00 0.  1.
        -11    1    4    4    0    0  0.45281951658E-01  0.48485414229E-02 -0.70110528808E-01  0.83604490733E-01  0.51100000000E-03 0. -1.
         11    1    4    4    0    0  0.28263691051E-01  0.12088394002E-01 -0.26783438737E-01  0.40774737436E-01  0.51100000000E-03 0.  1.
</event>
<event>
 8    1  0.1129602E+005  0.1043930E+01  0.7957747E-01            NaN
         13   -1    0    0    0    0  0.00000000000E+00  0.00000000000E+00  0.74505805969E-08  0.10566000000E+00  0.10566000000E+00 0. -1.
     999900   -1    0    0    0    0 -0.00000000000E+00 -0.00000000000E+00 -0.74505805969E-08  0.93827000000E+00  0.93827000000E+00 0.  1.
     999902    2    1    2    0    0  0.14364275045E-01  0.63038426637E-02  0.15510623210E-01  0.10218698490E+01  0.10216317037E+01 0.  0.
     999903    2    3    3    0    0 -0.19072805525E-01 -0.38599621276E-01  0.12457316233E+00  0.13337167969E+00  0.20391897818E-01 0.  0.
         14    1    1    2    0    0 -0.14364275045E-01 -0.63038426637E-02 -0.15510623210E-01  0.22060151003E-01  0.00000000000E+00 0.  1.
     999901    1    3    3    0    0  0.33437080570E-01  0.44903463939E-01 -0.10906253912E+00  0.88849816931E+00  0.88000000000E+00 0.  1.
        -11    1    4    4    0    0 -0.16161983233E-02 -0.19995742046E-01  0.74719369747E-01  0.77367222604E-01  0.51100000000E-03 0.  1.
         11    1    4    4    0    0 -0.17456607202E-01 -0.18603879230E-01  0.49853792581E-01  0.56004457082E-01  0.51100000000E-03 0. -1.
</event>
<event>
 8    1  0.1129602E+005  0.1043930E+01  0.7957747E-01            NaN
         13   -1    0    0    0    0  0.00000000000E+00  0.00000000000E+00  0.74505805969E-08  0.10566000000E+00  0.10566000000E+00 0.  1.
     999900   -1    0    0    0    0 -0.00000000000E+00 -0.00000000000E+00 -0.74505805969E-08  0.93827000000E+00  0.93827000000E+00 0. -1.
     999902    2    1    2    0    0 -0.87473811811E-03 -0.21306796983E-01 -0.37190957449E-02  0.10222833735E+01  0.10220541665E+01 0.  0.
     999903    2    3    3    0    0 -0.68024310490E-01 -0.95992251056E-01  0.61381227662E-01  0.13418144569E+00  0.19879290176E-01 0.  0.
         14    1    1    2    0    0  0.87473811811E-03  0.21306796983E-01  0.37190957449E-02  0.21646626472E-01  0.00000000000E+00 0. -1.
     999901    1    3    3    0    0  0.67149572372E-01  0.74685454074E-01 -0.65100323407E-01  0.88810192784E+00  0.88000000000E+00 0. -1.
        -11    1    4    4    0    0 -0.29908432225E-01 -0.58731471076E-01  0.31152529428E-01  0.72901585879E-01  0.51100000000E-03 0.  1.
         11    1    4    4    0    0 -0.38115878265E-01 -0.37260779981E-01  0.30228698234E-01  0.61279859812E-01  0.51100000000E-03 0. -1.
</event>
<event>
 8    1  0.1129602E+005  0.1043930E+01  0.7957747E-01            NaN
         13   -1    0    0    0    0  0.00000000000E+00  0.00000000000E+00  0.74505805969E-08  0.10566000000E+00  0.10566000000E+00 0. -1.
     999900   -1    0    0    0    0 -0.00000000000E+00 -0.00000000000E+00 -0.74505805969E-08  0.93827000000E+00  0.93827000000E+00 0. -1.
     999902    2    1    2    0    0  0.79663257727E-02  0.93848407139E-02 -0.21249705415E-01  0.10193721589E+01  0.10190763027E+01 0.  0.
     999903    2    3    3    0    0  0.11509955079E+00  0.21619043595E-01  0.51903681303E-01  0.12977751992E+00  0.20806799536E-01 0.  0.
         14    1    1    2    0    0 -0.79663257727E-02 -0.93848407139E-02  0.21249705415E-01  0.24557841146E-01  0.00000000000E+00 0. -1.
     999901    1    3    3    0    0 -0.10713322502E+00 -0.12234202881E-01 -0.73153386718E-01  0.88959463893E+00  0.88000000000E+00 0.  1.
        -11    1    4    4    0    0  0.10033449842E+00  0.25601359452E-01  0.43456255674E-01  0.11229936980E+00  0.51100000000E-03 0.  1.
         11    1    4    4    0    0  0.14765052372E-01 -0.39823158565E-02  0.84474256297E-02  0.17478150128E-01  0.51100000000E-03 0. -1.
</event>
<event>
 8    1  0.1129602E+005  0.1043930E+01  0.7957747E-01            NaN
         13   -1    0    0    0    0  0.00000000000E+00  0.00000000000E+00  0.74505805969E-08  0.10566000000E+00  0.10566000000E+00 0.  1.
     999900   -1    0    0    0    0 -0.00000000000E+00 -0.00000000000E+00 -0.74505805969E-08  0.93827000000E+00  0.93827000000E+00 0. -1.
     999902    2    1    2    0    0  0.16969341035E-01 -0.37576630178E-02 -0.15785155509E-01  0.10204512926E+01  0.10201811559E+01 0.  0.
     999903    2    3    3    0    0  0.20116825270E-01 -0.11601797890E+00  0.52798046231E-01  0.13066708239E+00  0.20527899296E-01 0.  0.
         14    1    1    2    0    0 -0.16969341035E-01  0.37576630178E-02  0.15785155509E-01  0.23478707395E-01  0.00000000000E+00 0. -1.
     999901    1    3    3    0    0 -0.31474842345E-02  0.11226031588E+00 -0.68583201740E-01  0.88978421021E+00  0.88000000000E+00 0.  1.
        -11    1    4    4    0    0  0.17574019644E-02 -0.69072325334E-01  0.29405894369E-01  0.75093557203E-01  0.51100000000E-03 0. -1.
         11    1    4    4    0    0  0.18359423305E-01 -0.46945653562E-01  0.23392151862E-01  0.55573525192E-01  0.51100000000E-03 0.  1.
</event>
<event>
 8    1  0.1129602E+005  0.1043930E+01  0.7957747E-01            NaN
         13   -1    0    0    0    0  0.00000000000E+00  0.00000000000E+00  0.74505805969E-08  0.10566000000E+00  0.10566000000E+00 0. -1.
     999900   -1    0    0    0    0 -0.00000000000E+00 -0.00000000000E+00 -0.74505805969E-08  0.93827000000E+00  0.93827000000E+00 0. -1.
     999902    2    1    2    0    0  0.36734664561E-02  0.22637985279E-01 -0.47862634996E-02  0.10205017894E+01  0.10202328269E+01 0.  0.
     999903    2    3    3    0    0  0.69414309566E-02 -0.10789838604E+00  0.67936107226E-01  0.12789943279E+00  0.72598257732E-02 0.  0.
         14    1    1    2    0    0 -0.36734664561E-02 -0.22637985279E-01  0.47862634996E-02  0.23428210593E-01  0.00000000000E+00 0. -1.
     999901    1    3    3    0    0 -0.32679645005E-02  0.13053637132E+00 -0.72722370725E-01  0.89260235661E+00  0.88000000000E+00 0.  1.
        -11    1    4    4    0    0  0.61825315356E-02 -0.44465066262E-01  0.26693123965E-01  0.52231693462E-01  0.51100000000E-03 0. -1.
         11    1    4    4    0    0  0.75889942095E-03 -0.63433319777E-01  0.41242983261E-01  0.75667739331E-01  0.51100000000E-03 0.  1.
</event>
<event>
 8    1  0.1129602E+005  0.1043930E+01  0.7957747E-01            NaN
         13   -1    0    0    0    0  0.00000000000E+00  0.00000000000E+00  0.74505805969E-08  0.10566000000E+00  0.10566000000E+00 0. -1.
     999900   -1    0    0    0    0 -0.00000000000E+00 -0.00000000000E+00 -0.74505805969E-08  0.93827000000E+00  0.93827000000E+00 0. -1.
     999902    2    1    2    0    0  0.62687361471E-02 -0.15668923903E-01  0.16811508679E-01  0.10201090207E+01  0.10198308561E+01 0.  0.
     999903    2    3    3    0    0  0.87902982197E-01 -0.79903856518E-01 -0.52109271108E-01  0.13132313505E+00  0.20465314547E-01 0.  0.
         14    1    1    2    0    0 -0.62687361471E-02  0.15668923903E-01 -0.16811508679E-01  0.23820979266E-01  0.00000000000E+00 0.  1.
     999901    1    3    3    0    0 -0.81634246050E-01  0.64234932616E-01  0.68920779786E-01  0.88878588568E+00  0.88000000000E+00 0.  1.
        -11    1    4    4    0    0  0.47528610885E-01 -0.49390852555E-01 -0.20072947256E-01  0.71425552160E-01  0.51100000000E-03 0. -1.
         11    1    4    4    0    0  0.40374371312E-01 -0.30513003963E-01 -0.32036323851E-01  0.59897582894E-01  0.51100000000E-03 0.  1.
</event>
<event>
 8    1  0.1129602E+005  0.1043930E+01  0.7957747E-01            NaN
         13   -1    0    0    0    0  0.00000000000E+00  0.00000000000E+00  0.74505805969E-08  0.10566000000E+00  0.10566000000E+00 0.  1.
     999900   -1    0    0    0    0 -0.00000000000E+00 -0.00000000000E+00 -0.74505805969E-08  0.93827000000E+00  0.93827000000E+00 0.  1.
     999902    2    1    2    0    0 -0.59193374606E-02  0.18856461693E-01  0.13554542352E-01  0.10199648102E+01  0.10196832272E+01 0.  0.
     999903    2    3    3    0    0  0.58624000365E-02  0.13103900742E+00 -0.43603317550E-02  0.13258401504E+00  0.18812744421E-01 0.  0.
         14    1    1    2    0    0  0.59193374606E-02 -0.18856461693E-01 -0.13554542352E-01  0.23965189795E-01  0.00000000000E+00 0.  1.
     999901    1    3    3    0    0 -0.11781737497E-01 -0.11218254573E+00  0.17914874107E-01  0.88738079516E+00  0.88000000000E+00 0. -1.
        -11    1    4    4    0    0  0.18047663026E-02  0.90259739345E-01 -0.11413034582E-01  0.90997781332E-01  0.51100000000E-03 0. -1.
         11    1    4    4    0    0  0.40576337339E-02  0.40779268075E-01  0.70527028266E-02  0.41586233713E-01  0.51100000000E-03 0.  1.
</event>
<event>
 8    1  0.1129602E+005  0.1043930E+01  0.7957747E-01            NaN
         13   -1    0    0    0    0  0.00000000000E+00  0.00000000000E+00  0.74505805969E-08  0.10566000000E+00  0.10566000000E+00 0. -1.
     999900   -1    0    0    0    0 -0.00000000000E+00 -0.00000000000E+00 -0.74505805969E-08  0.93827000000E+00  0.93827000000E+00 0. -1.
     999902    2    1    2    0    0  0.87821711417E-03  0.22116803510E-01 -0.72800837457E-02  0.10206292729E+01  0.10203632632E+01 0.  0.
     999903    2    3    3    0    0  0.10138175410E+00  0.42003374463E-01 -0.70978610837E-01  0.13239848141E+00  0.21186107526E-01 0.  0.
         14    1    1    2    0    0 -0.87821711417E-03 -0.22116803510E-01  0.72800837457E-02  0.23300727073E-01  0.00000000000E+00 0. -1.
     999901    1    3    3    0    0 -0.10050353698E+00 -0.19886570952E-01  0.63698527092E-01  0.88823079152E+00  0.88000000000E+00 0.  1.
        -11    1    4    4    0    0  0.56541432873E-01  0.13135573508E-01 -0.42458835821E-01  0.71920030472E-01  0.51100000000E-03 0. -1.
         11    1    4    4    0    0  0.44840321225E-01  0.28867800955E-01 -0.28519775016E-01  0.60478450935E-01  0.51100000000E-03 0.  1.
</event>
<event>
 8    1  0.1129602E+005  0.1043930E+01  0.7957747E-01            NaN
         13   -1    0    0    0    0  0.00000000000E+00  0.00000000000E+00  0.74505805969E-08  0.10566000000E+00  0.10566000000E+00 0.  1.
     999900   -1    0    0    0    0 -0.00000000000E+00 -0.00000000000E+00 -0.74505805969E-08  0.93827000000E+00  0.93827000000E+00 0.  1.
     999902    2    1    2    0    0 -0.91678235895E-02 -0.12245003151E-01  0.18925947550E-01  0.10195952392E+01  0.10193047980E+01 0.  0.
     999903    2    3    3    0    0 -0.28889642787E-01  0.51324361813E-01  0.11610070250E+00  0.13174787209E+00  0.20231833964E-01 0.  0.
         14    1    1    2    0    0  0.91678235895E-02  0.12245003151E-01 -0.18925947550E-01  0.24334760780E-01  0.00000000000E+00 0. -1.
     999901    1    3    3    0    0  0.19721819197E-01 -0.63569364965E-01 -0.97174754945E-01  0.88784736713E+00  0.88000000000E+00 0.  1.
        -11    1    4    4    0    0 -0.13060621945E-01  0.36848110973E-01  0.88787955669E-01  0.97015077801E-01  0.51100000000E-03 0. -1.
         11    1    4    4    0    0 -0.15829020842E-01  0.14476250841E-01  0.27312746827E-01  0.34732794293E-01  0.51100000000E-03 0.  1.
</event>
<event>
 8    1  0.1129602E+005  0.1043930E+01  0.7957747E-01            NaN
         13   -1    0    0    0    0  0.00000000000E+00  0.00000000000E+00  0.74505805969E-08  0.10566000000E+00  0.10566000000E+00 0.  1.
     999900   -1    0    0    0    0 -0.00000000000E+00 -0.00000000000E+00 -0.74505805969E-08  0.93827000000E+00  0.93827000000E+00 0.  1.
     999902    2    1    2    0    0  0.10079128132E-01 -0.20236984316E-01  0.10799377374E-02  0.10212961620E+01  0.10210453270E+01 0.  0.
     999903    2    3    3    0    0  0.93706220800E-01 -0.84770765270E-01  0.40070767968E-01  0.13412177982E+00  0.20397228141E-01 0.  0.
         14    1    1    2    0    0 -0.10079128132E-01  0.20236984316E-01 -0.10799377374E-02  0.22633838022E-01  0.00000000000E+00 0.  1.
     999901    1    3    3    0    0 -0.83627092667E-01  0.64533780955E-01 -0.38990830231E-01  0.88717438216E+00  0.88000000000E+00 0.  1.
        -11    1    4    4    0    0  0.69143357442E-01 -0.63454282136E-01  0.38850986802E-01  0.10157219155E+00  0.51100000000E-03 0.  1.
         11    1    4    4    0    0  0.24562863358E-01 -0.21316483135E-01  0.12197811656E-02  0.32549588272E-01  0.51100000000E-03 0. -1.
</event>
<event>
 8    1  0.1129602E+005  0.1043930E+01  0.7957747E-01            NaN
         13   -1    0    0    0    0  0.00000000000E+00  0.00000000000E+00  0.74505805969E-08  0.10566000000E+00  0.10566000000E+00 0.  1.
     999900   -1    0    0    0    0 -0.00000000000E+00 -0.00000000000E+00 -0.74505805969E-08  0.93827000000E+00  0.93827000000E+00 0.  1.
     999902    2    1    2    0    0  0.16865094644E-01 -0.23116295566E-02 -0.17022989722E-01  0.10198560052E+01  0.10195718288E+01 0.  0.
     999903    2    3    3    0    0 -0.32640538059E-01  0.12382872622E+00 -0.61713109741E-02  0.12941793547E+00  0.17662354873E-01 0.  0.
         14    1    1    2    0    0 -0.16865094644E-01  0.23116295566E-02  0.17022989722E-01  0.24073994842E-01  0.00000000000E+00 0. -1.
     999901    1    3    3    0    0  0.49505632703E-01 -0.12614035578E+00 -0.10851678748E-01  0.89043806969E+00  0.88000000000E+00 0. -1.
        -11    1    4    4    0    0 -0.69234800659E-02  0.41878411067E-01  0.52353731949E-02  0.42771557643E-01  0.51100000000E-03 0.  1.
         11    1    4    4    0    0 -0.25717057993E-01  0.81950315151E-01 -0.11406684169E-01  0.86646377824E-01  0.51100000000E-03 0. -1.
</event>
<event>
 8    1  0.1129602E+005  0.1043930E+01  0.7957747E-01            NaN
         13   -1    0    0    0    0  0.00000000000E+00  0.00000000000E+00  0.74505805969E-08  0.10566000000E+00  0.10566000000E+00 0.  1.
     999900   -1    0    0    0    0 -0.00000000000E+00 -0.00000000000E+00 -0.74505805969E-08  0.93827000000E+00  0.93827000000E+00 0. -1.
     999902    2    1    2    0    0 -0.10469598594E-01 -0.42775182065E-02 -0.24876135760E-01  0.10166036064E+01  0.10162362721E+01 0.  0.
     999903    2    3    3    0    0 -0.34073032619E-01 -0.33929452530E-01 -0.11978992970E+00  0.13068883195E+00  0.20439281784E-01 0.  0.
         14    1    1    2    0    0  0.10469598594E-01  0.42775182065E-02  0.24876135760E-01  0.27326393598E-01  0.00000000000E+00 0.  1.
     999901    1    3    3    0    0  0.23603434024E-01  0.29651934324E-01  0.94913793937E-01  0.88591477445E+00  0.88000000000E+00 0.  1.
        -11    1    4    4    0    0  0.34160298978E-03 -0.83244449820E-02 -0.30610248277E-01  0.31727929297E-01  0.51100000000E-03 0. -1.
         11    1    4    4    0    0 -0.34414635608E-01 -0.25605007548E-01 -0.89179681420E-01  0.98960902657E-01  0.51100000000E-03 0.  1.
</event>
<event>
 8    1  0.1129602E+005  0.1043930E+01  0.7957747E-01            NaN
         13   -1    0    0    0    0  0.00000000000E+00  0.00000000000E+00  0.74505805969E-08  0.10566000000E+00  0.10566000000E+00 0.  1.
     999900   -1    0    0    0    0 -0.00000000000E+00 -0.00000000000E+00 -0.74505805969E-08  0.93827000000E+00  0.93827000000E+00 0. -1.
     999902    2    1    2    0    0 -0.11681667698E-01 -0.21139372146E-01 -0.31497542904E-03  0.10197756293E+01  0.10194895294E+01 0.  0.
     999903    2    3    3    0    0  0.68215556415E-01 -0.89430764670E-01  0.64279661834E-01  0.13117012184E+00  0.20554856614E-01 0.  0.
         14    1    1    2    0    0  0.11681667698E-01  0.21139372146E-01  0.31497542904E-03  0.24154370711E-01  0.00000000000E+00 0. -1.
     999901    1    3    3    0    0 -0.79897224113E-01  0.68291392524E-01 -0.64594637263E-01  0.88860550745E+00  0.88000000000E+00 0. -1.
        -11    1    4    4    0    0  0.57082290823E-01 -0.59810898513E-01  0.45594472684E-01  0.94418475771E-01  0.51100000000E-03 0. -1.
         11    1    4    4    0    0  0.11133265591E-01 -0.29619866157E-01  0.18685189151E-01  0.36751646065E-01  0.51100000000E-03 0.  1.
</event>
<event>
 8    1  0.1129602E+005  0.1043930E+01  0.7957747E-01            NaN
         13   -1    0    0    0    0  0.00000000000E+00  0.00000000000E+00  0.74505805969E-08  0.10566000000E+00  0.10566000000E+00 0.  1.
     999900   -1    0    0    0    0 -0.00000000000E+00 -0.00000000000E+00 -0.74505805969E-08  0.93827000000E+00  0.93827000000E+00 0. -1.
     999902    2    1    2    0    0 -0.21904270435E-01 -0.99234649254E-02 -0.89155188881E-03  0.10198661872E+01  0.10195822541E+01 0.  0.
     999903    2    3    3    0    0 -0.41064562596E-01 -0.53220932752E-01  0.11116939739E+00  0.13149720767E+00  0.20349808970E-01 0.  0.
         14    1    1    2    0    0  0.21904270435E-01  0.99234649254E-02  0.89155188881E-03  0.24063812753E-01  0.00000000000E+00 0. -1.
     999901    1    3    3    0    0  0.19160292161E-01  0.43297467826E-01 -0.11206094928E+00  0.88836897957E+00  0.88000000000E+00 0. -1.
        -11    1    4    4    0    0 -0.24154067495E-01 -0.45691856151E-01  0.83536867413E-01  0.98233568770E-01  0.51100000000E-03 0.  1.
         11    1    4    4    0    0 -0.16910495101E-01 -0.75290766002E-02  0.27632529979E-01  0.33263638903E-01  0.51100000000E-03 0. -1.
</event>
<event>
 8    1  0.1129602E+005  0.1043930E+01  0.7957747E-01            NaN
         13   -1    0    0    0    0  0.00000000000E+00  0.00000000000E+00  0.74505805969E-08  0.10566000000E+00  0.10566000000E+00 0.  1.
     999900   -1    0    0    0    0 -0.00000000000E+00 -0.00000000000E+00 -0.74505805969E-08  0.93827000000E+00  0.93827000000E+00 0.  1.
     999902    2    1    2    0    0  0.93383570966E-02  0.12755084190E-01 -0.16924757087E-01  0.10207708876E+01  0.10205081383E+01 0.  0.
     999903    2    3    3    0    0  0.16634566960E-01 -0.11403689804E+00 -0.58254604659E-01  0.13069358883E+00  0.20151731064E-01 0.  0.
         14    1    1    2    0    0 -0.93383570966E-02 -0.12755084190E-01  0.16924757087E-01  0.23159112427E-01  0.00000000000E+00 0.  1.
     999901    1    3    3    0    0 -0.72962098631E-02  0.12679198223E+00  0.41329847573E-01  0.89007729874E+00  0.88000000000E+00 0. -1.
        -11    1    4    4    0    0  0.95574424710E-02 -0.82451780318E-01 -0.51312738837E-01  0.97585342507E-01  0.51100000000E-03 0.  1.
         11    1    4    4    0    0  0.70771244887E-02 -0.31585117722E-01 -0.69418658218E-02  0.33108246324E-01  0.51100000000E-03 0. -1.
</event>
<event>
 8    1  0.1129602E+005  0.1043930E+01  0.7957747E-01            NaN
         13   -1    0    0    0    0  0.00000000000E+00  0.00000000000E+00  0.74505805969E-08  0.10566000000E+00  0.10566000000E+00 0.  1.
     999900   -1    0    0    0    0 -0.00000000000E+00 -0.00000000000E+00 -0.74505805969E-08  0.93827000000E+00  0.93827000000E+00 0.  1.
     999902    2    1    2    0    0  0.73421479338E-02 -0.14478737209E-01  0.17024006959E-01  0.10204064420E+01  0.10201352602E+01 0.  0.
     999903    2    3    3    0    0  0.97289829821E-01 -0.58065213621E-01  0.67219351900E-01  0.13332699853E+00  0.20512611892E-01 0.  0.
         14    1    1    2    0    0 -0.73421479338E-02  0.14478737209E-01 -0.17024006959E-01  0.23523557988E-01  0.00000000000E+00 0.  1.
     999901    1    3    3    0    0 -0.89947681887E-01  0.43586476412E-01 -0.50195344940E-01  0.88707944349E+00  0.88000000000E+00 0. -1.
        -11    1    4    4    0    0  0.51924540932E-01 -0.35554831780E-01  0.48032354573E-01  0.79168631545E-01  0.51100000000E-03 0. -1.
         11    1    4    4    0    0  0.45365288889E-01 -0.22510381841E-01  0.19186997327E-01  0.54158366981E-01  0.51100000000E-03 0.  1.
</event>
<event>
 8    1  0.1129602E+005  0.1043930E+01  0.7957747E-01            NaN
         13   -1    0    0    0    0  0.00000000000E+00  0.00000000000E+00  0.74505805969E-08  0.10566000000E+00  0.10566000000E+00 0. -1.
     999900   -1    0    0    0    0 -0.00000000000E+00 -0.00000000000E+00 -0.74505805969E-08  0.93827000000E+00  0.93827000000E+00 0.  1.
     999902    2    1    2    0    0  0.13805721534E-01  0.21175624693E-03  0.21665988322E-01  0.10182384092E+01  0.10179142401E+01 0.  0.
     999903    2    3    3    0    0 -0.10266027785E+00 -0.56661698708E-01  0.48497648369E-01  0.12834018082E+00  0.19222366325E-01 0.  0.
         14    1    1    2    0    0 -0.13805721534E-01 -0.21175624693E-03 -0.21665988322E-01  0.25691590798E-01  0.00000000000E+00 0.  1.
     999901    1    3    3    0    0  0.11646599939E+00  0.56873454955E-01 -0.26831660047E-01  0.88989822838E+00  0.88000000000E+00 0. -1.
        -11    1    4    4    0    0 -0.45276635027E-01 -0.22776602763E-01  0.10976724744E-01  0.51860359813E-01  0.51100000000E-03 0. -1.
         11    1    4    4    0    0 -0.57383642826E-01 -0.33885095945E-01  0.37520923625E-01  0.76479821010E-01  0.51100000000E-03 0.  1.
</event>
<event>
 8    1  0.1129602E+005  0.1043930E+01  0.7957747E-01            NaN
         13   -1    0    0    0    0  0.00000000000E+00  0.00000000000E+00  0.74505805969E-08  0.10566000000E+00  0.10566000000E+00 0. -1.
     999900   -1    0    0    0    0 -0.00000000000E+00 -0.00000000000E+00 -0.74505805969E-08  0.93827000000E+00  0.93827000000E+00 0.  1.
     999902    2    1    2    0    0 -0.53821246628E-02 -0.19691144578E-01  0.12014718972E-01  0.10202432545E+01  0.10199682527E+01 0.  0.
     999903    2    3    3    0    0  0.26944428168E-01 -0.29957955571E-01 -0.12132739682E+00  0.12955221195E+00  0.20975154132E-01 0.  0.
         14    1    1    2    0    0  0.53821246628E-02  0.19691144578E-01 -0.12014718972E-01  0.23686745506E-01  0.00000000000E+00 0.  1.
     999901    1    3    3    0    0 -0.32326552830E-01  0.10266810993E-01  0.13334211579E+00  0.89069104254E+00  0.88000000000E+00 0. -1.
        -11    1    4    4    0    0  0.14018128149E-01 -0.35559593022E-02 -0.57266972695E-01  0.59067080900E-01  0.51100000000E-03 0.  1.
         11    1    4    4    0    0  0.12926300018E-01 -0.26401996269E-01 -0.64060424123E-01  0.70485131049E-01  0.51100000000E-03 0. -1.
</event>
<event>
 8    1  0.1129602E+005  0.1043930E+01  0.7957747E-01            NaN
         13   -1    0    0    0    0  0.00000000000E+00  0.00000000000E+00  0.74505805969E-08  0.10566000000E+00  0.10566000000E+00 0.  1.
     999900   -1    0    0    0    0 -0.00000000000E+00 -0.00000000000E+00 -0.74505805969E-08  0.93827000000E+00  0.93827000000E+00 0. -1.
     999902    2    1    2    0    0 -0.13125179602E-01 -0.20808077457E-01  0.26513182275E-02  0.10191857903E+01  0.10188853710E+01 0.  0.
     999903    2    3    3    0    0 -0.66892693978E-01 -0.68293771264E-01 -0.87747181650E-01  0.13165115686E+00  0.22221330143E-01 0.  0.
         14    1    1    2    0    0  0.13125179602E-01  0.20808077457E-01 -0.26513182275E-02  0.24744209735E-01  0.00000000000E+00 0.  1.
     999901    1    3    3    0    0  0.53767514375E-01  0.47485693808E-01  0.90398499877E-01  0.88753463341E+00  0.88000000000E+00 0.  1.
        -11    1    4    4    0    0 -0.38140440808E-01 -0.39953181998E-01 -0.35661159444E-01  0.65748987754E-01  0.51100000000E-03 0. -1.
         11    1    4    4    0    0 -0.28752253169E-01 -0.28340589266E-01 -0.52086022206E-01  0.65902169103E-01  0.51100000000E-03 0.  1.
</event>
<event>
 8    1  0.1129602E+005  0.1043930E+01  0.7957747E-01            NaN
         13   -1    0    0    0    0  0.00000000000E+00  0.00000000000E+00  0.74505805969E-08  0.10566000000E+00  0.10566000000E+00 0.  1.
     999900   -1    0    0    0    0 -0.00000000000E+00 -0.00000000000E+00 -0.74505805969E-08  0.93827000000E+00  0.93827000000E+00 0. -1.
     999902    2    1    2    0    0  0.18723855163E-01 -0.21549258265E-02 -0.17355753104E-01  0.10183087466E+01  0.10179863726E+01 0.  0.
     999903    2    3    3    0    0 -0.83718286261E-01 -0.34208523711E-01  0.85287178406E-01  0.12586412827E+00  0.19720584087E-01 0.  0.
         14    1    1    2    0    0 -0.18723855163E-01  0.21549258265E-02  0.17355753104E-01  0.25621253351E-01  0.00000000000E+00 0. -1.
     999901    1    3    3    0    0  0.10244214142E+00  0.32053597884E-01 -0.10264293151E+00  0.89244461837E+00  0.88000000000E+00 0. -1.
        -11    1    4    4    0    0 -0.67020471125E-01 -0.18258639792E-01  0.63789016424E-01  0.94310239180E-01  0.51100000000E-03 0. -1.
         11    1    4    4    0    0 -0.16697815136E-01 -0.15949883919E-01  0.21498161982E-01  0.31553889094E-01  0.51100000000E-03 0.  1.
</event>
<event>
 8    1  0.1129602E+005  0.1043930E+01  0.7957747E-01            NaN
         13   -1    0    0    0    0  0.00000000000E+00  0.00000000000E+00  0.74505805969E-08  0.10566000000E+00  0.10566000000E+00 0.  1.
     999900   -1    0    0    0    0 -0.00000000000E+00 -0.00000000000E+00 -0.74505805969E-08  0.93827000000E+00  0.93827000000E+00 0. -1.
     999902    2    1    2    0    0 -0.20978265361E-01 -0.44856203530E-02  0.13413529668E-01  0.10186291861E+01  0.10183149255E+01 0.  0.
     999903    2    3    3    0    0  0.61386981257E-01  0.87484330994E-01  0.68142659477E-01  0.12832711180E+00  0.20063796853E-01 0.  0.
         14    1    1    2    0    0  0.20978265361E-01  0.44856203530E-02 -0.13413529668E-01  0.25300813933E-01  0.00000000000E+00 0.  1.
     999901    1    3    3    0    0 -0.82365246618E-01 -0.91969951347E-01 -0.54729129808E-01  0.89030207427E+00  0.88000000000E+00 0. -1.
        -11    1    4    4    0    0  0.23031647868E-01  0.35473534680E-01  0.15761761579E-01  0.45138926830E-01  0.51100000000E-03 0.  1.
         11    1    4    4    0    0  0.38355333389E-01  0.52010796313E-01  0.52380897898E-01  0.83188184967E-01  0.51100000000E-03 0. -1.
</event>
<event>
 8    1  0.1129602E+005  0.1043930E+01  0.7957747E-01            NaN
         13   -1    0    0    0    0  0.00000000000E+00  0.00000000000E+00  0.74505805969E-08  0.10566000000E+00  0.10566000000E+00 0. -1.
     999900   -1    0    0    0    0 -0.00000000000E+00 -0.00000000000E+00 -0.74505805969E-08  0.93827000000E+00  0.93827000000E+00 0. -1.
     999902    2    1    2    0    0 -0.72721192881E-02  0.14660640294E-01 -0.16589758915E-01  0.10206268201E+01  0.10203607537E+01 0.  0.
     999903    2    3    3    0    0  0.24728556984E-01  0.11195845542E+00  0.60811982536E-01  0.13131138804E+00  0.19959612718E-01 0.  0.
         14    1    1    2    0    0  0.72721192881E-02 -0.14660640294E-01  0.16589758915E-01  0.23303179903E-01  0.00000000000E+00 0.  1.
     999901    1    3    3    0    0 -0.32000676272E-01 -0.97297815123E-01 -0.77401741451E-01  0.88931543205E+00  0.88000000000E+00 0. -1.
        -11    1    4    4    0    0  0.12873250972E-01  0.38997209917E-01  0.31635514569E-01  0.51841777313E-01  0.51100000000E-03 0.  1.
         11    1    4    4    0    0  0.11855306012E-01  0.72961245500E-01  0.29176467967E-01  0.79469610730E-01  0.51100000000E-03 0. -1.
</event>
<event>
 8    1  0.1129602E+005  0.1043930E+01  0.7957747E-01            NaN
         13   -1    0    0    0    0  0.00000000000E+00  0.00000000000E+00  0.74505805969E-08  0.10566000000E+00  0.10566000000E+00 0.  1.
     999900   -1    0    0    0    0 -0.00000000000E+00 -0.00000000000E+00 -0.74505805969E-08  0.93827000000E+00  0.93827000000E+00 0.  1.
     999902    2    1    2    0    0 -0.18143747099E-01  0.14792706157E-01  0.42040597489E-02  0.10201456810E+01  0.10198683820E+01 0.  0.
     999903    2    3    3    0    0 -0.86941732008E-02 -0.12449344623E+00  0.25526324925E-01  0.12888558104E+00  0.19639066572E-01 0.  0.
         14    1    1    2    0    0  0.18143747099E-01 -0.14792706157E-01 -0.42040597489E-02  0.23784319049E-01  0.00000000000E+00 0.  1.
     999901    1    3    3    0    0 -0.94495738983E-02  0.13928615238E+00 -0.21322265177E-01  0.89126009991E+00  0.88000000000E+00 0.  1.
        -11    1    4    4    0    0 -0.14037031012E-01 -0.84524535101E-01  0.21619519447E-01  0.88369112340E-01  0.51100000000E-03 0.  1.
         11    1    4    4    0    0  0.53428578115E-02 -0.39968911127E-01  0.39068054781E-02  0.40516468705E-01  0.51100000000E-03 0. -1.
</event>
<event>
 8    1  0.1129602E+005  0.1043930E+01  0.7957747E-01            NaN
         13   -1    0    0    0    0  0.00000000000E+00  0.00000000000E+00  0.74505805969E-08  0.10566000000E+00  0.10566000000E+00 0. -1.
     999900   -1    0    0    0    0 -0.00000000000E+00 -0.00000000000E+00 -0.74505805969E-08  0.93827000000E+00  0.93827000000E+00 0. -1.
     999902    2    1    2    0    0  0.85408972643E-02 -0.13477889129E-01  0.17314772358E-01  0.10203842623E+01  0.10201125629E+01 0.  0.
     999903    2    3    3    0    0  0.11775794752E+00 -0.55961244206E-01  0.53226801216E-03  0.13245698377E+00  0.23366090455E-01 0.  0.
         14    1    1    2    0    0 -0.85408972643E-02  0.13477889129E-01 -0.17314772358E-01  0.23545737687E-01  0.00000000000E+00 0.  1.
     999901    1    3    3    0    0 -0.10921705026E+00  0.42483355077E-01  0.16782504346E-01  0.88792727854E+00  0.88000000000E+00 0. -1.
        -11    1    4    4    0    0  0.62051468784E-02  0.17209577814E-02 -0.22533452538E-02  0.68413616555E-02  0.51100000000E-03 0.  1.
         11    1    4    4    0    0  0.11155280064E+00 -0.57682201987E-01  0.27856132659E-02  0.12561562212E+00  0.51100000000E-03 0. -1.
</event>
<event>
 8    1  0.1129602E+005  0.1043930E+01  0.7957747E-01            NaN
         13   -1    0    0    0    0  0.00000000000E+00  0.00000000000E+00  0.74505805969E-08  0.10566000000E+00  0.10566000000E+00 0.  1.
     999900   -1    0    0    0    0 -0.00000000000E+00 -0.00000000000E+00 -0.74505805969E-08  0.93827000000E+00  0.93827000000E+00 0.  1.
     999902    2    1    2    0    0  0.15158803546E-01  0.12723997577E-01  0.60216233459E-02  0.10232430624E+01  0.10230339268E+01 0.  0.
     999903    2    3    3    0    0  0.84141473230E-01  0.57047523276E-01 -0.85886174584E-01  0.13466541978E+00  0.20594486443E-01 0.  0.
         14    1    1    2    0    0 -0.15158803546E-01 -0.12723997577E-01 -0.60216233459E-02  0.20686937594E-01  0.00000000000E+00 0. -1.
     999901    1    3    3    0    0 -0.68982669684E-01 -0.44323525698E-01  0.91907797929E-01  0.88857764262E+00  0.88000000000E+00 0.  1.
        -11    1    4    4    0    0  0.21107180014E-01  0.24242487074E-01 -0.33112375944E-01  0.46150859032E-01  0.51100000000E-03 0.  1.
         11    1    4    4    0    0  0.63034293215E-01  0.32805036201E-01 -0.52773798640E-01  0.88514560753E-01  0.51100000000E-03 0. -1.
</event>
<event>
 8    1  0.1129602E+005  0.1043930E+01  0.7957747E-01            NaN
         13   -1    0    0    0    0  0.00000000000E+00  0.00000000000E+00  0.74505805969E-08  0.10566000000E+00  0.10566000000E+00 0.  1.
     999900   -1    0    0    0    0 -0.00000000000E+00 -0.00000000000E+00 -0.74505805969E-08  0.93827000000E+00  0.93827000000E+00 0. -1.
     999902    2    1    2    0    0 -0.21943818943E-01  0.84968966180E-02 -0.21826136990E-02  0.10202975595E+01  0.10200238319E+01 0.  0.
     999903    2    3    3    0    0  0.62119036838E-02 -0.12724463684E+00  0.10932977836E-01  0.12934833121E+00  0.19536515342E-01 0.  0.
         14    1    1    2    0    0  0.21943818943E-01 -0.84968966180E-02  0.21826136990E-02  0.23632440511E-01  0.00000000000E+00 0.  1.
     999901    1    3    3    0    0 -0.28155722627E-01  0.13574153346E+00 -0.13115591535E-01  0.89094922827E+00  0.88000000000E+00 0. -1.
        -11    1    4    4    0    0  0.60518537787E-02 -0.94403328319E-01  0.16522198965E-01  0.96030503026E-01  0.51100000000E-03 0. -1.
         11    1    4    4    0    0  0.16004990503E-03 -0.32841308521E-01 -0.55892211290E-02  0.33317828188E-01  0.51100000000E-03 0.  1.
</event>
<event>
 8    1  0.1129602E+005  0.1043930E+01  0.7957747E-01            NaN
         13   -1    0    0    0    0  0.00000000000E+00  0.00000000000E+00  0.74505805969E-08  0.10566000000E+00  0.10566000000E+00 0. -1.
     999900   -1    0    0    0    0 -0.00000000000E+00 -0.00000000000E+00 -0.74505805969E-08  0.93827000000E+00  0.93827000000E+00 0. -1.
     999902    2    1    2    0    0 -0.15673102479E-01 -0.78689890066E-02 -0.15431460208E-01  0.10205698396E+01  0.10203024554E+01 0.  0.
     999903    2    3    3    0    0  0.23320994105E-02 -0.13242642144E-01 -0.13064967734E+00  0.13286025816E+00  0.20042548519E-01 0.  0.
         14    1    1    2    0    0  0.15673102479E-01  0.78689890066E-02  0.15431460208E-01  0.23360160390E-01  0.00000000000E+00 0. -1.
     999901    1    3    3    0    0 -0.18005201890E-01  0.53736531373E-02  0.11521821713E+00  0.88770958145E+00  0.88000000000E+00 0.  1.
        -11    1    4    4    0    0  0.43112269667E-02 -0.18050253923E-01 -0.91573670440E-01  0.93436591245E-01  0.51100000000E-03 0.  1.
         11    1    4    4    0    0 -0.19791275562E-02  0.48076117791E-02 -0.39076006897E-01  0.39423666913E-01  0.51100000000E-03 0. -1.
</event>
<event>
 8    1  0.1129602E+005  0.1043930E+01  0.7957747E-01            NaN
         13   -1    0    0    0    0  0.00000000000E+00  0.00000000000E+00  0.74505805969E-08  0.10566000000E+00  0.10566000000E+00 0. -1.
     999900   -1    0    0    0    0 -0.00000000000E+00 -0.00000000000E+00 -0.74505805969E-08  0.93827000000E+00  0.93827000000E+00 0.  1.
     999902    2    1    2    0    0 -0.94168045821E-03  0.81690308199E-02  0.23627181765E-01  0.10189127351E+01  0.10186055655E+01 0.  0.
     999903    2    3    3    0    0 -0.70552700555E-01  0.65877856488E-01 -0.81816885899E-01  0.12801742467E+00  0.19413466199E-01 0.  0.
         14    1    1    2    0    0  0.94168045821E-03 -0.81690308199E-02 -0.23627181765E-01  0.25017264934E-01  0.00000000000E+00 0.  1.
     999901    1    3    3    0    0  0.69611020097E-01 -0.57708825668E-01  0.10544406766E+00  0.89089531040E+00  0.88000000000E+00 0. -1.
        -11    1    4    4    0    0 -0.47226479547E-01  0.52874027875E-01 -0.66622240182E-01  0.97287137906E-01  0.51100000000E-03 0. -1.
         11    1    4    4    0    0 -0.23326221008E-01  0.13003828613E-01 -0.15194645717E-01  0.30730286764E-01  0.51100000000E-03 0.  1.
</event>
<event>
 8    1  0.1129602E+005  0.1043930E+01  0.7957747E-01            NaN
         13   -1    0    0    0    0  0.00000000000E+00  0.00000000000E+00  0.74505805969E-08  0.10566000000E+00  0.10566000000E+00 0.  1.
     999900   -1    0    0    0    0 -0.00000000000E+00 -0.00000000000E+00 -0.74505805969E-08  0.93827000000E+00  0.93827000000E+00 0.  1.
     999902    2    1    2    0    0  0.10073534075E-01 -0.16782495512E-01 -0.12809154355E-01  0.10205376363E+01  0.10202695058E+01 0.  0.
     999903    2    3    3    0    0  0.10378812457E+00  0.38363172105E-01 -0.69579192374E-01  0.13202972618E+00  0.18624629017E-01 0.  0.
         14    1    1    2    0    0 -0.10073534075E-01  0.16782495512E-01  0.12809154355E-01  0.23392363704E-01  0.00000000000E+00 0.  1.
     999901    1    3    3    0    0 -0.93714590500E-01 -0.55145667617E-01  0.56770038018E-01  0.88850791012E+00  0.88000000000E+00 0. -1.
        -11    1    4    4    0    0  0.76555873304E-01  0.32208650435E-01 -0.60176391109E-01  0.10256538436E+00  0.51100000000E-03 0.  1.
         11    1    4    4    0    0  0.27232251271E-01  0.61545216704E-02 -0.94028012647E-02  0.29464341820E-01  0.51100000000E-03 0. -1.
</event>
<event>
 8    1  0.1129602E+005  0.1043930E+01  0.7957747E-01            NaN
         13   -1    0    0    0    0  0.00000000000E+00  0.00000000000E+00  0.74505805969E-08  0.10566000000E+00  0.10566000000E+00 0. -1.
     999900   -1    0    0    0    0 -0.00000000000E+00 -0.00000000000E+00 -0.74505805969E-08  0.93827000000E+00  0.93827000000E+00 0.  1.
     999902    2    1    2    0    0  0.16089685141E-01  0.16778397827E-01  0.45572399360E-02  0.10202411622E+01  0.10199661112E+01 0.  0.
     999903    2    3    3    0    0  0.49461682967E-01 -0.20093608292E-01  0.11841685645E+00  0.13151328068E+00  0.20566475818E-01 0.  0.
         14    1    1    2    0    0 -0.16089685141E-01 -0.16778397827E-01 -0.45572399360E-02  0.23688837823E-01  0.00000000000E+00 0.  1.
     999901    1    3    3    0    0 -0.33371997826E-01  0.36872006119E-01 -0.11385961652E+00  0.88872788150E+00  0.88000000000E+00 0.  1.
        -11    1    4    4    0    0  0.48220639544E-01 -0.21617308119E-01  0.10111098432E+00  0.11408869514E+00  0.51100000000E-03 0. -1.
         11    1    4    4    0    0  0.12410434232E-02  0.15236998265E-02  0.17305872132E-01  0.17424585539E-01  0.51100000000E-03 0.  1.
</event>
<event>
 8    1  0.1305081E+005  0.1043930E+01  0.7957747E-01            NaN
         13   -1    0    0    0    0  0.00000000000E+00  0.00000000000E+00  0.74505805969E-08  0.10566000000E+00  0.10566000000E+00 0. -1.
     999900   -1    0    0    0    0 -0.00000000000E+00 -0.00000000000E+00 -0.74505805969E-08  0.93827000000E+00  0.93827000000E+00 0. -1.
     999902    2    1    2    0    0  0.22877170379E-02 -0.23377582100E-02 -0.22762223614E-01  0.10209339659E+01  0.10206749458E+01 0.  0.
     999903    2    3    3    0    0 -0.11120498327E+00 -0.30506416267E-01  0.55934876216E-01  0.12971721340E+00  0.20016376754E-01 0.  0.
         14    1    1    2    0    0 -0.22877170379E-02  0.23377582100E-02  0.22762223614E-01  0.22996034149E-01  0.00000000000E+00 0. -1.
     999901    1    3    3    0    0  0.11349270031E+00  0.28168658057E-01 -0.78697099831E-01  0.89121675245E+00  0.88000000000E+00 0.  1.
        -11    1    4    4    0    0 -0.56577442151E-01 -0.23124603653E-01  0.36896562422E-01  0.71395880091E-01  0.51100000000E-03 0. -1.
         11    1    4    4    0    0 -0.54627541120E-01 -0.73818126138E-02  0.19038313794E-01  0.58321333313E-01  0.51100000000E-03 0.  1.
</event>
<event>
 8    1  0.1129602E+005  0.1043930E+01  0.7957747E-01            NaN
         13   -1    0    0    0    0  0.00000000000E+00  0.00000000000E+00  0.74505805969E-08  0.10566000000E+00  0.10566000000E+00 0. -1.
     999900   -1    0    0    0    0 -0.00000000000E+00 -0.00000000000E+00 -0.74505805969E-08  0.93827000000E+00  0.93827000000E+00 0.  1.
     999902    2    1    2    0    0  0.32585652846E-02  0.23039862828E-01  0.57450813250E-02  0.10199621155E+01  0.10196804684E+01 0.  0.
     999903    2    3    3    0    0 -0.20295456952E-01 -0.21333915908E-02 -0.12605345245E+00  0.12947947212E+00  0.21424376105E-01 0.  0.
         14    1    1    2    0    0 -0.32585652846E-02 -0.23039862828E-01 -0.57450813250E-02  0.23967884477E-01  0.00000000000E+00 0.  1.
     999901    1    3    3    0    0  0.23554022236E-01  0.25173254419E-01  0.13179853378E+00  0.89048264341E+00  0.88000000000E+00 0. -1.
        -11    1    4    4    0    0  0.45499892688E-02  0.44621104672E-03 -0.20351036682E-01  0.20864499076E-01  0.51100000000E-03 0. -1.
         11    1    4    4    0    0 -0.24845446220E-01 -0.25796026375E-02 -0.10570241577E+00  0.10861497304E+00  0.51100000000E-03 0.  1.
</event>
<event>
 8    1  0.1129602E+005  0.1043930E+01  0.7957747E-01            NaN
         13   -1    0    0    0    0  0.00000000000E+00  0.00000000000E+00  0.74505805969E-08  0.10566000000E+00  0.10566000000E+00 0.  1.
     999900   -1    0    0    0    0 -0.00000000000E+00 -0.00000000000E+00 -0.74505805969E-08  0.93827000000E+00  0.93827000000E+00 0.  1.
     999902    2    1    2    0    0  0.13232133364E-01  0.17732693492E-01  0.86520077337E-02  0.10201730008E+01  0.10198963460E+01 0.  0.
     999903    2    3    3    0    0  0.70642698349E-01  0.10513685147E+00 -0.34924377947E-01  0.13291071650E+00  0.20034919981E-01 0.  0.
         14    1    1    2    0    0 -0.13232133364E-01 -0.17732693492E-01 -0.86520077337E-02  0.23756999172E-01  0.00000000000E+00 0. -1.
     999901    1    3    3    0    0 -0.57410564985E-01 -0.87404157976E-01  0.43576385681E-01  0.88726228433E+00  0.88000000000E+00 0.  1.
        -11    1    4    4    0    0  0.19148284292E-01  0.45744514940E-01 -0.15087902407E-01  0.51837470602E-01  0.51100000000E-03 0. -1.
         11    1    4    4    0    0  0.51494414057E-01  0.59392336528E-01 -0.19836475540E-01  0.81073245896E-01  0.51100000000E-03 0.  1.
</event>
<event>
 8    1  0.1129602E+005  0.1043930E+01  0.7957747E-01            NaN
         13   -1    0    0    0    0  0.00000000000E+00  0.00000000000E+00  0.74505805969E-08  0.10566000000E+00  0.10566000000E+00 0.  1.
     999900   -1    0    0    0    0 -0.00000000000E+00 -0.00000000000E+00 -0.74505805969E-08  0.93827000000E+00  0.93827000000E+00 0.  1.
     999902    2    1    2    0    0 -0.81628880804E-02 -0.13124224686E-01  0.17243102426E-01  0.10207739512E+01  0.10205112723E+01 0.  0.
     999903    2    3    3    0    0 -0.39949920486E-01 -0.67823965380E-01 -0.10198881428E+00  0.13048257921E+00  0.20685715163E-01 0.  0.
         14    1    1    2    0    0  0.81628880804E-02  0.13124224686E-01 -0.17243102426E-01  0.23156048814E-01  0.00000000000E+00 0. -1.
     999901    1    3    3    0    0  0.31787032406E-01  0.54699740695E-01  0.11923191670E+00  0.89029137198E+00  0.88000000000E+00 0. -1.
        -11    1    4    4    0    0 -0.24394428872E-01 -0.25683780673E-01 -0.34798273859E-01  0.49658088306E-01  0.51100000000E-03 0. -1.
         11    1    4    4    0    0 -0.15555491614E-01 -0.42140184707E-01 -0.67190540418E-01  0.80824490900E-01  0.51100000000E-03 0.  1.
</event>
<event>
 8    1  0.1129602E+005  0.1043930E+01  0.7957747E-01            NaN
         13   -1    0    0    0    0  0.00000000000E+00  0.00000000000E+00  0.74505805969E-08  0.10566000000E+00  0.10566000000E+00 0.  1.
     999900   -1    0    0    0    0 -0.00000000000E+00 -0.00000000000E+00 -0.74505805969E-08  0.93827000000E+00  0.93827000000E+00 0.  1.
     999902    2    1    2    0    0 -0.84918638440E-03 -0.29751218625E-02  0.23726711325E-01  0.10200024155E+01  0.10197217260E+01 0.  0.
     999903    2    3    3    0    0  0.36654144147E-01 -0.10887124384E+00 -0.55941525403E-01  0.12929061232E+00  0.19751813915E-01 0.  0.
         14    1    1    2    0    0  0.84918638440E-03  0.29751218625E-02 -0.23726711325E-01  0.23927584457E-01  0.00000000000E+00 0. -1.
     999901    1    3    3    0    0 -0.37503330532E-01  0.10589612197E+00  0.79668236728E-01  0.89071180322E+00  0.88000000000E+00 0. -1.
        -11    1    4    4    0    0  0.23943186916E-01 -0.42844146956E-01 -0.19552109481E-01  0.52834110518E-01  0.51100000000E-03 0. -1.
         11    1    4    4    0    0  0.12710957232E-01 -0.66027096881E-01 -0.36389415922E-01  0.76456501806E-01  0.51100000000E-03 0.  1.
</event>
<event>
 8    1  0.1129602E+005  0.1043930E+01  0.7957747E-01            NaN
         13   -1    0    0    0    0  0.00000000000E+00  0.00000000000E+00  0.74505805969E-08  0.10566000000E+00  0.10566000000E+00 0. -1.
     999900   -1    0    0    0    0 -0.00000000000E+00 -0.00000000000E+00 -0.74505805969E-08  0.93827000000E+00  0.93827000000E+00 0.  1.
     999902    2    1    2    0    0  0.34580761644E-03  0.22935222121E-01  0.49167202974E-02  0.10204711395E+01  0.10202014646E+01 0.  0.
     999903    2    3    3    0    0  0.42952976888E-01 -0.57485691319E-01 -0.10515982286E+00  0.12895572207E+00  0.20528686804E-01 0.  0.
         14    1    1    2    0    0 -0.34580761644E-03 -0.22935222121E-01 -0.49167202974E-02  0.23458860482E-01  0.00000000000E+00 0. -1.
     999901    1    3    3    0    0 -0.42607169272E-01  0.80420913440E-01  0.11007654315E+00  0.89151541745E+00  0.88000000000E+00 0. -1.
        -11    1    4    4    0    0  0.34579136044E-01 -0.30039616639E-01 -0.68335965586E-01  0.82268830859E-01  0.51100000000E-03 0.  1.
         11    1    4    4    0    0  0.83738408439E-02 -0.27446074680E-01 -0.36823857270E-01  0.46686891212E-01  0.51100000000E-03 0. -1.
</event>
<event>
 8    1  0.1129602E+005  0.1043930E+01  0.7957747E-01            NaN
         13   -1    0    0    0    0  0.00000000000E+00  0.00000000000E+00  0.74505805969E-08  0.10566000000E+00  0.10566000000E+00 0. -1.
     999900   -1    0    0    0    0 -0.00000000000E+00 -0.00000000000E+00 -0.74505805969E-08  0.93827000000E+00  0.93827000000E+00 0. -1.
     999902    2    1    2    0    0  0.31513776448E-02  0.21235126678E-01 -0.83732863704E-02  0.10208871332E+01  0.10206270450E+01 0.  0.
     999903    2    3    3    0    0  0.88738767011E-01 -0.24803280922E-01 -0.91744868964E-01  0.13162026831E+00  0.20420639894E-01 0.  0.
         14    1    1    2    0    0 -0.31513776448E-02 -0.21235126678E-01  0.83732863704E-02  0.23042866808E-01  0.00000000000E+00 0. -1.
     999901    1    3    3    0    0 -0.85587389366E-01  0.46038407600E-01  0.83371582593E-01  0.88926686488E+00  0.88000000000E+00 0.  1.
        -11    1    4    4    0    0  0.66988047360E-01 -0.92489670899E-02 -0.66370967537E-01  0.94753935719E-01  0.51100000000E-03 0. -1.
         11    1    4    4    0    0  0.21750719651E-01 -0.15554313832E-01 -0.25373901426E-01  0.36866332591E-01  0.51100000000E-03 0.  1.
</event>
<event>
 8    1  0.1129602E+005  0.1043930E+01  0.7957747E-01            NaN
         13   -1    0    0    0    0  0.00000000000E+00  0.00000000000E+00  0.74505805969E-08  0.10566000000E+00  0.10566000000E+00 0. -1.
     999900   -1    0    0    0    0 -0.00000000000E+00 -0.00000000000E+00 -0.74505805969E-08  0.93827000000E+00  0.93827000000E+00 0. -1.
     999902    2    1    2    0    0  0.81197855991E-02  0.13582166421E-01 -0.12158982076E-01  0.10239738729E+01  0.10237793929E+01 0.  0.
     999903    2    3    3    0    0 -0.56021257968E-01 -0.96365926363E-01  0.66619757662E-01  0.13133242956E+00  0.19627578408E-01 0.  0.
         14    1    1    2    0    0 -0.81197855991E-02 -0.13582166421E-01  0.12158982076E-01  0.19956127079E-01  0.00000000000E+00 0. -1.
     999901    1    3    3    0    0  0.64141043567E-01  0.10994809278E+00 -0.78778739739E-01  0.89264144336E+00  0.88000000000E+00 0.  1.
        -11    1    4    4    0    0 -0.38732321895E-01 -0.51319100023E-01  0.44859688592E-01  0.78399589082E-01  0.51100000000E-03 0.  1.
         11    1    4    4    0    0 -0.17288936073E-01 -0.45046826340E-01  0.21760069070E-01  0.52932840475E-01  0.51100000000E-03 0. -1.
</event>
<event>
 8    1  0.1129602E+005  0.1043930E+01  0.7957747E-01            NaN
         13   -1    0    0    0    0  0.00000000000E+00  0.00000000000E+00  0.74505805969E-08  0.10566000000E+00  0.10566000000E+00 0.  1.
     999900   -1    0    0    0    0 -0.00000000000E+00 -0.00000000000E+00 -0.74505805969E-08  0.93827000000E+00  0.93827000000E+00 0. -1.
     999902    2    1    2    0    0  0.13528180051E-01  0.31278037545E-02 -0.19176677080E-01  0.10202542792E+01  0.10199795363E+01 0.  0.
     999903    2    3    3    0    0 -0.82788024756E-02  0.12896380228E+00  0.41638435774E-02  0.13072911209E+00  0.19301872539E-01 0.  0.
         14    1    1    2    0    0 -0.13528180051E-01 -0.31278037545E-02  0.19176677080E-01  0.23675720806E-01  0.00000000000E+00 0.  1.
     999901    1    3    3    0    0  0.21806982527E-01 -0.12583599853E+00 -0.23340520658E-01  0.88952516711E+00  0.88000000000E+00 0. -1.
        -11    1    4    4    0    0 -0.11116514500E-01  0.99262581508E-01  0.97881206535E-02  0.10036286868E+00  0.51100000000E-03 0.  1.
         11    1    4    4    0    0  0.28377120244E-02  0.29701220777E-01 -0.56242770761E-02  0.30366243410E-01  0.51100000000E-03 0. -1.
</event>
<event>
 8    1  0.1129602E+005  0.1043930E+01  0.7957747E-01            NaN
         13   -1    0    0    0    0  0.00000000000E+00  0.00000000000E+00  0.74505805969E-08  0.10566000000E+00  0.10566000000E+00 0.  1.
     999900   -1    0    0    0    0 -0.00000000000E+00 -0.00000000000E+00 -0.74505805969E-08  0.93827000000E+00  0.93827000000E+00 0. -1.
     999902    2    1    2    0    0  0.12025760742E-01  0.19455304886E-01 -0.58480914618E-02  0.10203222050E+01  0.10200490547E+01 0.  0.
     999903    2    3    3    0    0 -0.49245945141E-01 -0.11365741965E+00 -0.25083695026E-01  0.12799758483E+00  0.20273574226E-01 0.  0.
         14    1    1    2    0    0 -0.12025760742E-01 -0.19455304886E-01  0.58480914618E-02  0.23607794971E-01  0.00000000000E+00 0. -1.
     999901    1    3    3    0    0  0.61271705883E-01  0.13311272453E+00  0.19235603564E-01  0.89232462020E+00  0.88000000000E+00 0.  1.
        -11    1    4    4    0    0 -0.19425096370E-01 -0.67472301820E-01 -0.95079661055E-02  0.70855546165E-01  0.51100000000E-03 0. -1.
         11    1    4    4    0    0 -0.29820848771E-01 -0.46185117827E-01 -0.15575728920E-01  0.57142038662E-01  0.51100000000E-03 0.  1.
</event>
<event>
 8    1  0.1129602E+005  0.1043930E+01  0.7957747E-01            NaN
         13   -1    0    0    0    0  0.00000000000E+00  0.00000000000E+00  0.74505805969E-08  0.10566000000E+00  0.10566000000E+00 0. -1.
     999900   -1    0    0    0    0 -0.00000000000E+00 -0.00000000000E+00 -0.74505805969E-08  0.93827000000E+00  0.93827000000E+00 0. -1.
     999902    2    1    2    0    0 -0.61251963753E-02 -0.16684081239E-01 -0.13334316760E-01  0.10217110756E+01  0.10214694520E+01 0.  0.
     999903    2    3    3    0    0  0.46794936524E-01  0.64712002836E-01  0.99485482368E-01  0.12921224086E+00  0.20519078674E-01 0.  0.
         14    1    1    2    0    0  0.61251963753E-02  0.16684081239E-01  0.13334316760E-01  0.22218924386E-01  0.00000000000E+00 0. -1.
     999901    1    3    3    0    0 -0.52920132899E-01 -0.81396084076E-01 -0.11281979913E+00  0.89249883476E+00  0.88000000000E+00 0. -1.
        -11    1    4    4    0    0  0.14297734126E-01  0.36415872101E-01  0.42494908212E-01  0.57763477103E-01  0.51100000000E-03 0.  1.
         11    1    4    4    0    0  0.32497202398E-01  0.28296130736E-01  0.56990574156E-01  0.71448763753E-01  0.51100000000E-03 0. -1.
</event>
<event>
 8    1  0.1129602E+005  0.1043930E+01  0.7957747E-01            NaN
         13   -1    0    0    0    0  0.00000000000E+00  0.00000000000E+00  0.74505805969E-08  0.10566000000E+00  0.10566000000E+00 0.  1.
     999900   -1    0    0    0    0 -0.00000000000E+00 -0.00000000000E+00 -0.74505805969E-08  0.93827000000E+00  0.93827000000E+00 0. -1.
     999902    2    1    2    0    0  0.10431803667E-01  0.20154025349E-01  0.10239627552E-01  0.10190330677E+01  0.10187288824E+01 0.  0.
     999903    2    3    3    0    0 -0.44646343245E-01 -0.11652162201E+00 -0.10377908070E-01  0.12654277777E+00  0.18297247550E-01 0.  0.
         14    1    1    2    0    0 -0.10431803667E-01 -0.20154025349E-01 -0.10239627552E-01  0.24896932299E-01  0.00000000000E+00 0. -1.
     999901    1    3    3    0    0  0.55078146911E-01  0.13667564736E+00  0.20617535622E-01  0.89249028993E+00  0.88000000000E+00 0. -1.
        -11    1    4    4    0    0 -0.24380762282E-01 -0.80015623166E-01 -0.13228240832E-01  0.84688659197E-01  0.51100000000E-03 0. -1.
         11    1    4    4    0    0 -0.20265580963E-01 -0.36505998846E-01  0.28503327617E-02  0.41854118571E-01  0.51100000000E-03 0.  1.
</event>
<event>
 8    1  0.1129602E+005  0.1043930E+01  0.7957747E-01            NaN
         13   -1    0    0    0    0  0.00000000000E+00  0.00000000000E+00  0.74505805969E-08  0.10566000000E+00  0.10566000000E+00 0.  1.
     999900   -1    0    0    0    0 -0.00000000000E+00 -0.00000000000E+00 -0.74505805969E-08  0.93827000000E+00  0.93827000000E+00 0. -1.
     999902    2    1    2    0    0  0.38410837871E-02  0.23337407548E-01  0.15638518577E-02  0.10202269591E+01  0.10199515743E+01 0.  0.
     999903    2    3    3    0    0  0.26616358589E-01  0.11371703270E+00 -0.60789834149E-01  0.13311074802E+00  0.19572256686E-01 0.  0.
         14    1    1    2    0    0 -0.38410837871E-02 -0.23337407548E-01 -0.15638518577E-02  0.23703040910E-01  0.00000000000E+00 0.  1.
     999901    1    3    3    0    0 -0.22775274802E-01 -0.90379625153E-01  0.62353686006E-01  0.88711621107E+00  0.88000000000E+00 0. -1.
        -11    1    4    4    0    0  0.13013271497E-01  0.21819705196E-01 -0.10750628702E-01  0.27591337560E-01  0.51100000000E-03 0.  1.
         11    1    4    4    0    0  0.13603087092E-01  0.91897327505E-01 -0.50039205447E-01  0.10551941046E+00  0.51100000000E-03 0. -1.
</event>
<event>
 8    1  0.1129602E+005  0.1043930E+01  0.7957747E-01            NaN
         13   -1    0    0    0    0  0.00000000000E+00  0.00000000000E+00  0.74505805969E-08  0.10566000000E+00  0.10566000000E+00 0. -1.
     999900   -1    0    0    0    0 -0.00000000000E+00 -0.00000000000E+00 -0.74505805969E-08  0.93827000000E+00  0.93827000000E+00 0.  1.
     999902    2    1    2    0    0  0.12082590782E-01 -0.73367980413E-02 -0.20242615004E-01  0.10192403044E+01  0.10189412236E+01 0.  0.
     999903    2    3    3    0    0 -0.12017871363E+00 -0.23033074090E-01 -0.35857029533E-01  0.12908119748E+00  0.20069460970E-01 0.  0.
         14    1    1    2    0    0 -0.12082590782E-01  0.73367980413E-02  0.20242615004E-01  0.24689695577E-01  0.00000000000E+00 0. -1.
     999901    1    3    3    0    0  0.13226130442E+00  0.15696276049E-01  0.15614414529E-01  0.89015910694E+00  0.88000000000E+00 0.  1.
        -11    1    4    4    0    0 -0.82257950748E-01 -0.20990801633E-01 -0.32684031581E-01  0.90969727140E-01  0.51100000000E-03 0.  1.
         11    1    4    4    0    0 -0.37920762886E-01 -0.20422724575E-02 -0.31729979522E-02  0.38111470343E-01  0.51100000000E-03 0. -1.
</event>
<event>
 8    1  0.1129602E+005  0.1043930E+01  0.7957747E-01            NaN
         13   -1    0    0    0    0  0.00000000000E+00  0.00000000000E+00  0.74505805969E-08  0.10566000000E+00  0.10566000000E+00 0. -1.
     999900   -1    0    0    0    0 -0.00000000000E+00 -0.00000000000E+00 -0.74505805969E-08  0.93827000000E+00  0.93827000000E+00 0. -1.
     999902    2    1    2    0    0 -0.29329730706E-02 -0.20375110063E-01 -0.13443285547E-01  0.10193440413E+01  0.10190474989E+01 0.  0.
     999903    2    3    3    0    0  0.85345078563E-02  0.12219084380E+00  0.26495931172E-01  0.12690261721E+00  0.19969971301E-01 0.  0.
         14    1    1    2    0    0  0.29329730706E-02  0.20375110063E-01  0.13443285547E-01  0.24585958745E-01  0.00000000000E+00 0. -1.
     999901    1    3    3    0    0 -0.11467480927E-01 -0.14256595386E+00 -0.39939216719E-01  0.89244142404E+00  0.88000000000E+00 0.  1.
        -11    1    4    4    0    0  0.63071760509E-02  0.58912739120E-01  0.22761845587E-01  0.63473254493E-01  0.51100000000E-03 0.  1.
         11    1    4    4    0    0  0.22273318054E-02  0.63278104678E-01  0.37340855842E-02  0.63429362717E-01  0.51100000000E-03 0. -1.
</event>
<event>
 8    1  0.1129602E+005  0.1043930E+01  0.7957747E-01            NaN
         13   -1    0    0    0    0  0.00000000000E+00  0.00000000000E+00  0.74505805969E-08  0.10566000000E+00  0.10566000000E+00 0.  1.
     999900   -1    0    0    0    0 -0.00000000000E+00 -0.00000000000E+00 -0.74505805969E-08  0.93827000000E+00  0.93827000000E+00 0. -1.
     999902    2    1    2    0    0  0.53190757446E-03  0.23431085211E-01 -0.21803806358E-02  0.10203916751E+01  0.10201201487E+01 0.  0.
     999903    2    3    3    0    0 -0.67875634977E-01  0.26074313657E-03  0.10951867035E+00  0.13039553205E+00  0.20037110903E-01 0.  0.
         14    1    1    2    0    0 -0.53190757446E-03 -0.23431085211E-01  0.21803806358E-02  0.23538324909E-01  0.00000000000E+00 0. -1.
     999901    1    3    3    0    0  0.68407542552E-01  0.23170342074E-01 -0.11169905099E+00  0.88999614304E+00  0.88000000000E+00 0. -1.
        -11    1    4    4    0    0 -0.60765190039E-02 -0.15564043098E-02  0.24355796098E-01  0.25155762802E-01  0.51100000000E-03 0.  1.
         11    1    4    4    0    0 -0.61799115973E-01  0.18171474464E-02  0.85162874253E-01  0.10523976925E+00  0.51100000000E-03 0. -1.
</event>
<event>
 8    1  0.1129602E+005  0.1043930E+01  0.7957747E-01            NaN
         13   -1    0    0    0    0  0.00000000000E+00  0.00000000000E+00  0.74505805969E-08  0.10566000000E+00  0.10566000000E+00 0.  1.
     999900   -1    0    0    0    0 -0.00000000000E+00 -0.00000000000E+00 -0.74505805969E-08  0.93827000000E+00  0.93827000000E+00 0. -1.
     999902    2    1    2    0    0  0.40999842522E-02  0.31295529501E-01  0.10553460371E-01  0.10106494417E+01  0.10101013307E+01 0.  0.
     999903    2    3    3    0    0  0.96238048280E-01 -0.22926781266E-02  0.73844072151E-01  0.12294268148E+00  0.19873037691E-01 0.  0.
         14    1    1    2    0    0 -0.40999842522E-02 -0.31295529501E-01 -0.10553460371E-01  0.33280558340E-01  0.00000000000E+00 0.  1.
     999901    1    3    3    0    0 -0.92138064028E-01  0.33588207628E-01 -0.63290611780E-01  0.88770676018E+00  0.88000000000E+00 0.  1.
        -11    1    4    4    0    0  0.38269205989E-01  0.45618517452E-02  0.39618881569E-01  0.55274401997E-01  0.51100000000E-03 0.  1.
         11    1    4    4    0    0  0.57968842291E-01 -0.68545298717E-02  0.34225190583E-01  0.67668279480E-01  0.51100000000E-03 0. -1.
</event>
<event>
 8    1  0.1129602E+005  0.1043930E+01  0.7957747E-01            NaN
         13   -1    0    0    0    0  0.00000000000E+00  0.00000000000E+00  0.74505805969E-08  0.10566000000E+00  0.10566000000E+00 0.  1.
     999900   -1    0    0    0    0 -0.00000000000E+00 -0.00000000000E+00 -0.74505805969E-08  0.93827000000E+00  0.93827000000E+00 0.  1.
     999902    2    1    2    0    0 -0.14404482376E-01 -0.49176400781E-02 -0.18359034667E-01  0.10200820137E+01  0.10198032105E+01 0.  0.
     999903    2    3    3    0    0  0.72907992045E-01  0.96105849712E-01 -0.42838349861E-01  0.12967286587E+00  0.20688602432E-01 0.  0.
         14    1    1    2    0    0  0.14404482376E-01  0.49176400781E-02  0.18359034667E-01  0.23847986296E-01  0.00000000000E+00 0. -1.
     999901    1    3    3    0    0 -0.87312474420E-01 -0.10102348979E+00  0.24479315194E-01  0.89040914784E+00  0.88000000000E+00 0.  1.
        -11    1    4    4    0    0  0.54094644308E-01  0.54819027295E-01 -0.26650165374E-01  0.81497538195E-01  0.51100000000E-03 0.  1.
         11    1    4    4    0    0  0.18813347736E-01  0.41286822417E-01 -0.16188184488E-01  0.48175327673E-01  0.51100000000E-03 0. -1.
</event>
<event>
 8    1  0.1129602E+005  0.1043930E+01  0.7957747E-01            NaN
         13   -1    0    0    0    0  0.00000000000E+00  0.00000000000E+00  0.74505805969E-08  0.10566000000E+00  0.10566000000E+00 0. -1.
     999900   -1    0    0    0    0 -0.00000000000E+00 -0.00000000000E+00 -0.74505805969E-08  0.93827000000E+00  0.93827000000E+00 0. -1.
     999902    2    1    2    0    0 -0.81037655343E-03  0.41255149875E-02  0.21454291277E-01  0.10220676305E+01  0.10218337821E+01 0.  0.
     999903    2    3    3    0    0  0.11937950599E+00  0.30898599580E-01  0.46109900206E-01  0.13315238994E+00  0.19931034685E-01 0.  0.
         14    1    1    2    0    0  0.81037655343E-03 -0.41255149875E-02 -0.21454291277E-01  0.21862369457E-01  0.00000000000E+00 0.  1.
     999901    1    3    3    0    0 -0.12018988254E+00 -0.26773084592E-01 -0.24655608929E-01  0.88891524060E+00  0.88000000000E+00 0.  1.
        -11    1    4    4    0    0  0.51007816640E-01  0.33704663593E-02  0.21303512940E-01  0.55382832958E-01  0.51100000000E-03 0.  1.
         11    1    4    4    0    0  0.68371689349E-01  0.27528133220E-01  0.24806387266E-01  0.77769556982E-01  0.51100000000E-03 0. -1.
</event>
<event>
 8    1  0.1129602E+005  0.1043930E+01  0.7957747E-01            NaN
         13   -1    0    0    0    0  0.00000000000E+00  0.00000000000E+00  0.74505805969E-08  0.10566000000E+00  0.10566000000E+00 0.  1.
     999900   -1    0    0    0    0 -0.00000000000E+00 -0.00000000000E+00 -0.74505805969E-08  0.93827000000E+00  0.93827000000E+00 0.  1.
     999902    2    1    2    0    0 -0.64892115266E-02  0.23704764267E-02  0.20764560856E-01  0.10220463072E+01  0.10218119974E+01 0.  0.
     999903    2    3    3    0    0 -0.99407760685E-01 -0.79661344816E-01 -0.28233884227E-01  0.13201039547E+00  0.20043940536E-01 0.  0.
         14    1    1    2    0    0  0.64892115266E-02 -0.23704764267E-02 -0.20764560856E-01  0.21883692839E-01  0.00000000000E+00 0. -1.
     999901    1    3    3    0    0  0.92918549158E-01  0.82031821243E-01  0.48998445083E-01  0.89003591169E+00  0.88000000000E+00 0. -1.
        -11    1    4    4    0    0 -0.69718682627E-01 -0.51693550308E-01 -0.10131928702E-01  0.87383264708E-01  0.51100000000E-03 0. -1.
         11    1    4    4    0    0 -0.29689078057E-01 -0.27967794508E-01 -0.18101955525E-01  0.44627130765E-01  0.51100000000E-03 0.  1.
</event>
<event>
 8    1  0.1129602E+005  0.1043930E+01  0.7957747E-01            NaN
         13   -1    0    0    0    0  0.00000000000E+00  0.00000000000E+00  0.74505805969E-08  0.10566000000E+00  0.10566000000E+00 0.  1.
     999900   -1    0    0    0    0 -0.00000000000E+00 -0.00000000000E+00 -0.74505805969E-08  0.93827000000E+00  0.93827000000E+00 0.  1.
     999902    2    1    2    0    0  0.15046733118E-01 -0.87821899704E-03 -0.16099383046E-01  0.10218763023E+01  0.10216382979E+01 0.  0.
     999903    2    3    3    0    0  0.63765251280E-01  0.46797618933E-01  0.10300077011E+00  0.13124095270E+00  0.18947417121E-01 0.  0.
         14    1    1    2    0    0 -0.15046733118E-01  0.87821899704E-03  0.16099383046E-01  0.22053697663E-01  0.00000000000E+00 0.  1.
     999901    1    3    3    0    0 -0.48718518162E-01 -0.47675837930E-01 -0.11910015315E+00  0.89063534963E+00  0.88000000000E+00 0. -1.
        -11    1    4    4    0    0  0.50315418017E-01  0.31239387658E-01  0.86674999969E-01  0.10497788992E+00  0.51100000000E-03 0.  1.
         11    1    4    4    0    0  0.13449833263E-01  0.15558231275E-01  0.16325770138E-01  0.26263062784E-01  0.51100000000E-03 0. -1.
</event>
<event>
 8    1  0.1129602E+005  0.1043930E+01  0.7957747E-01            NaN
         13   -1    0    0    0    0  0.00000000000E+00  0.00000000000E+00  0.74505805969E-08  0.10566000000E+00  0.10566000000E+00 0.  1.
     999900   -1    0    0    0    0 -0.00000000000E+00 -0.00000000000E+00 -0.74505805969E-08  0.93827000000E+00  0.93827000000E+00 0.  1.
     999902    2    1    2    0    0  0.16980617163E-01 -0.76843911376E-02  0.13110967724E-01  0.10211420931E+01  0.10208877929E+01 0.  0.
     999903    2    3    3    0    0 -0.88817377359E-01 -0.89926965951E-02 -0.89238741280E-01  0.12891432496E+00  0.26190744940E-01 0.  0.
         14    1    1    2    0    0 -0.16980617163E-01  0.76843911376E-02 -0.13110967724E-01  0.22787906904E-01  0.00000000000E+00 0. -1.
     999901    1    3    3    0    0  0.10579799452E+00  0.13083054575E-02  0.10234970900E+00  0.89222776814E+00  0.88000000000E+00 0. -1.
        -11    1    4    4    0    0 -0.94512139657E-02 -0.98491117744E-02 -0.13392123842E-01  0.19129572660E-01  0.51100000000E-03 0.  1.
         11    1    4    4    0    0 -0.79366163394E-01  0.85641517931E-03 -0.75846617438E-01  0.10978475230E+00  0.51100000000E-03 0. -1.
</event>
<event>
 8    1  0.1129602E+005  0.1043930E+01  0.7957747E-01            NaN
         13   -1    0    0    0    0  0.00000000000E+00  0.00000000000E+00  0.74505805969E-08  0.10566000000E+00  0.10566000000E+00 0.  1.
     999900   -1    0    0    0    0 -0.00000000000E+00 -0.00000000000E+00 -0.74505805969E-08  0.93827000000E+00  0.93827000000E+00 0. -1.
     999902    2    1    2    0    0 -0.77804931755E-02 -0.20359471977E-01 -0.91742311746E-02  0.10202823639E+01  0.10200082801E+01 0.  0.
     999903    2    3    3    0    0 -0.23468258278E-01  0.55424314894E-01 -0.11528910130E+00  0.13053540330E+00  0.11193784268E-01 0.  0.
         14    1    1    2    0    0  0.77804931755E-02  0.20359471977E-01  0.91742311746E-02  0.23647636053E-01  0.00000000000E+00 0.  1.
     999901    1    3    3    0    0  0.15687765103E-01 -0.75783786872E-01  0.10611487013E+00  0.88974696065E+00  0.88000000000E+00 0.  1.
        -11    1    4    4    0    0 -0.18016385590E-01  0.39412869549E-01 -0.71743122534E-01  0.83817069788E-01  0.51100000000E-03 0. -1.
         11    1    4    4    0    0 -0.54518726880E-02  0.16011445345E-01 -0.43545978768E-01  0.46718333508E-01  0.51100000000E-03 0.  1.
</event>
<event>
 8    1  0.1129602E+005  0.1043930E+01  0.7957747E-01            NaN
         13   -1    0    0    0    0  0.00000000000E+00  0.00000000000E+00  0.74505805969E-08  0.10566000000E+00  0.10566000000E+00 0. -1.
     999900   -1    0    0    0    0 -0.00000000000E+00 -0.00000000000E+00 -0.74505805969E-08  0.93827000000E+00  0.93827000000E+00 0. -1.
     999902    2    1    2    0    0 -0.21053478836E-01  0.11691455916E-01 -0.13193662631E-01  0.10164707239E+01  0.10160997592E+01 0.  0.
     999903    2    3    3    0    0  0.30116895743E-01 -0.11955206204E+00 -0.81294337785E-02  0.12525306545E+00  0.20555285579E-01 0.  0.
         14    1    1    2    0    0  0.21053478836E-01 -0.11691455916E-01  0.13193662631E-01  0.27459276140E-01  0.00000000000E+00 0. -1.
     999901    1    3    3    0    0 -0.51170374579E-01  0.13124351795E+00 -0.50642288525E-02  0.89121765841E+00  0.88000000000E+00 0. -1.
        -11    1    4    4    0    0  0.11082215491E-01 -0.54536770384E-01 -0.13583849430E-01  0.57287493491E-01  0.51100000000E-03 0.  1.
         11    1    4    4    0    0  0.19034680251E-01 -0.65015291655E-01  0.54544156517E-02  0.67965571964E-01  0.51100000000E-03 0. -1.
</event>
<event>
 8    1  0.1129602E+005  0.1043930E+01  0.7957747E-01            NaN
         13   -1    0    0    0    0  0.00000000000E+00  0.00000000000E+00  0.74505805969E-08  0.10566000000E+00  0.10566000000E+00 0.  1.
     999900   -1    0    0    0    0 -0.00000000000E+00 -0.00000000000E+00 -0.74505805969E-08  0.93827000000E+00  0.93827000000E+00 0. -1.
     999902    2    1    2    0    0 -0.19561389560E-01  0.85956760611E-02 -0.40765284198E-02  0.10221779497E+01  0.10219464806E+01 0.  0.
     999903    2    3    3    0    0 -0.23126672254E-01 -0.12625129229E+00  0.20718683598E-01  0.13155388835E+00  0.20073114262E-01 0.  0.
         14    1    1    2    0    0  0.19561389560E-01 -0.85956760611E-02  0.40765284198E-02  0.21752050304E-01  0.00000000000E+00 0. -1.
     999901    1    3    3    0    0  0.35652826939E-02  0.13484696835E+00 -0.24795212018E-01  0.89062406135E+00  0.88000000000E+00 0.  1.
        -11    1    4    4    0    0 -0.14345669849E-01 -0.11292615278E+00  0.16370227964E-01  0.11500591163E+00  0.51100000000E-03 0. -1.
         11    1    4    4    0    0 -0.87810024049E-02 -0.13325139504E-01  0.43484556343E-02  0.16547976717E-01  0.51100000000E-03 0.  1.
</event>
<event>
 8    1  0.1129602E+005  0.1043930E+01  0.7957747E-01            NaN
         13   -1    0    0    0    0  0.00000000000E+00  0.00000000000E+00  0.74505805969E-08  0.10566000000E+00  0.10566000000E+00 0.  1.
     999900   -1    0    0    0    0 -0.00000000000E+00 -0.00000000000E+00 -0.74505805969E-08  0.93827000000E+00  0.93827000000E+00 0. -1.
     999902    2    1    2    0    0 -0.74214942233E-02 -0.20822364198E-01 -0.69628463106E-02  0.10207539206E+01  0.10204907818E+01 0.  0.
     999903    2    3    3    0    0 -0.10651727980E+00  0.71990359525E-01  0.66050415370E-02  0.13023819139E+00  0.19743787920E-01 0.  0.
         14    1    1    2    0    0  0.74214942233E-02  0.20822364198E-01  0.69628463106E-02  0.23176079393E-01  0.00000000000E+00 0.  1.
     999901    1    3    3    0    0  0.99095785579E-01 -0.92812723723E-01 -0.13567887848E-01  0.89051572922E+00  0.88000000000E+00 0.  1.
        -11    1    4    4    0    0 -0.65536963859E-01  0.35172660800E-01  0.99553552194E-02  0.75043853300E-01  0.51100000000E-03 0. -1.
         11    1    4    4    0    0 -0.40980315943E-01  0.36817698725E-01 -0.33503136824E-02  0.55194338088E-01  0.51100000000E-03 0.  1.
</event>
<event>
 8    1  0.1129602E+005  0.1043930E+01  0.7957747E-01            NaN
         13   -1    0    0    0    0  0.00000000000E+00  0.00000000000E+00  0.74505805969E-08  0.10566000000E+00  0.10566000000E+00 0.  1.
     999900   -1    0    0    0    0 -0.00000000000E+00 -0.00000000000E+00 -0.74505805969E-08  0.93827000000E+00  0.93827000000E+00 0. -1.
     999902    2    1    2    0    0  0.18989015106E-01 -0.14468227623E-01 -0.42897634835E-03  0.10200533100E+01  0.10197738273E+01 0.  0.
     999903    2    3    3    0    0  0.11204814714E+00 -0.69139990356E-01 -0.96794714594E-02  0.13341100592E+00  0.19227032772E-01 0.  0.
         14    1    1    2    0    0 -0.18989015106E-01  0.14468227623E-01  0.42897634835E-03  0.23876690013E-01  0.00000000000E+00 0.  1.
     999901    1    3    3    0    0 -0.93059132037E-01  0.54671762733E-01  0.92504951111E-02  0.88664230406E+00  0.88000000000E+00 0. -1.
        -11    1    4    4    0    0  0.36252880193E-01 -0.20521668757E-01  0.57264321870E-02  0.42053101639E-01  0.51100000000E-03 0.  1.
         11    1    4    4    0    0  0.75795266950E-01 -0.48618321598E-01 -0.15405903646E-01  0.91357904284E-01  0.51100000000E-03 0. -1.
</event>
<event>
 8    1  0.1129602E+005  0.1043930E+01  0.7957747E-01            NaN
         13   -1    0    0    0    0  0.00000000000E+00  0.00000000000E+00  0.74505805969E-08  0.10566000000E+00  0.10566000000E+00 0. -1.
     999900   -1    0    0    0    0 -0.00000000000E+00 -0.00000000000E+00 -0.74505805969E-08  0.93827000000E+00  0.93827000000E+00 0.  1.
     999902    2    1    2    0    0  0.67240654409E-02 -0.23906477574E-01  0.42378320586E-02  0.10187369068E+01  0.10184253499E+01 0.  0.
     999903    2    3    3    0    0 -0.96142218422E-01  0.17175421058E-01 -0.79998218464E-01  0.12780205676E+00  0.19882894736E-01 0.  0.
         14    1    1    2    0    0 -0.67240654409E-02  0.23906477574E-01 -0.42378320586E-02  0.25193093232E-01  0.00000000000E+00 0. -1.
     999901    1    3    3    0    0  0.10286628386E+00 -0.41081898631E-01  0.84236050523E-01  0.89093485001E+00  0.88000000000E+00 0.  1.
        -11    1    4    4    0    0 -0.87084206437E-01  0.14088267758E-01 -0.63403132511E-01  0.10863865165E+00  0.51100000000E-03 0. -1.
         11    1    4    4    0    0 -0.90580119850E-02  0.30871532999E-02 -0.16595085953E-01  0.19163405110E-01  0.51100000000E-03 0.  1.
</event>
<event>
 8    1  0.1129602E+005  0.1043930E+01  0.7957747E-01            NaN
         13   -1    0    0    0    0  0.00000000000E+00  0.00000000000E+00  0.74505805969E-08  0.10566000000E+00  0.10566000000E+00 0.  1.
     999900   -1    0    0    0    0 -0.00000000000E+00 -0.00000000000E+00 -0.74505805969E-08  0.93827000000E+00  0.93827000000E+00 0.  1.
     999902    2    1    2    0    0  0.18190341973E-01  0.10897391135E-01  0.11428520937E-01  0.10198415637E+01  0.10195570421E+01 0.  0.
     999903    2    3    3    0    0  0.85427132507E-01  0.87910288283E-01 -0.44503415526E-01  0.13215910137E+00  0.21435025731E-01 0.  0.
         14    1    1    2    0    0 -0.18190341973E-01 -0.10897391135E-01 -0.11428520937E-01  0.24088436343E-01  0.00000000000E+00 0. -1.
     999901    1    3    3    0    0 -0.67236790534E-01 -0.77012897148E-01  0.55931936463E-01  0.88768246228E+00  0.88000000000E+00 0.  1.
        -11    1    4    4    0    0  0.66700510359E-01  0.62666162836E-01 -0.23961410244E-01  0.94606640087E-01  0.51100000000E-03 0.  1.
         11    1    4    4    0    0  0.18726622148E-01  0.25244125447E-01 -0.20542005282E-01  0.37552461286E-01  0.51100000000E-03 0. -1.
</event>
<event>
 8    1  0.1129602E+005  0.1043930E+01  0.7957747E-01            NaN
         13   -1    0    0    0    0  0.00000000000E+00  0.00000000000E+00  0.74505805969E-08  0.10566000000E+00  0.10566000000E+00 0.  1.
     999900   -1    0    0    0    0 -0.00000000000E+00 -0.00000000000E+00 -0.74505805969E-08  0.93827000000E+00  0.93827000000E+00 0.  1.
     999902    2    1    2    0    0 -0.12502266859E-01 -0.12038184015E-01 -0.14970491782E-01  0.10210096995E+01  0.10207524020E+01 0.  0.
     999903    2    3    3    0    0 -0.12604867118E+00  0.17445028839E-01 -0.34532403133E-01  0.13300929739E+00  0.17503993485E-01 0.  0.
         14    1    1    2    0    0  0.12502266859E-01  0.12038184015E-01  0.14970491782E-01  0.22920300504E-01  0.00000000000E+00 0.  1.
     999901    1    3    3    0    0  0.11354640432E+00 -0.29483212853E-01  0.19561911351E-01  0.88800040211E+00  0.88000000000E+00 0. -1.
        -11    1    4    4    0    0 -0.74646755451E-01  0.81959336483E-02 -0.11684698488E-01  0.76000688993E-01  0.51100000000E-03 0. -1.
         11    1    4    4    0    0 -0.51401915727E-01  0.92490951903E-02 -0.22847704645E-01  0.57008608392E-01  0.51100000000E-03 0.  1.
</event>
<event>
 8    1  0.1129602E+005  0.1043930E+01  0.7957747E-01            NaN
         13   -1    0    0    0    0  0.00000000000E+00  0.00000000000E+00  0.74505805969E-08  0.10566000000E+00  0.10566000000E+00 0.  1.
     999900   -1    0    0    0    0 -0.00000000000E+00 -0.00000000000E+00 -0.74505805969E-08  0.93827000000E+00  0.93827000000E+00 0.  1.
     999902    2    1    2    0    0  0.19956243056E-01  0.21180181332E-02 -0.13189652502E-01  0.10199153259E+01  0.10196325649E+01 0.  0.
     999903    2    3    3    0    0  0.85183086562E-01  0.27031482860E-01  0.93269789271E-01  0.13075345395E+00  0.20257167292E-01 0.  0.
         14    1    1    2    0    0 -0.19956243056E-01 -0.21180181332E-02  0.13189652502E-01  0.24014674073E-01  0.00000000000E+00 0.  1.
     999901    1    3    3    0    0 -0.65226843507E-01 -0.24913464726E-01 -0.10645944177E+00  0.88916187198E+00  0.88000000000E+00 0.  1.
        -11    1    4    4    0    0  0.24939896145E-01  0.17864559841E-01  0.30114027561E-01  0.42991356050E-01  0.51100000000E-03 0. -1.
         11    1    4    4    0    0  0.60243190417E-01  0.91669230185E-02  0.63155761710E-01  0.87762097898E-01  0.51100000000E-03 0.  1.
</event>
<event>
 8    1  0.1129602E+005  0.1043930E+01  0.7957747E-01            NaN
         13   -1    0    0    0    0  0.00000000000E+00  0.00000000000E+00  0.74505805969E-08  0.10566000000E+00  0.10566000000E+00 0.  1.
     999900   -1    0    0    0    0 -0.00000000000E+00 -0.00000000000E+00 -0.74505805969E-08  0.93827000000E+00  0.93827000000E+00 0. -1.
     999902    2    1    2    0    0 -0.21367514623E-01  0.23214749424E-01 -0.10398912652E-01  0.10107090329E+01  0.10101629158E+01 0.  0.
     999903    2    3    3    0    0  0.11543675713E+00 -0.16897340427E-01  0.13759213544E-01  0.11890860477E+00  0.18405850170E-01 0.  0.
         14    1    1    2    0    0  0.21367514623E-01 -0.23214749424E-01  0.10398912652E-01  0.33220967120E-01  0.00000000000E+00 0.  1.
     999901    1    3    3    0    0 -0.13680427175E+00  0.40112089851E-01 -0.24158126196E-01  0.89180042811E+00  0.88000000000E+00 0. -1.
        -11    1    4    4    0    0  0.90383396231E-01 -0.17435432020E-01  0.44079083207E-02  0.92156624182E-01  0.51100000000E-03 0.  1.
         11    1    4    4    0    0  0.25053360898E-01  0.53809159295E-03  0.93513052228E-02  0.26751980585E-01  0.51100000000E-03 0. -1.
</event>
<event>
 8    1  0.1129602E+005  0.1043930E+01  0.7957747E-01            NaN
         13   -1    0    0    0    0  0.00000000000E+00  0.00000000000E+00  0.74505805969E-08  0.10566000000E+00  0.10566000000E+00 0.  1.
     999900   -1    0    0    0    0 -0.00000000000E+00 -0.00000000000E+00 -0.74505805969E-08  0.93827000000E+00  0.93827000000E+00 0. -1.
     999902    2    1    2    0    0 -0.22658569444E-01  0.72778902455E-02 -0.92543173066E-04  0.10201311131E+01  0.10198534703E+01 0.  0.
     999903    2    3    3    0    0  0.86724088551E-01 -0.78334132446E-01  0.47970824439E-01  0.12794051032E+00  0.20255131265E-01 0.  0.
         14    1    1    2    0    0  0.22658569444E-01 -0.72778902455E-02  0.92543173066E-04  0.23798886947E-01  0.00000000000E+00 0. -1.
     999901    1    3    3    0    0 -0.10938265799E+00  0.85612022691E-01 -0.48063367612E-01  0.89219060273E+00  0.88000000000E+00 0. -1.
        -11    1    4    4    0    0  0.25813914343E-01 -0.19597784884E-01  0.22895510621E-01  0.39684970375E-01  0.51100000000E-03 0. -1.
         11    1    4    4    0    0  0.60910174208E-01 -0.58736347562E-01  0.25075313818E-01  0.88255539945E-01  0.51100000000E-03 0.  1.
</event>
<event>
 8    1  0.1129602E+005  0.1043930E+01  0.7957747E-01            NaN
         13   -1    0    0    0    0  0.00000000000E+00  0.00000000000E+00  0.74505805969E-08  0.10566000000E+00  0.10566000000E+00 0. -1.
     999900   -1    0    0    0    0 -0.00000000000E+00 -0.00000000000E+00 -0.74505805969E-08  0.93827000000E+00  0.93827000000E+00 0. -1.
     999902    2    1    2    0    0 -0.16541894467E-01 -0.72642010146E-02 -0.17396112609E-01  0.10188495769E+01  0.10185408351E+01 0.  0.
     999903    2    3    3    0    0  0.61774077666E-01 -0.10743417539E+00  0.24762419481E-01  0.12871208354E+00  0.24402547360E-01 0.  0.
         14    1    1    2    0    0  0.16541894467E-01  0.72642010146E-02  0.17396112609E-01  0.25080423100E-01  0.00000000000E+00 0.  1.
     999901    1    3    3    0    0 -0.78315972134E-01  0.10016997437E+00 -0.42158532090E-01  0.89013749336E+00  0.88000000000E+00 0. -1.
        -11    1    4    4    0    0  0.37730435797E-01 -0.76092872345E-01  0.64802800837E-02  0.85181959112E-01  0.51100000000E-03 0. -1.
         11    1    4    4    0    0  0.24043641869E-01 -0.31341303044E-01  0.18282139397E-01  0.43530124428E-01  0.51100000000E-03 0.  1.
</event>
<event>
 8    1  0.1305778E+005  0.1043930E+01  0.7957747E-01            NaN
         13   -1    0    0    0    0  0.00000000000E+00  0.00000000000E+00  0.74505805969E-08  0.10566000000E+00  0.10566000000E+00 0. -1.
     999900   -1    0    0    0    0 -0.00000000000E+00 -0.00000000000E+00 -0.74505805969E-08  0.93827000000E+00  0.93827000000E+00 0. -1.
     999902    2    1    2    0    0 -0.19085213321E-01 -0.88735182925E-02 -0.12022771949E-01  0.10196909460E+01  0.10194028122E+01 0.  0.
     999903    2    3    3    0    0  0.21399766961E-01  0.10288960048E+00 -0.73200298414E-01  0.12959391863E+00  0.19801013740E-01 0.  0.
         14    1    1    2    0    0  0.19085213321E-01  0.88735182925E-02  0.12022771949E-01  0.24239054019E-01  0.00000000000E+00 0. -1.
     999901    1    3    3    0    0 -0.40484980282E-01 -0.11176311878E+00  0.61177526464E-01  0.89009702735E+00  0.88000000000E+00 0.  1.
        -11    1    4    4    0    0  0.19677814607E-01  0.47346903335E-01 -0.37832383282E-01  0.63722021224E-01  0.51100000000E-03 0.  1.
         11    1    4    4    0    0  0.17219523545E-02  0.55542697150E-01 -0.35367915132E-01  0.65871897409E-01  0.51100000000E-03 0. -1.
</event>
<event>
 8    1  0.1129602E+005  0.1043930E+01  0.7957747E-01            NaN
         13   -1    0    0    0    0  0.00000000000E+00  0.00000000000E+00  0.74505805969E-08  0.10566000000E+00  0.10566000000E+00 0. -1.
     999900   -1    0    0    0    0 -0.00000000000E+00 -0.00000000000E+00 -0.74505805969E-08  0.93827000000E+00  0.93827000000E+00 0. -1.
     999902    2    1    2    0    0  0.40682824422E-02  0.22634175548E-01  0.29654507918E-02  0.10207427034E+01  0.10204793069E+01 0.  0.
     999903    2    3    3    0    0  0.54462853984E-01  0.13984667537E-01 -0.11696427118E+00  0.13113741732E+00  0.18831040834E-01 0.  0.
         14    1    1    2    0    0 -0.40682824422E-02 -0.22634175548E-01 -0.29654507918E-02  0.23187296590E-01  0.00000000000E+00 0.  1.
     999901    1    3    3    0    0 -0.50394571542E-01  0.86495080115E-02  0.11992972197E+00  0.88960528609E+00  0.88000000000E+00 0. -1.
        -11    1    4    4    0    0  0.13857072767E-01 -0.30358393175E-02 -0.18860538766E-01  0.23605419496E-01  0.51100000000E-03 0.  1.
         11    1    4    4    0    0  0.40605781217E-01  0.17020506854E-01 -0.98103732411E-01  0.10753199782E+00  0.51100000000E-03 0. -1.
</event>
<event>
 8    1  0.1129602E+005  0.1043930E+01  0.7957747E-01            NaN
         13   -1    0    0    0    0  0.00000000000E+00  0.00000000000E+00  0.74505805969E-08  0.10566000000E+00  0.10566000000E+00 0. -1.
     999900   -1    0    0    0    0 -0.00000000000E+00 -0.00000000000E+00 -0.74505805969E-08  0.93827000000E+00  0.93827000000E+00 0. -1.
     999902    2    1    2    0    0  0.19205559714E-01  0.69828955065E-02  0.12350174915E-01  0.10200523708E+01  0.10197728659E+01 0.  0.
     999903    2    3    3    0    0 -0.56838996151E-01  0.33158416270E-01 -0.10807156060E+00  0.12821756173E+00  0.20739548495E-01 0.  0.
         14    1    1    2    0    0 -0.19205559714E-01 -0.69828955065E-02 -0.12350174915E-01  0.23877629154E-01  0.00000000000E+00 0.  1.
     999901    1    3    3    0    0  0.76044555865E-01 -0.26175520764E-01  0.12042173552E+00  0.89183480912E+00  0.88000000000E+00 0. -1.
        -11    1    4    4    0    0 -0.29704602714E-01  0.63293838217E-02 -0.55298485440E-01  0.63092060792E-01  0.51100000000E-03 0. -1.
         11    1    4    4    0    0 -0.27134393437E-01  0.26829032449E-01 -0.52773075164E-01  0.65125500939E-01  0.51100000000E-03 0.  1.
</event>
<event>
 8    1  0.1129602E+005  0.1043930E+01  0.7957747E-01            NaN
         13   -1    0    0    0    0  0.00000000000E+00  0.00000000000E+00  0.74505805969E-08  0.10566000000E+00  0.10566000000E+00 0.  1.
     999900   -1    0    0    0    0 -0.00000000000E+00 -0.00000000000E+00 -0.74505805969E-08  0.93827000000E+00  0.93827000000E+00 0.  1.
     999902    2    1    2    0    0 -0.28521928177E-02  0.22042631556E-01 -0.95353397356E-02  0.10197445640E+01  0.10194577189E+01 0.  0.
     999903    2    3    3    0    0  0.10880388648E+00  0.66916000167E-01  0.22209772740E-01  0.13098787548E+00  0.18668495533E-01 0.  0.
         14    1    1    2    0    0  0.28521928177E-02 -0.22042631556E-01  0.95353397356E-02  0.24185435982E-01  0.00000000000E+00 0.  1.
     999901    1    3    3    0    0 -0.11165607930E+00 -0.44873368611E-01 -0.31745112476E-01  0.88875668854E+00  0.88000000000E+00 0.  1.
        -11    1    4    4    0    0  0.44571730313E-01  0.38069589733E-01  0.12046895202E-01  0.59844144330E-01  0.51100000000E-03 0.  1.
         11    1    4    4    0    0  0.64232156169E-01  0.28846410434E-01  0.10162877538E-01  0.71143731150E-01  0.51100000000E-03 0. -1.
</event>
<event>
 8    1  0.1129602E+005  0.1043930E+01  0.7957747E-01            NaN
         13   -1    0    0    0    0  0.00000000000E+00  0.00000000000E+00  0.74505805969E-08  0.10566000000E+00  0.10566000000E+00 0.  1.
     999900   -1    0    0    0    0 -0.00000000000E+00 -0.00000000000E+00 -0.74505805969E-08  0.93827000000E+00  0.93827000000E+00 0. -1.
     999902    2    1    2    0    0 -0.78468081792E-02 -0.60008603606E-02  0.70802596995E-02  0.10317762845E+01  0.10317047002E+01 0.  0.
     999903    2    3    3    0    0 -0.47333925338E-02  0.10830393001E+00  0.87543489685E-01  0.14073778371E+00  0.19776625534E-01 0.  0.
         14    1    1    2    0    0  0.78468081792E-02  0.60008603606E-02 -0.70802596995E-02  0.12153715526E-01  0.00000000000E+00 0.  1.
     999901    1    3    3    0    0 -0.31134156454E-02 -0.11430479037E+00 -0.80463229986E-01  0.89103850076E+00  0.88000000000E+00 0.  1.
        -11    1    4    4    0    0 -0.80023680599E-02  0.50019644404E-01  0.50896190885E-01  0.71810069548E-01  0.51100000000E-03 0. -1.
         11    1    4    4    0    0  0.32689755261E-02  0.58284285607E-01  0.36647298801E-01  0.68927714166E-01  0.51100000000E-03 0.  1.
</event>
<event>
 8    1  0.1129602E+005  0.1043930E+01  0.7957747E-01            NaN
         13   -1    0    0    0    0  0.00000000000E+00  0.00000000000E+00  0.74505805969E-08  0.10566000000E+00  0.10566000000E+00 0.  1.
     999900   -1    0    0    0    0 -0.00000000000E+00 -0.00000000000E+00 -0.74505805969E-08  0.93827000000E+00  0.93827000000E+00 0.  1.
     999902    2    1    2    0    0  0.19187934523E-01 -0.48774973705E-02 -0.12632917079E-01  0.10204447407E+01  0.10201744514E+01 0.  0.
     999903    2    3    3    0    0  0.42233760895E-02 -0.66427884390E-01 -0.11280247270E+00  0.13249973786E+00  0.20032023248E-01 0.  0.
         14    1    1    2    0    0 -0.19187934523E-01  0.48774973705E-02  0.12632917079E-01  0.23485259330E-01  0.00000000000E+00 0.  1.
     999901    1    3    3    0    0  0.14964558434E-01  0.61550387020E-01  0.10016955562E+00  0.88794500281E+00  0.88000000000E+00 0. -1.
        -11    1    4    4    0    0  0.23412606247E-02 -0.29385141320E-01 -0.69417055348E-01  0.75418543647E-01  0.51100000000E-03 0.  1.
         11    1    4    4    0    0  0.18821154649E-02 -0.37042743071E-01 -0.43385417347E-01  0.57081194208E-01  0.51100000000E-03 0. -1.
</event>
<event>
 8    1  0.1129602E+005  0.1043930E+01  0.7957747E-01            NaN
         13   -1    0    0    0    0  0.00000000000E+00  0.00000000000E+00  0.74505805969E-08  0.10566000000E+00  0.10566000000E+00 0. -1.
     999900   -1    0    0    0    0 -0.00000000000E+00 -0.00000000000E+00 -0.74505805969E-08  0.93827000000E+00  0.93827000000E+00 0. -1.
     999902    2    1    2    0    0 -0.19214884098E-01  0.12793078304E-01 -0.49576277503E-02  0.10203195638E+01  0.10200463517E+01 0.  0.
     999903    2    3    3    0    0  0.68422701853E-01 -0.36667069839E-01 -0.10111157571E+00  0.12938060159E+00  0.22128018093E-01 0.  0.
         14    1    1    2    0    0  0.19214884098E-01 -0.12793078304E-01  0.49576277503E-02  0.23610436174E-01  0.00000000000E+00 0. -1.
     999901    1    3    3    0    0 -0.87637585950E-01  0.49460148144E-01  0.96153947963E-01  0.89093896224E+00  0.88000000000E+00 0.  1.
        -11    1    4    4    0    0  0.35057103876E-01 -0.96723479950E-02 -0.34448827379E-01  0.50095285972E-01  0.51100000000E-03 0. -1.
         11    1    4    4    0    0  0.33365597977E-01 -0.26994721844E-01 -0.66662748334E-01  0.79285315616E-01  0.51100000000E-03 0.  1.
</event>
<event>
 8    1  0.1129602E+005  0.1043930E+01  0.7957747E-01            NaN
         13   -1    0    0    0    0  0.00000000000E+00  0.00000000000E+00  0.74505805969E-08  0.10566000000E+00  0.10566000000E+00 0.  1.
     999900   -1    0    0    0    0 -0.00000000000E+00 -0.00000000000E+00 -0.74505805969E-08  0.93827000000E+00  0.93827000000E+00 0. -1.
     999902    2    1    2    0    0  0.76046114848E-02 -0.93040254207E-03  0.21964936051E-01  0.10206672792E+01  0.10204021465E+01 0.  0.
     999903    2    3    3    0    0 -0.36713929791E-01  0.97476626900E-01 -0.73484593022E-01  0.12895057015E+00  0.19459154602E-01 0.  0.
         14    1    1    2    0    0 -0.76046114848E-02  0.93040254207E-03 -0.21964936051E-01  0.23262720831E-01  0.00000000000E+00 0. -1.
     999901    1    3    3    0    0  0.44318541275E-01 -0.98407029442E-01  0.95449529074E-01  0.89171670902E+00  0.88000000000E+00 0. -1.
        -11    1    4    4    0    0 -0.10601234589E-01  0.55635953260E-01 -0.38991656022E-01  0.68763041165E-01  0.51100000000E-03 0.  1.
         11    1    4    4    0    0 -0.26112695202E-01  0.41840673639E-01 -0.34492937000E-01  0.60187528984E-01  0.51100000000E-03 0. -1.
</event>
<event>
 8    1  0.1129602E+005  0.1043930E+01  0.7957747E-01            NaN
         13   -1    0    0    0    0  0.00000000000E+00  0.00000000000E+00  0.74505805969E-08  0.10566000000E+00  0.10566000000E+00 0. -1.
     999900   -1    0    0    0    0 -0.00000000000E+00 -0.00000000000E+00 -0.74505805969E-08  0.93827000000E+00  0.93827000000E+00 0.  1.
     999902    2    1    2    0    0  0.14433803649E-01  0.84865726770E-03 -0.18500453329E-01  0.10204497598E+01  0.10201795874E+01 0.  0.
     999903    2    3    3    0    0 -0.89956202795E-01  0.90655807610E-01  0.65758851406E-02  0.12938779761E+00  0.19681616538E-01 0.  0.
         14    1    1    2    0    0 -0.14433803649E-01 -0.84865726770E-03  0.18500453329E-01  0.23480240210E-01  0.00000000000E+00 0. -1.
     999901    1    3    3    0    0  0.10439000644E+00 -0.89807150343E-01 -0.25076338469E-01  0.89106196218E+00  0.88000000000E+00 0. -1.
        -11    1    4    4    0    0 -0.71042949376E-01  0.68436363490E-01 -0.29486781225E-02  0.98689372920E-01  0.51100000000E-03 0.  1.
         11    1    4    4    0    0 -0.18913253419E-01  0.22219444121E-01  0.95245632631E-02  0.30698424687E-01  0.51100000000E-03 0. -1.
</event>
<event>
 8    1  0.1129602E+005  0.1043930E+01  0.7957747E-01            NaN
         13   -1    0    0    0    0  0.00000000000E+00  0.00000000000E+00  0.74505805969E-08  0.10566000000E+00  0.10566000000E+00 0.  1.
     999900   -1    0    0    0    0 -0.00000000000E+00 -0.00000000000E+00 -0.74505805969E-08  0.93827000000E+00  0.93827000000E+00 0. -1.
     999902    2    1    2    0    0  0.18675127663E-01  0.13367348254E-01  0.65322459634E-02  0.10200528848E+01  0.10197733921E+01 0.  0.
     999903    2    3    3    0    0  0.15717818192E-01  0.12096925169E+00  0.47791933791E-01  0.13253427816E+00  0.20016400482E-01 0.  0.
         14    1    1    2    0    0 -0.18675127663E-01 -0.13367348254E-01 -0.65322459634E-02  0.23877115192E-01  0.00000000000E+00 0. -1.
     999901    1    3    3    0    0  0.29573094713E-02 -0.10760190344E+00 -0.41259687828E-01  0.88751860665E+00  0.88000000000E+00 0.  1.
        -11    1    4    4    0    0  0.70063576222E-02  0.49752789057E-01  0.30330450618E-01  0.58690939861E-01  0.51100000000E-03 0. -1.
         11    1    4    4    0    0  0.87114605695E-02  0.71216462637E-01  0.17461483173E-01  0.73843338301E-01  0.51100000000E-03 0.  1.
</event>
<event>
 8    1  0.1129602E+005  0.1043930E+01  0.7957747E-01            NaN
         13   -1    0    0    0    0  0.00000000000E+00  0.00000000000E+00  0.74505805969E-08  0.10566000000E+00  0.10566000000E+00 0. -1.
     999900   -1    0    0    0    0 -0.00000000000E+00 -0.00000000000E+00 -0.74505805969E-08  0.93827000000E+00  0.93827000000E+00 0. -1.
     999902    2    1    2    0    0 -0.14997770848E-01  0.15570972328E-01 -0.11018054924E-01  0.10196650903E+01  0.10193763341E+01 0.  0.
     999903    2    3    3    0    0  0.13430321951E-01  0.12881651115E+00 -0.15832407070E-01  0.13193997150E+00  0.19581212224E-01 0.  0.
         14    1    1    2    0    0  0.14997770848E-01 -0.15570972328E-01  0.11018054924E-01  0.24264909725E-01  0.00000000000E+00 0. -1.
     999901    1    3    3    0    0 -0.28428092799E-01 -0.11324553882E+00  0.48143521459E-02  0.88772511878E+00  0.88000000000E+00 0.  1.
        -11    1    4    4    0    0  0.91391811557E-02  0.46345787068E-01  0.26421509779E-02  0.47314888713E-01  0.51100000000E-03 0.  1.
         11    1    4    4    0    0  0.42911407951E-02  0.82470724082E-01 -0.18474558048E-01  0.84625082783E-01  0.51100000000E-03 0. -1.
</event>
<event>
 8    1  0.1129602E+005  0.1043930E+01  0.7957747E-01            NaN
         13   -1    0    0    0    0  0.00000000000E+00  0.00000000000E+00  0.74505805969E-08  0.10566000000E+00  0.10566000000E+00 0. -1.
     999900   -1    0    0    0    0 -0.00000000000E+00 -0.00000000000E+00 -0.74505805969E-08  0.93827000000E+00  0.93827000000E+00 0.  1.
     999902    2    1    2    0    0  0.18190768565E-01 -0.75482197147E-02 -0.10172478338E-01  0.10217633810E+01  0.10215229061E+01 0.  0.
     999903    2    3    3    0    0 -0.10677458124E+00  0.25128339995E-01 -0.67533484249E-01  0.13048655465E+00  0.20826060149E-01 0.  0.
         14    1    1    2    0    0 -0.18190768565E-01  0.75482197147E-02  0.10172478338E-01  0.22166618988E-01  0.00000000000E+00 0. -1.
     999901    1    3    3    0    0  0.12496534980E+00 -0.32676559710E-01  0.57361005911E-01  0.89127682636E+00  0.88000000000E+00 0.  1.
        -11    1    4    4    0    0 -0.30013956251E-01 -0.17359403161E-02 -0.22216978465E-01  0.37385910605E-01  0.51100000000E-03 0. -1.
         11    1    4    4    0    0 -0.76760624985E-01  0.26864280311E-01 -0.45316505783E-01  0.93100644048E-01  0.51100000000E-03 0.  1.
</event>
<event>
 8    1  0.1129602E+005  0.1043930E+01  0.7957747E-01            NaN
         13   -1    0    0    0    0  0.00000000000E+00  0.00000000000E+00  0.74505805969E-08  0.10566000000E+00  0.10566000000E+00 0. -1.
     999900   -1    0    0    0    0 -0.00000000000E+00 -0.00000000000E+00 -0.74505805969E-08  0.93827000000E+00  0.93827000000E+00 0.  1.
     999902    2    1    2    0    0  0.21094524577E-02 -0.12439657813E-01 -0.19986899379E-01  0.10202937773E+01  0.10200199611E+01 0.  0.
     999903    2    3    3    0    0 -0.20350570846E-01 -0.12857142360E+00 -0.15752216526E-01  0.13236980973E+00  0.18134980055E-01 0.  0.
         14    1    1    2    0    0 -0.21094524577E-02  0.12439657813E-01  0.19986899379E-01  0.23636222688E-01  0.00000000000E+00 0. -1.
     999901    1    3    3    0    0  0.22460023303E-01  0.11613176579E+00 -0.42346828530E-02  0.88792396758E+00  0.88000000000E+00 0.  1.
        -11    1    4    4    0    0 -0.15256416309E-01 -0.42476180093E-01 -0.70765830086E-02  0.45687233030E-01  0.51100000000E-03 0.  1.
         11    1    4    4    0    0 -0.50941545366E-02 -0.86095243507E-01 -0.86756335171E-02  0.86682576698E-01  0.51100000000E-03 0. -1.
</event>
<event>
 8    1  0.1129602E+005  0.1043930E+01  0.7957747E-01            NaN
         13   -1    0    0    0    0  0.00000000000E+00  0.00000000000E+00  0.74505805969E-08  0.10566000000E+00  0.10566000000E+00 0. -1.
     999900   -1    0    0    0    0 -0.00000000000E+00 -0.00000000000E+00 -0.74505805969E-08  0.93827000000E+00  0.93827000000E+00 0.  1.
     999902    2    1    2    0    0  0.16099613672E-01  0.79612204155E-02 -0.12070559951E-01  0.10222902909E+01  0.10220612320E+01 0.  0.
     999903    2    3    3    0    0  0.11846797723E+00  0.24798620371E-01  0.52949704394E-01  0.13381383392E+00  0.21279984791E-01 0.  0.
         14    1    1    2    0    0 -0.16099613672E-01 -0.79612204155E-02  0.12070559951E-01  0.21639709065E-01  0.00000000000E+00 0. -1.
     999901    1    3    3    0    0 -0.10236836355E+00 -0.16837399956E-01 -0.65020264344E-01  0.88847645701E+00  0.88000000000E+00 0.  1.
        -11    1    4    4    0    0  0.32023709421E-01  0.16542591133E-01  0.14968252906E-01  0.39031846005E-01  0.51100000000E-03 0.  1.
         11    1    4    4    0    0  0.86444267805E-01  0.82560292386E-02  0.37981451487E-01  0.94781987916E-01  0.51100000000E-03 0. -1.
</event>
<event>
 8    1  0.1129602E+005  0.1043930E+01  0.7957747E-01            NaN
         13   -1    0    0    0    0  0.00000000000E+00  0.00000000000E+00  0.74505805969E-08  0.10566000000E+00  0.10566000000E+00 0. -1.
     999900   -1    0    0    0    0 -0.00000000000E+00 -0.00000000000E+00 -0.74505805969E-08  0.93827000000E+00  0.93827000000E+00 0. -1.
     999902    2    1    2    0    0 -0.12810693237E-01  0.58623023242E-02  0.19105295257E-01  0.10201919976E+01  0.10199157903E+01 0.  0.
     999903    2    3    3    0    0  0.12147832861E+00 -0.88239098587E-02 -0.35264763297E-01  0.12822488529E+00  0.19057071440E-01 0.  0.
         14    1    1    2    0    0  0.12810693237E-01 -0.58623023242E-02 -0.19105295257E-01  0.23738002372E-01  0.00000000000E+00 0.  1.
     999901    1    3    3    0    0 -0.13428902185E+00  0.14686212183E-01  0.54370058554E-01  0.89196711233E+00  0.88000000000E+00 0.  1.
        -11    1    4    4    0    0  0.44102949905E-01 -0.57217253919E-02 -0.38004097336E-02  0.44637569007E-01  0.51100000000E-03 0.  1.
         11    1    4    4    0    0  0.77375378704E-01 -0.31021844668E-02 -0.31464353563E-01  0.83587316288E-01  0.51100000000E-03 0. -1.
</event>
<event>
 8    1  0.1129602E+005  0.1043930E+01  0.7957747E-01            NaN
         13   -1    0    0    0    0  0.00000000000E+00  0.00000000000E+00  0.74505805969E-08  0.10566000000E+00  0.10566000000E+00 0.  1.
     999900   -1    0    0    0    0 -0.00000000000E+00 -0.00000000000E+00 -0.74505805969E-08  0.93827000000E+00  0.93827000000E+00 0.  1.
     999902    2    1    2    0    0 -0.74660329377E-02 -0.41331501189E-02 -0.22151922680E-01  0.10201911657E+01  0.10199149387E+01 0.  0.
     999903    2    3    3    0    0 -0.72597619770E-01 -0.98643131010E-01  0.40754566060E-01  0.13051061264E+00  0.19266646418E-01 0.  0.
         14    1    1    2    0    0  0.74660329377E-02  0.41331501189E-02  0.22151922680E-01  0.23738834347E-01  0.00000000000E+00 0.  1.
     999901    1    3    3    0    0  0.65131586832E-01  0.94509980891E-01 -0.62906488740E-01  0.88968055302E+00  0.88000000000E+00 0. -1.
        -11    1    4    4    0    0 -0.22656028872E-01 -0.21092760757E-01  0.40007006446E-02  0.31216452829E-01  0.51100000000E-03 0.  1.
         11    1    4    4    0    0 -0.49941590898E-01 -0.77550370252E-01  0.36753865416E-01  0.99294159807E-01  0.51100000000E-03 0. -1.
</event>
<event>
 8    1  0.1129602E+005  0.1043930E+01  0.7957747E-01            NaN
         13   -1    0    0    0    0  0.00000000000E+00  0.00000000000E+00  0.74505805969E-08  0.10566000000E+00  0.10566000000E+00 0.  1.
     999900   -1    0    0    0    0 -0.00000000000E+00 -0.00000000000E+00 -0.74505805969E-08  0.93827000000E+00  0.93827000000E+00 0. -1.
     999902    2    1    2    0    0  0.42892295612E-02  0.18593744933E-01 -0.13926141059E-01  0.10203066589E+01  0.10200331445E+01 0.  0.
     999903    2    3    3    0    0 -0.19384652685E-01 -0.11748839449E-01 -0.12848985458E+00  0.13204657896E+00  0.20318865508E-01 0.  0.
         14    1    1    2    0    0 -0.42892295612E-02 -0.18593744933E-01  0.13926141059E-01  0.23623341119E-01  0.00000000000E+00 0.  1.
     999901    1    3    3    0    0  0.23673882246E-01  0.30342584382E-01  0.11456371352E+00  0.88826007992E+00  0.88000000000E+00 0.  1.
        -11    1    4    4    0    0 -0.15050278524E-01 -0.35204603085E-02 -0.11237066407E+00  0.11342985404E+00  0.51100000000E-03 0.  1.
         11    1    4    4    0    0 -0.43343741605E-02 -0.82283791408E-02 -0.16119190518E-01  0.18616724916E-01  0.51100000000E-03 0. -1.
</event>
<event>
 8    1  0.1129602E+005  0.1043930E+01  0.7957747E-01            NaN
         13   -1    0    0    0    0  0.00000000000E+00  0.00000000000E+00  0.74505805969E-08  0.10566000000E+00  0.10566000000E+00 0.  1.
     999900   -1    0    0    0    0 -0.00000000000E+00 -0.00000000000E+00 -0.74505805969E-08  0.93827000000E+00  0.93827000000E+00 0.  1.
     999902    2    1    2    0    0  0.25692363323E-03 -0.27312035818E-01  0.73190483363E-02  0.10156531229E+01  0.10152594172E+01 0.  0.
     999903    2    3    3    0    0 -0.11484371786E+00  0.39661714946E-01  0.24238066013E-01  0.12547342524E+00  0.19848562488E-01 0.  0.
         14    1    1    2    0    0 -0.25692363323E-03  0.27312035818E-01 -0.73190483363E-02  0.28276877105E-01  0.00000000000E+00 0. -1.
     999901    1    3    3    0    0  0.11510064149E+00 -0.66973750764E-01 -0.16919017677E-01  0.89017969766E+00  0.88000000000E+00 0.  1.
        -11    1    4    4    0    0 -0.36235911399E-01  0.17634470090E-01  0.16218212660E-01  0.43443150820E-01  0.51100000000E-03 0. -1.
         11    1    4    4    0    0 -0.78607806458E-01  0.22027244856E-01  0.80198533538E-02  0.82030274417E-01  0.51100000000E-03 0.  1.
</event>
<event>
 8    1  0.1129602E+005  0.1043930E+01  0.7957747E-01            NaN
         13   -1    0    0    0    0  0.00000000000E+00  0.00000000000E+00  0.74505805969E-08  0.10566000000E+00  0.10566000000E+00 0. -1.
     999900   -1    0    0    0    0 -0.00000000000E+00 -0.00000000000E+00 -0.74505805969E-08  0.93827000000E+00  0.93827000000E+00 0. -1.
     999902    2    1    2    0    0 -0.14354181984E-01 -0.18675756888E-01  0.38299832652E-02  0.10200659013E+01  0.10197867168E+01 0.  0.
     999903    2    3    3    0    0 -0.77250247228E-01 -0.10398840953E+00  0.24973464900E-01  0.13345369150E+00  0.20125203401E-01 0.  0.
         14    1    1    2    0    0  0.14354181984E-01  0.18675756888E-01 -0.38299832652E-02  0.23864098718E-01  0.00000000000E+00 0.  1.
     999901    1    3    3    0    0  0.62896065244E-01  0.85312652641E-01 -0.21143481635E-01  0.88661220978E+00  0.88000000000E+00 0. -1.
        -11    1    4    4    0    0 -0.50199783238E-01 -0.68905415480E-01  0.26024744412E-01  0.89137662985E-01  0.51100000000E-03 0. -1.
         11    1    4    4    0    0 -0.27050463990E-01 -0.35082994049E-01 -0.10512795119E-02  0.44316028513E-01  0.51100000000E-03 0.  1.
</event>
<event>
 8    1  0.1129602E+005  0.1043930E+01  0.7957747E-01            NaN
         13   -1    0    0    0    0  0.00000000000E+00  0.00000000000E+00  0.74505805969E-08  0.10566000000E+00  0.10566000000E+00 0.  1.
     999900   -1    0    0    0    0 -0.00000000000E+00 -0.00000000000E+00 -0.74505805969E-08  0.93827000000E+00  0.93827000000E+00 0. -1.
     999902    2    1    2    0    0 -0.60841931767E-02  0.21163862555E-01  0.82312191223E-02  0.10204208645E+01  0.10201500190E+01 0.  0.
     999903    2    3    3    0    0 -0.38194071313E-01  0.12449294660E+00 -0.16811998098E-01  0.13343997031E+00  0.23797091394E-01 0.  0.
         14    1    1    2    0    0  0.60841931767E-02 -0.21163862555E-01 -0.82312191223E-02  0.23509135524E-01  0.00000000000E+00 0.  1.
     999901    1    3    3    0    0  0.32109878136E-01 -0.10332908405E+00  0.25043217221E-01  0.88698089416E+00  0.88000000000E+00 0. -1.
        -11    1    4    4    0    0 -0.27391731602E-01  0.80507882697E-01 -0.22020734831E-01  0.87846457072E-01  0.51100000000E-03 0. -1.
         11    1    4    4    0    0 -0.10802339711E-01  0.43985063907E-01  0.52087367327E-02  0.45593513239E-01  0.51100000000E-03 0.  1.
</event>
<event>
 8    1  0.1129602E+005  0.1043930E+01  0.7957747E-01            NaN
         13   -1    0    0    0    0  0.00000000000E+00  0.00000000000E+00  0.74505805969E-08  0.10566000000E+00  0.10566000000E+00 0.  1.
     999900   -1    0    0    0    0 -0.00000000000E+00 -0.00000000000E+00 -0.74505805969E-08  0.93827000000E+00  0.93827000000E+00 0.  1.
     999902    2    1    2    0    0  0.88386175999E-02 -0.18030504544E-01  0.13065278637E-01  0.10199733358E+01  0.10196919554E+01 0.  0.
     999903    2    3    3    0    0  0.72706661142E-02 -0.73656038948E-01  0.10833841340E+00  0.13308347296E+00  0.22269357792E-01 0.  0.
         14    1    1    2    0    0 -0.88386175999E-02  0.18030504544E-01 -0.13065278637E-01  0.23956664230E-01  0.00000000000E+00 0. -1.
     999901    1    3    3    0    0  0.15679514857E-02  0.55625534405E-01 -0.95273134767E-01  0.88688986281E+00  0.88000000000E+00 0.  1.
        -11    1    4    4    0    0  0.10758263947E-01 -0.50724200946E-01  0.58914622216E-01  0.78484894321E-01  0.51100000000E-03 0. -1.
         11    1    4    4    0    0 -0.34875978326E-02 -0.22931838003E-01  0.49423791188E-01  0.54598578637E-01  0.51100000000E-03 0.  1.
</event>
<event>
 8    1  0.1129602E+005  0.1043930E+01  0.7957747E-01            NaN
         13   -1    0    0    0    0  0.00000000000E+00  0.00000000000E+00  0.74505805969E-08  0.10566000000E+00  0.10566000000E+00 0. -1.
     999900   -1    0    0    0    0 -0.00000000000E+00 -0.00000000000E+00 -0.74505805969E-08  0.93827000000E+00  0.93827000000E+00 0. -1.
     999902    2    1    2    0    0  0.19103131319E-01 -0.76174467387E-02  0.21322410112E-02  0.10232538888E+01  0.10230449743E+01 0.  0.
     999903    2    3    3    0    0 -0.12555983721E+00 -0.21387758724E-01  0.25447531959E-01  0.13103160782E+00  0.17291513026E-01 0.  0.
         14    1    1    2    0    0 -0.19103131319E-01  0.76174467387E-02 -0.21322410112E-02  0.20676111161E-01  0.00000000000E+00 0. -1.
     999901    1    3    3    0    0  0.14466296852E+00  0.13770311986E-01 -0.23315290948E-01  0.89222228102E+00  0.88000000000E+00 0.  1.
        -11    1    4    4    0    0 -0.74396341571E-02  0.10723554127E-02  0.50659382039E-02  0.90787087963E-02  0.51100000000E-03 0.  1.
         11    1    4    4    0    0 -0.11812020305E+00 -0.22460114137E-01  0.20381593755E-01  0.12195289902E+00  0.51100000000E-03 0. -1.
</event>
<event>
 8    1  0.1129602E+005  0.1043930E+01  0.7957747E-01            NaN
         13   -1    0    0    0    0  0.00000000000E+00  0.00000000000E+00  0.74505805969E-08  0.10566000000E+00  0.10566000000E+00 0. -1.
     999900   -1    0    0    0    0 -0.00000000000E+00 -0.00000000000E+00 -0.74505805969E-08  0.93827000000E+00  0.93827000000E+00 0. -1.
     999902    2    1    2    0    0 -0.23308595191E-01  0.39242174523E-02  0.17003276485E-02  0.10202322953E+01  0.10199570360E+01 0.  0.
     999903    2    3    3    0    0  0.11573899920E+00 -0.49552566870E-01  0.48654937095E-02  0.12770553481E+00  0.20834053224E-01 0.  0.
         14    1    1    2    0    0  0.23308595191E-01 -0.39242174523E-02 -0.17003276485E-02  0.23697704668E-01  0.00000000000E+00 0. -1.
     999901    1    3    3    0    0 -0.13904759439E+00  0.53476784322E-01 -0.31651660610E-02  0.89252676052E+00  0.88000000000E+00 0.  1.
        -11    1    4    4    0    0  0.92686500789E-01 -0.32844604519E-01 -0.22267629402E-02  0.98360434468E-01  0.51100000000E-03 0. -1.
         11    1    4    4    0    0  0.23052498410E-01 -0.16707962350E-01  0.70922566498E-02  0.29345100344E-01  0.51100000000E-03 0.  1.
</event>
<event>
 8    1  0.1129602E+005  0.1043930E+01  0.7957747E-01            NaN
         13   -1    0    0    0    0  0.00000000000E+00  0.00000000000E+00  0.74505805969E-08  0.10566000000E+00  0.10566000000E+00 0.  1.
     999900   -1    0    0    0    0 -0.00000000000E+00 -0.00000000000E+00 -0.74505805969E-08  0.93827000000E+00  0.93827000000E+00 0.  1.
     999902    2    1    2    0    0 -0.22178100132E-01 -0.73013166974E-02 -0.61633573059E-02  0.10197812045E+01  0.10194952382E+01 0.  0.
     999903    2    3    3    0    0  0.30016538928E-01 -0.91654128621E-01 -0.85805702237E-01  0.13063409612E+00  0.20029394159E-01 0.  0.
         14    1    1    2    0    0  0.22178100132E-01  0.73013166974E-02  0.61633573059E-02  0.24148795504E-01  0.00000000000E+00 0. -1.
     999901    1    3    3    0    0 -0.52194639061E-01  0.84352811924E-01  0.79642344931E-01  0.88914710838E+00  0.88000000000E+00 0. -1.
        -11    1    4    4    0    0  0.13575055459E-01 -0.45741544688E-01 -0.55597811552E-01  0.73266287005E-01  0.51100000000E-03 0. -1.
         11    1    4    4    0    0  0.16441483469E-01 -0.45912583933E-01 -0.30207890686E-01  0.57367809116E-01  0.51100000000E-03 0.  1.
</event>
<event>
 8    1  0.1129602E+005  0.1043930E+01  0.7957747E-01            NaN
         13   -1    0    0    0    0  0.00000000000E+00  0.00000000000E+00  0.74505805969E-08  0.10566000000E+00  0.10566000000E+00 0. -1.
     999900   -1    0    0    0    0 -0.00000000000E+00 -0.00000000000E+00 -0.74505805969E-08  0.93827000000E+00  0.93827000000E+00 0.  1.
     999902    2    1    2    0    0  0.20601708932E-01 -0.53360461892E-02  0.64950466523E-02  0.10216793948E+01  0.10214370741E+01 0.  0.
     999903    2    3    3    0    0  0.58262677280E-01 -0.16398999767E-01  0.11772100140E+00  0.13381006294E+00  0.19581420206E-01 0.  0.
         14    1    1    2    0    0 -0.20601708932E-01  0.53360461892E-02 -0.64950466523E-02  0.22250605180E-01  0.00000000000E+00 0.  1.
     999901    1    3    3    0    0 -0.37660968348E-01  0.11062953578E-01 -0.11122595475E+00  0.88786933188E+00  0.88000000000E+00 0.  1.
        -11    1    4    4    0    0  0.37708607881E-01 -0.82142747805E-03  0.73543493091E-01  0.82653011733E-01  0.51100000000E-03 0.  1.
         11    1    4    4    0    0  0.20554069399E-01 -0.15577572289E-01  0.44177508307E-01  0.51157051210E-01  0.51100000000E-03 0. -1.
</event>
<event>
 8    1  0.1129602E+005  0.1043930E+01  0.7957747E-01            NaN
         13   -1    0    0    0    0  0.00000000000E+00  0.00000000000E+00  0.74505805969E-08  0.10566000000E+00  0.10566000000E+00 0.  1.
     999900   -1    0    0    0    0 -0.00000000000E+00 -0.00000000000E+00 -0.74505805969E-08  0.93827000000E+00  0.93827000000E+00 0.  1.
     999902    2    1    2    0    0 -0.17232139610E-01 -0.15209705094E-01 -0.51504894156E-02  0.10203756096E+01  0.10201037082E+01 0.  0.
     999903    2    3    3    0    0  0.98109977275E-01 -0.45690929535E-01  0.67867979501E-01  0.12932869404E+00  0.20164815360E-01 0.  0.
         14    1    1    2    0    0  0.17232139610E-01  0.15209705094E-01  0.51504894156E-02  0.23554390372E-01  0.00000000000E+00 0.  1.
     999901    1    3    3    0    0 -0.11534211689E+00  0.30481224441E-01 -0.73018468917E-01  0.89104691559E+00  0.88000000000E+00 0. -1.
        -11    1    4    4    0    0  0.42911152156E-01 -0.27823657004E-01  0.40179439241E-01  0.65039767275E-01  0.51100000000E-03 0.  1.
         11    1    4    4    0    0  0.55198825119E-01 -0.17867272531E-01  0.27688540260E-01  0.64288926767E-01  0.51100000000E-03 0. -1.
</event>
<event>
 8    1  0.1129602E+005  0.1043930E+01  0.7957747E-01            NaN
         13   -1    0    0    0    0  0.00000000000E+00  0.00000000000E+00  0.74505805969E-08  0.10566000000E+00  0.10566000000E+00 0.  1.
     999900   -1    0    0    0    0 -0.00000000000E+00 -0.00000000000E+00 -0.74505805969E-08  0.93827000000E+00  0.93827000000E+00 0. -1.
     999902    2    1    2    0    0  0.58310528923E-02 -0.21967367001E-01 -0.50903970128E-02  0.10206388314E+01  0.10203730424E+01 0.  0.
     999903    2    3    3    0    0 -0.72728402215E-02  0.11179178256E+00  0.59104839589E-01  0.12812314503E+00  0.19283707514E-01 0.  0.
         14    1    1    2    0    0 -0.58310528923E-02  0.21967367001E-01  0.50903970128E-02  0.23291168553E-01  0.00000000000E+00 0.  1.
     999901    1    3    3    0    0  0.13103893114E-01 -0.13375914956E+00 -0.64195236602E-01  0.89251568642E+00  0.88000000000E+00 0. -1.
        -11    1    4    4    0    0  0.60840030108E-02  0.32724879690E-01  0.20818110952E-01  0.39263057802E-01  0.51100000000E-03 0.  1.
         11    1    4    4    0    0 -0.13356843232E-01  0.79066902871E-01  0.38286728637E-01  0.88860087224E-01  0.51100000000E-03 0. -1.
</event>
<event>
 8    1  0.1129602E+005  0.1043930E+01  0.7957747E-01            NaN
         13   -1    0    0    0    0  0.00000000000E+00  0.00000000000E+00  0.74505805969E-08  0.10566000000E+00  0.10566000000E+00 0.  1.
     999900   -1    0    0    0    0 -0.00000000000E+00 -0.00000000000E+00 -0.74505805969E-08  0.93827000000E+00  0.93827000000E+00 0.  1.
     999902    2    1    2    0    0 -0.70699368757E-02 -0.21153311386E-01 -0.52487063060E-02  0.10210172196E+01  0.10207600928E+01 0.  0.
     999903    2    3    3    0    0 -0.17960838613E-01  0.63701150044E-01  0.10960342840E+00  0.12944001919E+00  0.19009966046E-01 0.  0.
         14    1    1    2    0    0  0.70699368757E-02  0.21153311386E-01  0.52487063060E-02  0.22912780449E-01  0.00000000000E+00 0. -1.
     999901    1    3    3    0    0  0.10890901737E-01 -0.84854461429E-01 -0.11485213471E+00  0.89157720037E+00  0.88000000000E+00 0.  1.
        -11    1    4    4    0    0 -0.95589787908E-02  0.50008852415E-01  0.68852947804E-01  0.85634391093E-01  0.51100000000E-03 0.  1.
         11    1    4    4    0    0 -0.84018598221E-02  0.13692297628E-01  0.40750480596E-01  0.43805628093E-01  0.51100000000E-03 0. -1.
</event>
<event>
 8    1  0.1129602E+005  0.1043930E+01  0.7957747E-01            NaN
         13   -1    0    0    0    0  0.00000000000E+00  0.00000000000E+00  0.74505805969E-08  0.10566000000E+00  0.10566000000E+00 0. -1.
     999900   -1    0    0    0    0 -0.00000000000E+00 -0.00000000000E+00 -0.74505805969E-08  0.93827000000E+00  0.93827000000E+00 0.  1.
     999902    2    1    2    0    0  0.25036828862E-01 -0.47460942405E-02  0.25603301741E-02  0.10183189965E+01  0.10179968836E+01 0.  0.
     999903    2    3    3    0    0 -0.11406622732E-01  0.11997337781E+00 -0.38030002130E-01  0.12785246318E+00  0.19397135211E-01 0.  0.
         14    1    1    2    0    0 -0.25036828862E-01  0.47460942405E-02 -0.25603301741E-02  0.25611003507E-01  0.00000000000E+00 0.  1.
     999901    1    3    3    0    0  0.36443451594E-01 -0.12471947205E+00  0.40590332304E-01  0.89046653331E+00  0.88000000000E+00 0.  1.
        -11    1    4    4    0    0 -0.66092655568E-02  0.99877846846E-01 -0.24187805535E-01  0.10297853048E+00  0.51100000000E-03 0.  1.
         11    1    4    4    0    0 -0.47973571752E-02  0.20095530964E-01 -0.13842196595E-01  0.24873932704E-01  0.51100000000E-03 0. -1.
</event>
<event>
 8    1  0.1129602E+005  0.1043930E+01  0.7957747E-01            NaN
         13   -1    0    0    0    0  0.00000000000E+00  0.00000000000E+00  0.74505805969E-08  0.10566000000E+00  0.10566000000E+00 0. -1.
     999900   -1    0    0    0    0 -0.00000000000E+00 -0.00000000000E+00 -0.74505805969E-08  0.93827000000E+00  0.93827000000E+00 0. -1.
     999902    2    1    2    0    0  0.12604344785E-01 -0.18683175693E-01  0.62936055223E-02  0.10205304267E+01  0.10202621289E+01 0.  0.
     999903    2    3    3    0    0 -0.44979744234E-01 -0.10964398788E+00  0.58656133742E-01  0.13242478486E+00  0.71274223644E-02 0.  0.
         14    1    1    2    0    0 -0.12604344785E-01  0.18683175693E-01 -0.62936055223E-02  0.23399573327E-01  0.00000000000E+00 0.  1.
     999901    1    3    3    0    0  0.57584089018E-01  0.90960812188E-01 -0.52362528220E-01  0.88810564181E+00  0.88000000000E+00 0.  1.
        -11    1    4    4    0    0 -0.19754234358E-01 -0.53943060433E-01  0.31489549512E-01  0.65512871967E-01  0.51100000000E-03 0.  1.
         11    1    4    4    0    0 -0.25225509876E-01 -0.55700927447E-01  0.27166584230E-01  0.66911912891E-01  0.51100000000E-03 0. -1.
</event>
<event>
 7    1  0.1129602E+005  0.1043930E+01  0.7957747E-01            NaN
         13   -1    0    0    0    0  0.00000000000E+00  0.00000000000E+00  0.74505805969E-08  0.10566000000E+00  0.10566000000E+00 0. -1.
     999900   -1    0    0    0    0 -0.00000000000E+00 -0.00000000000E+00 -0.74505805969E-08  0.93827000000E+00  0.93827000000E+00 0. -1.
     999903    2    1    2    0    0 -0.80199128736E-01  0.19678174587E-01 -0.43085628410E-01  0.95618641965E-01  0.21619956304E-01 0.  0.
         14    1    1    2    0    0 -0.37615674501E-01  0.14421668058E-01  0.44200218040E-01  0.59804537892E-01  0.00000000000E+00 0. -1.
     999901    1    1    2    0    0  0.11781480324E+00 -0.34099842645E-01 -0.11145896295E-02  0.88850682014E+00  0.88000000000E+00 0.  1.
        -11    1    3    3    0    0 -0.61802931175E-01  0.19635283722E-01 -0.41836014650E-01  0.77172922140E-01  0.51100000000E-03 0. -1.
         11    1    3    3    0    0 -0.18396197561E-01  0.42890864213E-04 -0.12496137595E-02  0.18445719825E-01  0.51100000000E-03 0.  1.
</event>
<event>
 8    1  0.1129602E+005  0.1043930E+01  0.7957747E-01            NaN
         13   -1    0    0    0    0  0.00000000000E+00  0.00000000000E+00  0.74505805969E-08  0.10566000000E+00  0.10566000000E+00 0.  1.
     999900   -1    0    0    0    0 -0.00000000000E+00 -0.00000000000E+00 -0.74505805969E-08  0.93827000000E+00  0.93827000000E+00 0. -1.
     999902    2    1    2    0    0  0.11153504818E-01  0.10721254400E-03 -0.21146903344E-01  0.10200217653E+01  0.10197415349E+01 0.  0.
     999903    2    3    3    0    0  0.67881327279E-01 -0.23956859610E-01 -0.11046445731E+00  0.13335680557E+00  0.19995888262E-01 0.  0.
         14    1    1    2    0    0 -0.11153504818E-01 -0.10721254400E-03  0.21146903344E-01  0.23908234676E-01  0.00000000000E+00 0. -1.
     999901    1    3    3    0    0 -0.56727822462E-01  0.24064072154E-01  0.89317553966E-01  0.88666495975E+00  0.88000000000E+00 0.  1.
        -11    1    4    4    0    0  0.39178678071E-01 -0.32585239917E-02 -0.58632844168E-01  0.70595030492E-01  0.51100000000E-03 0.  1.
         11    1    4    4    0    0  0.28702649209E-01 -0.20698335618E-01 -0.51831613142E-01  0.62761775078E-01  0.51100000000E-03 0. -1.
</event>
<event>
 8    1  0.1129602E+005  0.1043930E+01  0.7957747E-01            NaN
         13   -1    0    0    0    0  0.00000000000E+00  0.00000000000E+00  0.74505805969E-08  0.10566000000E+00  0.10566000000E+00 0.  1.
     999900   -1    0    0    0    0 -0.00000000000E+00 -0.00000000000E+00 -0.74505805969E-08  0.93827000000E+00  0.93827000000E+00 0. -1.
     999902    2    1    2    0    0 -0.12355500019E-01 -0.18656165882E-01 -0.41006949331E-03  0.10215496724E+01  0.10213044865E+01 0.  0.
     999903    2    3    3    0    0 -0.24844190616E-01  0.70207681519E-02  0.12755881940E+00  0.13183549985E+00  0.21043327186E-01 0.  0.
         14    1    1    2    0    0  0.12355500019E-01  0.18656165882E-01  0.41006949331E-03  0.22380327592E-01  0.00000000000E+00 0. -1.
     999901    1    3    3    0    0  0.12488690598E-01 -0.25676934034E-01 -0.12796888890E+00  0.88971417256E+00  0.88000000000E+00 0. -1.
        -11    1    4    4    0    0  0.31346216537E-02  0.69923707209E-03  0.29131510948E-01  0.29312468960E-01  0.51100000000E-03 0.  1.
         11    1    4    4    0    0 -0.27978812270E-01  0.63215310798E-02  0.98427308455E-01  0.10252303089E+00  0.51100000000E-03 0. -1.
</event>
<event>
 8    1  0.1129602E+005  0.1043930E+01  0.7957747E-01            NaN
         13   -1    0    0    0    0  0.00000000000E+00  0.00000000000E+00  0.74505805969E-08  0.10566000000E+00  0.10566000000E+00 0. -1.
     999900   -1    0    0    0    0 -0.00000000000E+00 -0.00000000000E+00 -0.74505805969E-08  0.93827000000E+00  0.93827000000E+00 0. -1.
     999902    2    1    2    0    0  0.20920396964E-01 -0.34112686259E-02  0.10042525320E-01  0.10204746791E+01  0.10202050866E+01 0.  0.
     999903    2    3    3    0    0  0.28969597783E-01 -0.10482515500E+00 -0.70215161493E-01  0.13098557729E+00  0.19987542046E-01 0.  0.
         14    1    1    2    0    0 -0.20920396964E-01  0.34112686259E-02 -0.10042525320E-01  0.23455320880E-01  0.00000000000E+00 0.  1.
     999901    1    3    3    0    0 -0.80492008189E-02  0.10141388638E+00  0.80257686812E-01  0.88948910183E+00  0.88000000000E+00 0.  1.
        -11    1    4    4    0    0  0.58342868461E-02 -0.17204130540E-01 -0.36397699019E-02  0.18534563836E-01  0.51100000000E-03 0. -1.
         11    1    4    4    0    0  0.23135310937E-01 -0.87621024463E-01 -0.66575391591E-01  0.11245101345E+00  0.51100000000E-03 0.  1.
</event>
<event>
 8    1  0.1129602E+005  0.1043930E+01  0.7957747E-01            NaN
         13   -1    0    0    0    0  0.00000000000E+00  0.00000000000E+00  0.74505805969E-08  0.10566000000E+00  0.10566000000E+00 0. -1.
     999900   -1    0    0    0    0 -0.00000000000E+00 -0.00000000000E+00 -0.74505805969E-08  0.93827000000E+00  0.93827000000E+00 0. -1.
     999902    2    1    2    0    0  0.21685472254E-01  0.36017075695E-02  0.86143829907E-02  0.10203198412E+01  0.10200466356E+01 0.  0.
     999903    2    3    3    0    0 -0.75438871123E-01 -0.94118762995E-01  0.41153545941E-01  0.12900551641E+00  0.19986097605E-01 0.  0.
         14    1    1    2    0    0 -0.21685472254E-01 -0.36017075695E-02 -0.86143829907E-02  0.23610158801E-01  0.00000000000E+00 0.  1.
     999901    1    3    3    0    0  0.97124343376E-01  0.97720470565E-01 -0.32539162950E-01  0.89131432479E+00  0.88000000000E+00 0. -1.
        -11    1    4    4    0    0 -0.34139130966E-01 -0.52413060018E-01  0.29513422751E-01  0.69165832367E-01  0.51100000000E-03 0.  1.
         11    1    4    4    0    0 -0.41299740157E-01 -0.41705702978E-01  0.11640123189E-01  0.59839684046E-01  0.51100000000E-03 0. -1.
</event>
<event>
 8    1  0.1129602E+005  0.1043930E+01  0.7957747E-01            NaN
         13   -1    0    0    0    0  0.00000000000E+00  0.00000000000E+00  0.74505805969E-08  0.10566000000E+00  0.10566000000E+00 0. -1.
     999900   -1    0    0    0    0 -0.00000000000E+00 -0.00000000000E+00 -0.74505805969E-08  0.93827000000E+00  0.93827000000E+00 0.  1.
     999902    2    1    2    0    0  0.25755793888E-02  0.10831834350E-01  0.20043025754E-01  0.10210021757E+01  0.10207447074E+01 0.  0.
     999903    2    3    3    0    0 -0.12699314866E+00  0.28044921468E-01  0.68785530654E-02  0.13125072223E+00  0.16299084815E-01 0.  0.
         14    1    1    2    0    0 -0.25755793888E-02 -0.10831834350E-01 -0.20043025754E-01  0.22927824274E-01  0.00000000000E+00 0.  1.
     999901    1    3    3    0    0  0.12956872805E+00 -0.17213087117E-01  0.13164472688E-01  0.88975145350E+00  0.88000000000E+00 0.  1.
        -11    1    4    4    0    0 -0.81195166547E-01  0.25262752811E-01  0.14790855363E-02  0.85048871628E-01  0.51100000000E-03 0. -1.
         11    1    4    4    0    0 -0.45797982117E-01  0.27821686572E-02  0.53994675291E-02  0.46201850601E-01  0.51100000000E-03 0.  1.
</event>
<event>
 8    1  0.1129602E+005  0.1043930E+01  0.7957747E-01            NaN
         13   -1    0    0    0    0  0.00000000000E+00  0.00000000000E+00  0.74505805969E-08  0.10566000000E+00  0.10566000000E+00 0. -1.
     999900   -1    0    0    0    0 -0.00000000000E+00 -0.00000000000E+00 -0.74505805969E-08  0.93827000000E+00  0.93827000000E+00 0.  1.
     999902    2    1    2    0    0 -0.92377046525E-02  0.20140711731E-01 -0.84691514788E-02  0.10202084911E+01  0.10199326720E+01 0.  0.
     999903    2    3    3    0    0  0.10616932127E+00  0.41802754396E-01  0.58970369831E-01  0.12985119501E+00  0.19090135472E-01 0.  0.
         14    1    1    2    0    0  0.92377046525E-02 -0.20140711731E-01  0.84691514788E-02  0.23721508870E-01  0.00000000000E+00 0. -1.
     999901    1    3    3    0    0 -0.11540702592E+00 -0.21662042665E-01 -0.67439521309E-01  0.89035729612E+00  0.88000000000E+00 0.  1.
        -11    1    4    4    0    0  0.69862936692E-01  0.30803012019E-01  0.48639711679E-01  0.90530316170E-01  0.51100000000E-03 0. -1.
         11    1    4    4    0    0  0.36306384581E-01  0.10999742377E-01  0.10330658151E-01  0.39320878837E-01  0.51100000000E-03 0.  1.
</event>
<event>
 7    1  0.1129602E+005  0.1043930E+01  0.7957747E-01            NaN
         13   -1    0    0    0    0  0.00000000000E+00  0.00000000000E+00  0.74505805969E-08  0.10566000000E+00  0.10566000000E+00 0.  1.
     999900   -1    0    0    0    0 -0.00000000000E+00 -0.00000000000E+00 -0.74505805969E-08  0.93827000000E+00  0.93827000000E+00 0. -1.
     999903    2    1    2    0    0 -0.23180855958E-01  0.11023287186E+00  0.66716806970E-02  0.11453343760E+00  0.19615271703E-01 0.  0.
         14    1    1    2    0    0  0.42232958787E-02 -0.32891537291E-01 -0.31100346167E-01  0.45463402701E-01  0.00000000000E+00 0. -1.
     999901    1    1    2    0    0  0.18957560079E-01 -0.77341334568E-01  0.24428665470E-01  0.88393315970E+00  0.88000000000E+00 0.  1.
        -11    1    3    3    0    0  0.33454580686E-02  0.18941468033E-01  0.15894271958E-03  0.19242081092E-01  0.51100000000E-03 0. -1.
         11    1    3    3    0    0 -0.26526314026E-01  0.91291403826E-01  0.65127379774E-02  0.95291356509E-01  0.51100000000E-03 0.  1.
</event>
<event>
 8    1  0.1129602E+005  0.1043930E+01  0.7957747E-01            NaN
         13   -1    0    0    0    0  0.00000000000E+00  0.00000000000E+00  0.74505805969E-08  0.10566000000E+00  0.10566000000E+00 0. -1.
     999900   -1    0    0    0    0 -0.00000000000E+00 -0.00000000000E+00 -0.74505805969E-08  0.93827000000E+00  0.93827000000E+00 0.  1.
     999902    2    1    2    0    0 -0.27299317854E-02 -0.25337195260E-01  0.12692321865E-02  0.10184145744E+01  0.10180948917E+01 0.  0.
     999903    2    3    3    0    0  0.16458315001E-01 -0.12666404826E+00  0.24916794985E-01  0.13207686951E+00  0.22556496497E-01 0.  0.
         14    1    1    2    0    0  0.27299317854E-02  0.25337195260E-01 -0.12692321865E-02  0.25515425561E-01  0.00000000000E+00 0. -1.
     999901    1    3    3    0    0 -0.19188246786E-01  0.10132685300E+00 -0.23647562798E-01  0.88633770493E+00  0.88000000000E+00 0.  1.
        -11    1    4    4    0    0 -0.47611938650E-02 -0.14003731460E-01  0.55711712977E-02  0.15813681812E-01  0.51100000000E-03 0.  1.
         11    1    4    4    0    0  0.21219508866E-01 -0.11266031680E+00  0.19345623687E-01  0.11626318770E+00  0.51100000000E-03 0. -1.
</event>
<event>
 8    1  0.1129602E+005  0.1043930E+01  0.7957747E-01            NaN
         13   -1    0    0    0    0  0.00000000000E+00  0.00000000000E+00  0.74505805969E-08  0.10566000000E+00  0.10566000000E+00 0.  1.
     999900   -1    0    0    0    0 -0.00000000000E+00 -0.00000000000E+00 -0.74505805969E-08  0.93827000000E+00  0.93827000000E+00 0.  1.
     999902    2    1    2    0    0 -0.10542102940E-01 -0.20344046404E-01  0.58601183266E-02  0.10202792676E+01  0.10200051111E+01 0.  0.
     999903    2    3    3    0    0  0.31151166457E-01  0.49125539622E-01  0.11449604469E+00  0.12990512339E+00  0.19552059229E-01 0.  0.
         14    1    1    2    0    0  0.10542102940E-01  0.20344046404E-01 -0.58601183266E-02  0.23650732447E-01  0.00000000000E+00 0.  1.
     999901    1    3    3    0    0 -0.41693269396E-01 -0.69469586026E-01 -0.10863592636E+00  0.89037414416E+00  0.88000000000E+00 0.  1.
        -11    1    4    4    0    0  0.20483351840E-01  0.42185109336E-01  0.10094754655E+00  0.11130956575E+00  0.51100000000E-03 0. -1.
         11    1    4    4    0    0  0.10667814617E-01  0.69404302862E-02  0.13548498138E-01  0.18595557643E-01  0.51100000000E-03 0.  1.
</event>
<event>
 8    1  0.1129602E+005  0.1043930E+01  0.7957747E-01            NaN
         13   -1    0    0    0    0  0.00000000000E+00  0.00000000000E+00  0.74505805969E-08  0.10566000000E+00  0.10566000000E+00 0. -1.
     999900   -1    0    0    0    0 -0.00000000000E+00 -0.00000000000E+00 -0.74505805969E-08  0.93827000000E+00  0.93827000000E+00 0.  1.
     999902    2    1    2    0    0 -0.19753170221E-01 -0.13799427613E-01 -0.24233836378E-02  0.10197125533E+01  0.10194249392E+01 0.  0.
     999903    2    3    3    0    0  0.10014889754E+00 -0.32453629551E-01 -0.72875454371E-01  0.12859641083E+00  0.11965169419E-01 0.  0.
         14    1    1    2    0    0  0.19753170221E-01  0.13799427613E-01  0.24233836378E-02  0.24217446696E-01  0.00000000000E+00 0. -1.
     999901    1    3    3    0    0 -0.11990206776E+00  0.18654201938E-01  0.70452070733E-01  0.89111614247E+00  0.88000000000E+00 0.  1.
        -11    1    4    4    0    0  0.15435085745E-01 -0.41064229518E-02 -0.16461834972E-01  0.22942487072E-01  0.51100000000E-03 0. -1.
         11    1    4    4    0    0  0.84713811797E-01 -0.28347206599E-01 -0.56413619399E-01  0.10565392376E+00  0.51100000000E-03 0.  1.
</event>
<event>
 8    1  0.1129602E+005  0.1043930E+01  0.7957747E-01            NaN
         13   -1    0    0    0    0  0.00000000000E+00  0.00000000000E+00  0.74505805969E-08  0.10566000000E+00  0.10566000000E+00 0. -1.
     999900   -1    0    0    0    0 -0.00000000000E+00 -0.00000000000E+00 -0.74505805969E-08  0.93827000000E+00  0.93827000000E+00 0. -1.
     999902    2    1    2    0    0 -0.16510316638E-01 -0.16926119183E-01 -0.95192438861E-03  0.10202658874E+01  0.10199914170E+01 0.  0.
     999903    2    3    3    0    0 -0.36268632972E-01  0.12158719450E+00 -0.15395406140E-01  0.12909534068E+00  0.18158437498E-01 0.  0.
         14    1    1    2    0    0  0.16510316638E-01  0.16926119183E-01  0.95192438861E-03  0.23664112621E-01  0.00000000000E+00 0. -1.
     999901    1    3    3    0    0  0.19758316334E-01 -0.13851331368E+00  0.14443481751E-01  0.89117054669E+00  0.88000000000E+00 0. -1.
        -11    1    4    4    0    0 -0.21058679031E-01  0.78695182383E-01 -0.13910219353E-02  0.81477578240E-01  0.51100000000E-03 0.  1.
         11    1    4    4    0    0 -0.15209953942E-01  0.42892012116E-01 -0.14004384204E-01  0.47617762444E-01  0.51100000000E-03 0. -1.
</event>
<event>
 8    1  0.1129602E+005  0.1043930E+01  0.7957747E-01            NaN
         13   -1    0    0    0    0  0.00000000000E+00  0.00000000000E+00  0.74505805969E-08  0.10566000000E+00  0.10566000000E+00 0.  1.
     999900   -1    0    0    0    0 -0.00000000000E+00 -0.00000000000E+00 -0.74505805969E-08  0.93827000000E+00  0.93827000000E+00 0. -1.
     999902    2    1    2    0    0 -0.21213983869E-02  0.23095331234E-01  0.50708337331E-02  0.10201895701E+01  0.10199133056E+01 0.  0.
     999903    2    3    3    0    0  0.84838081822E-01 -0.75935266238E-01  0.56832538072E-01  0.12887128552E+00  0.20352053018E-01 0.  0.
         14    1    1    2    0    0  0.21213983869E-02 -0.23095331234E-01 -0.50708337331E-02  0.23740429876E-01  0.00000000000E+00 0. -1.
     999901    1    3    3    0    0 -0.86959480209E-01  0.99030597472E-01 -0.51761704339E-01  0.89131828460E+00  0.88000000000E+00 0. -1.
        -11    1    4    4    0    0  0.27473446681E-01 -0.27448058613E-01  0.30121139802E-01  0.49150080144E-01  0.51100000000E-03 0. -1.
         11    1    4    4    0    0  0.57364635141E-01 -0.48487207624E-01  0.26711398269E-01  0.79721205376E-01  0.51100000000E-03 0.  1.
</event>
<event>
 8    1  0.1129602E+005  0.1043930E+01  0.7957747E-01            NaN
         13   -1    0    0    0    0  0.00000000000E+00  0.00000000000E+00  0.74505805969E-08  0.10566000000E+00  0.10566000000E+00 0. -1.
     999900   -1    0    0    0    0 -0.00000000000E+00 -0.00000000000E+00 -0.74505805969E-08  0.93827000000E+00  0.93827000000E+00 0.  1.
     999902    2    1    2    0    0 -0.87343515342E-02  0.10857490753E-01  0.18106975015E-01  0.10210818809E+01  0.10208262198E+01 0.  0.
     999903    2    3    3    0    0  0.79840579384E-01  0.10036259538E+00  0.25018755263E-01  0.13209118644E+00  0.19364264797E-01 0.  0.
         14    1    1    2    0    0  0.87343515342E-02 -0.10857490753E-01 -0.18106975015E-01  0.22848119099E-01  0.00000000000E+00 0.  1.
     999901    1    3    3    0    0 -0.88574930918E-01 -0.89505104627E-01 -0.69117802485E-02  0.88899069447E+00  0.88000000000E+00 0.  1.
        -11    1    4    4    0    0  0.16151086971E-01  0.12768243279E-01 -0.13036034269E-02  0.20636040067E-01  0.51100000000E-03 0. -1.
         11    1    4    4    0    0  0.63689492413E-01  0.87594352101E-01  0.26322358690E-01  0.11145514637E+00  0.51100000000E-03 0.  1.
</event>
<event>
 8    1  0.1129602E+005  0.1043930E+01  0.7957747E-01            NaN
         13   -1    0    0    0    0  0.00000000000E+00  0.00000000000E+00  0.74505805969E-08  0.10566000000E+00  0.10566000000E+00 0. -1.
     999900   -1    0    0    0    0 -0.00000000000E+00 -0.00000000000E+00 -0.74505805969E-08  0.93827000000E+00  0.93827000000E+00 0.  1.
     999902    2    1    2    0    0 -0.21295659386E-01  0.68625310704E-02 -0.64719814661E-02  0.10206386715E+01  0.10203728787E+01 0.  0.
     999903    2    3    3    0    0  0.24350367948E-01  0.79020893631E-01 -0.10026126385E+00  0.13154541505E+00  0.20362542617E-01 0.  0.
         14    1    1    2    0    0  0.21295659386E-01 -0.68625310704E-02  0.64719814661E-02  0.23291328547E-01  0.00000000000E+00 0.  1.
     999901    1    3    3    0    0 -0.45646027334E-01 -0.72158362561E-01  0.93789282382E-01  0.88909325641E+00  0.88000000000E+00 0. -1.
        -11    1    4    4    0    0  0.12343848562E-02  0.19213591074E-01 -0.35633506615E-01  0.40505477440E-01  0.51100000000E-03 0. -1.
         11    1    4    4    0    0  0.23115983092E-01  0.59807302557E-01 -0.64627757233E-01  0.91039937607E-01  0.51100000000E-03 0.  1.
</event>
<event>
 8    1  0.1129602E+005  0.1043930E+01  0.7957747E-01            NaN
         13   -1    0    0    0    0  0.00000000000E+00  0.00000000000E+00  0.74505805969E-08  0.10566000000E+00  0.10566000000E+00 0.  1.
     999900   -1    0    0    0    0 -0.00000000000E+00 -0.00000000000E+00 -0.74505805969E-08  0.93827000000E+00  0.93827000000E+00 0. -1.
     999902    2    1    2    0    0 -0.15904607077E-01 -0.19444726637E-01  0.45822553369E-02  0.10183947110E+01  0.10180745240E+01 0.  0.
     999903    2    3    3    0    0  0.12249210384E+00 -0.26936071955E-01 -0.98584220015E-02  0.12742989519E+00  0.20281080554E-01 0.  0.
         14    1    1    2    0    0  0.15904607077E-01  0.19444726637E-01 -0.45822553369E-02  0.25535288999E-01  0.00000000000E+00 0. -1.
     999901    1    3    3    0    0 -0.13839671092E+00  0.74913453179E-02  0.14440677338E-01  0.89096481581E+00  0.88000000000E+00 0.  1.
        -11    1    4    4    0    0  0.86447048170E-01 -0.17761779099E-01  0.23330530367E-02  0.88285203695E-01  0.51100000000E-03 0.  1.
         11    1    4    4    0    0  0.36045055672E-01 -0.91742928565E-02 -0.12191475038E-01  0.39144691497E-01  0.51100000000E-03 0. -1.
</event>
<event>
 8    1  0.1129602E+005  0.1043930E+01  0.7957747E-01            NaN
         13   -1    0    0    0    0  0.00000000000E+00  0.00000000000E+00  0.74505805969E-08  0.10566000000E+00  0.10566000000E+00 0. -1.
     999900   -1    0    0    0    0 -0.00000000000E+00 -0.00000000000E+00 -0.74505805969E-08  0.93827000000E+00  0.93827000000E+00 0.  1.
     999902    2    1    2    0    0  0.77715837349E-02 -0.13249244581E-01  0.18728780090E-01  0.10197079605E+01  0.10194202359E+01 0.  0.
     999903    2    3    3    0    0  0.50052343131E-01 -0.31056662892E-01  0.11746341660E+00  0.13299870980E+00  0.20524356443E-01 0.  0.
         14    1    1    2    0    0 -0.77715837349E-02  0.13249244581E-01 -0.18728780090E-01  0.24222039538E-01  0.00000000000E+00 0.  1.
     999901    1    3    3    0    0 -0.42280759396E-01  0.17807418310E-01 -0.98734636506E-01  0.88670925066E+00  0.88000000000E+00 0.  1.
        -11    1    4    4    0    0  0.39630031999E-01 -0.24984705938E-01  0.71549575523E-01  0.85524136041E-01  0.51100000000E-03 0. -1.
         11    1    4    4    0    0  0.10422311131E-01 -0.60719569541E-02  0.45913841073E-01  0.47474573760E-01  0.51100000000E-03 0.  1.
</event>
<event>
 8    1  0.1129602E+005  0.1043930E+01  0.7957747E-01            NaN
         13   -1    0    0    0    0  0.00000000000E+00  0.00000000000E+00  0.74505805969E-08  0.10566000000E+00  0.10566000000E+00 0.  1.
     999900   -1    0    0    0    0 -0.00000000000E+00 -0.00000000000E+00 -0.74505805969E-08  0.93827000000E+00  0.93827000000E+00 0.  1.
     999902    2    1    2    0    0  0.15867003319E-01  0.15803995976E-01  0.85739760869E-02  0.10199499844E+01  0.10196680487E+01 0.  0.
     999903    2    3    3    0    0  0.43157521841E-01  0.17374310409E-01  0.12219123714E+00  0.13222473393E+00  0.19703894904E-01 0.  0.
         14    1    1    2    0    0 -0.15867003319E-01 -0.15803995976E-01 -0.85739760869E-02  0.23980015619E-01  0.00000000000E+00 0. -1.
     999901    1    3    3    0    0 -0.27290518522E-01 -0.15703144326E-02 -0.11361726105E+00  0.88772525046E+00  0.88000000000E+00 0.  1.
        -11    1    4    4    0    0  0.16824580495E-01  0.16758740099E-01  0.49426774652E-01  0.54837843247E-01  0.51100000000E-03 0. -1.
         11    1    4    4    0    0  0.26332941346E-01  0.61557030979E-03  0.72764462487E-01  0.77386890678E-01  0.51100000000E-03 0.  1.
</event>
<event>
 8    1  0.1129602E+005  0.1043930E+01  0.7957747E-01            NaN
         13   -1    0    0    0    0  0.00000000000E+00  0.00000000000E+00  0.74505805969E-08  0.10566000000E+00  0.10566000000E+00 0. -1.
     999900   -1    0    0    0    0 -0.00000000000E+00 -0.00000000000E+00 -0.74505805969E-08  0.93827000000E+00  0.93827000000E+00 0.  1.
     999902    2    1    2    0    0 -0.15897016143E-02 -0.23856803213E-01  0.41696272246E-02  0.10196594417E+01  0.10193705494E+01 0.  0.
     999903    2    3    3    0    0  0.11380509676E+00 -0.55252737916E-01 -0.27674041153E-01  0.13099995490E+00  0.19765387278E-01 0.  0.
         14    1    1    2    0    0  0.15897016143E-02  0.23856803213E-01 -0.41696272246E-02  0.24270558337E-01  0.00000000000E+00 0. -1.
     999901    1    3    3    0    0 -0.11539479837E+00  0.31395934703E-01  0.31843668377E-01  0.88865948677E+00  0.88000000000E+00 0. -1.
        -11    1    4    4    0    0  0.24940719370E-01 -0.54612906283E-02 -0.10891738886E-01  0.27762497636E-01  0.51100000000E-03 0.  1.
         11    1    4    4    0    0  0.88864377386E-01 -0.49791447287E-01 -0.16782302266E-01  0.10323745726E+00  0.51100000000E-03 0. -1.
</event>
<event>
 8    1  0.1129602E+005  0.1043930E+01  0.7957747E-01            NaN
         13   -1    0    0    0    0  0.00000000000E+00  0.00000000000E+00  0.74505805969E-08  0.10566000000E+00  0.10566000000E+00 0. -1.
     999900   -1    0    0    0    0 -0.00000000000E+00 -0.00000000000E+00 -0.74505805969E-08  0.93827000000E+00  0.93827000000E+00 0.  1.
     999902    2    1    2    0    0 -0.19703937885E-01 -0.93936278338E-02  0.87645250637E-02  0.10204076210E+01  0.10201364667E+01 0.  0.
     999903    2    3    3    0    0  0.53378460309E-01  0.45690025113E-02  0.11741219007E+00  0.13060971866E+00  0.20078357103E-01 0.  0.
         14    1    1    2    0    0  0.19703937885E-01  0.93936278338E-02 -0.87645250637E-02  0.23522378953E-01  0.00000000000E+00 0.  1.
     999901    1    3    3    0    0 -0.73082398193E-01 -0.13962630345E-01 -0.10864766501E+00  0.88979790238E+00  0.88000000000E+00 0.  1.
        -11    1    4    4    0    0  0.32572520668E-01  0.33429039881E-02  0.47793453350E-01  0.57936339320E-01  0.51100000000E-03 0. -1.
         11    1    4    4    0    0  0.20805939641E-01  0.12260985232E-02  0.69618736720E-01  0.72673379345E-01  0.51100000000E-03 0.  1.
</event>
<event>
 8    1  0.1129602E+005  0.1043930E+01  0.7957747E-01            NaN
         13   -1    0    0    0    0  0.00000000000E+00  0.00000000000E+00  0.74505805969E-08  0.10566000000E+00  0.10566000000E+00 0. -1.
     999900   -1    0    0    0    0 -0.00000000000E+00 -0.00000000000E+00 -0.74505805969E-08  0.93827000000E+00  0.93827000000E+00 0.  1.
     999902    2    1    2    0    0  0.13116633575E-02 -0.12935195997E-01 -0.18427806210E-01  0.10213773106E+01  0.10211282911E+01 0.  0.
     999903    2    3    3    0    0  0.54279383749E-01 -0.21434195606E-01  0.11461205657E+00  0.12976224935E+00  0.17223286680E-01 0.  0.
         14    1    1    2    0    0 -0.13116633575E-02  0.12935195997E-01  0.18427806210E-01  0.22552689373E-01  0.00000000000E+00 0. -1.
     999901    1    3    3    0    0 -0.52967720392E-01  0.84989996086E-02 -0.13303986278E+00  0.89161506127E+00  0.88000000000E+00 0.  1.
        -11    1    4    4    0    0  0.19460959385E-01  0.88065349519E-03  0.36945499889E-01  0.41770032007E-01  0.51100000000E-03 0. -1.
         11    1    4    4    0    0  0.34818424364E-01 -0.22314849101E-01  0.77666556685E-01  0.87992217348E-01  0.51100000000E-03 0.  1.
</event>
<event>
 8    1  0.1129602E+005  0.1043930E+01  0.7957747E-01            NaN
         13   -1    0    0    0    0  0.00000000000E+00  0.00000000000E+00  0.74505805969E-08  0.10566000000E+00  0.10566000000E+00 0. -1.
     999900   -1    0    0    0    0 -0.00000000000E+00 -0.00000000000E+00 -0.74505805969E-08  0.93827000000E+00  0.93827000000E+00 0. -1.
     999902    2    1    2    0    0 -0.70459132325E-02 -0.10619617507E-01  0.17779588922E-01  0.10220545583E+01  0.10218204270E+01 0.  0.
     999903    2    3    3    0    0  0.26991068623E-01  0.11005914251E+00  0.64664534691E-01  0.13193092786E+00  0.19563615256E-01 0.  0.
         14    1    1    2    0    0  0.70459132325E-02  0.10619617507E-01 -0.17779588922E-01  0.21875441744E-01  0.00000000000E+00 0.  1.
     999901    1    3    3    0    0 -0.34036981855E-01 -0.12067876002E+00 -0.46884945769E-01  0.89012363040E+00  0.88000000000E+00 0.  1.
        -11    1    4    4    0    0  0.10168756254E-01  0.17227760440E-01  0.16854715130E-01  0.26163751196E-01  0.51100000000E-03 0.  1.
         11    1    4    4    0    0  0.16822312369E-01  0.92831382075E-01  0.47809819561E-01  0.10576717666E+00  0.51100000000E-03 0. -1.
</event>
<event>
 8    1  0.1129602E+005  0.1043930E+01  0.7957747E-01            NaN
         13   -1    0    0    0    0  0.00000000000E+00  0.00000000000E+00  0.74505805969E-08  0.10566000000E+00  0.10566000000E+00 0.  1.
     999900   -1    0    0    0    0 -0.00000000000E+00 -0.00000000000E+00 -0.74505805969E-08  0.93827000000E+00  0.93827000000E+00 0.  1.
     999902    2    1    2    0    0 -0.16211751778E-01 -0.13636437191E-01  0.10095778977E-01  0.10204630431E+01  0.10201931798E+01 0.  0.
     999903    2    3    3    0    0 -0.56429977229E-02  0.20585910762E-01  0.12851882294E+00  0.13180850669E+00  0.20019276778E-01 0.  0.
         14    1    1    2    0    0  0.16211751778E-01  0.13636437191E-01 -0.10095778977E-01  0.23466956942E-01  0.00000000000E+00 0. -1.
     999901    1    3    3    0    0 -0.10568754055E-01 -0.34222347954E-01 -0.11842304396E+00  0.88865453636E+00  0.88000000000E+00 0.  1.
        -11    1    4    4    0    0  0.42406731450E-02  0.18444522320E-01  0.90900254556E-01  0.92850961824E-01  0.51100000000E-03 0. -1.
         11    1    4    4    0    0 -0.98836708679E-02  0.21413884428E-02  0.37618568379E-01  0.38957544869E-01  0.51100000000E-03 0.  1.
</event>
<event>
 8    1  0.1129602E+005  0.1043930E+01  0.7957747E-01            NaN
         13   -1    0    0    0    0  0.00000000000E+00  0.00000000000E+00  0.74505805969E-08  0.10566000000E+00  0.10566000000E+00 0. -1.
     999900   -1    0    0    0    0 -0.00000000000E+00 -0.00000000000E+00 -0.74505805969E-08  0.93827000000E+00  0.93827000000E+00 0. -1.
     999902    2    1    2    0    0 -0.11966040732E-01 -0.13444947717E-01 -0.15126821675E-01  0.10204188647E+01  0.10201479726E+01 0.  0.
     999903    2    3    3    0    0  0.34735553482E-01 -0.65386774554E-01 -0.10829400377E+00  0.13274825230E+00  0.20310545864E-01 0.  0.
         14    1    1    2    0    0  0.11966040732E-01  0.13444947717E-01  0.15126821675E-01  0.23511135317E-01  0.00000000000E+00 0. -1.
     999901    1    3    3    0    0 -0.46701594214E-01  0.51941826836E-01  0.93167182093E-01  0.88767061239E+00  0.88000000000E+00 0.  1.
        -11    1    4    4    0    0  0.27168378065E-01 -0.35711425016E-01 -0.75851565827E-01  0.88131423470E-01  0.51100000000E-03 0.  1.
         11    1    4    4    0    0  0.75671754170E-02 -0.29675349537E-01 -0.32442437940E-01  0.44616828825E-01  0.51100000000E-03 0. -1.
</event>
<event>
 8    1  0.1129602E+005  0.1043930E+01  0.7957747E-01            NaN
         13   -1    0    0    0    0  0.00000000000E+00  0.00000000000E+00  0.74505805969E-08  0.10566000000E+00  0.10566000000E+00 0. -1.
     999900   -1    0    0    0    0 -0.00000000000E+00 -0.00000000000E+00 -0.74505805969E-08  0.93827000000E+00  0.93827000000E+00 0.  1.
     999902    2    1    2    0    0 -0.26182818565E-02  0.23948247177E-01 -0.31730802305E-02  0.10196309798E+01  0.10193414014E+01 0.  0.
     999903    2    3    3    0    0  0.90511074338E-01 -0.46347009444E-01  0.75633082389E-01  0.12843800895E+00  0.20872449058E-01 0.  0.
         14    1    1    2    0    0  0.26182818565E-02 -0.23948247177E-01  0.31730802305E-02  0.24299020163E-01  0.00000000000E+00 0. -1.
     999901    1    3    3    0    0 -0.93129356195E-01  0.70295256621E-01 -0.78806162619E-01  0.89119297089E+00  0.88000000000E+00 0.  1.
        -11    1    4    4    0    0  0.26405607883E-01 -0.11558824187E-01  0.10595778416E-01  0.30714722618E-01  0.51100000000E-03 0. -1.
         11    1    4    4    0    0  0.64105466456E-01 -0.34788185258E-01  0.65037303972E-01  0.97723286334E-01  0.51100000000E-03 0.  1.
</event>
<event>
 8    1  0.1129602E+005  0.1043930E+01  0.7957747E-01            NaN
         13   -1    0    0    0    0  0.00000000000E+00  0.00000000000E+00  0.74505805969E-08  0.10566000000E+00  0.10566000000E+00 0.  1.
     999900   -1    0    0    0    0 -0.00000000000E+00 -0.00000000000E+00 -0.74505805969E-08  0.93827000000E+00  0.93827000000E+00 0.  1.
     999902    2    1    2    0    0  0.18201933499E-02 -0.21014729515E-01  0.88146585529E-02  0.10210688940E+01  0.10208129389E+01 0.  0.
     999903    2    3    3    0    0  0.10509079519E+00 -0.59166533121E-01 -0.50279954205E-01  0.13224239208E+00  0.20377011388E-01 0.  0.
         14    1    1    2    0    0 -0.18201933499E-02  0.21014729515E-01 -0.88146585529E-02  0.22861105963E-01  0.00000000000E+00 0.  1.
     999901    1    3    3    0    0 -0.10327060184E+00  0.38151803606E-01  0.59094612758E-01  0.88882650196E+00  0.88000000000E+00 0. -1.
        -11    1    4    4    0    0  0.46805197952E-01 -0.26213520731E-01 -0.11506753559E-01  0.54868403685E-01  0.51100000000E-03 0.  1.
         11    1    4    4    0    0  0.58285597238E-01 -0.32953012390E-01 -0.38773200646E-01  0.77373988396E-01  0.51100000000E-03 0. -1.
</event>
<event>
 8    1  0.1129602E+005  0.1043930E+01  0.7957747E-01            NaN
         13   -1    0    0    0    0  0.00000000000E+00  0.00000000000E+00  0.74505805969E-08  0.10566000000E+00  0.10566000000E+00 0.  1.
     999900   -1    0    0    0    0 -0.00000000000E+00 -0.00000000000E+00 -0.74505805969E-08  0.93827000000E+00  0.93827000000E+00 0.  1.
     999902    2    1    2    0    0 -0.10244049019E-01  0.20097765477E-01 -0.76491935025E-02  0.10201104518E+01  0.10198323210E+01 0.  0.
     999903    2    3    3    0    0 -0.10963439212E+00  0.55720701331E-01 -0.46144330213E-01  0.13296372803E+00  0.20629039424E-01 0.  0.
         14    1    1    2    0    0  0.10244049019E-01 -0.20097765477E-01  0.76491935025E-02  0.23819548248E-01  0.00000000000E+00 0.  1.
     999901    1    3    3    0    0  0.99390343105E-01 -0.35622935854E-01  0.38495136711E-01  0.88714672372E+00  0.88000000000E+00 0. -1.
        -11    1    4    4    0    0 -0.72715590537E-01  0.36187225001E-01 -0.40665034261E-01  0.90834896889E-01  0.51100000000E-03 0. -1.
         11    1    4    4    0    0 -0.36918801587E-01  0.19533476330E-01 -0.54792959523E-02  0.42128831140E-01  0.51100000000E-03 0.  1.
</event>
<event>
 8    1  0.1129602E+005  0.1043930E+01  0.7957747E-01            NaN
         13   -1    0    0    0    0  0.00000000000E+00  0.00000000000E+00  0.74505805969E-08  0.10566000000E+00  0.10566000000E+00 0. -1.
     999900   -1    0    0    0    0 -0.00000000000E+00 -0.00000000000E+00 -0.74505805969E-08  0.93827000000E+00  0.93827000000E+00 0. -1.
     999902    2    1    2    0    0  0.89402922596E-02 -0.22095480274E-01 -0.52905469402E-02  0.10195142477E+01  0.10192218464E+01 0.  0.
     999903    2    3    3    0    0 -0.58449841370E-01 -0.37392619055E-01 -0.10859714934E+00  0.13078049303E+00  0.22262178615E-01 0.  0.
         14    1    1    2    0    0 -0.89402922596E-02  0.22095480274E-01  0.52905469402E-02  0.24415752316E-01  0.00000000000E+00 0. -1.
     999901    1    3    3    0    0  0.67390133629E-01  0.15297138781E-01  0.10330660240E+00  0.88873375466E+00  0.88000000000E+00 0.  1.
        -11    1    4    4    0    0 -0.41367678384E-01 -0.37320311369E-01 -0.85386295280E-01  0.10195671139E+00  0.51100000000E-03 0.  1.
         11    1    4    4    0    0 -0.17082162986E-01 -0.72307686017E-04 -0.23210854057E-01  0.28823781635E-01  0.51100000000E-03 0. -1.
</event>
<event>
 8    1  0.1129602E+005  0.1043930E+01  0.7957747E-01            NaN
         13   -1    0    0    0    0  0.00000000000E+00  0.00000000000E+00  0.74505805969E-08  0.10566000000E+00  0.10566000000E+00 0.  1.
     999900   -1    0    0    0    0 -0.00000000000E+00 -0.00000000000E+00 -0.74505805969E-08  0.93827000000E+00  0.93827000000E+00 0. -1.
     999902    2    1    2    0    0 -0.13148513773E-01 -0.68452953570E-02 -0.18416843001E-01  0.10202884774E+01  0.10200145370E+01 0.  0.
     999903    2    3    3    0    0  0.10555947289E+00 -0.91646324889E-02 -0.73591655808E-01  0.13060245114E+00  0.20358674633E-01 0.  0.
         14    1    1    2    0    0  0.13148513773E-01  0.68452953570E-02  0.18416843001E-01  0.23641522562E-01  0.00000000000E+00 0.  1.
     999901    1    3    3    0    0 -0.11870798667E+00  0.23193371319E-02  0.55174812807E-01  0.88968602630E+00  0.88000000000E+00 0.  1.
        -11    1    4    4    0    0  0.60408977305E-01 -0.14628263759E-01 -0.46901715720E-01  0.77866955110E-01  0.51100000000E-03 0.  1.
         11    1    4    4    0    0  0.45150495589E-01  0.54636312701E-02 -0.26689940087E-01  0.52735496029E-01  0.51100000000E-03 0. -1.
</event>
<event>
 8    1  0.1129602E+005  0.1043930E+01  0.7957747E-01            NaN
         13   -1    0    0    0    0  0.00000000000E+00  0.00000000000E+00  0.74505805969E-08  0.10566000000E+00  0.10566000000E+00 0. -1.
     999900   -1    0    0    0    0 -0.00000000000E+00 -0.00000000000E+00 -0.74505805969E-08  0.93827000000E+00  0.93827000000E+00 0. -1.
     999902    2    1    2    0    0 -0.98450091639E-02 -0.51127719089E-02 -0.19602361940E-01  0.10214062961E+01  0.10211579234E+01 0.  0.
     999903    2    3    3    0    0 -0.76625119500E-02 -0.72746539500E-01 -0.11045648521E+00  0.13414446245E+00  0.21055369424E-01 0.  0.
         14    1    1    2    0    0  0.98450091639E-02  0.51127719089E-02  0.19602361940E-01  0.22523703861E-01  0.00000000000E+00 0. -1.
     999901    1    3    3    0    0 -0.21824972139E-02  0.67633767592E-01  0.90854123269E-01  0.88726183369E+00  0.88000000000E+00 0.  1.
        -11    1    4    4    0    0 -0.10600784519E-01 -0.47859947620E-01 -0.86757899751E-01  0.99650115448E-01  0.51100000000E-03 0.  1.
         11    1    4    4    0    0  0.29382725695E-02 -0.24886591880E-01 -0.23698585458E-01  0.34494346998E-01  0.51100000000E-03 0. -1.
</event>
<event>
 8    1  0.1129602E+005  0.1043930E+01  0.7957747E-01            NaN
         13   -1    0    0    0    0  0.00000000000E+00  0.00000000000E+00  0.74505805969E-08  0.10566000000E+00  0.10566000000E+00 0. -1.
     999900   -1    0    0    0    0 -0.00000000000E+00 -0.00000000000E+00 -0.74505805969E-08  0.93827000000E+00  0.93827000000E+00 0.  1.
     999902    2    1    2    0    0  0.19501372707E-01 -0.12641840728E-01  0.34176449185E-02  0.10204395770E+01  0.10201691675E+01 0.  0.
     999903    2    3    3    0    0  0.50940918940E-01  0.87302909184E-01 -0.80153223181E-01  0.13029268573E+00  0.18299442429E-01 0.  0.
         14    1    1    2    0    0 -0.19501372707E-01  0.12641840728E-01 -0.34176449185E-02  0.23490422969E-01  0.00000000000E+00 0.  1.
     999901    1    3    3    0    0 -0.31439546233E-01 -0.99944749913E-01  0.83570868100E-01  0.89014689130E+00  0.88000000000E+00 0.  1.
        -11    1    4    4    0    0  0.32499279836E-01  0.44264733668E-01 -0.34258322942E-01  0.64726066220E-01  0.51100000000E-03 0. -1.
         11    1    4    4    0    0  0.18441639104E-01  0.43038175517E-01 -0.45894900240E-01  0.65566619508E-01  0.51100000000E-03 0.  1.
</event>
<event>
 8    1  0.1129602E+005  0.1043930E+01  0.7957747E-01            NaN
         13   -1    0    0    0    0  0.00000000000E+00  0.00000000000E+00  0.74505805969E-08  0.10566000000E+00  0.10566000000E+00 0. -1.
     999900   -1    0    0    0    0 -0.00000000000E+00 -0.00000000000E+00 -0.74505805969E-08  0.93827000000E+00  0.93827000000E+00 0.  1.
     999902    2    1    2    0    0 -0.77232783121E-02  0.13790542542E-01 -0.17056933972E-01  0.10206756007E+01  0.10204106598E+01 0.  0.
     999903    2    3    3    0    0  0.51123637204E-01  0.51742860751E-01 -0.10963840664E+00  0.13305255737E+00  0.19785168466E-01 0.  0.
         14    1    1    2    0    0  0.77232783121E-02 -0.13790542542E-01  0.17056933972E-01  0.23254399326E-01  0.00000000000E+00 0. -1.
     999901    1    3    3    0    0 -0.58846915516E-01 -0.37952318209E-01  0.92581472672E-01  0.88762304330E+00  0.88000000000E+00 0. -1.
        -11    1    4    4    0    0  0.80128473839E-02  0.20816520858E-01 -0.33526738380E-01  0.40272032122E-01  0.51100000000E-03 0.  1.
         11    1    4    4    0    0  0.43110789820E-01  0.30926339893E-01 -0.76111668264E-01  0.92780525247E-01  0.51100000000E-03 0. -1.
</event>
<event>
 8    1  0.1129602E+005  0.1043930E+01  0.7957747E-01            NaN
         13   -1    0    0    0    0  0.00000000000E+00  0.00000000000E+00  0.74505805969E-08  0.10566000000E+00  0.10566000000E+00 0.  1.
     999900   -1    0    0    0    0 -0.00000000000E+00 -0.00000000000E+00 -0.74505805969E-08  0.93827000000E+00  0.93827000000E+00 0. -1.
     999902    2    1    2    0    0  0.63308101240E-02  0.17274520650E-01  0.12844483916E-01  0.10214918854E+01  0.10212454176E+01 0.  0.
     999903    2    3    3    0    0  0.42290278969E-01 -0.12101436101E+00  0.22377791854E-02  0.12990375156E+00  0.20905352147E-01 0.  0.
         14    1    1    2    0    0 -0.63308101240E-02 -0.17274520650E-01 -0.12844483916E-01  0.22438114617E-01  0.00000000000E+00 0.  1.
     999901    1    3    3    0    0 -0.35959468845E-01  0.13828888166E+00  0.10606704730E-01  0.89158813382E+00  0.88000000000E+00 0. -1.
        -11    1    4    4    0    0  0.19260226893E-01 -0.84383946867E-01 -0.32716762049E-03  0.86556195552E-01  0.51100000000E-03 0. -1.
         11    1    4    4    0    0  0.23030052077E-01 -0.36630414140E-01  0.25649468059E-02  0.43347556008E-01  0.51100000000E-03 0.  1.
</event>
<event>
 8    1  0.1129602E+005  0.1043930E+01  0.7957747E-01            NaN
         13   -1    0    0    0    0  0.00000000000E+00  0.00000000000E+00  0.74505805969E-08  0.10566000000E+00  0.10566000000E+00 0. -1.
     999900   -1    0    0    0    0 -0.00000000000E+00 -0.00000000000E+00 -0.74505805969E-08  0.93827000000E+00  0.93827000000E+00 0. -1.
     999902    2    1    2    0    0 -0.54521205535E-02 -0.14917838942E-01 -0.18021634917E-01  0.10199082003E+01  0.10196252695E+01 0.  0.
     999903    2    3    3    0    0 -0.66020374214E-01 -0.11272229018E+00 -0.21549908409E-02  0.13227878749E+00  0.20688864609E-01 0.  0.
         14    1    1    2    0    0  0.54521205535E-02  0.14917838942E-01  0.18021634917E-01  0.24021799731E-01  0.00000000000E+00 0. -1.
     999901    1    3    3    0    0  0.60568253661E-01  0.97804451242E-01 -0.15866644076E-01  0.88762941278E+00  0.88000000000E+00 0.  1.
        -11    1    4    4    0    0 -0.35865322418E-01 -0.41117537921E-01 -0.99061381082E-03  0.54573031010E-01  0.51100000000E-03 0.  1.
         11    1    4    4    0    0 -0.30155051796E-01 -0.71604752263E-01 -0.11643770301E-02  0.77705756481E-01  0.51100000000E-03 0. -1.
</event>
<event>
 8    1  0.1129602E+005  0.1043930E+01  0.7957747E-01            NaN
         13   -1    0    0    0    0  0.00000000000E+00  0.00000000000E+00  0.74505805969E-08  0.10566000000E+00  0.10566000000E+00 0. -1.
     999900   -1    0    0    0    0 -0.00000000000E+00 -0.00000000000E+00 -0.74505805969E-08  0.93827000000E+00  0.93827000000E+00 0.  1.
     999902    2    1    2    0    0 -0.33225899514E-02  0.23427776397E-01  0.24735846506E-02  0.10201388476E+01  0.10198613874E+01 0.  0.
     999903    2    3    3    0    0  0.84771214340E-01 -0.32290576925E-01  0.90453294742E-01  0.12963029480E+00  0.19833674916E-01 0.  0.
         14    1    1    2    0    0  0.33225899514E-02 -0.23427776397E-01 -0.24735846506E-02  0.23791152387E-01  0.00000000000E+00 0.  1.
     999901    1    3    3    0    0 -0.88093804291E-01  0.55718353321E-01 -0.87979710091E-01  0.89050855282E+00  0.88000000000E+00 0.  1.
        -11    1    4    4    0    0  0.22636578969E-01 -0.13306468423E-02  0.15532360404E-01  0.27490010352E-01  0.51100000000E-03 0.  1.
         11    1    4    4    0    0  0.62134635371E-01 -0.30959930082E-01  0.74920934338E-01  0.10214028444E+00  0.51100000000E-03 0. -1.
</event>
<event>
 8    1  0.1129602E+005  0.1043930E+01  0.7957747E-01            NaN
         13   -1    0    0    0    0  0.00000000000E+00  0.00000000000E+00  0.74505805969E-08  0.10566000000E+00  0.10566000000E+00 0. -1.
     999900   -1    0    0    0    0 -0.00000000000E+00 -0.00000000000E+00 -0.74505805969E-08  0.93827000000E+00  0.93827000000E+00 0.  1.
     999902    2    1    2    0    0 -0.21891487949E-01 -0.25262579739E-02  0.60662279561E-02  0.10210735273E+01  0.10208176770E+01 0.  0.
     999903    2    3    3    0    0  0.10385444133E+00  0.43916191950E-01 -0.58786644431E-01  0.12856311560E+00  0.18926918155E-01 0.  0.
         14    1    1    2    0    0  0.21891487949E-01  0.25262579739E-02 -0.60662279561E-02  0.22856472729E-01  0.00000000000E+00 0.  1.
     999901    1    3    3    0    0 -0.12574592928E+00 -0.46442449924E-01  0.64852872388E-01  0.89251041167E+00  0.88000000000E+00 0. -1.
        -11    1    4    4    0    0  0.38014063452E-01  0.25861910099E-01 -0.21270105676E-01  0.50661483699E-01  0.51100000000E-03 0.  1.
         11    1    4    4    0    0  0.65840377874E-01  0.18054281851E-01 -0.37516538755E-01  0.77901631901E-01  0.51100000000E-03 0. -1.
</event>
<event>
 8    1  0.1129602E+005  0.1043930E+01  0.7957747E-01            NaN
         13   -1    0    0    0    0  0.00000000000E+00  0.00000000000E+00  0.74505805969E-08  0.10566000000E+00  0.10566000000E+00 0.  1.
     999900   -1    0    0    0    0 -0.00000000000E+00 -0.00000000000E+00 -0.74505805969E-08  0.93827000000E+00  0.93827000000E+00 0. -1.
     999902    2    1    2    0    0 -0.17937030829E-01 -0.28776263816E-02  0.10912921196E-01  0.10227377925E+01  0.10225182065E+01 0.  0.
     999903    2    3    3    0    0  0.44275163186E-01  0.32145844607E-01  0.11972488302E+00  0.13316652296E+00  0.20140253772E-01 0.  0.
         14    1    1    2    0    0  0.17937030829E-01  0.28776263816E-02 -0.10912921196E-01  0.21192207473E-01  0.00000000000E+00 0.  1.
     999901    1    3    3    0    0 -0.62212194015E-01 -0.35023470988E-01 -0.10881196182E+00  0.88957126957E+00  0.88000000000E+00 0. -1.
        -11    1    4    4    0    0  0.37725501515E-01  0.19370161659E-01  0.74632620201E-01  0.85841165803E-01  0.51100000000E-03 0.  1.
         11    1    4    4    0    0  0.65496616714E-02  0.12775682948E-01  0.45092262820E-01  0.47325357157E-01  0.51100000000E-03 0. -1.
</event>
<event>
 8    1  0.1129602E+005  0.1043930E+01  0.7957747E-01            NaN
         13   -1    0    0    0    0  0.00000000000E+00  0.00000000000E+00  0.74505805969E-08  0.10566000000E+00  0.10566000000E+00 0.  1.
     999900   -1    0    0    0    0 -0.00000000000E+00 -0.00000000000E+00 -0.74505805969E-08  0.93827000000E+00  0.93827000000E+00 0.  1.
     999902    2    1    2    0    0 -0.54254056471E-02 -0.13103644495E-01 -0.18440360491E-01  0.10206665647E+01  0.10204014156E+01 0.  0.
     999903    2    3    3    0    0  0.10045107415E-01 -0.47553679676E-01  0.11815625521E+00  0.12932780919E+00  0.20063024485E-01 0.  0.
         14    1    1    2    0    0  0.54254056471E-02  0.13103644495E-01  0.18440360491E-01  0.23263435270E-01  0.00000000000E+00 0.  1.
     999901    1    3    3    0    0 -0.15470513062E-01  0.34450035180E-01 -0.13659661570E+00  0.89133875554E+00  0.88000000000E+00 0.  1.
        -11    1    4    4    0    0  0.56078024249E-02 -0.66610924716E-02  0.40718568011E-01  0.41642292238E-01  0.51100000000E-03 0.  1.
         11    1    4    4    0    0  0.44373049897E-02 -0.40892587204E-01  0.77437687202E-01  0.87685516957E-01  0.51100000000E-03 0. -1.
</event>
<event>
 8    1  0.1129602E+005  0.1043930E+01  0.7957747E-01            NaN
         13   -1    0    0    0    0  0.00000000000E+00  0.00000000000E+00  0.74505805969E-08  0.10566000000E+00  0.10566000000E+00 0. -1.
     999900   -1    0    0    0    0 -0.00000000000E+00 -0.00000000000E+00 -0.74505805969E-08  0.93827000000E+00  0.93827000000E+00 0. -1.
     999902    2    1    2    0    0  0.71288440542E-02  0.13431268877E-01 -0.17870282722E-01  0.10204658485E+01  0.10201960505E+01 0.  0.
     999903    2    3    3    0    0  0.47919263435E-01 -0.22144622218E-01 -0.12011564201E+00  0.13289409600E+00  0.21128965772E-01 0.  0.
         14    1    1    2    0    0 -0.71288440542E-02 -0.13431268877E-01  0.17870282722E-01  0.23464151503E-01  0.00000000000E+00 0. -1.
     999901    1    3    3    0    0 -0.40790419381E-01  0.35575891095E-01  0.10224535929E+00  0.88757175250E+00  0.88000000000E+00 0.  1.
        -11    1    4    4    0    0  0.53205342308E-02 -0.64123706154E-03 -0.24402380686E-02  0.59105966113E-02  0.51100000000E-03 0. -1.
         11    1    4    4    0    0  0.42598729205E-01 -0.21503385156E-01 -0.11767540394E+00  0.12698349939E+00  0.51100000000E-03 0.  1.
</event>
<event>
 8    1  0.1129602E+005  0.1043930E+01  0.7957747E-01            NaN
         13   -1    0    0    0    0  0.00000000000E+00  0.00000000000E+00  0.74505805969E-08  0.10566000000E+00  0.10566000000E+00 0. -1.
     999900   -1    0    0    0    0 -0.00000000000E+00 -0.00000000000E+00 -0.74505805969E-08  0.93827000000E+00  0.93827000000E+00 0.  1.
     999902    2    1    2    0    0 -0.48228471653E-02 -0.41338189443E-02 -0.22751312072E-01  0.10203086005E+01  0.10200351316E+01 0.  0.
     999903    2    3    3    0    0 -0.57812493792E-01 -0.92033700180E-01 -0.73757048105E-01  0.13287641892E+00  0.20088657329E-01 0.  0.
         14    1    1    2    0    0  0.48228471653E-02  0.41338189443E-02  0.22751312072E-01  0.23621399511E-01  0.00000000000E+00 0. -1.
     999901    1    3    3    0    0  0.52989646627E-01  0.87899881236E-01  0.51005736033E-01  0.88743218157E+00  0.88000000000E+00 0. -1.
        -11    1    4    4    0    0 -0.24118874104E-01 -0.57059146610E-01 -0.42227745016E-01  0.74972727508E-01  0.51100000000E-03 0. -1.
         11    1    4    4    0    0 -0.33693619689E-01 -0.34974553570E-01 -0.31529303089E-01  0.57903691415E-01  0.51100000000E-03 0.  1.
</event>
<event>
 8    1  0.1129602E+005  0.1043930E+01  0.7957747E-01            NaN
         13   -1    0    0    0    0  0.00000000000E+00  0.00000000000E+00  0.74505805969E-08  0.10566000000E+00  0.10566000000E+00 0.  1.
     999900   -1    0    0    0    0 -0.00000000000E+00 -0.00000000000E+00 -0.74505805969E-08  0.93827000000E+00  0.93827000000E+00 0. -1.
     999902    2    1    2    0    0 -0.19121806558E-01  0.12830290301E-01 -0.17877663472E-01  0.10147774583E+01  0.10143586246E+01 0.  0.
     999903    2    3    3    0    0  0.67402528243E-01 -0.93997308731E-01 -0.40205331751E-01  0.12382452960E+00  0.18369827610E-01 0.  0.
         14    1    1    2    0    0  0.19121806558E-01 -0.12830290301E-01  0.17877663472E-01  0.29152541681E-01  0.00000000000E+00 0.  1.
     999901    1    3    3    0    0 -0.86524334801E-01  0.10682759903E+00  0.22327668280E-01  0.89095292872E+00  0.88000000000E+00 0.  1.
        -11    1    4    4    0    0  0.37197338341E-01 -0.36455945095E-01 -0.19501369963E-01  0.55616926055E-01  0.51100000000E-03 0. -1.
         11    1    4    4    0    0  0.30205189902E-01 -0.57541363637E-01 -0.20703961789E-01  0.68207603542E-01  0.51100000000E-03 0.  1.
</event>
<event>
 8    1  0.1129602E+005  0.1043930E+01  0.7957747E-01            NaN
         13   -1    0    0    0    0  0.00000000000E+00  0.00000000000E+00  0.74505805969E-08  0.10566000000E+00  0.10566000000E+00 0.  1.
     999900   -1    0    0    0    0 -0.00000000000E+00 -0.00000000000E+00 -0.74505805969E-08  0.93827000000E+00  0.93827000000E+00 0. -1.
     999902    2    1    2    0    0  0.90215913020E-02 -0.78240132272E-02 -0.19912543820E-01  0.10207111780E+01  0.10204470566E+01 0.  0.
     999903    2    3    3    0    0  0.82530304878E-01 -0.10026488803E+00 -0.20288313811E-01  0.13282098914E+00  0.19118066944E-01 0.  0.
         14    1    1    2    0    0 -0.90215913020E-02  0.78240132272E-02  0.19912543820E-01  0.23218821977E-01  0.00000000000E+00 0.  1.
     999901    1    3    3    0    0 -0.73508713576E-01  0.92440874808E-01  0.37576999106E-03  0.88789018888E+00  0.88000000000E+00 0.  1.
        -11    1    4    4    0    0  0.28958149643E-01 -0.42724905939E-01  0.36452270338E-04  0.51616416653E-01  0.51100000000E-03 0.  1.
         11    1    4    4    0    0  0.53572155235E-01 -0.57539982096E-01 -0.20324766081E-01  0.81204572490E-01  0.51100000000E-03 0. -1.
</event>
<event>
 8    1  0.1129602E+005  0.1043930E+01  0.7957747E-01            NaN
         13   -1    0    0    0    0  0.00000000000E+00  0.00000000000E+00  0.74505805969E-08  0.10566000000E+00  0.10566000000E+00 0. -1.
     999900   -1    0    0    0    0 -0.00000000000E+00 -0.00000000000E+00 -0.74505805969E-08  0.93827000000E+00  0.93827000000E+00 0.  1.
     999902    2    1    2    0    0  0.54240030961E-02  0.16419757583E-01  0.16846395643E-01  0.10197881423E+01  0.10195023422E+01 0.  0.
     999903    2    3    3    0    0  0.86024171174E-01  0.54940416144E-01 -0.78122516029E-01  0.13018186845E+00  0.20629687590E-01 0.  0.
         14    1    1    2    0    0 -0.54240030961E-02 -0.16419757583E-01 -0.16846395643E-01  0.24141857733E-01  0.00000000000E+00 0.  1.
     999901    1    3    3    0    0 -0.80600168078E-01 -0.38520658562E-01  0.94968911672E-01  0.88960627382E+00  0.88000000000E+00 0. -1.
        -11    1    4    4    0    0  0.24314880803E-01  0.27133603523E-01 -0.28236483858E-01  0.46097787478E-01  0.51100000000E-03 0. -1.
         11    1    4    4    0    0  0.61709290371E-01  0.27806812621E-01 -0.49886032171E-01  0.84084080972E-01  0.51100000000E-03 0.  1.
</event>
<event>
 8    1  0.1129602E+005  0.1043930E+01  0.7957747E-01            NaN
         13   -1    0    0    0    0  0.00000000000E+00  0.00000000000E+00  0.74505805969E-08  0.10566000000E+00  0.10566000000E+00 0. -1.
     999900   -1    0    0    0    0 -0.00000000000E+00 -0.00000000000E+00 -0.74505805969E-08  0.93827000000E+00  0.93827000000E+00 0.  1.
     999902    2    1    2    0    0  0.16586764621E-01 -0.15901669170E-01  0.90254615230E-02  0.10192431047E+01  0.10189440925E+01 0.  0.
     999903    2    3    3    0    0  0.58760661946E-01  0.96599789802E-01  0.60715262218E-01  0.12957628428E+00  0.17869963633E-01 0.  0.
         14    1    1    2    0    0 -0.16586764621E-01  0.15901669170E-01 -0.90254615230E-02  0.24686895282E-01  0.00000000000E+00 0. -1.
     999901    1    3    3    0    0 -0.42173897325E-01 -0.11250145897E+00 -0.51689800695E-01  0.88966682043E+00  0.88000000000E+00 0. -1.
        -11    1    4    4    0    0  0.28436850043E-01  0.36030153847E-01  0.16964371314E-01  0.48937485037E-01  0.51100000000E-03 0. -1.
         11    1    4    4    0    0  0.30323811903E-01  0.60569635954E-01  0.43750890904E-01  0.80638799246E-01  0.51100000000E-03 0.  1.
</event>
<event>
 8    1  0.1129602E+005  0.1043930E+01  0.7957747E-01            NaN
         13   -1    0    0    0    0  0.00000000000E+00  0.00000000000E+00  0.74505805969E-08  0.10566000000E+00  0.10566000000E+00 0.  1.
     999900   -1    0    0    0    0 -0.00000000000E+00 -0.00000000000E+00 -0.74505805969E-08  0.93827000000E+00  0.93827000000E+00 0.  1.
     999902    2    1    2    0    0  0.37382651834E-03 -0.24312480049E-01  0.65932525220E-02  0.10187365998E+01  0.10184250353E+01 0.  0.
     999903    2    3    3    0    0 -0.35233890739E-01 -0.50544992900E-01  0.11385626229E+00  0.13112102567E+00  0.20814695435E-01 0.  0.
         14    1    1    2    0    0 -0.37382651834E-03  0.24312480049E-01 -0.65932525220E-02  0.25193400152E-01  0.00000000000E+00 0. -1.
     999901    1    3    3    0    0  0.35607717257E-01  0.26232512851E-01 -0.10726300977E+00  0.88761557418E+00  0.88000000000E+00 0.  1.
        -11    1    4    4    0    0 -0.34561867432E-01 -0.35516099029E-01  0.93258444763E-01  0.10560925438E+00  0.51100000000E-03 0. -1.
         11    1    4    4    0    0 -0.67202330719E-03 -0.15028893871E-01  0.20597817528E-01  0.25511771288E-01  0.51100000000E-03 0.  1.
</event>
<event>
 8    1  0.1129602E+005  0.1043930E+01  0.7957747E-01            NaN
         13   -1    0    0    0    0  0.00000000000E+00  0.00000000000E+00  0.74505805969E-08  0.10566000000E+00  0.10566000000E+00 0.  1.
     999900   -1    0    0    0    0 -0.00000000000E+00 -0.00000000000E+00 -0.74505805969E-08  0.93827000000E+00  0.93827000000E+00 0.  1.
     999902    2    1    2    0    0 -0.18828701599E-02  0.17345071997E-01  0.17800236987E-01  0.10190052099E+01  0.10187003351E+01 0.  0.
     999903    2    3    3    0    0  0.73678339633E-01  0.39142937696E-01 -0.95443710303E-01  0.12827021289E+00  0.19572388108E-01 0.  0.
         14    1    1    2    0    0  0.18828701599E-02 -0.17345071997E-01 -0.17800236987E-01  0.24924790058E-01  0.00000000000E+00 0. -1.
     999901    1    3    3    0    0 -0.75561209793E-01 -0.21797865699E-01  0.11324394729E+00  0.89073499705E+00  0.88000000000E+00 0. -1.
        -11    1    4    4    0    0  0.25477860341E-01  0.18982811249E-01 -0.24307411478E-01  0.40007247646E-01  0.51100000000E-03 0. -1.
         11    1    4    4    0    0  0.48200479292E-01  0.20160126447E-01 -0.71136298824E-01  0.88262965245E-01  0.51100000000E-03 0.  1.
</event>
<event>
 8    1  0.1129602E+005  0.1043930E+01  0.7957747E-01            NaN
         13   -1    0    0    0    0  0.00000000000E+00  0.00000000000E+00  0.74505805969E-08  0.10566000000E+00  0.10566000000E+00 0.  1.
     999900   -1    0    0    0    0 -0.00000000000E+00 -0.00000000000E+00 -0.74505805969E-08  0.93827000000E+00  0.93827000000E+00 0. -1.
     999902    2    1    2    0    0  0.10289975809E-01  0.95253611282E-02  0.17776741909E-01  0.10212886957E+01  0.10210376934E+01 0.  0.
     999903    2    3    3    0    0 -0.31219447617E-01 -0.12324593584E+00 -0.16442177036E-01  0.12970460885E+00  0.19716129468E-01 0.  0.
         14    1    1    2    0    0 -0.10289975809E-01 -0.95253611282E-02 -0.17776741909E-01  0.22641304284E-01  0.00000000000E+00 0. -1.
     999901    1    3    3    0    0  0.41509423426E-01  0.13277129697E+00  0.34218918945E-01  0.89158408686E+00  0.88000000000E+00 0. -1.
        -11    1    4    4    0    0 -0.37210668683E-02 -0.98578644077E-02  0.39415772689E-02  0.11261482215E-01  0.51100000000E-03 0. -1.
         11    1    4    4    0    0 -0.27498380749E-01 -0.11338807143E+00 -0.20383754305E-01  0.11844312664E+00  0.51100000000E-03 0.  1.
</event>
<event>
 8    1  0.1129602E+005  0.1043930E+01  0.7957747E-01            NaN
         13   -1    0    0    0    0  0.00000000000E+00  0.00000000000E+00  0.74505805969E-08  0.10566000000E+00  0.10566000000E+00 0. -1.
     999900   -1    0    0    0    0 -0.00000000000E+00 -0.00000000000E+00 -0.74505805969E-08  0.93827000000E+00  0.93827000000E+00 0.  1.
     999902    2    1    2    0    0  0.14226597311E-01 -0.11018540093E-01  0.96330504184E-02  0.10235192196E+01  0.10233156858E+01 0.  0.
     999903    2    3    3    0    0 -0.14101403185E-01  0.11470404184E+00 -0.59716246734E-01  0.13143291869E+00  0.18780713660E-01 0.  0.
         14    1    1    2    0    0 -0.14226597311E-01  0.11018540093E-01 -0.96330504184E-02  0.20410780416E-01  0.00000000000E+00 0. -1.
     999901    1    3    3    0    0  0.28328000496E-01 -0.12572258194E+00  0.69349297153E-01  0.89208630089E+00  0.88000000000E+00 0. -1.
        -11    1    4    4    0    0  0.30421726862E-02  0.39881721589E-01 -0.25117981801E-01  0.47233258011E-01  0.51100000000E-03 0.  1.
         11    1    4    4    0    0 -0.17143575871E-01  0.74822320253E-01 -0.34598264933E-01  0.84199660683E-01  0.51100000000E-03 0. -1.
</event>
<event>
 8    1  0.1129602E+005  0.1043930E+01  0.7957747E-01            NaN
         13   -1    0    0    0    0  0.00000000000E+00  0.00000000000E+00  0.74505805969E-08  0.10566000000E+00  0.10566000000E+00 0.  1.
     999900   -1    0    0    0    0 -0.00000000000E+00 -0.00000000000E+00 -0.74505805969E-08  0.93827000000E+00  0.93827000000E+00 0.  1.
     999902    2    1    2    0    0 -0.15081167561E-01 -0.10370949423E-02 -0.18354706691E-01  0.10201515972E+01  0.10198744378E+01 0.  0.
     999903    2    3    3    0    0 -0.11121941831E-01 -0.11549747166E+00  0.54396647613E-01  0.12975302756E+00  0.20334437262E-01 0.  0.
         14    1    1    2    0    0  0.15081167561E-01  0.10370949423E-02  0.18354706691E-01  0.23778402777E-01  0.00000000000E+00 0.  1.
     999901    1    3    3    0    0 -0.39592257298E-02  0.11446037672E+00 -0.72751354304E-01  0.89039856966E+00  0.88000000000E+00 0.  1.
        -11    1    4    4    0    0 -0.39319635155E-02 -0.36371545341E-01  0.27854003861E-01  0.45983217587E-01  0.51100000000E-03 0.  1.
         11    1    4    4    0    0 -0.71899783157E-02 -0.79125926321E-01  0.26542643752E-01  0.83769809971E-01  0.51100000000E-03 0. -1.
</event>
<event>
 8    1  0.1129602E+005  0.1043930E+01  0.7957747E-01            NaN
         13   -1    0    0    0    0  0.00000000000E+00  0.00000000000E+00  0.74505805969E-08  0.10566000000E+00  0.10566000000E+00 0.  1.
     999900   -1    0    0    0    0 -0.00000000000E+00 -0.00000000000E+00 -0.74505805969E-08  0.93827000000E+00  0.93827000000E+00 0. -1.
     999902    2    1    2    0    0 -0.39108655804E-02  0.68213645924E-02 -0.21003181351E-01  0.10215032412E+01  0.10212570255E+01 0.  0.
     999903    2    3    3    0    0 -0.25218210703E-01  0.73889749647E-01 -0.10711234329E+00  0.13450439168E+00  0.22863159077E-01 0.  0.
         14    1    1    2    0    0  0.39108655804E-02 -0.68213645924E-02  0.21003181351E-01  0.22426758824E-01  0.00000000000E+00 0.  1.
     999901    1    3    3    0    0  0.21307345123E-01 -0.67068385055E-01  0.86109161941E-01  0.88699884949E+00  0.88000000000E+00 0.  1.
        -11    1    4    4    0    0  0.34679151085E-02  0.19965399469E-01 -0.26433451345E-01  0.33311140511E-01  0.51100000000E-03 0.  1.
         11    1    4    4    0    0 -0.28686125812E-01  0.53924350177E-01 -0.80678891947E-01  0.10119325117E+00  0.51100000000E-03 0. -1.
</event>
<event>
 8    1  0.1129602E+005  0.1043930E+01  0.7957747E-01            NaN
         13   -1    0    0    0    0  0.00000000000E+00  0.00000000000E+00  0.74505805969E-08  0.10566000000E+00  0.10566000000E+00 0.  1.
     999900   -1    0    0    0    0 -0.00000000000E+00 -0.00000000000E+00 -0.74505805969E-08  0.93827000000E+00  0.93827000000E+00 0.  1.
     999902    2    1    2    0    0 -0.16117789006E-01 -0.18023023330E-01  0.36388835940E-02  0.10194789475E+01  0.10191856899E+01 0.  0.
     999903    2    3    3    0    0  0.63029578912E-01  0.10604679887E+00 -0.21800916667E-01  0.12689572450E+00  0.20213697310E-01 0.  0.
         14    1    1    2    0    0  0.16117789006E-01  0.18023023330E-01 -0.36388835940E-02  0.24451052456E-01  0.00000000000E+00 0. -1.
     999901    1    3    3    0    0 -0.79147367918E-01 -0.12406982220E+00  0.25439800261E-01  0.89258322305E+00  0.88000000000E+00 0. -1.
        -11    1    4    4    0    0  0.58417909241E-01  0.87665357524E-01 -0.13533245772E-01  0.10621335553E+00  0.51100000000E-03 0. -1.
         11    1    4    4    0    0  0.46116696709E-02  0.18381441348E-01 -0.82676708947E-02  0.20682368970E-01  0.51100000000E-03 0.  1.
</event>
<event>
 8    1  0.1129602E+005  0.1043930E+01  0.7957747E-01            NaN
         13   -1    0    0    0    0  0.00000000000E+00  0.00000000000E+00  0.74505805969E-08  0.10566000000E+00  0.10566000000E+00 0.  1.
     999900   -1    0    0    0    0 -0.00000000000E+00 -0.00000000000E+00 -0.74505805969E-08  0.93827000000E+00  0.93827000000E+00 0.  1.
     999902    2    1    2    0    0 -0.18964014657E-01  0.14012782049E-02  0.14635197152E-01  0.10199344498E+01  0.10196521444E+01 0.  0.
     999903    2    3    3    0    0 -0.65821939128E-01  0.72617707930E-01 -0.83814095256E-01  0.13035044136E+00  0.18988834153E-01 0.  0.
         14    1    1    2    0    0  0.18964014657E-01 -0.14012782049E-02 -0.14635197152E-01  0.23995550175E-01  0.00000000000E+00 0. -1.
     999901    1    3    3    0    0  0.46857924470E-01 -0.71216429725E-01  0.98449292408E-01  0.88958400847E+00  0.88000000000E+00 0. -1.
        -11    1    4    4    0    0 -0.34134500579E-01  0.28928172870E-01 -0.28418113869E-01  0.53008052523E-01  0.51100000000E-03 0.  1.
         11    1    4    4    0    0 -0.31687438548E-01  0.43689535060E-01 -0.55395981387E-01  0.77342388833E-01  0.51100000000E-03 0. -1.
</event>
<event>
 8    1  0.1129602E+005  0.1043930E+01  0.7957747E-01            NaN
         13   -1    0    0    0    0  0.00000000000E+00  0.00000000000E+00  0.74505805969E-08  0.10566000000E+00  0.10566000000E+00 0. -1.
     999900   -1    0    0    0    0 -0.00000000000E+00 -0.00000000000E+00 -0.74505805969E-08  0.93827000000E+00  0.93827000000E+00 0.  1.
     999902    2    1    2    0    0 -0.62230496146E-02  0.21699310145E-01 -0.96925721307E-02  0.10193631044E+01  0.10190670273E+01 0.  0.
     999903    2    3    3    0    0  0.33498598510E-01 -0.11577572688E+00 -0.36565312040E-01  0.12739934988E+00  0.19167609913E-01 0.  0.
         14    1    1    2    0    0  0.62230496146E-02 -0.21699310145E-01  0.96925721307E-02  0.24566895648E-01  0.00000000000E+00 0. -1.
     999901    1    3    3    0    0 -0.39721648124E-01  0.13747503702E+00  0.26872739909E-01  0.89196375447E+00  0.88000000000E+00 0. -1.
        -11    1    4    4    0    0  0.59257706359E-03 -0.22676337260E-01 -0.11897337683E-01  0.25619820141E-01  0.51100000000E-03 0.  1.
         11    1    4    4    0    0  0.32906021446E-01 -0.93099389619E-01 -0.24667974357E-01  0.10177952974E+00  0.51100000000E-03 0. -1.
</event>
<event>
 8    1  0.1129602E+005  0.1043930E+01  0.7957747E-01            NaN
         13   -1    0    0    0    0  0.00000000000E+00  0.00000000000E+00  0.74505805969E-08  0.10566000000E+00  0.10566000000E+00 0. -1.
     999900   -1    0    0    0    0 -0.00000000000E+00 -0.00000000000E+00 -0.74505805969E-08  0.93827000000E+00  0.93827000000E+00 0. -1.
     999902    2    1    2    0    0 -0.22718570386E-01 -0.58406800953E-02 -0.52218366577E-02  0.10198984673E+01  0.10196153045E+01 0.  0.
     999903    2    3    3    0    0 -0.71725913653E-01 -0.64086820184E-01 -0.89160910280E-01  0.13263294867E+00  0.19751049070E-01 0.  0.
         14    1    1    2    0    0  0.22718570386E-01  0.58406800953E-02  0.52218366577E-02  0.24031532670E-01  0.00000000000E+00 0.  1.
     999901    1    3    3    0    0  0.49007343267E-01  0.58246140089E-01  0.83939073622E-01  0.88726551866E+00  0.88000000000E+00 0.  1.
        -11    1    4    4    0    0 -0.39542218845E-01 -0.22805488189E-01 -0.45721563550E-01  0.64609595705E-01  0.51100000000E-03 0. -1.
         11    1    4    4    0    0 -0.32183694808E-01 -0.41281331995E-01 -0.43439346730E-01  0.68023352962E-01  0.51100000000E-03 0.  1.
</event>
<event>
 8    1  0.1129602E+005  0.1043930E+01  0.7957747E-01            NaN
         13   -1    0    0    0    0  0.00000000000E+00  0.00000000000E+00  0.74505805969E-08  0.10566000000E+00  0.10566000000E+00 0.  1.
     999900   -1    0    0    0    0 -0.00000000000E+00 -0.00000000000E+00 -0.74505805969E-08  0.93827000000E+00  0.93827000000E+00 0.  1.
     999902    2    1    2    0    0  0.18251337987E-01 -0.47221759994E-02  0.13731414597E-01  0.10206070064E+01  0.10203404821E+01 0.  0.
     999903    2    3    3    0    0 -0.11453121112E+00  0.26441291004E-02 -0.53635172694E-01  0.12806920613E+00  0.20014996131E-01 0.  0.
         14    1    1    2    0    0 -0.18251337987E-01  0.47221759994E-02 -0.13731414597E-01  0.23322993618E-01  0.00000000000E+00 0.  1.
     999901    1    3    3    0    0  0.13278254910E+00 -0.73663050998E-02  0.67366587290E-01  0.89253780025E+00  0.88000000000E+00 0. -1.
        -11    1    4    4    0    0 -0.35305809034E-01  0.97953413287E-02 -0.19459211063E-01  0.41489406835E-01  0.51100000000E-03 0.  1.
         11    1    4    4    0    0 -0.79225402082E-01 -0.71512122283E-02 -0.34175961630E-01  0.86579799294E-01  0.51100000000E-03 0. -1.
</event>
<event>
 8    1  0.1129602E+005  0.1043930E+01  0.7957747E-01            NaN
         13   -1    0    0    0    0  0.00000000000E+00  0.00000000000E+00  0.74505805969E-08  0.10566000000E+00  0.10566000000E+00 0. -1.
     999900   -1    0    0    0    0 -0.00000000000E+00 -0.00000000000E+00 -0.74505805969E-08  0.93827000000E+00  0.93827000000E+00 0.  1.
     999902    2    1    2    0    0  0.49202626137E-02  0.20409312374E-01 -0.10087884091E-01  0.10206380610E+01  0.10203722542E+01 0.  0.
     999903    2    3    3    0    0  0.60832891268E-01 -0.82241723054E-01  0.75504593531E-01  0.12879192556E+00  0.20544458488E-01 0.  0.
         14    1    1    2    0    0 -0.49202626137E-02 -0.20409312374E-01  0.10087884091E-01  0.23291938975E-01  0.00000000000E+00 0. -1.
     999901    1    3    3    0    0 -0.55912628654E-01  0.10265103543E+00 -0.85592477622E-01  0.89184613546E+00  0.88000000000E+00 0.  1.
        -11    1    4    4    0    0  0.43162097704E-01 -0.57208919972E-01  0.40695571705E-01  0.82414912971E-01  0.51100000000E-03 0.  1.
         11    1    4    4    0    0  0.17670793563E-01 -0.25032803081E-01  0.34809021826E-01  0.46377012590E-01  0.51100000000E-03 0. -1.
</event>
<event>
 8    1  0.1129602E+005  0.1043930E+01  0.7957747E-01            NaN
         13   -1    0    0    0    0  0.00000000000E+00  0.00000000000E+00  0.74505805969E-08  0.10566000000E+00  0.10566000000E+00 0.  1.
     999900   -1    0    0    0    0 -0.00000000000E+00 -0.00000000000E+00 -0.74505805969E-08  0.93827000000E+00  0.93827000000E+00 0. -1.
     999902    2    1    2    0    0 -0.22399124641E-01 -0.43907953822E-03 -0.82858918116E-02  0.10200434017E+01  0.10197636843E+01 0.  0.
     999903    2    3    3    0    0 -0.29032057792E-01 -0.74588553658E-01 -0.10285998816E+00  0.13185062982E+00  0.19952410960E-01 0.  0.
         14    1    1    2    0    0  0.22399124641E-01  0.43907953822E-03  0.82858918116E-02  0.23886598306E-01  0.00000000000E+00 0. -1.
     999901    1    3    3    0    0  0.66329331515E-02  0.74149474120E-01  0.94574096346E-01  0.88819277188E+00  0.88000000000E+00 0. -1.
        -11    1    4    4    0    0 -0.84538971204E-02 -0.21225136835E-01 -0.45123136954E-01  0.50579970539E-01  0.51100000000E-03 0. -1.
         11    1    4    4    0    0 -0.20578160672E-01 -0.53363416822E-01 -0.57736851203E-01  0.81270659278E-01  0.51100000000E-03 0.  1.
</event>
<event>
 8    1  0.1129602E+005  0.1043930E+01  0.7957747E-01            NaN
         13   -1    0    0    0    0  0.00000000000E+00  0.00000000000E+00  0.74505805969E-08  0.10566000000E+00  0.10566000000E+00 0. -1.
     999900   -1    0    0    0    0 -0.00000000000E+00 -0.00000000000E+00 -0.74505805969E-08  0.93827000000E+00  0.93827000000E+00 0. -1.
     999902    2    1    2    0    0 -0.41850586481E-02 -0.12120308631E-01  0.17954062794E-01  0.10218672493E+01  0.10216290473E+01 0.  0.
     999903    2    3    3    0    0 -0.77520868170E-01 -0.69482185426E-01  0.82853529447E-01  0.13457898350E+00  0.20237004848E-01 0.  0.
         14    1    1    2    0    0  0.41850586481E-02  0.12120308631E-01 -0.17954062794E-01  0.22062750690E-01  0.00000000000E+00 0.  1.
     999901    1    3    3    0    0  0.73335809522E-01  0.57361876795E-01 -0.64899466653E-01  0.88728826581E+00  0.88000000000E+00 0. -1.
        -11    1    4    4    0    0 -0.52773009779E-01 -0.54990029456E-01  0.68626843662E-01  0.10256119487E+00  0.51100000000E-03 0. -1.
         11    1    4    4    0    0 -0.24747858391E-01 -0.14492155971E-01  0.14226685785E-01  0.32017788635E-01  0.51100000000E-03 0.  1.
</event>
<event>
 8    1  0.1129602E+005  0.1043930E+01  0.7957747E-01            NaN
         13   -1    0    0    0    0  0.00000000000E+00  0.00000000000E+00  0.74505805969E-08  0.10566000000E+00  0.10566000000E+00 0. -1.
     999900   -1    0    0    0    0 -0.00000000000E+00 -0.00000000000E+00 -0.74505805969E-08  0.93827000000E+00  0.93827000000E+00 0.  1.
     999902    2    1    2    0    0  0.27435000396E-02  0.48454057581E-02  0.22504881780E-01  0.10207465047E+01  0.10204831956E+01 0.  0.
     999903    2    3    3    0    0  0.86990107586E-01  0.91416107571E-01  0.35368099297E-01  0.13240116666E+00  0.18840991024E-01 0.  0.
         14    1    1    2    0    0 -0.27435000396E-02 -0.48454057581E-02 -0.22504881780E-01  0.23183495279E-01  0.00000000000E+00 0.  1.
     999901    1    3    3    0    0 -0.84246607547E-01 -0.86570701813E-01 -0.12863217517E-01  0.88834533806E+00  0.88000000000E+00 0.  1.
        -11    1    4    4    0    0  0.84925976237E-02  0.54461633919E-02  0.78045607008E-02  0.12765469001E-01  0.51100000000E-03 0. -1.
         11    1    4    4    0    0  0.78497509963E-01  0.85969944179E-01  0.27563538597E-01  0.11963569766E+00  0.51100000000E-03 0.  1.
</event>
<event>
 8    1  0.1129602E+005  0.1043930E+01  0.7957747E-01            NaN
         13   -1    0    0    0    0  0.00000000000E+00  0.00000000000E+00  0.74505805969E-08  0.10566000000E+00  0.10566000000E+00 0.  1.
     999900   -1    0    0    0    0 -0.00000000000E+00 -0.00000000000E+00 -0.74505805969E-08  0.93827000000E+00  0.93827000000E+00 0. -1.
     999902    2    1    2    0    0 -0.11463437274E-01  0.11409919459E-01 -0.16784742832E-01  0.10206206832E+01  0.10203544751E+01 0.  0.
     999903    2    3    3    0    0 -0.71791696773E-01 -0.87223847293E-01 -0.64216407110E-01  0.13179118236E+00  0.21980026045E-01 0.  0.
         14    1    1    2    0    0  0.11463437274E-01 -0.11409919459E-01  0.16784742832E-01  0.23309316767E-01  0.00000000000E+00 0.  1.
     999901    1    3    3    0    0  0.60328259499E-01  0.98633766752E-01  0.47431664278E-01  0.88882950087E+00  0.88000000000E+00 0. -1.
        -11    1    4    4    0    0 -0.36354512917E-01 -0.28460544831E-01 -0.30457773763E-01  0.55313563663E-01  0.51100000000E-03 0. -1.
         11    1    4    4    0    0 -0.35437183856E-01 -0.58763302461E-01 -0.33758633347E-01  0.76477618702E-01  0.51100000000E-03 0.  1.
</event>
<event>
 8    1  0.1129602E+005  0.1043930E+01  0.7957747E-01            NaN
         13   -1    0    0    0    0  0.00000000000E+00  0.00000000000E+00  0.74505805969E-08  0.10566000000E+00  0.10566000000E+00 0.  1.
     999900   -1    0    0    0    0 -0.00000000000E+00 -0.00000000000E+00 -0.74505805969E-08  0.93827000000E+00  0.93827000000E+00 0. -1.
     999902    2    1    2    0    0 -0.21901017527E-01  0.68414197680E-02  0.39941219444E-02  0.10206402468E+01  0.10203744905E+01 0.  0.
     999903    2    3    3    0    0 -0.72243912218E-01 -0.32027334965E-01  0.10450622995E+00  0.13263806721E+00  0.20648770822E-01 0.  0.
         14    1    1    2    0    0  0.21901017527E-01 -0.68414197680E-02 -0.39941219444E-02  0.23289753182E-01  0.00000000000E+00 0. -1.
     999901    1    3    3    0    0  0.50342894691E-01  0.38868754733E-01 -0.10051210800E+00  0.88800217961E+00  0.88000000000E+00 0. -1.
        -11    1    4    4    0    0 -0.41247724241E-01 -0.28152090885E-01  0.71238081762E-01  0.87000232129E-01  0.51100000000E-03 0.  1.
         11    1    4    4    0    0 -0.30996187977E-01 -0.38752440806E-02  0.33268148187E-01  0.45637835077E-01  0.51100000000E-03 0. -1.
</event>
<event>
 8    1  0.1129602E+005  0.1043930E+01  0.7957747E-01            NaN
         13   -1    0    0    0    0  0.00000000000E+00  0.00000000000E+00  0.74505805969E-08  0.10566000000E+00  0.10566000000E+00 0.  1.
     999900   -1    0    0    0    0 -0.00000000000E+00 -0.00000000000E+00 -0.74505805969E-08  0.93827000000E+00  0.93827000000E+00 0. -1.
     999902    2    1    2    0    0 -0.72463245061E-03  0.20701840057E-01 -0.11963143951E-01  0.10200091286E+01  0.10197285984E+01 0.  0.
     999903    2    3    3    0    0  0.42730860932E-01  0.35729503118E-01 -0.11858500295E+00  0.13238171165E+00  0.18973423124E-01 0.  0.
         14    1    1    2    0    0  0.72463245061E-03 -0.20701840057E-01  0.11963143951E-01  0.23920871371E-01  0.00000000000E+00 0.  1.
     999901    1    3    3    0    0 -0.43455493383E-01 -0.15027663061E-01  0.10662185900E+00  0.88762741698E+00  0.88000000000E+00 0.  1.
        -11    1    4    4    0    0  0.43408380147E-02  0.12433325357E-01 -0.18827541379E-01  0.22981903522E-01  0.51100000000E-03 0.  1.
         11    1    4    4    0    0  0.38390022918E-01  0.23296177761E-01 -0.99757461570E-01  0.10939980813E+00  0.51100000000E-03 0. -1.
</event>
<event>
 8    1  0.1129602E+005  0.1043930E+01  0.7957747E-01            NaN
         13   -1    0    0    0    0  0.00000000000E+00  0.00000000000E+00  0.74505805969E-08  0.10566000000E+00  0.10566000000E+00 0.  1.
     999900   -1    0    0    0    0 -0.00000000000E+00 -0.00000000000E+00 -0.74505805969E-08  0.93827000000E+00  0.93827000000E+00 0. -1.
     999902    2    1    2    0    0 -0.16112617026E-01  0.19260863370E-02  0.15766815726E-01  0.10213043793E+01  0.10210537284E+01 0.  0.
     999903    2    3    3    0    0 -0.39101317645E-01 -0.62609952436E-01 -0.10526140283E+00  0.13038282808E+00  0.21697920321E-01 0.  0.
         14    1    1    2    0    0  0.16112617026E-01 -0.19260863370E-02 -0.15766815726E-01  0.22625620746E-01  0.00000000000E+00 0. -1.
     999901    1    3    3    0    0  0.22988700619E-01  0.64536038773E-01  0.12102821856E+00  0.89092155117E+00  0.88000000000E+00 0.  1.
        -11    1    4    4    0    0 -0.45980951476E-02 -0.26474913875E-01 -0.40008930524E-01  0.48197916826E-01  0.51100000000E-03 0. -1.
         11    1    4    4    0    0 -0.34503222497E-01 -0.36135038562E-01 -0.65252472310E-01  0.82184911255E-01  0.51100000000E-03 0.  1.
</event>
<event>
 8    1  0.1129602E+005  0.1043930E+01  0.7957747E-01            NaN
         13   -1    0    0    0    0  0.00000000000E+00  0.00000000000E+00  0.74505805969E-08  0.10566000000E+00  0.10566000000E+00 0.  1.
     999900   -1    0    0    0    0 -0.00000000000E+00 -0.00000000000E+00 -0.74505805969E-08  0.93827000000E+00  0.93827000000E+00 0.  1.
     999902    2    1    2    0    0 -0.10365581495E-01  0.19922089763E-01 -0.90953714590E-02  0.10197006640E+01  0.10194127640E+01 0.  0.
     999903    2    3    3    0    0  0.14078533879E-01 -0.12350931396E+00  0.17703222848E-01  0.12735081838E+00  0.21261963489E-01 0.  0.
         14    1    1    2    0    0  0.10365581495E-01 -0.19922089763E-01  0.90953714590E-02  0.24229335984E-01  0.00000000000E+00 0.  1.
     999901    1    3    3    0    0 -0.24444115374E-01  0.14343140372E+00 -0.26798594307E-01  0.89234984564E+00  0.88000000000E+00 0. -1.
        -11    1    4    4    0    0  0.86417252756E-02 -0.31876199261E-01  0.12800305582E-01  0.35424291652E-01  0.51100000000E-03 0. -1.
         11    1    4    4    0    0  0.54368086031E-02 -0.91633114700E-01  0.49029172659E-02  0.91926526727E-01  0.51100000000E-03 0.  1.
</event>
<event>
 8    1  0.1129602E+005  0.1043930E+01  0.7957747E-01            NaN
         13   -1    0    0    0    0  0.00000000000E+00  0.00000000000E+00  0.74505805969E-08  0.10566000000E+00  0.10566000000E+00 0.  1.
     999900   -1    0    0    0    0 -0.00000000000E+00 -0.00000000000E+00 -0.74505805969E-08  0.93827000000E+00  0.93827000000E+00 0. -1.
     999902    2    1    2    0    0 -0.65779051454E-02  0.16852266668E-01  0.18135524736E-01  0.10183142825E+01  0.10179920495E+01 0.  0.
     999903    2    3    3    0    0 -0.90163685169E-01  0.93305137657E-01 -0.60572260363E-02  0.13072377254E+00  0.14719914491E-01 0.  0.
         14    1    1    2    0    0  0.65779051454E-02 -0.16852266668E-01 -0.18135524736E-01  0.25615717546E-01  0.00000000000E+00 0. -1.
     999901    1    3    3    0    0  0.83585780023E-01 -0.76452870989E-01  0.24192750772E-01  0.88759050992E+00  0.88000000000E+00 0.  1.
        -11    1    4    4    0    0 -0.66165841317E-02  0.13394997118E-01 -0.14777168243E-02  0.15021647758E-01  0.51100000000E-03 0.  1.
         11    1    4    4    0    0 -0.83547101037E-01  0.79910140539E-01 -0.45795092120E-02  0.11570212478E+00  0.51100000000E-03 0. -1.
</event>
<event>
 8    1  0.1129602E+005  0.1043930E+01  0.7957747E-01            NaN
         13   -1    0    0    0    0  0.00000000000E+00  0.00000000000E+00  0.74505805969E-08  0.10566000000E+00  0.10566000000E+00 0.  1.
     999900   -1    0    0    0    0 -0.00000000000E+00 -0.00000000000E+00 -0.74505805969E-08  0.93827000000E+00  0.93827000000E+00 0. -1.
     999902    2    1    2    0    0 -0.27531057391E-02 -0.12184531342E-01  0.19742068650E-01  0.10205678154E+01  0.10203003843E+01 0.  0.
     999903    2    3    3    0    0 -0.61643998995E-01 -0.11465095593E+00  0.16318679233E-01  0.13266059891E+00  0.19690375947E-01 0.  0.
         14    1    1    2    0    0  0.27531057391E-02  0.12184531342E-01 -0.19742068650E-01  0.23362184611E-01  0.00000000000E+00 0. -1.
     999901    1    3    3    0    0  0.58890893256E-01  0.10246642458E+00  0.34233894170E-02  0.88790721648E+00  0.88000000000E+00 0. -1.
        -11    1    4    4    0    0 -0.43581550789E-01 -0.97070807615E-01  0.14409868580E-01  0.10737783148E+00  0.51100000000E-03 0. -1.
         11    1    4    4    0    0 -0.18062448206E-01 -0.17580148311E-01  0.19088106538E-02  0.25282767431E-01  0.51100000000E-03 0.  1.
</event>
<event>
 8    1  0.1129602E+005  0.1043930E+01  0.7957747E-01            NaN
         13   -1    0    0    0    0  0.00000000000E+00  0.00000000000E+00  0.74505805969E-08  0.10566000000E+00  0.10566000000E+00 0. -1.
     999900   -1    0    0    0    0 -0.00000000000E+00 -0.00000000000E+00 -0.74505805969E-08  0.93827000000E+00  0.93827000000E+00 0. -1.
     999902    2    1    2    0    0  0.11694926362E-01 -0.21660352511E-01  0.28126542410E-02  0.10191539390E+01  0.10188527363E+01 0.  0.
     999903    2    3    3    0    0 -0.55174405708E-01 -0.36037500050E-01 -0.10964670950E+00  0.12936445918E+00  0.19231379042E-01 0.  0.
         14    1    1    2    0    0 -0.11694926362E-01  0.21660352511E-01 -0.28126542410E-02  0.24776060974E-01  0.00000000000E+00 0.  1.
     999901    1    3    3    0    0  0.66869332070E-01  0.14377147540E-01  0.11245936375E+00  0.88978947984E+00  0.88000000000E+00 0.  1.
        -11    1    4    4    0    0 -0.10715447110E-01 -0.15948399327E-01 -0.39377156680E-01  0.43817734276E-01  0.51100000000E-03 0. -1.
         11    1    4    4    0    0 -0.44458958598E-01 -0.20089100724E-01 -0.70269552824E-01  0.85546724909E-01  0.51100000000E-03 0.  1.
</event>
<event>
 8    1  0.1129602E+005  0.1043930E+01  0.7957747E-01            NaN
         13   -1    0    0    0    0  0.00000000000E+00  0.00000000000E+00  0.74505805969E-08  0.10566000000E+00  0.10566000000E+00 0. -1.
     999900   -1    0    0    0    0 -0.00000000000E+00 -0.00000000000E+00 -0.74505805969E-08  0.93827000000E+00  0.93827000000E+00 0. -1.
     999902    2    1    2    0    0  0.26645164677E-02 -0.85343829298E-02 -0.20905288236E-01  0.10211931045E+01  0.10209399543E+01 0.  0.
     999903    2    3    3    0    0  0.36700942648E-01  0.73995156419E-01 -0.10229997688E+00  0.13293936908E+00  0.19630288305E-01 0.  0.
         14    1    1    2    0    0 -0.26645164677E-02  0.85343829298E-02  0.20905288236E-01  0.22736895484E-01  0.00000000000E+00 0. -1.
     999901    1    3    3    0    0 -0.34036426180E-01 -0.82529539348E-01  0.81394688639E-01  0.88825373543E+00  0.88000000000E+00 0.  1.
        -11    1    4    4    0    0  0.23912127915E-01  0.26469168833E-01 -0.43611457938E-01  0.56343829695E-01  0.51100000000E-03 0. -1.
         11    1    4    4    0    0  0.12788814733E-01  0.47525987585E-01 -0.58688518937E-01  0.76595539389E-01  0.51100000000E-03 0.  1.
</event>
<event>
 8    1  0.1129602E+005  0.1043930E+01  0.7957747E-01            NaN
         13   -1    0    0    0    0  0.00000000000E+00  0.00000000000E+00  0.74505805969E-08  0.10566000000E+00  0.10566000000E+00 0.  1.
     999900   -1    0    0    0    0 -0.00000000000E+00 -0.00000000000E+00 -0.74505805969E-08  0.93827000000E+00  0.93827000000E+00 0. -1.
     999902    2    1    2    0    0  0.13387584917E-02 -0.17786201868E-01 -0.13890640135E-01  0.10213226752E+01  0.10210724341E+01 0.  0.
     999903    2    3    3    0    0 -0.51388673222E-01 -0.88612796677E-01 -0.84553219661E-01  0.13408550920E+00  0.18348115764E-01 0.  0.
         14    1    1    2    0    0 -0.13387584917E-02  0.17786201868E-01  0.13890640135E-01  0.22607324798E-01  0.00000000000E+00 0.  1.
     999901    1    3    3    0    0  0.52727431714E-01  0.70826594809E-01  0.70662579527E-01  0.88723716600E+00  0.88000000000E+00 0.  1.
        -11    1    4    4    0    0 -0.34900936955E-01 -0.57697195037E-01 -0.66332758172E-01  0.94590367603E-01  0.51100000000E-03 0. -1.
         11    1    4    4    0    0 -0.16487736267E-01 -0.30915601640E-01 -0.18220461489E-01  0.39495141598E-01  0.51100000000E-03 0.  1.
</event>
<event>
 8    1  0.1129602E+005  0.1043930E+01  0.7957747E-01            NaN
         13   -1    0    0    0    0  0.00000000000E+00  0.00000000000E+00  0.74505805969E-08  0.10566000000E+00  0.10566000000E+00 0. -1.
     999900   -1    0    0    0    0 -0.00000000000E+00 -0.00000000000E+00 -0.74505805969E-08  0.93827000000E+00  0.93827000000E+00 0. -1.
     999902    2    1    2    0    0 -0.13854743517E-01  0.15528123533E-02 -0.18592048645E-01  0.10206914670E+01  0.10204268917E+01 0.  0.
     999903    2    3    3    0    0  0.66052036460E-01  0.15336969536E-01 -0.11171981810E+00  0.13207013147E+00  0.19055385493E-01 0.  0.
         14    1    1    2    0    0  0.13854743517E-01 -0.15528123533E-02  0.18592048645E-01  0.23238533021E-01  0.00000000000E+00 0. -1.
     999901    1    3    3    0    0 -0.79906779978E-01 -0.13784157182E-01  0.93127769452E-01  0.88862133551E+00  0.88000000000E+00 0.  1.
        -11    1    4    4    0    0  0.56725918900E-01  0.10146036237E-01 -0.10395955489E+00  0.11886388056E+00  0.51100000000E-03 0. -1.
         11    1    4    4    0    0  0.93261175601E-02  0.51909332988E-02 -0.77602632054E-02  0.13206250917E-01  0.51100000000E-03 0.  1.
</event>
<event>
 8    1  0.1129602E+005  0.1043930E+01  0.7957747E-01            NaN
         13   -1    0    0    0    0  0.00000000000E+00  0.00000000000E+00  0.74505805969E-08  0.10566000000E+00  0.10566000000E+00 0. -1.
     999900   -1    0    0    0    0 -0.00000000000E+00 -0.00000000000E+00 -0.74505805969E-08  0.93827000000E+00  0.93827000000E+00 0.  1.
     999902    2    1    2    0    0  0.11625947293E-01 -0.12794682575E-01 -0.15693544446E-01  0.10205814692E+01  0.10203143542E+01 0.  0.
     999903    2    3    3    0    0  0.97071584076E-02 -0.11788309043E+00 -0.57648493844E-01  0.13333433735E+00  0.21541697719E-01 0.  0.
         14    1    1    2    0    0 -0.11625947293E-01  0.12794682575E-01  0.15693544446E-01  0.23348530787E-01  0.00000000000E+00 0. -1.
     999901    1    3    3    0    0  0.19187888849E-02  0.10508840786E+00  0.41954949398E-01  0.88724713186E+00  0.88000000000E+00 0.  1.
        -11    1    4    4    0    0  0.36328402100E-03 -0.43228088149E-01 -0.32205268671E-01  0.53909554176E-01  0.51100000000E-03 0.  1.
         11    1    4    4    0    0  0.93438743866E-02 -0.74655002282E-01 -0.25443225173E-01  0.79424783176E-01  0.51100000000E-03 0. -1.
</event>
<event>
 8    1  0.1129602E+005  0.1043930E+01  0.7957747E-01            NaN
         13   -1    0    0    0    0  0.00000000000E+00  0.00000000000E+00  0.74505805969E-08  0.10566000000E+00  0.10566000000E+00 0. -1.
     999900   -1    0    0    0    0 -0.00000000000E+00 -0.00000000000E+00 -0.74505805969E-08  0.93827000000E+00  0.93827000000E+00 0.  1.
     999902    2    1    2    0    0 -0.11783458279E-01 -0.62477737455E-02  0.19535741293E-01  0.10202756187E+01  0.10200013767E+01 0.  0.
     999903    2    3    3    0    0  0.94044430742E-01  0.84360715831E-01  0.19294945569E-01  0.12931574395E+00  0.19727680519E-01 0.  0.
         14    1    1    2    0    0  0.11783458279E-01  0.62477737455E-02 -0.19535741293E-01  0.23654381278E-01  0.00000000000E+00 0.  1.
     999901    1    3    3    0    0 -0.10582788902E+00 -0.90608489576E-01  0.24079572445E-03  0.89095987478E+00  0.88000000000E+00 0. -1.
        -11    1    4    4    0    0  0.23517134505E-01  0.29297384424E-01  0.12429836085E-01  0.39574667345E-01  0.51100000000E-03 0. -1.
         11    1    4    4    0    0  0.70527296238E-01  0.55063331407E-01  0.68651094842E-02  0.89741076601E-01  0.51100000000E-03 0.  1.
</event>
<event>
 8    1  0.1129602E+005  0.1043930E+01  0.7957747E-01            NaN
         13   -1    0    0    0    0  0.00000000000E+00  0.00000000000E+00  0.74505805969E-08  0.10566000000E+00  0.10566000000E+00 0.  1.
     999900   -1    0    0    0    0 -0.00000000000E+00 -0.00000000000E+00 -0.74505805969E-08  0.93827000000E+00  0.93827000000E+00 0. -1.
     999902    2    1    2    0    0  0.15169363277E-01 -0.99690449102E-03 -0.21796511552E-01  0.10173557396E+01  0.10170086084E+01 0.  0.
     999903    2    3    3    0    0 -0.16639073008E-01 -0.11269105331E+00  0.52362622638E-01  0.12663303488E+00  0.17831125225E-01 0.  0.
         14    1    1    2    0    0 -0.15169363277E-01  0.99690449102E-03  0.21796511552E-01  0.26574260415E-01  0.00000000000E+00 0.  1.
     999901    1    3    3    0    0  0.31808436285E-01  0.11169414881E+00 -0.74159134190E-01  0.89072270471E+00  0.88000000000E+00 0.  1.
        -11    1    4    4    0    0 -0.13626314816E-01 -0.37226856615E-01  0.20880677551E-01  0.44808248403E-01  0.51100000000E-03 0.  1.
         11    1    4    4    0    0 -0.30127581920E-02 -0.75464196691E-01  0.31481945087E-01  0.81824786474E-01  0.51100000000E-03 0. -1.
</event>
<event>
 8    1  0.1129602E+005  0.1043930E+01  0.7957747E-01            NaN
         13   -1    0    0    0    0  0.00000000000E+00  0.00000000000E+00  0.74505805969E-08  0.10566000000E+00  0.10566000000E+00 0. -1.
     999900   -1    0    0    0    0 -0.00000000000E+00 -0.00000000000E+00 -0.74505805969E-08  0.93827000000E+00  0.93827000000E+00 0.  1.
     999902    2    1    2    0    0  0.11910651032E-01  0.18631307151E-01 -0.97399359514E-02  0.10197668966E+01  0.10194805873E+01 0.  0.
     999903    2    3    3    0    0  0.59930906372E-01  0.11685758107E+00  0.10553888691E-01  0.13276848333E+00  0.16391394252E-01 0.  0.
         14    1    1    2    0    0 -0.11910651032E-01 -0.18631307151E-01  0.97399359514E-02  0.24163103412E-01  0.00000000000E+00 0. -1.
     999901    1    3    3    0    0 -0.48020255340E-01 -0.98226273921E-01 -0.20293824643E-01  0.88699841326E+00  0.88000000000E+00 0. -1.
        -11    1    4    4    0    0  0.28804841953E-01  0.51971842465E-01  0.12720167680E-01  0.60768866338E-01  0.51100000000E-03 0. -1.
         11    1    4    4    0    0  0.31126064419E-01  0.64885738607E-01 -0.21662789888E-02  0.71999616988E-01  0.51100000000E-03 0.  1.
</event>
<event>
 8    1  0.1129602E+005  0.1043930E+01  0.7957747E-01            NaN
         13   -1    0    0    0    0  0.00000000000E+00  0.00000000000E+00  0.74505805969E-08  0.10566000000E+00  0.10566000000E+00 0.  1.
     999900   -1    0    0    0    0 -0.00000000000E+00 -0.00000000000E+00 -0.74505805969E-08  0.93827000000E+00  0.93827000000E+00 0. -1.
     999902    2    1    2    0    0 -0.16525766499E-01  0.11750354343E-01  0.12296923837E-01  0.10202153184E+01  0.10199396599E+01 0.  0.
     999903    2    3    3    0    0  0.58587774096E-01 -0.10154746415E+00 -0.47103897025E-01  0.12779899341E+00  0.19219543538E-01 0.  0.
         14    1    1    2    0    0  0.16525766499E-01 -0.11750354343E-01 -0.12296923837E-01  0.23714681558E-01  0.00000000000E+00 0. -1.
     999901    1    3    3    0    0 -0.75113540594E-01  0.11329781849E+00  0.59400820861E-01  0.89241632503E+00  0.88000000000E+00 0.  1.
        -11    1    4    4    0    0  0.55311900346E-03 -0.58291510230E-02 -0.64000517937E-02  0.86894606416E-02  0.51100000000E-03 0. -1.
         11    1    4    4    0    0  0.58034655092E-01 -0.95718313128E-01 -0.40703845231E-01  0.11910953277E+00  0.51100000000E-03 0.  1.
</event>
<event>
 8    1  0.1129602E+005  0.1043930E+01  0.7957747E-01            NaN
         13   -1    0    0    0    0  0.00000000000E+00  0.00000000000E+00  0.74505805969E-08  0.10566000000E+00  0.10566000000E+00 0.  1.
     999900   -1    0    0    0    0 -0.00000000000E+00 -0.00000000000E+00 -0.74505805969E-08  0.93827000000E+00  0.93827000000E+00 0.  1.
     999902    2    1    2    0    0  0.14250877657E-01  0.12689048241E-01 -0.14673377305E-01  0.10198591159E+01  0.10195750138E+01 0.  0.
     999903    2    3    3    0    0  0.12555712292E+00  0.21320500723E-01  0.31088194899E-01  0.13162620519E+00  0.11824853631E-01 0.  0.
         14    1    1    2    0    0 -0.14250877657E-01 -0.12689048241E-01  0.14673377305E-01  0.24070884088E-01  0.00000000000E+00 0.  1.
     999901    1    3    3    0    0 -0.11130624526E+00 -0.86314524825E-02 -0.45761572203E-01  0.88823291073E+00  0.88000000000E+00 0.  1.
        -11    1    4    4    0    0  0.91616644585E-01  0.10395409355E-01  0.20991618021E-01  0.94565232770E-01  0.51100000000E-03 0. -1.
         11    1    4    4    0    0  0.33940478332E-01  0.10925091368E-01  0.10096576877E-01  0.37060972416E-01  0.51100000000E-03 0.  1.
</event>
<event>
 8    1  0.1129602E+005  0.1043930E+01  0.7957747E-01            NaN
         13   -1    0    0    0    0  0.00000000000E+00  0.00000000000E+00  0.74505805969E-08  0.10566000000E+00  0.10566000000E+00 0. -1.
     999900   -1    0    0    0    0 -0.00000000000E+00 -0.00000000000E+00 -0.74505805969E-08  0.93827000000E+00  0.93827000000E+00 0.  1.
     999902    2    1    2    0    0  0.21984039326E-01  0.82431501828E-02 -0.62823924761E-02  0.10196253510E+01  0.10193356367E+01 0.  0.
     999903    2    3    3    0    0  0.82051466633E-01 -0.29866017747E-01  0.95266924251E-01  0.13093380253E+00  0.21058290464E-01 0.  0.
         14    1    1    2    0    0 -0.21984039326E-01 -0.82431501828E-02  0.62823924761E-02  0.24304649046E-01  0.00000000000E+00 0. -1.
     999901    1    3    3    0    0 -0.60067427307E-01  0.38109167930E-01 -0.10154931673E+00  0.88869154842E+00  0.88000000000E+00 0. -1.
        -11    1    4    4    0    0  0.12370552901E-01  0.30268365750E-02  0.14490974013E-01  0.19298750414E-01  0.51100000000E-03 0.  1.
         11    1    4    4    0    0  0.69680913733E-01 -0.32892854322E-01  0.80775950238E-01  0.11163505212E+00  0.51100000000E-03 0. -1.
</event>
<event>
 8    1  0.1129602E+005  0.1043930E+01  0.7957747E-01            NaN
         13   -1    0    0    0    0  0.00000000000E+00  0.00000000000E+00  0.74505805969E-08  0.10566000000E+00  0.10566000000E+00 0. -1.
     999900   -1    0    0    0    0 -0.00000000000E+00 -0.00000000000E+00 -0.74505805969E-08  0.93827000000E+00  0.93827000000E+00 0.  1.
     999902    2    1    2    0    0  0.24573348827E-01  0.88394712896E-02  0.12598622341E-01  0.10149349830E+01  0.10145207286E+01 0.  0.
     999903    2    3    3    0    0 -0.39719223476E-01  0.10751659133E+00  0.49957007649E-01  0.12630324949E+00  0.17871040603E-01 0.  0.
         14    1    1    2    0    0 -0.24573348827E-01 -0.88394712896E-02 -0.12598622341E-01  0.28995016988E-01  0.00000000000E+00 0.  1.
     999901    1    3    3    0    0  0.64292572302E-01 -0.98677120045E-01 -0.37358385308E-01  0.88863173352E+00  0.88000000000E+00 0.  1.
        -11    1    4    4    0    0 -0.21646692282E-02  0.27627809030E-01  0.11256630300E-01  0.29915789666E-01  0.51100000000E-03 0. -1.
         11    1    4    4    0    0 -0.37554554248E-01  0.79888782305E-01  0.38700377349E-01  0.96387459822E-01  0.51100000000E-03 0.  1.
</event>
<event>
 8    1  0.1129602E+005  0.1043930E+01  0.7957747E-01            NaN
         13   -1    0    0    0    0  0.00000000000E+00  0.00000000000E+00  0.74505805969E-08  0.10566000000E+00  0.10566000000E+00 0. -1.
     999900   -1    0    0    0    0 -0.00000000000E+00 -0.00000000000E+00 -0.74505805969E-08  0.93827000000E+00  0.93827000000E+00 0. -1.
     999902    2    1    2    0    0 -0.19141107734E-01 -0.12015794578E-01 -0.53016764349E-02  0.10207164458E+01  0.10204524456E+01 0.  0.
     999903    2    3    3    0    0 -0.34895757675E-01 -0.12170515689E+00  0.35196136304E-01  0.13284255949E+00  0.19455551484E-01 0.  0.
         14    1    1    2    0    0  0.19141107734E-01  0.12015794578E-01  0.53016764349E-02  0.23213554180E-01  0.00000000000E+00 0.  1.
     999901    1    3    3    0    0  0.15754649941E-01  0.10968936231E+00 -0.40497812739E-01  0.88787388633E+00  0.88000000000E+00 0.  1.
        -11    1    4    4    0    0 -0.28115900948E-01 -0.63817509243E-01  0.16964285429E-01  0.71772045207E-01  0.51100000000E-03 0. -1.
         11    1    4    4    0    0 -0.67798567272E-02 -0.57887647643E-01  0.18231850875E-01  0.61070514279E-01  0.51100000000E-03 0.  1.
</event>
<event>
 8    1  0.1129602E+005  0.1043930E+01  0.7957747E-01            NaN
         13   -1    0    0    0    0  0.00000000000E+00  0.00000000000E+00  0.74505805969E-08  0.10566000000E+00  0.10566000000E+00 0.  1.
     999900   -1    0    0    0    0 -0.00000000000E+00 -0.00000000000E+00 -0.74505805969E-08  0.93827000000E+00  0.93827000000E+00 0.  1.
     999902    2    1    2    0    0  0.23260022667E-01 -0.10162995170E-02 -0.73467627284E-02  0.10195161424E+01  0.10192237871E+01 0.  0.
     999903    2    3    3    0    0  0.69974063863E-01  0.95334670993E-01  0.52437739541E-01  0.13101183862E+00  0.20719947490E-01 0.  0.
         14    1    1    2    0    0 -0.23260022667E-01  0.10162995170E-02  0.73467627284E-02  0.24413857576E-01  0.00000000000E+00 0. -1.
     999901    1    3    3    0    0 -0.46714041197E-01 -0.96350970510E-01 -0.59784502269E-01  0.88850430380E+00  0.88000000000E+00 0.  1.
        -11    1    4    4    0    0  0.44691689304E-01  0.75997497452E-01  0.36681553708E-01  0.95492220705E-01  0.51100000000E-03 0.  1.
         11    1    4    4    0    0  0.25282374560E-01  0.19337173541E-01  0.15756185833E-01  0.35519617916E-01  0.51100000000E-03 0. -1.
</event>
<event>
 8    1  0.1129602E+005  0.1043930E+01  0.7957747E-01            NaN
         13   -1    0    0    0    0  0.00000000000E+00  0.00000000000E+00  0.74505805969E-08  0.10566000000E+00  0.10566000000E+00 0. -1.
     999900   -1    0    0    0    0 -0.00000000000E+00 -0.00000000000E+00 -0.74505805969E-08  0.93827000000E+00  0.93827000000E+00 0. -1.
     999902    2    1    2    0    0  0.18668872198E-01 -0.79316701481E-03  0.20574201637E-01  0.10161369491E+01  0.10157567847E+01 0.  0.
     999903    2    3    3    0    0 -0.40934169145E-01  0.71861899736E-01 -0.90516194014E-01  0.12418831986E+00  0.19743823714E-01 0.  0.
         14    1    1    2    0    0 -0.18668872198E-01  0.79316701481E-03 -0.20574201637E-01  0.27793050859E-01  0.00000000000E+00 0.  1.
     999901    1    3    3    0    0  0.59603041343E-01 -0.72655066751E-01  0.11109039565E+00  0.89194862928E+00  0.88000000000E+00 0. -1.
        -11    1    4    4    0    0 -0.31242108427E-01  0.47356249323E-01 -0.48762606522E-01  0.74811340081E-01  0.51100000000E-03 0. -1.
         11    1    4    4    0    0 -0.96920607183E-02  0.24505650412E-01 -0.41753587492E-01  0.49376979784E-01  0.51100000000E-03 0.  1.
</event>
<event>
 8    1  0.1129602E+005  0.1043930E+01  0.7957747E-01            NaN
         13   -1    0    0    0    0  0.00000000000E+00  0.00000000000E+00  0.74505805969E-08  0.10566000000E+00  0.10566000000E+00 0.  1.
     999900   -1    0    0    0    0 -0.00000000000E+00 -0.00000000000E+00 -0.74505805969E-08  0.93827000000E+00  0.93827000000E+00 0. -1.
     999902    2    1    2    0    0 -0.17634718115E-01 -0.16375401369E-01  0.34167739913E-02  0.10196233878E+01  0.10193336262E+01 0.  0.
     999903    2    3    3    0    0 -0.88058703563E-01 -0.97547591430E-01  0.96144497783E-02  0.13306438052E+00  0.18542487770E-01 0.  0.
         14    1    1    2    0    0  0.17634718115E-01  0.16375401369E-01 -0.34167739913E-02  0.24306612218E-01  0.00000000000E+00 0. -1.
     999901    1    3    3    0    0  0.70423985448E-01  0.81172190061E-01 -0.61976757870E-02  0.88655900726E+00  0.88000000000E+00 0. -1.
        -11    1    4    4    0    0 -0.47606846598E-01 -0.44349015139E-01 -0.26302512840E-02  0.65118555955E-01  0.51100000000E-03 0. -1.
         11    1    4    4    0    0 -0.40451856965E-01 -0.53198576291E-01  0.12244701062E-01  0.67945824569E-01  0.51100000000E-03 0.  1.
</event>
<event>
 8    1  0.1129602E+005  0.1043930E+01  0.7957747E-01            NaN
         13   -1    0    0    0    0  0.00000000000E+00  0.00000000000E+00  0.74505805969E-08  0.10566000000E+00  0.10566000000E+00 0.  1.
     999900   -1    0    0    0    0 -0.00000000000E+00 -0.00000000000E+00 -0.74505805969E-08  0.93827000000E+00  0.93827000000E+00 0.  1.
     999902    2    1    2    0    0  0.10927878504E-01 -0.29575998963E-01  0.11597519004E-01  0.10103344543E+01  0.10097757419E+01 0.  0.
     999903    2    3    3    0    0  0.81613832508E-02  0.95791843358E-01 -0.65485867251E-01  0.11810881142E+00  0.20459889928E-01 0.  0.
         14    1    1    2    0    0 -0.10927878504E-01  0.29575998963E-01 -0.11597519004E-01  0.33595545691E-01  0.00000000000E+00 0. -1.
     999901    1    3    3    0    0  0.27664952531E-02 -0.12536784232E+00  0.77083386256E-01  0.89222564288E+00  0.88000000000E+00 0.  1.
        -11    1    4    4    0    0 -0.56287276778E-02  0.10826713135E-01 -0.80497743843E-02  0.14627381216E-01  0.51100000000E-03 0.  1.
         11    1    4    4    0    0  0.13790110929E-01  0.84965130223E-01 -0.57436092867E-01  0.10348143021E+00  0.51100000000E-03 0. -1.
</event>
<event>
 8    1  0.1129602E+005  0.1043930E+01  0.7957747E-01            NaN
         13   -1    0    0    0    0  0.00000000000E+00  0.00000000000E+00  0.74505805969E-08  0.10566000000E+00  0.10566000000E+00 0.  1.
     999900   -1    0    0    0    0 -0.00000000000E+00 -0.00000000000E+00 -0.74505805969E-08  0.93827000000E+00  0.93827000000E+00 0.  1.
     999902    2    1    2    0    0 -0.15084292379E-01 -0.17694082514E-01  0.12282262009E-02  0.10206464227E+01  0.10203808089E+01 0.  0.
     999903    2    3    3    0    0  0.34176864620E-01  0.11230259114E+00  0.48405613066E-01  0.12848528109E+00  0.19632473827E-01 0.  0.
         14    1    1    2    0    0  0.15084292379E-01  0.17694082514E-01 -0.12282262009E-02  0.23283577307E-01  0.00000000000E+00 0.  1.
     999901    1    3    3    0    0 -0.49261156999E-01 -0.12999667366E+00 -0.47177386865E-01  0.89216114160E+00  0.88000000000E+00 0.  1.
        -11    1    4    4    0    0  0.34413424287E-01  0.84914079829E-01  0.37194470622E-01  0.98885663724E-01  0.51100000000E-03 0.  1.
         11    1    4    4    0    0 -0.23655966702E-03  0.27388511313E-01  0.11211142445E-01  0.29599617368E-01  0.51100000000E-03 0. -1.
</event>
<event>
 8    1  0.1129602E+005  0.1043930E+01  0.7957747E-01            NaN
         13   -1    0    0    0    0  0.00000000000E+00  0.00000000000E+00  0.74505805969E-08  0.10566000000E+00  0.10566000000E+00 0.  1.
     999900   -1    0    0    0    0 -0.00000000000E+00 -0.00000000000E+00 -0.74505805969E-08  0.93827000000E+00  0.93827000000E+00 0.  1.
     999902    2    1    2    0    0 -0.93355946858E-02 -0.15235774621E-01 -0.14670187292E-01  0.10208108185E+01  0.10205489850E+01 0.  0.
     999903    2    3    3    0    0 -0.38542102689E-01 -0.12367649361E+00  0.21809656942E-01  0.13292389517E+00  0.20291180834E-01 0.  0.
         14    1    1    2    0    0  0.93355946858E-02  0.15235774621E-01  0.14670187292E-01  0.23119181465E-01  0.00000000000E+00 0.  1.
     999901    1    3    3    0    0  0.29206508003E-01  0.10844071899E+00 -0.36479844234E-01  0.88788692336E+00  0.88000000000E+00 0.  1.
        -11    1    4    4    0    0 -0.17451045783E-01 -0.62767817628E-01  0.89488608569E-03  0.65156733119E-01  0.51100000000E-03 0.  1.
         11    1    4    4    0    0 -0.21091056906E-01 -0.60908675985E-01  0.20914770857E-01  0.67767162052E-01  0.51100000000E-03 0. -1.
</event>
<event>
 8    1  0.1129602E+005  0.1043930E+01  0.7957747E-01            NaN
         13   -1    0    0    0    0  0.00000000000E+00  0.00000000000E+00  0.74505805969E-08  0.10566000000E+00  0.10566000000E+00 0. -1.
     999900   -1    0    0    0    0 -0.00000000000E+00 -0.00000000000E+00 -0.74505805969E-08  0.93827000000E+00  0.93827000000E+00 0. -1.
     999902    2    1    2    0    0  0.17034358021E-01 -0.21524005526E-02  0.21752585226E-01  0.10162175994E+01  0.10158396686E+01 0.  0.
     999903    2    3    3    0    0  0.11907392740E+00 -0.43497452565E-01  0.16020564886E-01  0.12933860932E+00  0.20029697804E-01 0.  0.
         14    1    1    2    0    0 -0.17034358021E-01  0.21524005526E-02 -0.21752585226E-01  0.27712400570E-01  0.00000000000E+00 0.  1.
     999901    1    3    3    0    0 -0.10203956938E+00  0.41345052013E-01  0.57320203399E-02  0.88687899011E+00  0.88000000000E+00 0.  1.
        -11    1    4    4    0    0  0.10538520374E+00 -0.43702095854E-01  0.10508058705E-01  0.11457135230E+00  0.51100000000E-03 0. -1.
         11    1    4    4    0    0  0.13688723667E-01  0.20464328894E-03  0.55125061805E-02  0.14767257020E-01  0.51100000000E-03 0.  1.
</event>
<event>
 8    1  0.1129602E+005  0.1043930E+01  0.7957747E-01            NaN
         13   -1    0    0    0    0  0.00000000000E+00  0.00000000000E+00  0.74505805969E-08  0.10566000000E+00  0.10566000000E+00 0.  1.
     999900   -1    0    0    0    0 -0.00000000000E+00 -0.00000000000E+00 -0.74505805969E-08  0.93827000000E+00  0.93827000000E+00 0.  1.
     999902    2    1    2    0    0  0.14620740959E-01  0.11473471169E-01 -0.14900257566E-01  0.10201093308E+01  0.10198311735E+01 0.  0.
     999903    2    3    3    0    0 -0.11373382624E+00 -0.55217813094E-01 -0.16283286157E-01  0.12829963410E+00  0.14534806053E-01 0.  0.
         14    1    1    2    0    0 -0.14620740959E-01 -0.11473471169E-01  0.14900257566E-01  0.23820669226E-01  0.00000000000E+00 0. -1.
     999901    1    3    3    0    0  0.12835456720E+00  0.66691284263E-01  0.13830285909E-02  0.89180969668E+00  0.88000000000E+00 0. -1.
        -11    1    4    4    0    0 -0.23070270173E-01 -0.17574567233E-01 -0.57089976199E-02  0.29562756200E-01  0.51100000000E-03 0. -1.
         11    1    4    4    0    0 -0.90663556068E-01 -0.37643245861E-01 -0.10574288537E-01  0.98736877898E-01  0.51100000000E-03 0.  1.
</event>
<event>
 8    1  0.1129602E+005  0.1043930E+01  0.7957747E-01            NaN
         13   -1    0    0    0    0  0.00000000000E+00  0.00000000000E+00  0.74505805969E-08  0.10566000000E+00  0.10566000000E+00 0.  1.
     999900   -1    0    0    0    0 -0.00000000000E+00 -0.00000000000E+00 -0.74505805969E-08  0.93827000000E+00  0.93827000000E+00 0.  1.
     999902    2    1    2    0    0 -0.13145764512E-01  0.17808614124E-01  0.98384057419E-02  0.10197070338E+01  0.10194192870E+01 0.  0.
     999903    2    3    3    0    0 -0.40905298992E-01 -0.73610416032E-01 -0.95268793642E-01  0.12831735801E+00  0.17247158915E-01 0.  0.
         14    1    1    2    0    0  0.13145764512E-01 -0.17808614124E-01 -0.98384057419E-02  0.24222966151E-01  0.00000000000E+00 0.  1.
     999901    1    3    3    0    0  0.27759534479E-01  0.91419030156E-01  0.10510719938E+00  0.89138967584E+00  0.88000000000E+00 0. -1.
        -11    1    4    4    0    0 -0.34295521490E-01 -0.69550433936E-01 -0.81453343864E-01  0.11246490120E+00  0.51100000000E-03 0. -1.
         11    1    4    4    0    0 -0.66097775016E-02 -0.40599820956E-02 -0.13815449779E-01  0.15852456807E-01  0.51100000000E-03 0.  1.
</event>
<event>
 8    1  0.1129602E+005  0.1043930E+01  0.7957747E-01            NaN
         13   -1    0    0    0    0  0.00000000000E+00  0.00000000000E+00  0.74505805969E-08  0.10566000000E+00  0.10566000000E+00 0.  1.
     999900   -1    0    0    0    0 -0.00000000000E+00 -0.00000000000E+00 -0.74505805969E-08  0.93827000000E+00  0.93827000000E+00 0.  1.
     999902    2    1    2    0    0 -0.34647658929E-03 -0.41594553067E-02  0.23051047829E-01  0.10205041186E+01  0.10202352102E+01 0.  0.
     999903    2    3    3    0    0  0.23728393807E-01  0.15382666397E-01 -0.12291644099E+00  0.12794151478E+00  0.21468969212E-01 0.  0.
         14    1    1    2    0    0  0.34647658929E-03  0.41594553067E-02 -0.23051047829E-01  0.23425881424E-01  0.00000000000E+00 0. -1.
     999901    1    3    3    0    0 -0.24074870396E-01 -0.19542121704E-01  0.14596748882E+00  0.89256260380E+00  0.88000000000E+00 0. -1.
        -11    1    4    4    0    0  0.79554335800E-02  0.17649378278E-01 -0.74018941541E-01  0.76510484934E-01  0.51100000000E-03 0.  1.
         11    1    4    4    0    0  0.15772960227E-01 -0.22667118802E-02 -0.48897499453E-01  0.51431029844E-01  0.51100000000E-03 0. -1.
</event>
<event>
 8    1  0.1129602E+005  0.1043930E+01  0.7957747E-01            NaN
         13   -1    0    0    0    0  0.00000000000E+00  0.00000000000E+00  0.74505805969E-08  0.10566000000E+00  0.10566000000E+00 0.  1.
     999900   -1    0    0    0    0 -0.00000000000E+00 -0.00000000000E+00 -0.74505805969E-08  0.93827000000E+00  0.93827000000E+00 0. -1.
     999902    2    1    2    0    0  0.91735810353E-02  0.15676879414E-01 -0.16147102795E-01  0.10196267478E+01  0.10193370673E+01 0.  0.
     999903    2    3    3    0    0  0.93262325692E-01  0.85783722716E-01  0.29572011630E-01  0.13166496719E+00  0.20110973065E-01 0.  0.
         14    1    1    2    0    0 -0.91735810353E-02 -0.15676879414E-01  0.16147102795E-01  0.24303252166E-01  0.00000000000E+00 0.  1.
     999901    1    3    3    0    0 -0.84088744656E-01 -0.70106843303E-01 -0.45719114425E-01  0.88796178064E+00  0.88000000000E+00 0. -1.
        -11    1    4    4    0    0  0.65655135928E-01  0.47891931127E-01  0.15698593573E-01  0.82770410787E-01  0.51100000000E-03 0.  1.
         11    1    4    4    0    0  0.27607189764E-01  0.37891791589E-01  0.13873418058E-01  0.48894556406E-01  0.51100000000E-03 0. -1.
</event>
<event>
 8    1  0.1129602E+005  0.1043930E+01  0.7957747E-01            NaN
         13   -1    0    0    0    0  0.00000000000E+00  0.00000000000E+00  0.74505805969E-08  0.10566000000E+00  0.10566000000E+00 0. -1.
     999900   -1    0    0    0    0 -0.00000000000E+00 -0.00000000000E+00 -0.74505805969E-08  0.93827000000E+00  0.93827000000E+00 0.  1.
     999902    2    1    2    0    0  0.51467954702E-02  0.22643400032E-01 -0.54919638707E-02  0.10200684255E+01  0.10197893008E+01 0.  0.
     999903    2    3    3    0    0  0.51076465158E-01  0.21902840457E-01 -0.11890684630E+00  0.13160175844E+00  0.95731402592E-02 0.  0.
         14    1    1    2    0    0 -0.51467954702E-02 -0.22643400032E-01  0.54919638707E-02  0.23861574461E-01  0.00000000000E+00 0. -1.
     999901    1    3    3    0    0 -0.45929669688E-01  0.74055957481E-03  0.11341488243E+00  0.88846666710E+00  0.88000000000E+00 0. -1.
        -11    1    4    4    0    0  0.41119922528E-01  0.21366204376E-01 -0.95296079273E-01  0.10596681822E+00  0.51100000000E-03 0.  1.
         11    1    4    4    0    0  0.99565426295E-02  0.53663608158E-03 -0.23610767028E-01  0.25634940220E-01  0.51100000000E-03 0. -1.
</event>
<event>
 8    1  0.1129602E+005  0.1043930E+01  0.7957747E-01            NaN
         13   -1    0    0    0    0  0.00000000000E+00  0.00000000000E+00  0.74505805969E-08  0.10566000000E+00  0.10566000000E+00 0. -1.
     999900   -1    0    0    0    0 -0.00000000000E+00 -0.00000000000E+00 -0.74505805969E-08  0.93827000000E+00  0.93827000000E+00 0.  1.
     999902    2    1    2    0    0 -0.30329379237E-02  0.21059642600E-01 -0.10540855451E-01  0.10201851712E+01  0.10199088031E+01 0.  0.
     999903    2    3    3    0    0 -0.62575446699E-01 -0.77537775501E-01 -0.80924073090E-01  0.12989277067E+00  0.19890528054E-01 0.  0.
         14    1    1    2    0    0  0.30329379237E-02 -0.21059642600E-01  0.10540855451E-01  0.23744828753E-01  0.00000000000E+00 0. -1.
     999901    1    3    3    0    0  0.59542508776E-01  0.98597418102E-01  0.70383217640E-01  0.89029240058E+00  0.88000000000E+00 0. -1.
        -11    1    4    4    0    0 -0.42774014405E-01 -0.47739035359E-01 -0.62983141914E-01  0.89865283017E-01  0.51100000000E-03 0. -1.
         11    1    4    4    0    0 -0.19801432295E-01 -0.29798740142E-01 -0.17940931176E-01  0.40027487648E-01  0.51100000000E-03 0.  1.
</event>
<event>
 8    1  0.1129602E+005  0.1043930E+01  0.7957747E-01            NaN
         13   -1    0    0    0    0  0.00000000000E+00  0.00000000000E+00  0.74505805969E-08  0.10566000000E+00  0.10566000000E+00 0. -1.
     999900   -1    0    0    0    0 -0.00000000000E+00 -0.00000000000E+00 -0.74505805969E-08  0.93827000000E+00  0.93827000000E+00 0. -1.
     999902    2    1    2    0    0 -0.21617506332E-01  0.96331858291E-02  0.23842941222E-02  0.10201434553E+01  0.10198661038E+01 0.  0.
     999903    2    3    3    0    0 -0.24055933481E-01  0.53765177014E-01 -0.11281712601E+00  0.13153502312E+00  0.33232155999E-01 0.  0.
         14    1    1    2    0    0  0.21617506332E-01 -0.96331858291E-02 -0.23842941222E-02  0.23786544677E-01  0.00000000000E+00 0. -1.
     999901    1    3    3    0    0  0.24384271495E-02 -0.44131991184E-01  0.11520142013E+00  0.88860843220E+00  0.88000000000E+00 0.  1.
        -11    1    4    4    0    0 -0.24664950904E-01  0.18354558565E-01 -0.39033866666E-01  0.49690577488E-01  0.51100000000E-03 0.  1.
         11    1    4    4    0    0  0.60901742278E-03  0.35410618449E-01 -0.73783259344E-01  0.81844445637E-01  0.51100000000E-03 0. -1.
</event>
<event>
 8    1  0.1129602E+005  0.1043930E+01  0.7957747E-01            NaN
         13   -1    0    0    0    0  0.00000000000E+00  0.00000000000E+00  0.74505805969E-08  0.10566000000E+00  0.10566000000E+00 0. -1.
     999900   -1    0    0    0    0 -0.00000000000E+00 -0.00000000000E+00 -0.74505805969E-08  0.93827000000E+00  0.93827000000E+00 0. -1.
     999902    2    1    2    0    0 -0.15748840802E-01  0.13682699150E-01  0.99303269661E-02  0.10208247271E+01  0.10205632121E+01 0.  0.
     999903    2    3    3    0    0 -0.45806837155E-01  0.39695297959E-01  0.11713590793E+00  0.13342787391E+00  0.20203801574E-01 0.  0.
         14    1    1    2    0    0  0.15748840802E-01 -0.13682699150E-01 -0.99303269661E-02  0.23105272911E-01  0.00000000000E+00 0. -1.
     999901    1    3    3    0    0  0.30057996352E-01 -0.26012598809E-01 -0.10720558097E+00  0.88739685318E+00  0.88000000000E+00 0. -1.
        -11    1    4    4    0    0 -0.56555306106E-02  0.96595022789E-02  0.95226095795E-02  0.14704836788E-01  0.51100000000E-03 0.  1.
         11    1    4    4    0    0 -0.40151306544E-01  0.30035795681E-01  0.10761329836E+00  0.11872303712E+00  0.51100000000E-03 0. -1.
</event>
<event>
 8    1  0.1129602E+005  0.1043930E+01  0.7957747E-01            NaN
         13   -1    0    0    0    0  0.00000000000E+00  0.00000000000E+00  0.74505805969E-08  0.10566000000E+00  0.10566000000E+00 0. -1.
     999900   -1    0    0    0    0 -0.00000000000E+00 -0.00000000000E+00 -0.74505805969E-08  0.93827000000E+00  0.93827000000E+00 0.  1.
     999902    2    1    2    0    0 -0.58238348045E-02 -0.41003210648E-03 -0.23100684385E-01  0.10201029818E+01  0.10198246745E+01 0.  0.
     999903    2    3    3    0    0 -0.50016459420E-01  0.10822099387E+00  0.46965814739E-01  0.12956213366E+00  0.19160610566E-01 0.  0.
         14    1    1    2    0    0  0.58238348045E-02  0.41003210648E-03  0.23100684385E-01  0.23827018219E-01  0.00000000000E+00 0. -1.
     999901    1    3    3    0    0  0.44192624615E-01 -0.10863102598E+00 -0.70066499124E-01  0.89054084812E+00  0.88000000000E+00 0.  1.
        -11    1    4    4    0    0 -0.27615547817E-01  0.50336119588E-01  0.31927695572E-01  0.65696135974E-01  0.51100000000E-03 0. -1.
         11    1    4    4    0    0 -0.22400911603E-01  0.57884874282E-01  0.15038119167E-01  0.63865997685E-01  0.51100000000E-03 0.  1.
</event>
<event>
 8    1  0.1129602E+005  0.1043930E+01  0.7957747E-01            NaN
         13   -1    0    0    0    0  0.00000000000E+00  0.00000000000E+00  0.74505805969E-08  0.10566000000E+00  0.10566000000E+00 0.  1.
     999900   -1    0    0    0    0 -0.00000000000E+00 -0.00000000000E+00 -0.74505805969E-08  0.93827000000E+00  0.93827000000E+00 0.  1.
     999902    2    1    2    0    0  0.14559069157E-01 -0.99706471733E-02 -0.15557286528E-01  0.10204053435E+01  0.10201341361E+01 0.  0.
     999903    2    3    3    0    0 -0.97627991950E-01 -0.16181030037E-01 -0.82893144478E-01  0.13070953969E+00  0.20509993157E-01 0.  0.
         14    1    1    2    0    0 -0.14559069157E-01  0.99706471733E-02  0.15557286528E-01  0.23524656509E-01  0.00000000000E+00 0.  1.
     999901    1    3    3    0    0  0.11218706111E+00  0.62103828641E-02  0.67335857950E-01  0.88969580380E+00  0.88000000000E+00 0. -1.
        -11    1    4    4    0    0 -0.67476995323E-01 -0.20374655744E-01 -0.54809724738E-01  0.89289632888E-01  0.51100000000E-03 0.  1.
         11    1    4    4    0    0 -0.30150996627E-01  0.41936257066E-02 -0.28083419740E-01  0.41419906802E-01  0.51100000000E-03 0. -1.
</event>
<event>
 8    1  0.1129602E+005  0.1043930E+01  0.7957747E-01            NaN
         13   -1    0    0    0    0  0.00000000000E+00  0.00000000000E+00  0.74505805969E-08  0.10566000000E+00  0.10566000000E+00 0. -1.
     999900   -1    0    0    0    0 -0.00000000000E+00 -0.00000000000E+00 -0.74505805969E-08  0.93827000000E+00  0.93827000000E+00 0. -1.
     999902    2    1    2    0    0 -0.15696882421E-01 -0.42406486158E-02  0.17718982639E-01  0.10198813501E+01  0.10195977788E+01 0.  0.
     999903    2    3    3    0    0  0.11487994835E+00  0.99294620170E-02  0.50961010137E-01  0.12951281222E+00  0.29674016042E-01 0.  0.
         14    1    1    2    0    0  0.15696882421E-01  0.42406486158E-02 -0.17718982639E-01  0.24048649945E-01  0.00000000000E+00 0.  1.
     999901    1    3    3    0    0 -0.13057683077E+00 -0.14170110633E-01 -0.33242027498E-01  0.89036853783E+00  0.88000000000E+00 0.  1.
        -11    1    4    4    0    0  0.89963738055E-01 -0.39123966906E-02  0.43708150416E-01  0.10009717552E+00  0.51100000000E-03 0. -1.
         11    1    4    4    0    0  0.24916210290E-01  0.13841858708E-01  0.72528597208E-02  0.29415636706E-01  0.51100000000E-03 0.  1.
</event>
<event>
 8    1  0.1129602E+005  0.1043930E+01  0.7957747E-01            NaN
         13   -1    0    0    0    0  0.00000000000E+00  0.00000000000E+00  0.74505805969E-08  0.10566000000E+00  0.10566000000E+00 0. -1.
     999900   -1    0    0    0    0 -0.00000000000E+00 -0.00000000000E+00 -0.74505805969E-08  0.93827000000E+00  0.93827000000E+00 0.  1.
     999902    2    1    2    0    0 -0.13938138695E-01  0.78844099786E-02 -0.17008430875E-01  0.10205692990E+01  0.10203019022E+01 0.  0.
     999903    2    3    3    0    0 -0.35368129762E-01 -0.12410183543E+00 -0.75651519296E-02  0.13041830673E+00  0.17307023073E-01 0.  0.
         14    1    1    2    0    0  0.13938138695E-01 -0.78844099786E-02  0.17008430875E-01  0.23360701013E-01  0.00000000000E+00 0. -1.
     999901    1    3    3    0    0  0.21429991066E-01  0.13198624541E+00 -0.94432789453E-02  0.89015099225E+00  0.88000000000E+00 0. -1.
        -11    1    4    4    0    0 -0.15344784074E-01 -0.27711894758E-01 -0.23347828662E-04  0.31680801370E-01  0.51100000000E-03 0. -1.
         11    1    4    4    0    0 -0.20023345688E-01 -0.96389940671E-01 -0.75418041009E-02  0.98737505363E-01  0.51100000000E-03 0.  1.
</event>
<event>
 8    1  0.1129602E+005  0.1043930E+01  0.7957747E-01            NaN
         13   -1    0    0    0    0  0.00000000000E+00  0.00000000000E+00  0.74505805969E-08  0.10566000000E+00  0.10566000000E+00 0. -1.
     999900   -1    0    0    0    0 -0.00000000000E+00 -0.00000000000E+00 -0.74505805969E-08  0.93827000000E+00  0.93827000000E+00 0.  1.
     999902    2    1    2    0    0 -0.69467415956E-03  0.23095237429E-01  0.53771970072E-02  0.10202068718E+01  0.10199310146E+01 0.  0.
     999903    2    3    3    0    0 -0.12142251553E+00  0.37257451116E-01 -0.26759202741E-01  0.13127013155E+00  0.19602233662E-01 0.  0.
         14    1    1    2    0    0  0.69467415956E-03 -0.23095237429E-01 -0.53771970072E-02  0.23723128203E-01  0.00000000000E+00 0.  1.
     999901    1    3    3    0    0  0.12072784137E+00 -0.14162213687E-01  0.32136399748E-01  0.88893674025E+00  0.88000000000E+00 0. -1.
        -11    1    4    4    0    0 -0.48752273871E-01  0.22004254007E-01 -0.18300230733E-01  0.56534334416E-01  0.51100000000E-03 0. -1.
         11    1    4    4    0    0 -0.72670241656E-01  0.15253197108E-01 -0.84589720080E-02  0.74735797131E-01  0.51100000000E-03 0.  1.
</event>
<event>
 8    1  0.1134629E+005  0.1043930E+01  0.7957747E-01            NaN
         13   -1    0    0    0    0  0.00000000000E+00  0.00000000000E+00  0.74505805969E-08  0.10566000000E+00  0.10566000000E+00 0.  1.
     999900   -1    0    0    0    0 -0.00000000000E+00 -0.00000000000E+00 -0.74505805969E-08  0.93827000000E+00  0.93827000000E+00 0. -1.
     999902    2    1    2    0    0 -0.49957186359E-03  0.16563516578E-01  0.15987396463E-01  0.10209040038E+01  0.10206443007E+01 0.  0.
     999903    2    3    3    0    0  0.10593928646E+00 -0.39704439089E-01 -0.59729051571E-01  0.12948474563E+00  0.19979110358E-01 0.  0.
         14    1    1    2    0    0  0.49957186359E-03 -0.16563516578E-01 -0.15987396463E-01  0.23025996160E-01  0.00000000000E+00 0. -1.
     999901    1    3    3    0    0 -0.10643885833E+00  0.56267955667E-01  0.75716448033E-01  0.89141925821E+00  0.88000000000E+00 0.  1.
        -11    1    4    4    0    0  0.45932518491E-01 -0.26237829666E-01 -0.21720160841E-01  0.57186068832E-01  0.51100000000E-03 0. -1.
         11    1    4    4    0    0  0.60006767973E-01 -0.13466609423E-01 -0.38008890729E-01  0.72298676802E-01  0.51100000000E-03 0.  1.
</event>
<event>
 8    1  0.1129602E+005  0.1043930E+01  0.7957747E-01            NaN
         13   -1    0    0    0    0  0.00000000000E+00  0.00000000000E+00  0.74505805969E-08  0.10566000000E+00  0.10566000000E+00 0. -1.
     999900   -1    0    0    0    0 -0.00000000000E+00 -0.00000000000E+00 -0.74505805969E-08  0.93827000000E+00  0.93827000000E+00 0.  1.
     999902    2    1    2    0    0 -0.21108744649E-01  0.17326867258E-02 -0.10384025266E-01  0.10203416706E+01  0.10200689758E+01 0.  0.
     999903    2    3    3    0    0  0.29994081410E-01  0.12458785940E+00 -0.14239888289E-01  0.13033056955E+00  0.19013240419E-01 0.  0.
         14    1    1    2    0    0  0.21108744649E-01 -0.17326867258E-02  0.10384025266E-01  0.23588329417E-01  0.00000000000E+00 0. -1.
     999901    1    3    3    0    0 -0.51102826059E-01 -0.12285517267E+00  0.38558630225E-02  0.89001110103E+00  0.88000000000E+00 0.  1.
        -11    1    4    4    0    0  0.12173978903E-01  0.35592334603E-01 -0.12182974363E-01  0.39543723018E-01  0.51100000000E-03 0.  1.
         11    1    4    4    0    0  0.17820102507E-01  0.88995524797E-01 -0.20569139260E-02  0.90786846531E-01  0.51100000000E-03 0. -1.
</event>
<event>
 8    1  0.1129602E+005  0.1043930E+01  0.7957747E-01            NaN
         13   -1    0    0    0    0  0.00000000000E+00  0.00000000000E+00  0.74505805969E-08  0.10566000000E+00  0.10566000000E+00 0.  1.
     999900   -1    0    0    0    0 -0.00000000000E+00 -0.00000000000E+00 -0.74505805969E-08  0.93827000000E+00  0.93827000000E+00 0.  1.
     999902    2    1    2    0    0 -0.15528935282E-01  0.10421149157E-01 -0.14442573422E-01  0.10203008632E+01  0.10200272130E+01 0.  0.
     999903    2    3    3    0    0  0.76877548767E-01  0.99354762984E-01 -0.30766769406E-01  0.13085461670E+00  0.19869830917E-01 0.  0.
         14    1    1    2    0    0  0.15528935282E-01 -0.10421149157E-01  0.14442573422E-01  0.23629136840E-01  0.00000000000E+00 0.  1.
     999901    1    3    3    0    0 -0.92406484049E-01 -0.88933613826E-01  0.16324195984E-01  0.88944624646E+00  0.88000000000E+00 0. -1.
        -11    1    4    4    0    0  0.16404079044E-01  0.14163095252E-01 -0.11768796689E-01  0.24666835486E-01  0.51100000000E-03 0.  1.
         11    1    4    4    0    0  0.60473469724E-01  0.85191667732E-01 -0.18997972717E-01  0.10618778122E+00  0.51100000000E-03 0. -1.
</event>
<event>
 8    1  0.1129602E+005  0.1043930E+01  0.7957747E-01            NaN
         13   -1    0    0    0    0  0.00000000000E+00  0.00000000000E+00  0.74505805969E-08  0.10566000000E+00  0.10566000000E+00 0.  1.
     999900   -1    0    0    0    0 -0.00000000000E+00 -0.00000000000E+00 -0.74505805969E-08  0.93827000000E+00  0.93827000000E+00 0.  1.
     999902    2    1    2    0    0 -0.13087974896E-01  0.15172416962E-01 -0.11306138505E-01  0.10209229122E+01  0.10206636402E+01 0.  0.
     999903    2    3    3    0    0  0.19735590290E-01  0.12772740596E+00  0.22616234043E-01  0.13249917353E+00  0.18459501298E-01 0.  0.
         14    1    1    2    0    0  0.13087974896E-01 -0.15172416962E-01  0.11306138505E-01  0.23007087848E-01  0.00000000000E+00 0. -1.
     999901    1    3    3    0    0 -0.32823565186E-01 -0.11255498900E+00 -0.33922372548E-01  0.88842373862E+00  0.88000000000E+00 0.  1.
        -11    1    4    4    0    0  0.90517288986E-02  0.81242126998E-01  0.59159565468E-02  0.81960213873E-01  0.51100000000E-03 0.  1.
         11    1    4    4    0    0  0.10683861391E-01  0.46485278960E-01  0.16700277497E-01  0.50538959662E-01  0.51100000000E-03 0. -1.
</event>
<event>
 8    1  0.1129602E+005  0.1043930E+01  0.7957747E-01            NaN
         13   -1    0    0    0    0  0.00000000000E+00  0.00000000000E+00  0.74505805969E-08  0.10566000000E+00  0.10566000000E+00 0.  1.
     999900   -1    0    0    0    0 -0.00000000000E+00 -0.00000000000E+00 -0.74505805969E-08  0.93827000000E+00  0.93827000000E+00 0. -1.
     999902    2    1    2    0    0 -0.16642948521E-01 -0.16730396323E-01  0.30689281243E-02  0.10201326847E+01  0.10198550790E+01 0.  0.
     999903    2    3    3    0    0 -0.40702598711E-01 -0.56944153956E-02 -0.12255197498E+00  0.13081762749E+00  0.20128019872E-01 0.  0.
         14    1    1    2    0    0  0.16642948521E-01  0.16730396323E-01 -0.30689281243E-02  0.23797315320E-01  0.00000000000E+00 0. -1.
     999901    1    3    3    0    0  0.24059650190E-01 -0.11035980928E-01  0.12562090310E+00  0.88931505719E+00  0.88000000000E+00 0.  1.
        -11    1    4    4    0    0 -0.12493167547E-01  0.40095464515E-02 -0.61233997582E-01  0.62626027169E-01  0.51100000000E-03 0.  1.
         11    1    4    4    0    0 -0.28209431164E-01 -0.97039618471E-02 -0.61317977394E-01  0.68191600324E-01  0.51100000000E-03 0. -1.
</event>
<event>
 8    1  0.1129602E+005  0.1043930E+01  0.7957747E-01            NaN
         13   -1    0    0    0    0  0.00000000000E+00  0.00000000000E+00  0.74505805969E-08  0.10566000000E+00  0.10566000000E+00 0.  1.
     999900   -1    0    0    0    0 -0.00000000000E+00 -0.00000000000E+00 -0.74505805969E-08  0.93827000000E+00  0.93827000000E+00 0.  1.
     999902    2    1    2    0    0 -0.14028278630E-01  0.17646886858E-01 -0.70594201010E-02  0.10203071164E+01  0.10200336128E+01 0.  0.
     999903    2    3    3    0    0 -0.65159534334E-01 -0.11011923136E+00 -0.83999356702E-02  0.12961054447E+00  0.18876553939E-01 0.  0.
         14    1    1    2    0    0  0.14028278630E-01 -0.17646886858E-01  0.70594201010E-02  0.23622883593E-01  0.00000000000E+00 0.  1.
     999901    1    3    3    0    0  0.51131255704E-01  0.12776611822E+00  0.13405155692E-02  0.89069657194E+00  0.88000000000E+00 0.  1.
        -11    1    4    4    0    0 -0.98271687683E-02 -0.87441225130E-02  0.31643970997E-02  0.13539108336E-01  0.51100000000E-03 0. -1.
         11    1    4    4    0    0 -0.55332365566E-01 -0.10137510885E+00 -0.11564332770E-01  0.11607143614E+00  0.51100000000E-03 0.  1.
</event>
<event>
 8    1  0.1129602E+005  0.1043930E+01  0.7957747E-01            NaN
         13   -1    0    0    0    0  0.00000000000E+00  0.00000000000E+00  0.74505805969E-08  0.10566000000E+00  0.10566000000E+00 0.  1.
     999900   -1    0    0    0    0 -0.00000000000E+00 -0.00000000000E+00 -0.74505805969E-08  0.93827000000E+00  0.93827000000E+00 0. -1.
     999902    2    1    2    0    0 -0.24972602443E-02  0.90485539657E-02  0.21976721426E-01  0.10200325331E+01  0.10197525581E+01 0.  0.
     999903    2    3    3    0    0  0.34190712027E-01 -0.10961812254E+00  0.59227449617E-01  0.13052963592E+00  0.18573031169E-01 0.  0.
         14    1    1    2    0    0  0.24972602443E-02 -0.90485539657E-02 -0.21976721426E-01  0.23897466858E-01  0.00000000000E+00 0. -1.
     999901    1    3    3    0    0 -0.36687972272E-01  0.11866667650E+00 -0.37250728190E-01  0.88950289723E+00  0.88000000000E+00 0.  1.
        -11    1    4    4    0    0  0.16291713164E-01 -0.73357019359E-01  0.45368737781E-01  0.87779585872E-01  0.51100000000E-03 0. -1.
         11    1    4    4    0    0  0.17898998864E-01 -0.36261103178E-01  0.13858711836E-01  0.42750050044E-01  0.51100000000E-03 0.  1.
</event>
<event>
 8    1  0.1129602E+005  0.1043930E+01  0.7957747E-01            NaN
         13   -1    0    0    0    0  0.00000000000E+00  0.00000000000E+00  0.74505805969E-08  0.10566000000E+00  0.10566000000E+00 0.  1.
     999900   -1    0    0    0    0 -0.00000000000E+00 -0.00000000000E+00 -0.74505805969E-08  0.93827000000E+00  0.93827000000E+00 0. -1.
     999902    2    1    2    0    0 -0.46748584164E-02 -0.12875512178E-01 -0.19574560718E-01  0.10200386513E+01  0.10197588213E+01 0.  0.
     999903    2    3    3    0    0  0.47839024909E-01  0.11992282913E-01  0.11661519485E+00  0.12766890468E+00  0.16366380125E-01 0.  0.
         14    1    1    2    0    0  0.46748584164E-02  0.12875512178E-01  0.19574560718E-01  0.23891348692E-01  0.00000000000E+00 0.  1.
     999901    1    3    3    0    0 -0.52513883325E-01 -0.24867795091E-01 -0.13618975557E+00  0.89236974663E+00  0.88000000000E+00 0. -1.
        -11    1    4    4    0    0  0.25274354679E-01  0.49430993165E-02  0.40788816624E-01  0.48241226331E-01  0.51100000000E-03 0.  1.
         11    1    4    4    0    0  0.22564670229E-01  0.70491835969E-02  0.75826378226E-01  0.79427678349E-01  0.51100000000E-03 0. -1.
</event>
<event>
 8    1  0.1129602E+005  0.1043930E+01  0.7957747E-01            NaN
         13   -1    0    0    0    0  0.00000000000E+00  0.00000000000E+00  0.74505805969E-08  0.10566000000E+00  0.10566000000E+00 0. -1.
     999900   -1    0    0    0    0 -0.00000000000E+00 -0.00000000000E+00 -0.74505805969E-08  0.93827000000E+00  0.93827000000E+00 0.  1.
     999902    2    1    2    0    0  0.20370432248E-01  0.10952485301E-01  0.58865765423E-02  0.10200644762E+01  0.10197852579E+01 0.  0.
     999903    2    3    3    0    0 -0.11655555371E+00 -0.24345805749E-01  0.42484221289E-01  0.12802519308E+00  0.20189741080E-01 0.  0.
         14    1    1    2    0    0 -0.20370432248E-01 -0.10952485301E-01 -0.58865765423E-02  0.23865523829E-01  0.00000000000E+00 0. -1.
     999901    1    3    3    0    0  0.13692598596E+00  0.35298291050E-01 -0.36597644747E-01  0.89203928309E+00  0.88000000000E+00 0.  1.
        -11    1    4    4    0    0 -0.10671442710E+00 -0.23348566174E-01  0.44432595912E-01  0.11793066266E+00  0.51100000000E-03 0. -1.
         11    1    4    4    0    0 -0.98411266081E-02 -0.99723957475E-03 -0.19483746226E-02  0.10094530418E-01  0.51100000000E-03 0.  1.
</event>
<event>
 8    1  0.1129602E+005  0.1043930E+01  0.7957747E-01            NaN
         13   -1    0    0    0    0  0.00000000000E+00  0.00000000000E+00  0.74505805969E-08  0.10566000000E+00  0.10566000000E+00 0. -1.
     999900   -1    0    0    0    0 -0.00000000000E+00 -0.00000000000E+00 -0.74505805969E-08  0.93827000000E+00  0.93827000000E+00 0. -1.
     999902    2    1    2    0    0  0.13207464263E-01 -0.18581192959E-01 -0.40302777578E-02  0.10207796008E+01  0.10205170515E+01 0.  0.
     999903    2    3    3    0    0 -0.96418485951E-01 -0.31222832032E-01  0.78642296730E-01  0.13004259441E+00  0.21332506923E-01 0.  0.
         14    1    1    2    0    0 -0.13207464263E-01  0.18581192959E-01  0.40302777578E-02  0.23150399194E-01  0.00000000000E+00 0.  1.
     999901    1    3    3    0    0  0.10962595021E+00  0.12641639073E-01 -0.82672574488E-01  0.89073700640E+00  0.88000000000E+00 0. -1.
        -11    1    4    4    0    0 -0.56449432261E-01 -0.24007210982E-01  0.35893337559E-01  0.71073746094E-01  0.51100000000E-03 0.  1.
         11    1    4    4    0    0 -0.39969053690E-01 -0.72156210500E-02  0.42748959171E-01  0.58968848311E-01  0.51100000000E-03 0. -1.
</event>
<event>
 8    1  0.1129602E+005  0.1043930E+01  0.7957747E-01            NaN
         13   -1    0    0    0    0  0.00000000000E+00  0.00000000000E+00  0.74505805969E-08  0.10566000000E+00  0.10566000000E+00 0. -1.
     999900   -1    0    0    0    0 -0.00000000000E+00 -0.00000000000E+00 -0.74505805969E-08  0.93827000000E+00  0.93827000000E+00 0.  1.
     999902    2    1    2    0    0  0.20417826420E-01  0.32226400563E-02 -0.11506962018E-01  0.10202723750E+01  0.10199980569E+01 0.  0.
     999903    2    3    3    0    0  0.46006761392E-01  0.84520520914E-01  0.86353471154E-01  0.13075520071E+00  0.19484865458E-01 0.  0.
         14    1    1    2    0    0 -0.20417826420E-01 -0.32226400563E-02  0.11506962018E-01  0.23657624977E-01  0.00000000000E+00 0.  1.
     999901    1    3    3    0    0 -0.25588934972E-01 -0.81297880858E-01 -0.97860433172E-01  0.88951717432E+00  0.88000000000E+00 0.  1.
        -11    1    4    4    0    0  0.41577960351E-01  0.62480461812E-01  0.59821277691E-01  0.95975941156E-01  0.51100000000E-03 0.  1.
         11    1    4    4    0    0  0.44288010413E-02  0.22040059102E-01  0.26532193464E-01  0.34779259550E-01  0.51100000000E-03 0. -1.
</event>
<event>
 8    1  0.1129602E+005  0.1043930E+01  0.7957747E-01            NaN
         13   -1    0    0    0    0  0.00000000000E+00  0.00000000000E+00  0.74505805969E-08  0.10566000000E+00  0.10566000000E+00 0.  1.
     999900   -1    0    0    0    0 -0.00000000000E+00 -0.00000000000E+00 -0.74505805969E-08  0.93827000000E+00  0.93827000000E+00 0. -1.
     999902    2    1    2    0    0 -0.29858803282E-01  0.39158246289E-02 -0.21814158428E-01  0.10067447970E+01  0.10060578248E+01 0.  0.
     999903    2    3    3    0    0  0.68237599638E-01  0.74299364908E-01 -0.57321314229E-01  0.11779175822E+00  0.20307624397E-01 0.  0.
         14    1    1    2    0    0  0.29858803282E-01 -0.39158246289E-02  0.21814158428E-01  0.37185203023E-01  0.00000000000E+00 0.  1.
     999901    1    3    3    0    0 -0.98096402920E-01 -0.70383540279E-01  0.35507155801E-01  0.88895303876E+00  0.88000000000E+00 0.  1.
        -11    1    4    4    0    0  0.38287235272E-01  0.47941373298E-01 -0.44806817271E-01  0.75974993606E-01  0.51100000000E-03 0. -1.
         11    1    4    4    0    0  0.29950364366E-01  0.26357991610E-01 -0.12514496958E-01  0.41816764610E-01  0.51100000000E-03 0.  1.
</event>
<event>
 8    1  0.1129602E+005  0.1043930E+01  0.7957747E-01            NaN
         13   -1    0    0    0    0  0.00000000000E+00  0.00000000000E+00  0.74505805969E-08  0.10566000000E+00  0.10566000000E+00 0.  1.
     999900   -1    0    0    0    0 -0.00000000000E+00 -0.00000000000E+00 -0.74505805969E-08  0.93827000000E+00  0.93827000000E+00 0.  1.
     999902    2    1    2    0    0 -0.13087659730E-02  0.13925780135E-01 -0.19126477993E-01  0.10202348026E+01  0.10199596021E+01 0.  0.
     999903    2    3    3    0    0  0.32970830669E-01 -0.82757181245E-01  0.89419000787E-01  0.12765158139E+00  0.19061526899E-01 0.  0.
         14    1    1    2    0    0  0.13087659730E-02 -0.13925780135E-01  0.19126477993E-01  0.23695197428E-01  0.00000000000E+00 0.  1.
     999901    1    3    3    0    0 -0.34279596642E-01  0.96682961379E-01 -0.10854547878E+00  0.89258322118E+00  0.88000000000E+00 0. -1.
        -11    1    4    4    0    0  0.23574049738E-01 -0.35888980053E-01  0.47946957833E-01  0.64365569964E-01  0.51100000000E-03 0. -1.
         11    1    4    4    0    0  0.93967809314E-02 -0.46868201192E-01  0.41472042954E-01  0.63286011429E-01  0.51100000000E-03 0.  1.
</event>
<event>
 8    1  0.1129602E+005  0.1043930E+01  0.7957747E-01            NaN
         13   -1    0    0    0    0  0.00000000000E+00  0.00000000000E+00  0.74505805969E-08  0.10566000000E+00  0.10566000000E+00 0.  1.
     999900   -1    0    0    0    0 -0.00000000000E+00 -0.00000000000E+00 -0.74505805969E-08  0.93827000000E+00  0.93827000000E+00 0.  1.
     999902    2    1    2    0    0  0.21820005607E-01 -0.74110184043E-02 -0.40759243857E-02  0.10205280984E+01  0.10202597467E+01 0.  0.
     999903    2    3    3    0    0 -0.11466856761E+00  0.50777260015E-01  0.15187559070E-01  0.12789934682E+00  0.20009258722E-01 0.  0.
         14    1    1    2    0    0 -0.21820005607E-01  0.74110184043E-02  0.40759243857E-02  0.23401901591E-01  0.00000000000E+00 0. -1.
     999901    1    3    3    0    0  0.13648857322E+00 -0.58188278419E-01 -0.19263483456E-01  0.89262875159E+00  0.88000000000E+00 0. -1.
        -11    1    4    4    0    0 -0.34325412123E-01  0.13422017551E-01 -0.45023472117E-02  0.37133767975E-01  0.51100000000E-03 0.  1.
         11    1    4    4    0    0 -0.80343155487E-01  0.37355242464E-01  0.19689906282E-01  0.90765578848E-01  0.51100000000E-03 0. -1.
</event>
<event>
 8    1  0.1129602E+005  0.1043930E+01  0.7957747E-01            NaN
         13   -1    0    0    0    0  0.00000000000E+00  0.00000000000E+00  0.74505805969E-08  0.10566000000E+00  0.10566000000E+00 0.  1.
     999900   -1    0    0    0    0 -0.00000000000E+00 -0.00000000000E+00 -0.74505805969E-08  0.93827000000E+00  0.93827000000E+00 0.  1.
     999902    2    1    2    0    0 -0.22281798716E-01 -0.13347743565E-01 -0.52630355842E-02  0.10174282952E+01  0.10170830819E+01 0.  0.
     999903    2    3    3    0    0  0.54478540574E-01 -0.47136941336E-01  0.10233344981E+00  0.12691672133E+00  0.21116736984E-01 0.  0.
         14    1    1    2    0    0  0.22281798716E-01  0.13347743565E-01  0.52630355842E-02  0.26501704773E-01  0.00000000000E+00 0. -1.
     999901    1    3    3    0    0 -0.76760339290E-01  0.33789197771E-01 -0.10759648540E+00  0.89051157390E+00  0.88000000000E+00 0.  1.
        -11    1    4    4    0    0  0.42708212164E-02 -0.14634539545E-01  0.20163284031E-01  0.25282974617E-01  0.51100000000E-03 0.  1.
         11    1    4    4    0    0  0.50207719358E-01 -0.32502401791E-01  0.82170165783E-01  0.10163374671E+00  0.51100000000E-03 0. -1.
</event>
<event>
 7    1  0.1277861E+005  0.1043930E+01  0.7957747E-01            NaN
         13   -1    0    0    0    0  0.00000000000E+00  0.00000000000E+00  0.74505805969E-08  0.10566000000E+00  0.10566000000E+00 0.  1.
     999900   -1    0    0    0    0 -0.00000000000E+00 -0.00000000000E+00 -0.74505805969E-08  0.93827000000E+00  0.93827000000E+00 0. -1.
     999903    2    1    2    0    0  0.87850984622E-02  0.86915277966E-01  0.60224847545E-01  0.10814870615E+00  0.20920489520E-01 0.  0.
         14    1    1    2    0    0  0.36856881086E-01  0.10841859632E-01  0.23842939151E-01  0.45215720176E-01  0.00000000000E+00 0. -1.
     999901    1    1    2    0    0 -0.45641979549E-01 -0.97757137598E-01 -0.84067786696E-01  0.89056557367E+00  0.88000000000E+00 0.  1.
        -11    1    3    3    0    0  0.93436664700E-02  0.65118830972E-01  0.54931659883E-01  0.85705977788E-01  0.51100000000E-03 0. -1.
         11    1    3    3    0    0 -0.55856800780E-03  0.21796446994E-01  0.52931876628E-02  0.22442728364E-01  0.51100000000E-03 0.  1.
</event>
<event>
 8    1  0.1129602E+005  0.1043930E+01  0.7957747E-01            NaN
         13   -1    0    0    0    0  0.00000000000E+00  0.00000000000E+00  0.74505805969E-08  0.10566000000E+00  0.10566000000E+00 0.  1.
     999900   -1    0    0    0    0 -0.00000000000E+00 -0.00000000000E+00 -0.74505805969E-08  0.93827000000E+00  0.93827000000E+00 0. -1.
     999902    2    1    2    0    0  0.20949477043E-01 -0.72689798619E-02 -0.78230296929E-02  0.10204157820E+01  0.10201448180E+01 0.  0.
     999903    2    3    3    0    0  0.11970377097E+00  0.33588134607E-01  0.33664548841E-01  0.13297962451E+00  0.33062412418E-01 0.  0.
         14    1    1    2    0    0 -0.20949477043E-01  0.72689798619E-02  0.78230296929E-02  0.23514218043E-01  0.00000000000E+00 0. -1.
     999901    1    3    3    0    0 -0.98754293928E-01 -0.40857114469E-01 -0.41487578533E-01  0.88743615745E+00  0.88000000000E+00 0. -1.
        -11    1    4    4    0    0  0.57689053272E-01  0.82439728377E-02  0.30816494546E-01  0.65923496666E-01  0.51100000000E-03 0.  1.
         11    1    4    4    0    0  0.62014717699E-01  0.25344161770E-01  0.28480542949E-02  0.67056127843E-01  0.51100000000E-03 0. -1.
</event>
<event>
 8    1  0.1129602E+005  0.1043930E+01  0.7957747E-01            NaN
         13   -1    0    0    0    0  0.00000000000E+00  0.00000000000E+00  0.74505805969E-08  0.10566000000E+00  0.10566000000E+00 0. -1.
     999900   -1    0    0    0    0 -0.00000000000E+00 -0.00000000000E+00 -0.74505805969E-08  0.93827000000E+00  0.93827000000E+00 0.  1.
     999902    2    1    2    0    0  0.13214876757E-01 -0.17789108433E-01 -0.74792106345E-02  0.10205414571E+01  0.10202734152E+01 0.  0.
     999903    2    3    3    0    0  0.16834340302E-01 -0.53340837542E-03  0.12741203381E+00  0.13008847827E+00  0.20137186526E-01 0.  0.
         14    1    1    2    0    0 -0.13214876757E-01  0.17789108433E-01  0.74792106345E-02  0.23388542885E-01  0.00000000000E+00 0. -1.
     999901    1    3    3    0    0 -0.36194635448E-02 -0.17255700058E-01 -0.13489124445E+00  0.89045297884E+00  0.88000000000E+00 0.  1.
        -11    1    4    4    0    0  0.20606245696E-01  0.32168155857E-02  0.98166083163E-01  0.10035838913E+00  0.51100000000E-03 0. -1.
         11    1    4    4    0    0 -0.37719053934E-02 -0.37502239611E-02  0.29245950649E-01  0.29730089142E-01  0.51100000000E-03 0.  1.
</event>
<event>
 8    1  0.1129602E+005  0.1043930E+01  0.7957747E-01            NaN
         13   -1    0    0    0    0  0.00000000000E+00  0.00000000000E+00  0.74505805969E-08  0.10566000000E+00  0.10566000000E+00 0.  1.
     999900   -1    0    0    0    0 -0.00000000000E+00 -0.00000000000E+00 -0.74505805969E-08  0.93827000000E+00  0.93827000000E+00 0. -1.
     999902    2    1    2    0    0  0.19173386122E-01  0.49574827157E-02 -0.12780644470E-01  0.10203600988E+01  0.10200878349E+01 0.  0.
     999903    2    3    3    0    0  0.19793591185E-01 -0.96377690374E-01  0.81819544932E-01  0.12950747472E+00  0.19932451496E-01 0.  0.
         14    1    1    2    0    0 -0.19173386122E-01 -0.49574827157E-02  0.12780644470E-01  0.23569901216E-01  0.00000000000E+00 0.  1.
     999901    1    3    3    0    0 -0.62020506302E-03  0.10133517309E+00 -0.94600189402E-01  0.89085262406E+00  0.88000000000E+00 0. -1.
        -11    1    4    4    0    0  0.20198340950E-01 -0.73238184099E-01  0.53451187731E-01  0.92892923187E-01  0.51100000000E-03 0.  1.
         11    1    4    4    0    0 -0.40474976502E-03 -0.23139506275E-01  0.28368357201E-01  0.36614551538E-01  0.51100000000E-03 0. -1.
</event>
<event>
 8    1  0.1129602E+005  0.1043930E+01  0.7957747E-01            NaN
         13   -1    0    0    0    0  0.00000000000E+00  0.00000000000E+00  0.74505805969E-08  0.10566000000E+00  0.10566000000E+00 0. -1.
     999900   -1    0    0    0    0 -0.00000000000E+00 -0.00000000000E+00 -0.74505805969E-08  0.93827000000E+00  0.93827000000E+00 0.  1.
     999902    2    1    2    0    0  0.16820978124E-01  0.52959075365E-03 -0.18148513594E-01  0.10191793572E+01  0.10188787798E+01 0.  0.
     999903    2    3    3    0    0 -0.77819144237E-01 -0.97643201386E-01  0.99638540803E-02  0.12823325612E+00  0.27467719261E-01 0.  0.
         14    1    1    2    0    0 -0.16820978124E-01 -0.52959075365E-03  0.18148513594E-01  0.24750642761E-01  0.00000000000E+00 0. -1.
     999901    1    3    3    0    0  0.94640122360E-01  0.98172792139E-01 -0.28112367674E-01  0.89094610112E+00  0.88000000000E+00 0.  1.
        -11    1    4    4    0    0 -0.60100159868E-01 -0.87646022945E-01  0.17530785470E-02  0.10628823528E+00  0.51100000000E-03 0. -1.
         11    1    4    4    0    0 -0.17718984369E-01 -0.99971784402E-02  0.82107755333E-02  0.21945020840E-01  0.51100000000E-03 0.  1.
</event>
<event>
 8    1  0.1129602E+005  0.1043930E+01  0.7957747E-01            NaN
         13   -1    0    0    0    0  0.00000000000E+00  0.00000000000E+00  0.74505805969E-08  0.10566000000E+00  0.10566000000E+00 0. -1.
     999900   -1    0    0    0    0 -0.00000000000E+00 -0.00000000000E+00 -0.74505805969E-08  0.93827000000E+00  0.93827000000E+00 0. -1.
     999902    2    1    2    0    0 -0.12948061872E-02  0.12051436465E-01  0.19928108307E-01  0.10206052675E+01  0.10203387031E+01 0.  0.
     999903    2    3    3    0    0 -0.25980285312E-01  0.12614057784E+00  0.25889558515E-01  0.13287713125E+00  0.19991052149E-01 0.  0.
         14    1    1    2    0    0  0.12948061872E-02 -0.12051436465E-01 -0.19928108307E-01  0.23324732466E-01  0.00000000000E+00 0.  1.
     999901    1    3    3    0    0  0.24685479125E-01 -0.11408914138E+00 -0.59614502079E-02  0.88772813628E+00  0.88000000000E+00 0.  1.
        -11    1    4    4    0    0 -0.18663060634E-01  0.43955682381E-01  0.75096863810E-02  0.48343234856E-01  0.51100000000E-03 0.  1.
         11    1    4    4    0    0 -0.73172246780E-02  0.82184895462E-01  0.18379872134E-01  0.84533896395E-01  0.51100000000E-03 0. -1.
</event>
<event>
 8    1  0.1129602E+005  0.1043930E+01  0.7957747E-01            NaN
         13   -1    0    0    0    0  0.00000000000E+00  0.00000000000E+00  0.74505805969E-08  0.10566000000E+00  0.10566000000E+00 0.  1.
     999900   -1    0    0    0    0 -0.00000000000E+00 -0.00000000000E+00 -0.74505805969E-08  0.93827000000E+00  0.93827000000E+00 0. -1.
     999902    2    1    2    0    0  0.45223385488E-02  0.21479338130E-01  0.87916770649E-02  0.10202845544E+01  0.10200105219E+01 0.  0.
     999903    2    3    3    0    0  0.10506668405E+00  0.25596227147E-02 -0.74843685939E-01  0.13041827512E+00  0.19020762168E-01 0.  0.
         14    1    1    2    0    0 -0.45223385488E-02 -0.21479338130E-01 -0.87916770649E-02  0.23645445610E-01  0.00000000000E+00 0. -1.
     999901    1    3    3    0    0 -0.10054434550E+00  0.18919715416E-01  0.83635363004E-01  0.88986627927E+00  0.88000000000E+00 0.  1.
        -11    1    4    4    0    0  0.43650316163E-01  0.75317779407E-02 -0.39681145260E-01  0.59472112710E-01  0.51100000000E-03 0. -1.
         11    1    4    4    0    0  0.61416367888E-01 -0.49721552260E-02 -0.35162540680E-01  0.70946162407E-01  0.51100000000E-03 0.  1.
</event>
<event>
 8    1  0.1129602E+005  0.1043930E+01  0.7957747E-01            NaN
         13   -1    0    0    0    0  0.00000000000E+00  0.00000000000E+00  0.74505805969E-08  0.10566000000E+00  0.10566000000E+00 0.  1.
     999900   -1    0    0    0    0 -0.00000000000E+00 -0.00000000000E+00 -0.74505805969E-08  0.93827000000E+00  0.93827000000E+00 0.  1.
     999902    2    1    2    0    0  0.12101878722E-01  0.40828614214E-02  0.19722421106E-01  0.10204332104E+01  0.10201626526E+01 0.  0.
     999903    2    3    3    0    0 -0.76582659686E-01 -0.10129065238E+00 -0.11258599833E-01  0.12918220851E+00  0.20894662009E-01 0.  0.
         14    1    1    2    0    0 -0.12101878722E-01 -0.40828614214E-02 -0.19722421106E-01  0.23496789574E-01  0.00000000000E+00 0. -1.
     999901    1    3    3    0    0  0.88684538408E-01  0.10537351380E+00  0.30981020939E-01  0.89125100192E+00  0.88000000000E+00 0. -1.
        -11    1    4    4    0    0 -0.55107471748E-01 -0.61477830821E-01 -0.14506110017E-01  0.83827474456E-01  0.51100000000E-03 0. -1.
         11    1    4    4    0    0 -0.21475187939E-01 -0.39812821559E-01  0.32475101835E-02  0.45354734051E-01  0.51100000000E-03 0.  1.
</event>
<event>
 7    1  0.1129602E+005  0.1043930E+01  0.7957747E-01            NaN
         13   -1    0    0    0    0  0.00000000000E+00  0.00000000000E+00  0.74505805969E-08  0.10566000000E+00  0.10566000000E+00 0. -1.
     999900   -1    0    0    0    0 -0.00000000000E+00 -0.00000000000E+00 -0.74505805969E-08  0.93827000000E+00  0.93827000000E+00 0. -1.
     999903    2    1    2    0    0 -0.51925622927E-01 -0.26371936852E-01  0.93387700742E-01  0.11193311126E+00  0.20396307923E-01 0.  0.
         14    1    1    2    0    0  0.43444003790E-01 -0.47184289968E-02  0.11486700196E-01  0.45183949793E-01  0.00000000000E+00 0. -1.
     999901    1    1    2    0    0  0.84816191366E-02  0.31090365849E-01 -0.10487440094E+00  0.88681293895E+00  0.88000000000E+00 0. -1.
        -11    1    3    3    0    0  0.68818956918E-03  0.18799648373E-03  0.87570422939E-02  0.88009009935E-02  0.51100000000E-03 0.  1.
         11    1    3    3    0    0 -0.52613812496E-01 -0.26559933336E-01  0.84630658448E-01  0.10313221027E+00  0.51100000000E-03 0. -1.
</event>
<event>
 8    1  0.1129602E+005  0.1043930E+01  0.7957747E-01            NaN
         13   -1    0    0    0    0  0.00000000000E+00  0.00000000000E+00  0.74505805969E-08  0.10566000000E+00  0.10566000000E+00 0. -1.
     999900   -1    0    0    0    0 -0.00000000000E+00 -0.00000000000E+00 -0.74505805969E-08  0.93827000000E+00  0.93827000000E+00 0. -1.
     999902    2    1    2    0    0 -0.12330034233E-01 -0.16981610381E-01 -0.31206365078E-02  0.10227134214E+01  0.10224933247E+01 0.  0.
     999903    2    3    3    0    0  0.33781100226E-01 -0.18682806795E-01  0.12491922812E+00  0.13225099225E+00  0.19882187896E-01 0.  0.
         14    1    1    2    0    0  0.12330034233E-01  0.16981610381E-01  0.31206365078E-02  0.21216578601E-01  0.00000000000E+00 0.  1.
     999901    1    3    3    0    0 -0.46111134459E-01  0.17011964138E-02 -0.12803986463E+00  0.89046242915E+00  0.88000000000E+00 0. -1.
        -11    1    4    4    0    0  0.34823999827E-01 -0.16737360429E-01  0.99636467157E-01  0.10686691212E+00  0.51100000000E-03 0.  1.
         11    1    4    4    0    0 -0.10428996013E-02 -0.19454463655E-02  0.25282760962E-01  0.25384080129E-01  0.51100000000E-03 0. -1.
</event>
<event>
 8    1  0.1129602E+005  0.1043930E+01  0.7957747E-01            NaN
         13   -1    0    0    0    0  0.00000000000E+00  0.00000000000E+00  0.74505805969E-08  0.10566000000E+00  0.10566000000E+00 0.  1.
     999900   -1    0    0    0    0 -0.00000000000E+00 -0.00000000000E+00 -0.74505805969E-08  0.93827000000E+00  0.93827000000E+00 0.  1.
     999902    2    1    2    0    0  0.20762305594E-01 -0.39014682390E-02  0.38402708761E-02  0.10224581005E+01  0.10222326178E+01 0.  0.
     999903    2    3    3    0    0  0.98095331492E-01 -0.59226503457E-01  0.68551837353E-01  0.13497354105E+00  0.19698467115E-01 0.  0.
         14    1    1    2    0    0 -0.20762305594E-01  0.39014682390E-02 -0.38402708761E-02  0.21471899506E-01  0.00000000000E+00 0. -1.
     999901    1    3    3    0    0 -0.77333025898E-01  0.55325035218E-01 -0.64711566477E-01  0.88748455944E+00  0.88000000000E+00 0.  1.
        -11    1    4    4    0    0  0.27942182643E-01 -0.27472743034E-01  0.20866811460E-01  0.44398222061E-01  0.51100000000E-03 0. -1.
         11    1    4    4    0    0  0.70153148849E-01 -0.31753760423E-01  0.47685025893E-01  0.90575318989E-01  0.51100000000E-03 0.  1.
</event>
<event>
 8    1  0.1129602E+005  0.1043930E+01  0.7957747E-01            NaN
         13   -1    0    0    0    0  0.00000000000E+00  0.00000000000E+00  0.74505805969E-08  0.10566000000E+00  0.10566000000E+00 0. -1.
     999900   -1    0    0    0    0 -0.00000000000E+00 -0.00000000000E+00 -0.74505805969E-08  0.93827000000E+00  0.93827000000E+00 0.  1.
     999902    2    1    2    0    0 -0.66793527976E-02 -0.20072552145E-02 -0.19785103391E-01  0.10229516029E+01  0.10227364708E+01 0.  0.
     999903    2    3    3    0    0  0.12029833485E+00 -0.14231057561E-02 -0.53589932659E-01  0.13319520882E+00  0.19883867135E-01 0.  0.
         14    1    1    2    0    0  0.66793527976E-02  0.20072552145E-02  0.19785103391E-01  0.20978397066E-01  0.00000000000E+00 0. -1.
     999901    1    3    3    0    0 -0.12697768764E+00 -0.58414945840E-03  0.33804829269E-01  0.88975639412E+00  0.88000000000E+00 0. -1.
        -11    1    4    4    0    0  0.31835989907E-01 -0.54415040195E-02 -0.66892489904E-02  0.32987079174E-01  0.51100000000E-03 0. -1.
         11    1    4    4    0    0  0.88462344940E-01  0.40183982634E-02 -0.46900683669E-01  0.10020812964E+00  0.51100000000E-03 0.  1.
</event>
<event>
 8    1  0.1129602E+005  0.1043930E+01  0.7957747E-01            NaN
         13   -1    0    0    0    0  0.00000000000E+00  0.00000000000E+00  0.74505805969E-08  0.10566000000E+00  0.10566000000E+00 0.  1.
     999900   -1    0    0    0    0 -0.00000000000E+00 -0.00000000000E+00 -0.74505805969E-08  0.93827000000E+00  0.93827000000E+00 0.  1.
     999902    2    1    2    0    0  0.20704449545E-01 -0.88379753173E-03  0.11987084886E-01  0.10199895419E+01  0.10197085466E+01 0.  0.
     999903    2    3    3    0    0 -0.12357100348E+00  0.26038719982E-01  0.60851990953E-03  0.12776216057E+00  0.19364698179E-01 0.  0.
         14    1    1    2    0    0 -0.20704449545E-01  0.88379753173E-03 -0.11987084886E-01  0.23940458080E-01  0.00000000000E+00 0. -1.
     999901    1    3    3    0    0  0.14427545303E+00 -0.26922517514E-01  0.11378564976E-01  0.89222738135E+00  0.88000000000E+00 0.  1.
        -11    1    4    4    0    0 -0.11572623533E+00  0.28165610495E-01 -0.22621695805E-02  0.11912699816E+00  0.51100000000E-03 0.  1.
         11    1    4    4    0    0 -0.78447681581E-02 -0.21268905127E-02  0.28706894900E-02  0.86351624105E-02  0.51100000000E-03 0. -1.
</event>
<event>
 8    1  0.1129602E+005  0.1043930E+01  0.7957747E-01            NaN
         13   -1    0    0    0    0  0.00000000000E+00  0.00000000000E+00  0.74505805969E-08  0.10566000000E+00  0.10566000000E+00 0. -1.
     999900   -1    0    0    0    0 -0.00000000000E+00 -0.00000000000E+00 -0.74505805969E-08  0.93827000000E+00  0.93827000000E+00 0.  1.
     999902    2    1    2    0    0  0.19844537348E-01 -0.62797496538E-02  0.13113418161E-01  0.10193291331E+01  0.10190322266E+01 0.  0.
     999903    2    3    3    0    0  0.30375568516E-01  0.10977524666E+00  0.60097715509E-01  0.13040439554E+00  0.20501000563E-01 0.  0.
         14    1    1    2    0    0 -0.19844537348E-01  0.62797496538E-02 -0.13113418161E-01  0.24600866939E-01  0.00000000000E+00 0.  1.
     999901    1    3    3    0    0 -0.10531031169E-01 -0.11605499631E+00 -0.46984297348E-01  0.88892473752E+00  0.88000000000E+00 0. -1.
        -11    1    4    4    0    0  0.25996744408E-01  0.69642891725E-01  0.47040263420E-01  0.87971646519E-01  0.51100000000E-03 0. -1.
         11    1    4    4    0    0  0.43788241082E-02  0.40132354934E-01  0.13057452089E-01  0.42432749018E-01  0.51100000000E-03 0.  1.
</event>
<event>
 8    1  0.1129602E+005  0.1043930E+01  0.7957747E-01            NaN
         13   -1    0    0    0    0  0.00000000000E+00  0.00000000000E+00  0.74505805969E-08  0.10566000000E+00  0.10566000000E+00 0.  1.
     999900   -1    0    0    0    0 -0.00000000000E+00 -0.00000000000E+00 -0.74505805969E-08  0.93827000000E+00  0.93827000000E+00 0. -1.
     999902    2    1    2    0    0  0.21741770722E-01 -0.50438530607E-02  0.77249273662E-02  0.10203117962E+01  0.10200384022E+01 0.  0.
     999903    2    3    3    0    0  0.69965149027E-02  0.12832148631E+00 -0.15557884360E-02  0.13009279618E+00  0.20158374711E-01 0.  0.
         14    1    1    2    0    0 -0.21741770722E-01  0.50438530607E-02 -0.77249273662E-02  0.23618203798E-01  0.00000000000E+00 0. -1.
     999901    1    3    3    0    0  0.14745255819E-01 -0.13336533937E+00  0.92807158021E-02  0.89021900002E+00  0.88000000000E+00 0. -1.
        -11    1    4    4    0    0  0.10190145846E-01  0.83559219134E-01 -0.87786425394E-02  0.84636327074E-01  0.51100000000E-03 0.  1.
         11    1    4    4    0    0 -0.31936309436E-02  0.44762267174E-01  0.72228541034E-02  0.45456469106E-01  0.51100000000E-03 0. -1.
</event>
<event>
 8    1  0.1129602E+005  0.1043930E+01  0.7957747E-01            NaN
         13   -1    0    0    0    0  0.00000000000E+00  0.00000000000E+00  0.74505805969E-08  0.10566000000E+00  0.10566000000E+00 0. -1.
     999900   -1    0    0    0    0 -0.00000000000E+00 -0.00000000000E+00 -0.74505805969E-08  0.93827000000E+00  0.93827000000E+00 0.  1.
     999902    2    1    2    0    0  0.13715906512E-01 -0.10328459964E-01  0.16043646104E-01  0.10204310265E+01  0.10201604178E+01 0.  0.
     999903    2    3    3    0    0 -0.12530600036E+00  0.20922768430E-01  0.98227835231E-02  0.12894775181E+00  0.19790898284E-01 0.  0.
         14    1    1    2    0    0 -0.13715906512E-01  0.10328459964E-01 -0.16043646104E-01  0.23498973530E-01  0.00000000000E+00 0.  1.
     999901    1    3    3    0    0  0.13902190688E+00 -0.31251228393E-01  0.62208625808E-02  0.89148327466E+00  0.88000000000E+00 0.  1.
        -11    1    4    4    0    0 -0.25521357144E-01  0.39739147104E-03 -0.49564432491E-02  0.26006250040E-01  0.51100000000E-03 0. -1.
         11    1    4    4    0    0 -0.99784643218E-01  0.20525376958E-01  0.14779226772E-01  0.10294150177E+00  0.51100000000E-03 0.  1.
</event>
<event>
 8    1  0.1129602E+005  0.1043930E+01  0.7957747E-01            NaN
         13   -1    0    0    0    0  0.00000000000E+00  0.00000000000E+00  0.74505805969E-08  0.10566000000E+00  0.10566000000E+00 0.  1.
     999900   -1    0    0    0    0 -0.00000000000E+00 -0.00000000000E+00 -0.74505805969E-08  0.93827000000E+00  0.93827000000E+00 0. -1.
     999902    2    1    2    0    0  0.19688371519E-01 -0.11800879394E-01  0.79419372369E-02  0.10196407618E+01  0.10193514193E+01 0.  0.
     999903    2    3    3    0    0  0.25599652479E-01  0.12487280570E+00  0.33695339479E-02  0.12905918418E+00  0.19908778246E-01 0.  0.
         14    1    1    2    0    0 -0.19688371519E-01  0.11800879394E-01 -0.79419372369E-02  0.24289238247E-01  0.00000000000E+00 0. -1.
     999901    1    3    3    0    0 -0.59112809599E-02 -0.13667368510E+00  0.45724032889E-02  0.89058157757E+00  0.88000000000E+00 0. -1.
        -11    1    4    4    0    0  0.64787611356E-02  0.47022996790E-01  0.10368124579E-01  0.48589049191E-01  0.51100000000E-03 0.  1.
         11    1    4    4    0    0  0.19120891343E-01  0.77849808912E-01 -0.69985906309E-02  0.80470134990E-01  0.51100000000E-03 0. -1.
</event>
<event>
 8    1  0.1129602E+005  0.1043930E+01  0.7957747E-01            NaN
         13   -1    0    0    0    0  0.00000000000E+00  0.00000000000E+00  0.74505805969E-08  0.10566000000E+00  0.10566000000E+00 0.  1.
     999900   -1    0    0    0    0 -0.00000000000E+00 -0.00000000000E+00 -0.74505805969E-08  0.93827000000E+00  0.93827000000E+00 0.  1.
     999902    2    1    2    0    0  0.12065244869E-01  0.23126878202E-01 -0.82535144440E-02  0.10165704837E+01  0.10162022463E+01 0.  0.
     999903    2    3    3    0    0  0.10724793188E+00  0.45132485921E-01 -0.55200145852E-01  0.12992062225E+00  0.17124596514E-01 0.  0.
         14    1    1    2    0    0 -0.12065244869E-01 -0.23126878202E-01  0.82535144440E-02  0.27359516256E-01  0.00000000000E+00 0.  1.
     999901    1    3    3    0    0 -0.95182687016E-01 -0.22005607719E-01  0.46946631408E-01  0.88664986149E+00  0.88000000000E+00 0.  1.
        -11    1    4    4    0    0  0.54479762796E-01  0.30687201867E-01 -0.24300424248E-01  0.67085919927E-01  0.51100000000E-03 0. -1.
         11    1    4    4    0    0  0.52768169089E-01  0.14445284054E-01 -0.30899721604E-01  0.62834702327E-01  0.51100000000E-03 0.  1.
</event>
<event>
 8    1  0.1129602E+005  0.1043930E+01  0.7957747E-01            NaN
         13   -1    0    0    0    0  0.00000000000E+00  0.00000000000E+00  0.74505805969E-08  0.10566000000E+00  0.10566000000E+00 0.  1.
     999900   -1    0    0    0    0 -0.00000000000E+00 -0.00000000000E+00 -0.74505805969E-08  0.93827000000E+00  0.93827000000E+00 0.  1.
     999902    2    1    2    0    0  0.10703483028E-01  0.90599871563E-02 -0.19646122524E-01  0.10197925178E+01  0.10195068226E+01 0.  0.
     999903    2    3    3    0    0  0.17828948163E-02 -0.11032832398E+00 -0.66786156006E-01  0.13043582419E+00  0.19431824714E-01 0.  0.
         14    1    1    2    0    0 -0.10703483028E-01 -0.90599871563E-02  0.19646122524E-01  0.24137482190E-01  0.00000000000E+00 0.  1.
     999901    1    3    3    0    0  0.89205882121E-02  0.11938831114E+00  0.47140033482E-01  0.88935669362E+00  0.88000000000E+00 0.  1.
        -11    1    4    4    0    0 -0.29547301642E-02 -0.10356575353E+00 -0.59944079129E-01  0.11970024845E+00  0.51100000000E-03 0. -1.
         11    1    4    4    0    0  0.47376249806E-02 -0.67625704527E-02 -0.68420768768E-02  0.10735575745E-01  0.51100000000E-03 0.  1.
</event>
<event>
 8    1  0.1129602E+005  0.1043930E+01  0.7957747E-01            NaN
         13   -1    0    0    0    0  0.00000000000E+00  0.00000000000E+00  0.74505805969E-08  0.10566000000E+00  0.10566000000E+00 0. -1.
     999900   -1    0    0    0    0 -0.00000000000E+00 -0.00000000000E+00 -0.74505805969E-08  0.93827000000E+00  0.93827000000E+00 0.  1.
     999902    2    1    2    0    0  0.13852976673E-01  0.48359240066E-02 -0.18503460535E-01  0.10203149799E+01  0.10200416604E+01 0.  0.
     999903    2    3    3    0    0  0.64348411286E-01  0.78918915879E-01 -0.83641490202E-01  0.13336456327E+00  0.20525460663E-01 0.  0.
         14    1    1    2    0    0 -0.13852976673E-01 -0.48359240066E-02  0.18503460535E-01  0.23615020124E-01  0.00000000000E+00 0. -1.
     999901    1    3    3    0    0 -0.50495434613E-01 -0.74082991872E-01  0.65138029668E-01  0.88695041660E+00  0.88000000000E+00 0. -1.
        -11    1    4    4    0    0  0.28915220042E-01  0.49140110225E-01 -0.39179698068E-01  0.69182008099E-01  0.51100000000E-03 0. -1.
         11    1    4    4    0    0  0.35433191244E-01  0.29778805654E-01 -0.44461792135E-01  0.64182555175E-01  0.51100000000E-03 0.  1.
</event>
<event>
 8    1  0.1129602E+005  0.1043930E+01  0.7957747E-01            NaN
         13   -1    0    0    0    0  0.00000000000E+00  0.00000000000E+00  0.74505805969E-08  0.10566000000E+00  0.10566000000E+00 0. -1.
     999900   -1    0    0    0    0 -0.00000000000E+00 -0.00000000000E+00 -0.74505805969E-08  0.93827000000E+00  0.93827000000E+00 0.  1.
     999902    2    1    2    0    0 -0.30658466032E-01  0.37656884027E-02 -0.17540904688E-01  0.10084081013E+01  0.10077822649E+01 0.  0.
     999903    2    3    3    0    0  0.25949235173E-01 -0.64393936605E-01 -0.96411836387E-01  0.12044932402E+00  0.19820584851E-01 0.  0.
         14    1    1    2    0    0  0.30658466032E-01 -0.37656884027E-02  0.17540904688E-01  0.35521898680E-01  0.00000000000E+00 0.  1.
     999901    1    3    3    0    0 -0.56607701204E-01  0.68159625008E-01  0.78870931699E-01  0.88795877730E+00  0.88000000000E+00 0. -1.
        -11    1    4    4    0    0  0.27028151872E-01 -0.45104472237E-01 -0.65551868172E-01  0.84037152208E-01  0.51100000000E-03 0.  1.
         11    1    4    4    0    0 -0.10789166990E-02 -0.19289464368E-01 -0.30859968215E-01  0.36412171812E-01  0.51100000000E-03 0. -1.
</event>
<event>
 8    1  0.1129602E+005  0.1043930E+01  0.7957747E-01            NaN
         13   -1    0    0    0    0  0.00000000000E+00  0.00000000000E+00  0.74505805969E-08  0.10566000000E+00  0.10566000000E+00 0. -1.
     999900   -1    0    0    0    0 -0.00000000000E+00 -0.00000000000E+00 -0.74505805969E-08  0.93827000000E+00  0.93827000000E+00 0. -1.
     999902    2    1    2    0    0 -0.11736529328E-01 -0.15616656693E-01 -0.13342540922E-01  0.10202730880E+01  0.10199987866E+01 0.  0.
     999903    2    3    3    0    0 -0.64875031895E-01 -0.48182633616E-01 -0.10331504975E+00  0.13349279072E+00  0.24819140253E-01 0.  0.
         14    1    1    2    0    0  0.11736529328E-01  0.15616656693E-01  0.13342540922E-01  0.23656911996E-01  0.00000000000E+00 0.  1.
     999901    1    3    3    0    0  0.53138502567E-01  0.32565976923E-01  0.89972508831E-01  0.88678029729E+00  0.88000000000E+00 0.  1.
        -11    1    4    4    0    0 -0.23705311939E-01 -0.71341769516E-02 -0.19650402370E-01  0.31610721744E-01  0.51100000000E-03 0. -1.
         11    1    4    4    0    0 -0.41169719956E-01 -0.41048456665E-01 -0.83664647383E-01  0.10188206897E+00  0.51100000000E-03 0.  1.
</event>
<event>
 8    1  0.1129602E+005  0.1043930E+01  0.7957747E-01            NaN
         13   -1    0    0    0    0  0.00000000000E+00  0.00000000000E+00  0.74505805969E-08  0.10566000000E+00  0.10566000000E+00 0. -1.
     999900   -1    0    0    0    0 -0.00000000000E+00 -0.00000000000E+00 -0.74505805969E-08  0.93827000000E+00  0.93827000000E+00 0.  1.
     999902    2    1    2    0    0 -0.88523073001E-02 -0.39509325266E-03 -0.21642154334E-01  0.10205440579E+01  0.10202760763E+01 0.  0.
     999903    2    3    3    0    0 -0.82497370919E-01 -0.10032857599E+00 -0.16562895896E-01  0.13181682460E+00  0.15156066668E-01 0.  0.
         14    1    1    2    0    0  0.88523073001E-02  0.39509325266E-03  0.21642154334E-01  0.23385942090E-01  0.00000000000E+00 0. -1.
     999901    1    3    3    0    0  0.73645063619E-01  0.99933482740E-01 -0.50792584384E-02  0.88872723331E+00  0.88000000000E+00 0. -1.
        -11    1    4    4    0    0 -0.95528806086E-02 -0.51805855223E-02 -0.14062885110E-02  0.10969720263E-01  0.51100000000E-03 0.  1.
         11    1    4    4    0    0 -0.72944490311E-01 -0.95147990470E-01 -0.15156607384E-01  0.12084710433E+00  0.51100000000E-03 0. -1.
</event>
<event>
 8    1  0.1129602E+005  0.1043930E+01  0.7957747E-01            NaN
         13   -1    0    0    0    0  0.00000000000E+00  0.00000000000E+00  0.74505805969E-08  0.10566000000E+00  0.10566000000E+00 0. -1.
     999900   -1    0    0    0    0 -0.00000000000E+00 -0.00000000000E+00 -0.74505805969E-08  0.93827000000E+00  0.93827000000E+00 0. -1.
     999902    2    1    2    0    0 -0.18517278886E-01  0.52667312676E-02  0.13381732802E-01  0.10204843427E+01  0.10202149748E+01 0.  0.
     999903    2    3    3    0    0 -0.89947077603E-01  0.11070434389E-01  0.96069477829E-01  0.13370750359E+00  0.20864339440E-01 0.  0.
         14    1    1    2    0    0  0.18517278886E-01 -0.52667312676E-02 -0.13381732802E-01  0.23445657346E-01  0.00000000000E+00 0.  1.
     999901    1    3    3    0    0  0.71429798717E-01 -0.58037031216E-02 -0.82687745027E-01  0.88677683906E+00  0.88000000000E+00 0.  1.
        -11    1    4    4    0    0 -0.76663439573E-01  0.20880793227E-02  0.83056257369E-01  0.11304975034E+00  0.51100000000E-03 0.  1.
         11    1    4    4    0    0 -0.13283638030E-01  0.89823550665E-02  0.13013220460E-01  0.20657753256E-01  0.51100000000E-03 0. -1.
</event>
<event>
 8    1  0.1129602E+005  0.1043930E+01  0.7957747E-01            NaN
         13   -1    0    0    0    0  0.00000000000E+00  0.00000000000E+00  0.74505805969E-08  0.10566000000E+00  0.10566000000E+00 0. -1.
     999900   -1    0    0    0    0 -0.00000000000E+00 -0.00000000000E+00 -0.74505805969E-08  0.93827000000E+00  0.93827000000E+00 0. -1.
     999902    2    1    2    0    0  0.59526479292E-02  0.30816745955E-01  0.73528487844E-02  0.10116938366E+01  0.10111801267E+01 0.  0.
     999903    2    3    3    0    0  0.10546001376E+00 -0.42172088858E-01  0.41764683573E-01  0.12241701787E+00  0.18475331940E-01 0.  0.
         14    1    1    2    0    0 -0.59526479292E-02 -0.30816745955E-01 -0.73528487844E-02  0.32236163449E-01  0.00000000000E+00 0.  1.
     999901    1    3    3    0    0 -0.99507365832E-01  0.72988834813E-01 -0.34411834788E-01  0.88927681868E+00  0.88000000000E+00 0. -1.
        -11    1    4    4    0    0  0.57034183343E-01 -0.26684890963E-01  0.32032707433E-01  0.70649394490E-01  0.51100000000E-03 0.  1.
         11    1    4    4    0    0  0.48425830418E-01 -0.15487197895E-01  0.97319761398E-02  0.51767623385E-01  0.51100000000E-03 0. -1.
</event>
<event>
 8    1  0.1129602E+005  0.1043930E+01  0.7957747E-01            NaN
         13   -1    0    0    0    0  0.00000000000E+00  0.00000000000E+00  0.74505805969E-08  0.10566000000E+00  0.10566000000E+00 0.  1.
     999900   -1    0    0    0    0 -0.00000000000E+00 -0.00000000000E+00 -0.74505805969E-08  0.93827000000E+00  0.93827000000E+00 0.  1.
     999902    2    1    2    0    0  0.21317500882E-01  0.46336845064E-02 -0.81890819344E-02  0.10206283276E+01  0.10203622960E+01 0.  0.
     999903    2    3    3    0    0 -0.12417031628E+00  0.15178071815E-03  0.23216157708E-01  0.12811889820E+00  0.21381571823E-01 0.  0.
         14    1    1    2    0    0 -0.21317500882E-01 -0.46336845064E-02  0.81890819344E-02  0.23301672448E-01  0.00000000000E+00 0.  1.
     999901    1    3    3    0    0  0.14548781717E+00  0.44819037882E-02 -0.31405239643E-01  0.89250942935E+00  0.88000000000E+00 0. -1.
        -11    1    4    4    0    0 -0.41683035577E-01 -0.96156934194E-02  0.10880911847E-01  0.44142863279E-01  0.51100000000E-03 0. -1.
         11    1    4    4    0    0 -0.82487280707E-01  0.97674741375E-02  0.12335245861E-01  0.83976034920E-01  0.51100000000E-03 0.  1.
</event>
<event>
 8    1  0.1129602E+005  0.1043930E+01  0.7957747E-01            NaN
         13   -1    0    0    0    0  0.00000000000E+00  0.00000000000E+00  0.74505805969E-08  0.10566000000E+00  0.10566000000E+00 0. -1.
     999900   -1    0    0    0    0 -0.00000000000E+00 -0.00000000000E+00 -0.74505805969E-08  0.93827000000E+00  0.93827000000E+00 0.  1.
     999902    2    1    2    0    0 -0.56712346502E-03  0.22750552624E-01  0.48936497803E-02  0.10206521762E+01  0.10203866952E+01 0.  0.
     999903    2    3    3    0    0 -0.58507354768E-01  0.10681948037E+00  0.51415391590E-01  0.13352821219E+00  0.18781081178E-01 0.  0.
         14    1    1    2    0    0  0.56712346502E-03 -0.22750552624E-01 -0.48936497803E-02  0.23277823822E-01  0.00000000000E+00 0. -1.
     999901    1    3    3    0    0  0.57940231303E-01 -0.84068927747E-01 -0.46521741810E-01  0.88712396399E+00  0.88000000000E+00 0.  1.
        -11    1    4    4    0    0 -0.48652271101E-02  0.80123798842E-02 -0.10735270767E-02  0.94489283850E-02  0.51100000000E-03 0. -1.
         11    1    4    4    0    0 -0.53642127657E-01  0.98807100487E-01  0.52488918667E-01  0.12407928381E+00  0.51100000000E-03 0.  1.
</event>
<event>
 8    1  0.1129602E+005  0.1043930E+01  0.7957747E-01            NaN
         13   -1    0    0    0    0  0.00000000000E+00  0.00000000000E+00  0.74505805969E-08  0.10566000000E+00  0.10566000000E+00 0. -1.
     999900   -1    0    0    0    0 -0.00000000000E+00 -0.00000000000E+00 -0.74505805969E-08  0.93827000000E+00  0.93827000000E+00 0. -1.
     999902    2    1    2    0    0  0.14392181960E-01  0.19199101587E-01 -0.18650243773E-04  0.10199354016E+01  0.10196531188E+01 0.  0.
     999903    2    3    3    0    0  0.58896391797E-01 -0.84495815362E-01  0.75738535480E-01  0.12950156822E+00  0.20639831230E-01 0.  0.
         14    1    1    2    0    0 -0.14392181960E-01 -0.19199101587E-01  0.18650243773E-04  0.23994598374E-01  0.00000000000E+00 0. -1.
     999901    1    3    3    0    0 -0.44504209837E-01  0.10369491695E+00 -0.75757185723E-01  0.89043383341E+00  0.88000000000E+00 0. -1.
        -11    1    4    4    0    0  0.27761456736E-01 -0.24520964219E-01  0.21346176938E-01  0.42753906923E-01  0.51100000000E-03 0.  1.
         11    1    4    4    0    0  0.31134935060E-01 -0.59974851143E-01  0.54392358542E-01  0.86747661292E-01  0.51100000000E-03 0. -1.
</event>
<event>
 8    1  0.1129602E+005  0.1043930E+01  0.7957747E-01            NaN
         13   -1    0    0    0    0  0.00000000000E+00  0.00000000000E+00  0.74505805969E-08  0.10566000000E+00  0.10566000000E+00 0. -1.
     999900   -1    0    0    0    0 -0.00000000000E+00 -0.00000000000E+00 -0.74505805969E-08  0.93827000000E+00  0.93827000000E+00 0. -1.
     999902    2    1    2    0    0  0.27207123662E-01  0.10991713179E-01  0.10204414128E-01  0.10128627278E+01  0.10123861565E+01 0.  0.
     999903    2    3    3    0    0  0.10370349541E+00  0.43249565407E-03 -0.68609189935E-01  0.12597221809E+00  0.20178621712E-01 0.  0.
         14    1    1    2    0    0 -0.27207123662E-01 -0.10991713179E-01 -0.10204414128E-01  0.31067272237E-01  0.00000000000E+00 0.  1.
     999901    1    3    3    0    0 -0.76496371746E-01  0.10559217525E-01  0.78813604063E-01  0.88689050967E+00  0.88000000000E+00 0.  1.
        -11    1    4    4    0    0  0.15287754798E-01 -0.51237294216E-02 -0.17038687705E-01  0.23463717729E-01  0.51100000000E-03 0. -1.
         11    1    4    4    0    0  0.88415740610E-01  0.55562250757E-02 -0.51570502230E-01  0.10250850036E+00  0.51100000000E-03 0.  1.
</event>
<event>
 8    1  0.1129602E+005  0.1043930E+01  0.7957747E-01            NaN
         13   -1    0    0    0    0  0.00000000000E+00  0.00000000000E+00  0.74505805969E-08  0.10566000000E+00  0.10566000000E+00 0.  1.
     999900   -1    0    0    0    0 -0.00000000000E+00 -0.00000000000E+00 -0.74505805969E-08  0.93827000000E+00  0.93827000000E+00 0. -1.
     999902    2    1    2    0    0  0.15113948056E-02  0.12674161422E-01 -0.19616369637E-01  0.10205265678E+01  0.10202581805E+01 0.  0.
     999903    2    3    3    0    0 -0.77462527503E-01  0.91952695499E-01  0.47905431144E-01  0.13087429866E+00  0.19427051741E-01 0.  0.
         14    1    1    2    0    0 -0.15113948056E-02 -0.12674161422E-01  0.19616369637E-01  0.23403432222E-01  0.00000000000E+00 0.  1.
     999901    1    3    3    0    0  0.78973922309E-01 -0.79278534077E-01 -0.67521800782E-01  0.88965226912E+00  0.88000000000E+00 0. -1.
        -11    1    4    4    0    0 -0.40380143933E-01  0.48758326213E-01  0.35584853684E-01  0.72625569408E-01  0.51100000000E-03 0.  1.
         11    1    4    4    0    0 -0.37082383570E-01  0.43194369286E-01  0.12320577461E-01  0.58248729250E-01  0.51100000000E-03 0. -1.
</event>
<event>
 8    1  0.1129602E+005  0.1043930E+01  0.7957747E-01            NaN
         13   -1    0    0    0    0  0.00000000000E+00  0.00000000000E+00  0.74505805969E-08  0.10566000000E+00  0.10566000000E+00 0. -1.
     999900   -1    0    0    0    0 -0.00000000000E+00 -0.00000000000E+00 -0.74505805969E-08  0.93827000000E+00  0.93827000000E+00 0. -1.
     999902    2    1    2    0    0  0.36428717478E-02 -0.19268979089E-01 -0.13406797513E-01  0.10201748681E+01  0.10198982573E+01 0.  0.
     999903    2    3    3    0    0 -0.52906033770E-01 -0.10176564856E+00  0.60729859756E-01  0.13141183835E+00  0.20631523343E-01 0.  0.
         14    1    1    2    0    0 -0.36428717478E-02  0.19268979089E-01  0.13406797513E-01  0.23755131851E-01  0.00000000000E+00 0. -1.
     999901    1    3    3    0    0  0.56548905518E-01  0.82496669474E-01 -0.74136657269E-01  0.88876302980E+00  0.88000000000E+00 0. -1.
        -11    1    4    4    0    0 -0.21693806196E-01 -0.60478801211E-01  0.27419453193E-01  0.69859817905E-01  0.51100000000E-03 0.  1.
         11    1    4    4    0    0 -0.31212227574E-01 -0.41286847351E-01  0.33310406563E-01  0.61552020444E-01  0.51100000000E-03 0. -1.
</event>
<event>
 8    1  0.1129602E+005  0.1043930E+01  0.7957747E-01            NaN
         13   -1    0    0    0    0  0.00000000000E+00  0.00000000000E+00  0.74505805969E-08  0.10566000000E+00  0.10566000000E+00 0.  1.
     999900   -1    0    0    0    0 -0.00000000000E+00 -0.00000000000E+00 -0.74505805969E-08  0.93827000000E+00  0.93827000000E+00 0. -1.
     999902    2    1    2    0    0  0.10960802617E-01 -0.34880624277E-02  0.20585712175E-01  0.10203487083E+01  0.10200761781E+01 0.  0.
     999903    2    3    3    0    0 -0.70193169055E-01 -0.52705233081E-01  0.96617527379E-01  0.13198553146E+00  0.19501572795E-01 0.  0.
         14    1    1    2    0    0 -0.10960802617E-01  0.34880624277E-02 -0.20585712175E-01  0.23581291722E-01  0.00000000000E+00 0. -1.
     999901    1    3    3    0    0  0.81153971673E-01  0.49217170653E-01 -0.76031815204E-01  0.88836317682E+00  0.88000000000E+00 0. -1.
        -11    1    4    4    0    0 -0.67868128178E-01 -0.46118659607E-01  0.83238285176E-01  0.11688407431E+00  0.51100000000E-03 0.  1.
         11    1    4    4    0    0 -0.23250408772E-02 -0.65865734741E-02  0.13379242203E-01  0.15101457153E-01  0.51100000000E-03 0. -1.
</event>
<event>
 8    1  0.1129602E+005  0.1043930E+01  0.7957747E-01            NaN
         13   -1    0    0    0    0  0.00000000000E+00  0.00000000000E+00  0.74505805969E-08  0.10566000000E+00  0.10566000000E+00 0.  1.
     999900   -1    0    0    0    0 -0.00000000000E+00 -0.00000000000E+00 -0.74505805969E-08  0.93827000000E+00  0.93827000000E+00 0. -1.
     999902    2    1    2    0    0  0.11796048001E-01  0.22744296390E-02 -0.20445006411E-01  0.10202167534E+01  0.10199411286E+01 0.  0.
     999903    2    3    3    0    0  0.24417144816E-01  0.82359760807E-01 -0.99460008358E-01  0.13296463425E+00  0.20198354806E-01 0.  0.
         14    1    1    2    0    0 -0.11796048001E-01 -0.22744296390E-02  0.20445006411E-01  0.23713246631E-01  0.00000000000E+00 0.  1.
     999901    1    3    3    0    0 -0.12621096814E-01 -0.80085331168E-01  0.79015001947E-01  0.88725211912E+00  0.88000000000E+00 0.  1.
        -11    1    4    4    0    0  0.87573543610E-02  0.53824081392E-01 -0.72347467595E-01  0.90598786866E-01  0.51100000000E-03 0. -1.
         11    1    4    4    0    0  0.15659790455E-01  0.28535679415E-01 -0.27112540763E-01  0.42365847382E-01  0.51100000000E-03 0.  1.
</event>
<event>
 8    1  0.1129602E+005  0.1043930E+01  0.7957747E-01            NaN
         13   -1    0    0    0    0  0.00000000000E+00  0.00000000000E+00  0.74505805969E-08  0.10566000000E+00  0.10566000000E+00 0.  1.
     999900   -1    0    0    0    0 -0.00000000000E+00 -0.00000000000E+00 -0.74505805969E-08  0.93827000000E+00  0.93827000000E+00 0. -1.
     999902    2    1    2    0    0  0.16986822134E-01 -0.10411481576E-01 -0.10851332476E-01  0.10212429444E+01  0.10209909152E+01 0.  0.
     999903    2    3    3    0    0 -0.10005565391E+00  0.63352625934E-01 -0.48608800000E-01  0.12963444787E+00  0.20434909921E-01 0.  0.
         14    1    1    2    0    0 -0.16986822134E-01  0.10411481576E-01  0.10851332476E-01  0.22687055589E-01  0.00000000000E+00 0.  1.
     999901    1    3    3    0    0  0.11704247605E+00 -0.73764107510E-01  0.37757467524E-01  0.89160849654E+00  0.88000000000E+00 0.  1.
        -11    1    4    4    0    0 -0.58351501975E-01  0.40798732364E-01 -0.18851034039E-01  0.73654985918E-01  0.51100000000E-03 0.  1.
         11    1    4    4    0    0 -0.41704151938E-01  0.22553893570E-01 -0.29757765961E-01  0.55979461948E-01  0.51100000000E-03 0. -1.
</event>
<event>
 8    1  0.1129602E+005  0.1043930E+01  0.7957747E-01            NaN
         13   -1    0    0    0    0  0.00000000000E+00  0.00000000000E+00  0.74505805969E-08  0.10566000000E+00  0.10566000000E+00 0. -1.
     999900   -1    0    0    0    0 -0.00000000000E+00 -0.00000000000E+00 -0.74505805969E-08  0.93827000000E+00  0.93827000000E+00 0.  1.
     999902    2    1    2    0    0  0.16362943427E-01 -0.76613219182E-02 -0.16241738682E-01  0.10196352301E+01  0.10193457542E+01 0.  0.
     999903    2    3    3    0    0  0.57982585472E-01 -0.92874959804E-01 -0.72045266436E-01  0.13278259721E+00  0.21282841178E-01 0.  0.
         14    1    1    2    0    0 -0.16362943427E-01  0.76613219182E-02  0.16241738682E-01  0.24294769942E-01  0.00000000000E+00 0. -1.
     999901    1    3    3    0    0 -0.41619642045E-01  0.85213637886E-01  0.55803527754E-01  0.88685263285E+00  0.88000000000E+00 0.  1.
        -11    1    4    4    0    0  0.36101023182E-01 -0.53550414412E-01 -0.54396910351E-01  0.84440604778E-01  0.51100000000E-03 0.  1.
         11    1    4    4    0    0  0.21881562290E-01 -0.39324545392E-01 -0.17648356085E-01  0.48341992429E-01  0.51100000000E-03 0. -1.
</event>
<event>
 8    1  0.1129602E+005  0.1043930E+01  0.7957747E-01            NaN
         13   -1    0    0    0    0  0.00000000000E+00  0.00000000000E+00  0.74505805969E-08  0.10566000000E+00  0.10566000000E+00 0. -1.
     999900   -1    0    0    0    0 -0.00000000000E+00 -0.00000000000E+00 -0.74505805969E-08  0.93827000000E+00  0.93827000000E+00 0.  1.
     999902    2    1    2    0    0  0.15086580274E-01  0.72643965890E-02 -0.15944088207E-01  0.10208087909E+01  0.10205469108E+01 0.  0.
     999903    2    3    3    0    0  0.94075594571E-01  0.91780119272E-01  0.37788160661E-02  0.13301874548E+00  0.20146945476E-01 0.  0.
         14    1    1    2    0    0 -0.15086580274E-01 -0.72643965890E-02  0.15944088207E-01  0.23121209114E-01  0.00000000000E+00 0. -1.
     999901    1    3    3    0    0 -0.78989014297E-01 -0.84515722683E-01 -0.19722904273E-01  0.88779004540E+00  0.88000000000E+00 0. -1.
        -11    1    4    4    0    0  0.53693847510E-02  0.13905514187E-01 -0.87331455994E-04  0.14915172315E-01  0.51100000000E-03 0. -1.
         11    1    4    4    0    0  0.88706209820E-01  0.77874605085E-01  0.38661475220E-02  0.11810357317E+00  0.51100000000E-03 0.  1.
</event>
<event>
 8    1  0.1129602E+005  0.1043930E+01  0.7957747E-01            NaN
         13   -1    0    0    0    0  0.00000000000E+00  0.00000000000E+00  0.74505805969E-08  0.10566000000E+00  0.10566000000E+00 0. -1.
     999900   -1    0    0    0    0 -0.00000000000E+00 -0.00000000000E+00 -0.74505805969E-08  0.93827000000E+00  0.93827000000E+00 0. -1.
     999902    2    1    2    0    0 -0.15321015805E-01 -0.14310619353E-01 -0.12314307298E-01  0.10196160222E+01  0.10193260829E+01 0.  0.
     999903    2    3    3    0    0  0.67508526351E-01 -0.41518311844E-01  0.99008442982E-01  0.12832833223E+00  0.19604023134E-01 0.  0.
         14    1    1    2    0    0  0.15321015805E-01  0.14310619353E-01  0.12314307298E-01  0.24313977787E-01  0.00000000000E+00 0. -1.
     999901    1    3    3    0    0 -0.82829542156E-01  0.27207692491E-01 -0.11132275028E+00  0.89128768998E+00  0.88000000000E+00 0. -1.
        -11    1    4    4    0    0  0.40754171475E-02 -0.83818507856E-02  0.17688580644E-01  0.20000286341E-01  0.51100000000E-03 0. -1.
         11    1    4    4    0    0  0.63433109204E-01 -0.33136461058E-01  0.81319862338E-01  0.10832804589E+00  0.51100000000E-03 0.  1.
</event>
<event>
 8    1  0.1129602E+005  0.1043930E+01  0.7957747E-01            NaN
         13   -1    0    0    0    0  0.00000000000E+00  0.00000000000E+00  0.74505805969E-08  0.10566000000E+00  0.10566000000E+00 0. -1.
     999900   -1    0    0    0    0 -0.00000000000E+00 -0.00000000000E+00 -0.74505805969E-08  0.93827000000E+00  0.93827000000E+00 0.  1.
     999902    2    1    2    0    0  0.13963374271E-01 -0.18845668361E-01 -0.89132153025E-02  0.10188385584E+01  0.10185295418E+01 0.  0.
     999903    2    3    3    0    0 -0.63073958210E-01  0.74148871029E-01  0.77979028178E-01  0.12635158538E+00  0.20189477768E-01 0.  0.
         14    1    1    2    0    0 -0.13963374271E-01  0.18845668361E-01  0.89132153025E-02  0.25091441649E-01  0.00000000000E+00 0. -1.
     999901    1    3    3    0    0  0.77037332480E-01 -0.92994539390E-01 -0.86892243480E-01  0.89248697297E+00  0.88000000000E+00 0.  1.
        -11    1    4    4    0    0 -0.40126911440E-01  0.56328597085E-01  0.45579695921E-01  0.82830246121E-01  0.51100000000E-03 0.  1.
         11    1    4    4    0    0 -0.22947046770E-01  0.17820273944E-01  0.32399332257E-01  0.43521339255E-01  0.51100000000E-03 0. -1.
</event>
<event>
 8    1  0.1129602E+005  0.1043930E+01  0.7957747E-01            NaN
         13   -1    0    0    0    0  0.00000000000E+00  0.00000000000E+00  0.74505805969E-08  0.10566000000E+00  0.10566000000E+00 0. -1.
     999900   -1    0    0    0    0 -0.00000000000E+00 -0.00000000000E+00 -0.74505805969E-08  0.93827000000E+00  0.93827000000E+00 0. -1.
     999902    2    1    2    0    0 -0.47125961014E-02 -0.30873022470E-02  0.21803826410E-01  0.10214100790E+01  0.10211617906E+01 0.  0.
     999903    2    3    3    0    0  0.60076580605E-02  0.71010782372E-01 -0.10584034913E+00  0.12905449651E+00  0.19345810815E-01 0.  0.
         14    1    1    2    0    0  0.47125961014E-02  0.30873022470E-02 -0.21803826410E-01  0.22519921032E-01  0.00000000000E+00 0.  1.
     999901    1    3    3    0    0 -0.10720254162E-01 -0.74098084619E-01  0.12764417554E+00  0.89235558246E+00  0.88000000000E+00 0.  1.
        -11    1    4    4    0    0  0.24637707060E-02  0.43546520220E-01 -0.47595363844E-01  0.64559657448E-01  0.51100000000E-03 0. -1.
         11    1    4    4    0    0  0.35438873545E-02  0.27464262152E-01 -0.58244985291E-01  0.64494839062E-01  0.51100000000E-03 0.  1.
</event>
<event>
 8    1  0.1129602E+005  0.1043930E+01  0.7957747E-01            NaN
         13   -1    0    0    0    0  0.00000000000E+00  0.00000000000E+00  0.74505805969E-08  0.10566000000E+00  0.10566000000E+00 0. -1.
     999900   -1    0    0    0    0 -0.00000000000E+00 -0.00000000000E+00 -0.74505805969E-08  0.93827000000E+00  0.93827000000E+00 0.  1.
     999902    2    1    2    0    0 -0.15091814867E-01 -0.34482477628E-02  0.17811716298E-01  0.10203310482E+01  0.10200581049E+01 0.  0.
     999903    2    3    3    0    0 -0.91545426368E-01  0.49221448477E-01  0.80278563117E-01  0.13324516816E+00  0.22501356908E-01 0.  0.
         14    1    1    2    0    0  0.15091814867E-01  0.34482477628E-02 -0.17811716298E-01  0.23598951801E-01  0.00000000000E+00 0. -1.
     999901    1    3    3    0    0  0.76453611501E-01 -0.52669696239E-01 -0.62466846819E-01  0.88708588004E+00  0.88000000000E+00 0.  1.
        -11    1    4    4    0    0 -0.46982555054E-01  0.33667259079E-01  0.33590573917E-01  0.66853815077E-01  0.51100000000E-03 0. -1.
         11    1    4    4    0    0 -0.44562871314E-01  0.15554189397E-01  0.46687989200E-01  0.66391353082E-01  0.51100000000E-03 0.  1.
</event>
<event>
 8    1  0.1129602E+005  0.1043930E+01  0.7957747E-01            NaN
         13   -1    0    0    0    0  0.00000000000E+00  0.00000000000E+00  0.74505805969E-08  0.10566000000E+00  0.10566000000E+00 0.  1.
     999900   -1    0    0    0    0 -0.00000000000E+00 -0.00000000000E+00 -0.74505805969E-08  0.93827000000E+00  0.93827000000E+00 0. -1.
     999902    2    1    2    0    0  0.15101379775E-01 -0.17111958480E-01  0.38398417701E-02  0.10207866386E+01  0.10205242507E+01 0.  0.
     999903    2    3    3    0    0 -0.83150729583E-01  0.95000402261E-01  0.11031406624E-01  0.12822046340E+00  0.19485251936E-01 0.  0.
         14    1    1    2    0    0 -0.15101379775E-01  0.17111958480E-01 -0.38398417701E-02  0.23143361444E-01  0.00000000000E+00 0. -1.
     999901    1    3    3    0    0  0.98252109358E-01 -0.11211236074E+00 -0.71915648541E-02  0.89256617515E+00  0.88000000000E+00 0. -1.
        -11    1    4    4    0    0 -0.17727662390E-01  0.15367208525E-01  0.90136688792E-02  0.25138187272E-01  0.51100000000E-03 0.  1.
         11    1    4    4    0    0 -0.65423067192E-01  0.79633193736E-01  0.20177377450E-02  0.10308227613E+00  0.51100000000E-03 0. -1.
</event>
<event>
 8    1  0.1129602E+005  0.1043930E+01  0.7957747E-01            NaN
         13   -1    0    0    0    0  0.00000000000E+00  0.00000000000E+00  0.74505805969E-08  0.10566000000E+00  0.10566000000E+00 0. -1.
     999900   -1    0    0    0    0 -0.00000000000E+00 -0.00000000000E+00 -0.74505805969E-08  0.93827000000E+00  0.93827000000E+00 0. -1.
     999902    2    1    2    0    0  0.75358015916E-02 -0.18141683165E-01  0.15095980420E-01  0.10191550611E+01  0.10188538860E+01 0.  0.
     999903    2    3    3    0    0  0.10162997032E+00 -0.74592535717E-01  0.34151039245E-01  0.13213560999E+00  0.20020706639E-01 0.  0.
         14    1    1    2    0    0 -0.75358015916E-02  0.18141683165E-01 -0.15095980420E-01  0.24774938921E-01  0.00000000000E+00 0.  1.
     999901    1    3    3    0    0 -0.94094168727E-01  0.56450852552E-01 -0.19055058824E-01  0.88701945109E+00  0.88000000000E+00 0.  1.
        -11    1    4    4    0    0  0.15778610040E-01 -0.70214904189E-02  0.10916915695E-01  0.20437857809E-01  0.51100000000E-03 0. -1.
         11    1    4    4    0    0  0.85851360278E-01 -0.67571045299E-01  0.23234123549E-01  0.11169775218E+00  0.51100000000E-03 0.  1.
</event>
<event>
 8    1  0.1129602E+005  0.1043930E+01  0.7957747E-01            NaN
         13   -1    0    0    0    0  0.00000000000E+00  0.00000000000E+00  0.74505805969E-08  0.10566000000E+00  0.10566000000E+00 0. -1.
     999900   -1    0    0    0    0 -0.00000000000E+00 -0.00000000000E+00 -0.74505805969E-08  0.93827000000E+00  0.93827000000E+00 0. -1.
     999902    2    1    2    0    0 -0.34883461290E-02  0.13334239145E-01  0.18645564039E-01  0.10207432031E+01  0.10204798181E+01 0.  0.
     999903    2    3    3    0    0  0.33665468772E-01 -0.64644515691E-02  0.12699698527E+00  0.13309889111E+00  0.20296000241E-01 0.  0.
         14    1    1    2    0    0  0.34883461290E-02 -0.13334239145E-01 -0.18645564039E-01  0.23186796903E-01  0.00000000000E+00 0.  1.
     999901    1    3    3    0    0 -0.37153814901E-01  0.19798690714E-01 -0.10835142123E+00  0.88764431198E+00  0.88000000000E+00 0. -1.
        -11    1    4    4    0    0  0.49984040700E-02 -0.45028790262E-02  0.57496405421E-01  0.57890912241E-01  0.51100000000E-03 0. -1.
         11    1    4    4    0    0  0.28667064702E-01 -0.19615725429E-02  0.69500579849E-01  0.75207978871E-01  0.51100000000E-03 0.  1.
</event>
<event>
 8    1  0.1129602E+005  0.1043930E+01  0.7957747E-01            NaN
         13   -1    0    0    0    0  0.00000000000E+00  0.00000000000E+00  0.74505805969E-08  0.10566000000E+00  0.10566000000E+00 0. -1.
     999900   -1    0    0    0    0 -0.00000000000E+00 -0.00000000000E+00 -0.74505805969E-08  0.93827000000E+00  0.93827000000E+00 0.  1.
     999902    2    1    2    0    0 -0.10718208880E-01 -0.14355875847E-01 -0.24136771817E-01  0.10138708096E+01  0.10134251150E+01 0.  0.
     999903    2    3    3    0    0  0.76989920909E-01 -0.53577636085E-01  0.77877882773E-01  0.12278268139E+00  0.14581193863E-01 0.  0.
         14    1    1    2    0    0  0.10718208880E-01  0.14355875847E-01  0.24136771817E-01  0.30059190387E-01  0.00000000000E+00 0. -1.
     999901    1    3    3    0    0 -0.87708129789E-01  0.39221760237E-01 -0.10201465459E+00  0.89108812822E+00  0.88000000000E+00 0.  1.
        -11    1    4    4    0    0  0.53906274978E-01 -0.29168298158E-01  0.51792934372E-01  0.80246154247E-01  0.51100000000E-03 0. -1.
         11    1    4    4    0    0  0.23083645931E-01 -0.24409337927E-01  0.26084948400E-01  0.42536527145E-01  0.51100000000E-03 0.  1.
</event>
<event>
 8    1  0.1129602E+005  0.1043930E+01  0.7957747E-01            NaN
         13   -1    0    0    0    0  0.00000000000E+00  0.00000000000E+00  0.74505805969E-08  0.10566000000E+00  0.10566000000E+00 0.  1.
     999900   -1    0    0    0    0 -0.00000000000E+00 -0.00000000000E+00 -0.74505805969E-08  0.93827000000E+00  0.93827000000E+00 0.  1.
     999902    2    1    2    0    0 -0.87244795083E-02  0.49253227098E-02  0.21707743149E-01  0.10200218119E+01  0.10197415826E+01 0.  0.
     999903    2    3    3    0    0 -0.94702663766E-01  0.86699397067E-01 -0.18294805572E-01  0.13115767642E+00  0.19551373275E-01 0.  0.
         14    1    1    2    0    0  0.87244795083E-02 -0.49253227098E-02 -0.21707743149E-01  0.23908188119E-01  0.00000000000E+00 0. -1.
     999901    1    3    3    0    0  0.85978184258E-01 -0.81774074357E-01  0.40002548722E-01  0.88886413546E+00  0.88000000000E+00 0. -1.
        -11    1    4    4    0    0 -0.65033622925E-01  0.49954445916E-01 -0.53269374273E-02  0.82179414459E-01  0.51100000000E-03 0. -1.
         11    1    4    4    0    0 -0.29669040841E-01  0.36744951151E-01 -0.12967868145E-01  0.48978261961E-01  0.51100000000E-03 0.  1.
</event>
<event>
 7    1  0.2053932E+005  0.1043930E+01  0.7957747E-01            NaN
         13   -1    0    0    0    0  0.00000000000E+00  0.00000000000E+00  0.74505805969E-08  0.10566000000E+00  0.10566000000E+00 0.  1.
     999900   -1    0    0    0    0 -0.00000000000E+00 -0.00000000000E+00 -0.74505805969E-08  0.93827000000E+00  0.93827000000E+00 0. -1.
     999903    2    1    2    0    0 -0.85866621518E-01  0.53316261377E-01  0.28304446853E-01  0.10694579475E+00  0.20507581174E-01 0.  0.
         14    1    1    2    0    0  0.41330257751E-01  0.19210602379E-01  0.23660409583E-01  0.51352238813E-01  0.00000000000E+00 0.  1.
     999901    1    1    2    0    0  0.44536363767E-01 -0.72526863756E-01 -0.51964856436E-01  0.88563196643E+00  0.88000000000E+00 0. -1.
        -11    1    3    3    0    0 -0.45366321180E-01  0.26617686818E-01  0.25225431840E-01  0.58336848402E-01  0.51100000000E-03 0. -1.
         11    1    3    3    0    0 -0.40500300338E-01  0.26698574560E-01  0.30790150136E-02  0.48608946352E-01  0.51100000000E-03 0.  1.
</event>
<event>
 8    1  0.1129602E+005  0.1043930E+01  0.7957747E-01            NaN
         13   -1    0    0    0    0  0.00000000000E+00  0.00000000000E+00  0.74505805969E-08  0.10566000000E+00  0.10566000000E+00 0. -1.
     999900   -1    0    0    0    0 -0.00000000000E+00 -0.00000000000E+00 -0.74505805969E-08  0.93827000000E+00  0.93827000000E+00 0.  1.
     999902    2    1    2    0    0 -0.22815796414E-01 -0.37478678933E-02 -0.70436870915E-02  0.10197593441E+01  0.10194728536E+01 0.  0.
     999903    2    3    3    0    0  0.10411894896E+00  0.12621088744E-01 -0.70884507612E-01  0.12821236120E+00  0.20340814380E-01 0.  0.
         14    1    1    2    0    0  0.22815796414E-01  0.37478678933E-02  0.70436870915E-02  0.24170655920E-01  0.00000000000E+00 0. -1.
     999901    1    3    3    0    0 -0.12693474538E+00 -0.16368956637E-01  0.63840820520E-01  0.89154698288E+00  0.88000000000E+00 0. -1.
        -11    1    4    4    0    0  0.74174424546E-01 -0.39222750486E-03 -0.49738956127E-01  0.89309708189E-01  0.51100000000E-03 0. -1.
         11    1    4    4    0    0  0.29944524418E-01  0.13013316249E-01 -0.21145551484E-01  0.38902653007E-01  0.51100000000E-03 0.  1.
</event>
<event>
 8    1  0.1129602E+005  0.1043930E+01  0.7957747E-01            NaN
         13   -1    0    0    0    0  0.00000000000E+00  0.00000000000E+00  0.74505805969E-08  0.10566000000E+00  0.10566000000E+00 0.  1.
     999900   -1    0    0    0    0 -0.00000000000E+00 -0.00000000000E+00 -0.74505805969E-08  0.93827000000E+00  0.93827000000E+00 0. -1.
     999902    2    1    2    0    0  0.72321192686E-02 -0.65754201672E-02  0.21408052806E-01  0.10203961005E+01  0.10201246775E+01 0.  0.
     999903    2    3    3    0    0  0.11946015554E-01 -0.12809041433E+00  0.21487118554E-01  0.13203349389E+00  0.20525245789E-01 0.  0.
         14    1    1    2    0    0 -0.72321192686E-02  0.65754201672E-02 -0.21408052806E-01  0.23533899474E-01  0.00000000000E+00 0. -1.
     999901    1    3    3    0    0 -0.47138962850E-02  0.12151499416E+00 -0.79065747711E-04  0.88836260664E+00  0.88000000000E+00 0.  1.
        -11    1    4    4    0    0  0.14208620975E-01 -0.54152877090E-01  0.13780750353E-01  0.57659250848E-01  0.51100000000E-03 0.  1.
         11    1    4    4    0    0 -0.22626054215E-02 -0.73937537236E-01  0.77063682007E-02  0.74374243039E-01  0.51100000000E-03 0. -1.
</event>
<event>
 8    1  0.1129602E+005  0.1043930E+01  0.7957747E-01            NaN
         13   -1    0    0    0    0  0.00000000000E+00  0.00000000000E+00  0.74505805969E-08  0.10566000000E+00  0.10566000000E+00 0. -1.
     999900   -1    0    0    0    0 -0.00000000000E+00 -0.00000000000E+00 -0.74505805969E-08  0.93827000000E+00  0.93827000000E+00 0. -1.
     999902    2    1    2    0    0  0.17182195051E-03  0.16181661723E-01 -0.20928469452E-01  0.10174748203E+01  0.10171308340E+01 0.  0.
     999903    2    3    3    0    0 -0.10288687744E+00 -0.24456825009E-01  0.66059036282E-01  0.12627371602E+00  0.19935125900E-01 0.  0.
         14    1    1    2    0    0 -0.17182195051E-03 -0.16181661723E-01  0.20928469452E-01  0.26455179692E-01  0.00000000000E+00 0. -1.
     999901    1    3    3    0    0  0.10305869939E+00  0.40638486732E-01 -0.86987505735E-01  0.89120110428E+00  0.88000000000E+00 0. -1.
        -11    1    4    4    0    0 -0.51996794250E-01 -0.29556980118E-02  0.27472140895E-01  0.58884483604E-01  0.51100000000E-03 0.  1.
         11    1    4    4    0    0 -0.50890083192E-01 -0.21501126997E-01  0.38586895387E-01  0.67389232419E-01  0.51100000000E-03 0. -1.
</event>
<event>
 8    1  0.1129602E+005  0.1043930E+01  0.7957747E-01            NaN
         13   -1    0    0    0    0  0.00000000000E+00  0.00000000000E+00  0.74505805969E-08  0.10566000000E+00  0.10566000000E+00 0. -1.
     999900   -1    0    0    0    0 -0.00000000000E+00 -0.00000000000E+00 -0.74505805969E-08  0.93827000000E+00  0.93827000000E+00 0.  1.
     999902    2    1    2    0    0 -0.20343035790E-01 -0.12621761156E-01  0.44258766941E-03  0.10199854005E+01  0.10197043069E+01 0.  0.
     999903    2    3    3    0    0  0.17159166650E-01  0.16660260753E-01 -0.12588444332E+00  0.12969198218E+00  0.20027877646E-01 0.  0.
         14    1    1    2    0    0  0.20343035790E-01  0.12621761156E-01 -0.44258766941E-03  0.23944599468E-01  0.00000000000E+00 0.  1.
     999901    1    3    3    0    0 -0.37502202440E-01 -0.29282021909E-01  0.12632703099E+00  0.89029341835E+00  0.88000000000E+00 0. -1.
        -11    1    4    4    0    0  0.17005795854E-01  0.68582312333E-02 -0.51638424860E-01  0.54799821818E-01  0.51100000000E-03 0. -1.
         11    1    4    4    0    0  0.15337079557E-03  0.98020295194E-02 -0.74246018464E-01  0.74892160365E-01  0.51100000000E-03 0.  1.
</event>
<event>
 8    1  0.1129602E+005  0.1043930E+01  0.7957747E-01            NaN
         13   -1    0    0    0    0  0.00000000000E+00  0.00000000000E+00  0.74505805969E-08  0.10566000000E+00  0.10566000000E+00 0.  1.
     999900   -1    0    0    0    0 -0.00000000000E+00 -0.00000000000E+00 -0.74505805969E-08  0.93827000000E+00  0.93827000000E+00 0. -1.
     999902    2    1    2    0    0  0.15872416507E-01 -0.83000737681E-02 -0.14636330702E-01  0.10207989169E+01  0.10205368105E+01 0.  0.
     999903    2    3    3    0    0 -0.11679995631E+00 -0.56659249752E-02 -0.53317051395E-01  0.13000988719E+00  0.19634925461E-01 0.  0.
         14    1    1    2    0    0 -0.15872416507E-01  0.83000737681E-02  0.14636330702E-01  0.23131083129E-01  0.00000000000E+00 0.  1.
     999901    1    3    3    0    0  0.13267237282E+00 -0.26341487929E-02  0.38680720692E-01  0.89078902968E+00  0.88000000000E+00 0.  1.
        -11    1    4    4    0    0 -0.48848584439E-01 -0.11566728749E-01 -0.19244351030E-01  0.53764110550E-01  0.51100000000E-03 0. -1.
         11    1    4    4    0    0 -0.67951371870E-01  0.59008037735E-02 -0.34072700364E-01  0.76245776639E-01  0.51100000000E-03 0.  1.
</event>
<event>
 8    1  0.1129602E+005  0.1043930E+01  0.7957747E-01            NaN
         13   -1    0    0    0    0  0.00000000000E+00  0.00000000000E+00  0.74505805969E-08  0.10566000000E+00  0.10566000000E+00 0. -1.
     999900   -1    0    0    0    0 -0.00000000000E+00 -0.00000000000E+00 -0.74505805969E-08  0.93827000000E+00  0.93827000000E+00 0. -1.
     999902    2    1    2    0    0 -0.12840650054E-01  0.21493174796E-01 -0.58329476927E-02  0.10182227610E+01  0.10178981918E+01 0.  0.
     999903    2    3    3    0    0  0.11409131516E+00  0.16352833624E-01  0.49854210216E-01  0.12735845798E+00  0.21224777465E-01 0.  0.
         14    1    1    2    0    0  0.12840650054E-01 -0.21493174796E-01  0.58329476927E-02  0.25707238969E-01  0.00000000000E+00 0. -1.
     999901    1    3    3    0    0 -0.12693196522E+00  0.51403411722E-02 -0.55687157909E-01  0.89086430305E+00  0.88000000000E+00 0. -1.
        -11    1    4    4    0    0  0.55859556575E-01  0.46120481073E-02  0.13304052126E-01  0.57609200415E-01  0.51100000000E-03 0. -1.
         11    1    4    4    0    0  0.58231758589E-01  0.11740785517E-01  0.36550158090E-01  0.69749257562E-01  0.51100000000E-03 0.  1.
</event>
<event>
 8    1  0.1129602E+005  0.1043930E+01  0.7957747E-01            NaN
         13   -1    0    0    0    0  0.00000000000E+00  0.00000000000E+00  0.74505805969E-08  0.10566000000E+00  0.10566000000E+00 0. -1.
     999900   -1    0    0    0    0 -0.00000000000E+00 -0.00000000000E+00 -0.74505805969E-08  0.93827000000E+00  0.93827000000E+00 0. -1.
     999902    2    1    2    0    0  0.83482182470E-03  0.20091065017E-01 -0.10521104161E-01  0.10212354752E+01  0.10209832782E+01 0.  0.
     999903    2    3    3    0    0 -0.45461253876E-01  0.10735552232E+00 -0.61210435163E-01  0.13425868840E+00  0.26205805834E-01 0.  0.
         14    1    1    2    0    0 -0.83482182470E-03 -0.20091065017E-01  0.10521104161E-01  0.22694524753E-01  0.00000000000E+00 0. -1.
     999901    1    3    3    0    0  0.46296075701E-01 -0.87264457308E-01  0.50689331002E-01  0.88697678685E+00  0.88000000000E+00 0.  1.
        -11    1    4    4    0    0  0.32014379757E-02  0.12008917948E-01 -0.68026060821E-02  0.14177442855E-01  0.51100000000E-03 0.  1.
         11    1    4    4    0    0 -0.48662691852E-01  0.95346604377E-01 -0.54407829081E-01  0.12008124554E+00  0.51100000000E-03 0. -1.
</event>
<event>
 8    1  0.1129602E+005  0.1043930E+01  0.7957747E-01            NaN
         13   -1    0    0    0    0  0.00000000000E+00  0.00000000000E+00  0.74505805969E-08  0.10566000000E+00  0.10566000000E+00 0.  1.
     999900   -1    0    0    0    0 -0.00000000000E+00 -0.00000000000E+00 -0.74505805969E-08  0.93827000000E+00  0.93827000000E+00 0.  1.
     999902    2    1    2    0    0  0.25719107692E-02  0.10016837753E-03 -0.25980059454E-01  0.10178227549E+01  0.10174878732E+01 0.  0.
     999903    2    3    3    0    0 -0.60221523907E-01 -0.66797792723E-01  0.84689891800E-01  0.12615791271E+00  0.25590312873E-01 0.  0.
         14    1    1    2    0    0 -0.25719107692E-02 -0.10016837753E-03  0.25980059454E-01  0.26107245124E-01  0.00000000000E+00 0.  1.
     999901    1    3    3    0    0  0.62793434676E-01  0.66897961100E-01 -0.11066995125E+00  0.89166484216E+00  0.88000000000E+00 0.  1.
        -11    1    4    4    0    0 -0.40580485378E-01 -0.42481436635E-01  0.70653791594E-01  0.91889431600E-01  0.51100000000E-03 0.  1.
         11    1    4    4    0    0 -0.19641038529E-01 -0.24316356088E-01  0.14036100206E-01  0.34268481114E-01  0.51100000000E-03 0. -1.
</event>
<event>
 8    1  0.1129602E+005  0.1043930E+01  0.7957747E-01            NaN
         13   -1    0    0    0    0  0.00000000000E+00  0.00000000000E+00  0.74505805969E-08  0.10566000000E+00  0.10566000000E+00 0.  1.
     999900   -1    0    0    0    0 -0.00000000000E+00 -0.00000000000E+00 -0.74505805969E-08  0.93827000000E+00  0.93827000000E+00 0. -1.
     999902    2    1    2    0    0  0.62327763899E-02 -0.17628510353E-01  0.15684584795E-01  0.10195247121E+01  0.10192325645E+01 0.  0.
     999903    2    3    3    0    0  0.70928547122E-01  0.10953421622E-01 -0.10457308044E+00  0.12853404117E+00  0.20847885829E-01 0.  0.
         14    1    1    2    0    0 -0.62327763899E-02  0.17628510353E-01 -0.15684584795E-01  0.24405287931E-01  0.00000000000E+00 0. -1.
     999901    1    3    3    0    0 -0.64695770732E-01 -0.28581931976E-01  0.12025766524E+00  0.89099067090E+00  0.88000000000E+00 0.  1.
        -11    1    4    4    0    0  0.32649951287E-01  0.13541716400E-01 -0.60756009910E-01  0.70291900410E-01  0.51100000000E-03 0.  1.
         11    1    4    4    0    0  0.38278595835E-01 -0.25882947773E-02 -0.43817070533E-01  0.58242140758E-01  0.51100000000E-03 0. -1.
</event>
<event>
 8    1  0.1129602E+005  0.1043930E+01  0.7957747E-01            NaN
         13   -1    0    0    0    0  0.00000000000E+00  0.00000000000E+00  0.74505805969E-08  0.10566000000E+00  0.10566000000E+00 0. -1.
     999900   -1    0    0    0    0 -0.00000000000E+00 -0.00000000000E+00 -0.74505805969E-08  0.93827000000E+00  0.93827000000E+00 0.  1.
     999902    2    1    2    0    0  0.75362843903E-02 -0.53896414155E-02  0.21400986068E-01  0.10206094935E+01  0.10203430268E+01 0.  0.
     999903    2    3    3    0    0  0.74088034309E-01 -0.10332983846E-01  0.10679060460E+00  0.13396133389E+00  0.30750583168E-01 0.  0.
         14    1    1    2    0    0 -0.75362843903E-02  0.53896414155E-02 -0.21400986068E-01  0.23320506463E-01  0.00000000000E+00 0.  1.
     999901    1    3    3    0    0 -0.66551749919E-01  0.49433424302E-02 -0.85389618527E-01  0.88664815965E+00  0.88000000000E+00 0.  1.
        -11    1    4    4    0    0  0.56045770964E-01  0.12905548102E-02  0.92527313979E-01  0.10818668554E+00  0.51100000000E-03 0. -1.
         11    1    4    4    0    0  0.18042263345E-01 -0.11623538656E-01  0.14263290616E-01  0.25774648352E-01  0.51100000000E-03 0.  1.
</event>
<event>
 8    1  0.1129602E+005  0.1043930E+01  0.7957747E-01            NaN
         13   -1    0    0    0    0  0.00000000000E+00  0.00000000000E+00  0.74505805969E-08  0.10566000000E+00  0.10566000000E+00 0.  1.
     999900   -1    0    0    0    0 -0.00000000000E+00 -0.00000000000E+00 -0.74505805969E-08  0.93827000000E+00  0.93827000000E+00 0.  1.
     999902    2    1    2    0    0 -0.12257939415E-01  0.11464966205E-01 -0.15933799716E-01  0.10207872149E+01  0.10205248403E+01 0.  0.
     999903    2    3    3    0    0  0.59572267504E-01  0.28941083901E-01  0.10871247763E+00  0.12893426302E+00  0.20474374105E-01 0.  0.
         14    1    1    2    0    0  0.12257939415E-01 -0.11464966205E-01  0.15933799716E-01  0.23142785100E-01  0.00000000000E+00 0.  1.
     999901    1    3    3    0    0 -0.71830206919E-01 -0.17476117696E-01 -0.12464627735E+00  0.89185295188E+00  0.88000000000E+00 0.  1.
        -11    1    4    4    0    0  0.15255009191E-01 -0.12389260203E-02  0.18805287441E-01  0.24251808177E-01  0.51100000000E-03 0. -1.
         11    1    4    4    0    0  0.44317258313E-01  0.30180009922E-01  0.89907190192E-01  0.10468245485E+00  0.51100000000E-03 0.  1.
</event>
<event>
 8    1  0.1129602E+005  0.1043930E+01  0.7957747E-01            NaN
         13   -1    0    0    0    0  0.00000000000E+00  0.00000000000E+00  0.74505805969E-08  0.10566000000E+00  0.10566000000E+00 0. -1.
     999900   -1    0    0    0    0 -0.00000000000E+00 -0.00000000000E+00 -0.74505805969E-08  0.93827000000E+00  0.93827000000E+00 0.  1.
     999902    2    1    2    0    0 -0.12802609011E-01 -0.19656155554E-01 -0.43794843266E-02  0.10200668248E+01  0.10197876622E+01 0.  0.
     999903    2    3    3    0    0  0.42717421505E-01 -0.11585310139E+00  0.40580634130E-01  0.13194648472E+00  0.22723726842E-01 0.  0.
         14    1    1    2    0    0  0.12802609011E-01  0.19656155554E-01  0.43794843266E-02  0.23863175221E-01  0.00000000000E+00 0.  1.
     999901    1    3    3    0    0 -0.55520030516E-01  0.96196945836E-01 -0.44960118457E-01  0.88812034006E+00  0.88000000000E+00 0. -1.
        -11    1    4    4    0    0  0.26201401586E-01 -0.84948328763E-01  0.19376273935E-01  0.90985895156E-01  0.51100000000E-03 0.  1.
         11    1    4    4    0    0  0.16516019919E-01 -0.30904772627E-01  0.21204360195E-01  0.40960589563E-01  0.51100000000E-03 0. -1.
</event>
<event>
 8    1  0.1129602E+005  0.1043930E+01  0.7957747E-01            NaN
         13   -1    0    0    0    0  0.00000000000E+00  0.00000000000E+00  0.74505805969E-08  0.10566000000E+00  0.10566000000E+00 0.  1.
     999900   -1    0    0    0    0 -0.00000000000E+00 -0.00000000000E+00 -0.74505805969E-08  0.93827000000E+00  0.93827000000E+00 0. -1.
     999902    2    1    2    0    0 -0.10220138894E-01 -0.21427048664E-01  0.10699398594E-02  0.10201662792E+01  0.10198894660E+01 0.  0.
     999903    2    3    3    0    0 -0.11579525311E+00  0.40851312301E-02 -0.58832972894E-01  0.13146760419E+00  0.19929458401E-01 0.  0.
         14    1    1    2    0    0  0.10220138894E-01  0.21427048664E-01 -0.10699398594E-02  0.23763720769E-01  0.00000000000E+00 0.  1.
     999901    1    3    3    0    0  0.10557511421E+00 -0.25512179895E-01  0.59902912754E-01  0.88869867504E+00  0.88000000000E+00 0. -1.
        -11    1    4    4    0    0 -0.50597303057E-01 -0.80665988091E-02 -0.26365944544E-01  0.57624484775E-01  0.51100000000E-03 0.  1.
         11    1    4    4    0    0 -0.65197950052E-01  0.12151730039E-01 -0.32467028351E-01  0.73843119414E-01  0.51100000000E-03 0. -1.
</event>
<event>
 8    1  0.1129602E+005  0.1043930E+01  0.7957747E-01            NaN
         13   -1    0    0    0    0  0.00000000000E+00  0.00000000000E+00  0.74505805969E-08  0.10566000000E+00  0.10566000000E+00 0.  1.
     999900   -1    0    0    0    0 -0.00000000000E+00 -0.00000000000E+00 -0.74505805969E-08  0.93827000000E+00  0.93827000000E+00 0. -1.
     999902    2    1    2    0    0  0.71031724058E-03 -0.50427939028E-02 -0.22731653385E-01  0.10206348849E+01  0.10203690048E+01 0.  0.
     999903    2    3    3    0    0 -0.94854647705E-01  0.51664808678E-01  0.67902601286E-01  0.12902791835E+00  0.19255747345E-01 0.  0.
         14    1    1    2    0    0 -0.71031724058E-03  0.50427939028E-02  0.22731653385E-01  0.23295115079E-01  0.00000000000E+00 0.  1.
     999901    1    3    3    0    0  0.95564964946E-01 -0.56707602581E-01 -0.90634254671E-01  0.89160696657E+00  0.88000000000E+00 0. -1.
        -11    1    4    4    0    0 -0.72485879523E-01  0.29629892548E-01  0.48074597335E-01  0.91888852928E-01  0.51100000000E-03 0.  1.
         11    1    4    4    0    0 -0.22368768182E-01  0.22034916129E-01  0.19828003951E-01  0.37139065423E-01  0.51100000000E-03 0. -1.
</event>
<event>
 8    1  0.1129602E+005  0.1043930E+01  0.7957747E-01            NaN
         13   -1    0    0    0    0  0.00000000000E+00  0.00000000000E+00  0.74505805969E-08  0.10566000000E+00  0.10566000000E+00 0.  1.
     999900   -1    0    0    0    0 -0.00000000000E+00 -0.00000000000E+00 -0.74505805969E-08  0.93827000000E+00  0.93827000000E+00 0.  1.
     999902    2    1    2    0    0 -0.21252673712E-01 -0.10754831502E-01 -0.18454906019E-02  0.10200396594E+01  0.10197598532E+01 0.  0.
     999903    2    3    3    0    0 -0.62272963758E-01 -0.11006000806E+00  0.34934108245E-01  0.13274212122E+00  0.20222547747E-01 0.  0.
         14    1    1    2    0    0  0.21252673712E-01  0.10754831502E-01  0.18454906019E-02  0.23890340645E-01  0.00000000000E+00 0. -1.
     999901    1    3    3    0    0  0.41020290046E-01  0.99305176561E-01 -0.36779598847E-01  0.88729753813E+00  0.88000000000E+00 0. -1.
        -11    1    4    4    0    0 -0.51300889626E-01 -0.76244526002E-01  0.30925751279E-01  0.96962220658E-01  0.51100000000E-03 0.  1.
         11    1    4    4    0    0 -0.10972074132E-01 -0.33815482061E-01  0.40083569658E-02  0.35779900564E-01  0.51100000000E-03 0. -1.
</event>
<event>
 8    1  0.1129602E+005  0.1043930E+01  0.7957747E-01            NaN
         13   -1    0    0    0    0  0.00000000000E+00  0.00000000000E+00  0.74505805969E-08  0.10566000000E+00  0.10566000000E+00 0. -1.
     999900   -1    0    0    0    0 -0.00000000000E+00 -0.00000000000E+00 -0.74505805969E-08  0.93827000000E+00  0.93827000000E+00 0. -1.
     999902    2    1    2    0    0  0.65363445391E-02  0.22094010631E-01  0.46899583044E-02  0.10204169225E+01  0.10201459851E+01 0.  0.
     999903    2    3    3    0    0  0.28058684781E-01 -0.10969686445E+00  0.57925260054E-01  0.12875216303E+00  0.20027278189E-01 0.  0.
         14    1    1    2    0    0 -0.65363445391E-02 -0.22094010631E-01 -0.46899583044E-02  0.23513077523E-01  0.00000000000E+00 0. -1.
     999901    1    3    3    0    0 -0.21522340242E-01  0.13179087508E+00 -0.53235301750E-01  0.89166475944E+00  0.88000000000E+00 0.  1.
        -11    1    4    4    0    0  0.10140570045E-01 -0.77138872450E-01  0.40181613770E-01  0.87567459766E-01  0.51100000000E-03 0.  1.
         11    1    4    4    0    0  0.17918114736E-01 -0.32557991998E-01  0.17743646285E-01  0.41184703266E-01  0.51100000000E-03 0. -1.
</event>
<event>
 8    1  0.1129602E+005  0.1043930E+01  0.7957747E-01            NaN
         13   -1    0    0    0    0  0.00000000000E+00  0.00000000000E+00  0.74505805969E-08  0.10566000000E+00  0.10566000000E+00 0. -1.
     999900   -1    0    0    0    0 -0.00000000000E+00 -0.00000000000E+00 -0.74505805969E-08  0.93827000000E+00  0.93827000000E+00 0. -1.
     999902    2    1    2    0    0 -0.35836110473E-02  0.22344770330E-01 -0.39120325943E-03  0.10212963068E+01  0.10210454751E+01 0.  0.
     999903    2    3    3    0    0 -0.99648549546E-01 -0.79939021480E-01 -0.13636592725E-01  0.13008034707E+00  0.20368098874E-01 0.  0.
         14    1    1    2    0    0  0.35836110473E-02 -0.22344770330E-01  0.39120325943E-03  0.22633693230E-01  0.00000000000E+00 0.  1.
     999901    1    3    3    0    0  0.96064938499E-01  0.10228379181E+00  0.13245389466E-01  0.89121595970E+00  0.88000000000E+00 0.  1.
        -11    1    4    4    0    0 -0.33417373482E-01 -0.26578459584E-01  0.50469439026E-02  0.42998466578E-01  0.51100000000E-03 0.  1.
         11    1    4    4    0    0 -0.66231176065E-01 -0.53360561895E-01 -0.18683536628E-01  0.87081880496E-01  0.51100000000E-03 0. -1.
</event>
<event>
 8    1  0.1129602E+005  0.1043930E+01  0.7957747E-01            NaN
         13   -1    0    0    0    0  0.00000000000E+00  0.00000000000E+00  0.74505805969E-08  0.10566000000E+00  0.10566000000E+00 0. -1.
     999900   -1    0    0    0    0 -0.00000000000E+00 -0.00000000000E+00 -0.74505805969E-08  0.93827000000E+00  0.93827000000E+00 0.  1.
     999902    2    1    2    0    0 -0.11059817133E-01  0.15508642693E-01  0.16311524937E-01  0.10188520535E+01  0.10185433734E+01 0.  0.
     999903    2    3    3    0    0 -0.73727267647E-01  0.90276936040E-01  0.59908729417E-01  0.13238816635E+00  0.18759945448E-01 0.  0.
         14    1    1    2    0    0  0.11059817133E-01 -0.15508642693E-01 -0.16311524937E-01  0.25077946467E-01  0.00000000000E+00 0.  1.
     999901    1    3    3    0    0  0.62667450514E-01 -0.74768293347E-01 -0.43597204480E-01  0.88646388718E+00  0.88000000000E+00 0.  1.
        -11    1    4    4    0    0 -0.65507827388E-01  0.71881719518E-01  0.44164205670E-01  0.10681289825E+00  0.51100000000E-03 0.  1.
         11    1    4    4    0    0 -0.82194402589E-02  0.18395216522E-01  0.15744523747E-01  0.25575268095E-01  0.51100000000E-03 0. -1.
</event>
<event>
 8    1  0.1129602E+005  0.1043930E+01  0.7957747E-01            NaN
         13   -1    0    0    0    0  0.00000000000E+00  0.00000000000E+00  0.74505805969E-08  0.10566000000E+00  0.10566000000E+00 0.  1.
     999900   -1    0    0    0    0 -0.00000000000E+00 -0.00000000000E+00 -0.74505805969E-08  0.93827000000E+00  0.93827000000E+00 0.  1.
     999902    2    1    2    0    0 -0.13510610632E-01  0.14438758907E-01  0.14620237274E-01  0.10193380156E+01  0.10190413261E+01 0.  0.
     999903    2    3    3    0    0  0.12414492946E+00  0.15774615235E-01 -0.17665546280E-01  0.12805062983E+00  0.20593452294E-01 0.  0.
         14    1    1    2    0    0  0.13510610632E-01 -0.14438758907E-01 -0.14620237274E-01  0.24591984393E-01  0.00000000000E+00 0. -1.
     999901    1    3    3    0    0 -0.13765554009E+00 -0.13358563288E-02  0.32285783555E-01  0.89128738578E+00  0.88000000000E+00 0. -1.
        -11    1    4    4    0    0  0.26192146879E-01 -0.39266741418E-02 -0.79847312736E-02  0.27667026990E-01  0.51100000000E-03 0. -1.
         11    1    4    4    0    0  0.97952782581E-01  0.19701289377E-01 -0.96808150067E-02  0.10038360284E+00  0.51100000000E-03 0.  1.
</event>
<event>
 8    1  0.1129602E+005  0.1043930E+01  0.7957747E-01            NaN
         13   -1    0    0    0    0  0.00000000000E+00  0.00000000000E+00  0.74505805969E-08  0.10566000000E+00  0.10566000000E+00 0.  1.
     999900   -1    0    0    0    0 -0.00000000000E+00 -0.00000000000E+00 -0.74505805969E-08  0.93827000000E+00  0.93827000000E+00 0.  1.
     999902    2    1    2    0    0 -0.63824835411E-02 -0.22635960209E-01  0.52367394753E-02  0.10198354730E+01  0.10195508059E+01 0.  0.
     999903    2    3    3    0    0 -0.47256150854E-02  0.65623205169E-01 -0.10823315152E+00  0.12816970510E+00  0.19604125173E-01 0.  0.
         14    1    1    2    0    0  0.63824835411E-02  0.22635960209E-01 -0.52367394753E-02  0.24094526994E-01  0.00000000000E+00 0.  1.
     999901    1    3    3    0    0 -0.16568684557E-02 -0.88259165378E-01  0.11346989100E+00  0.89166576790E+00  0.88000000000E+00 0. -1.
        -11    1    4    4    0    0  0.27459677267E-02  0.19024634204E-01 -0.18000562847E-01  0.26339294394E-01  0.51100000000E-03 0.  1.
         11    1    4    4    0    0 -0.74715828121E-02  0.46598570965E-01 -0.90232588673E-01  0.10183041071E+00  0.51100000000E-03 0. -1.
</event>
<event>
 8    1  0.1129602E+005  0.1043930E+01  0.7957747E-01            NaN
         13   -1    0    0    0    0  0.00000000000E+00  0.00000000000E+00  0.74505805969E-08  0.10566000000E+00  0.10566000000E+00 0.  1.
     999900   -1    0    0    0    0 -0.00000000000E+00 -0.00000000000E+00 -0.74505805969E-08  0.93827000000E+00  0.93827000000E+00 0. -1.
     999902    2    1    2    0    0  0.26784023445E-01 -0.41811904996E-02 -0.23566385878E-01  0.10080100778E+01  0.10073698805E+01 0.  0.
     999903    2    3    3    0    0  0.10273367508E+00 -0.20418841325E-01  0.57036541436E-01  0.12091997937E+00  0.19933320685E-01 0.  0.
         14    1    1    2    0    0 -0.26784023445E-01  0.41811904996E-02  0.23566385878E-01  0.35919922178E-01  0.00000000000E+00 0.  1.
     999901    1    3    3    0    0 -0.75949651638E-01  0.16237650825E-01 -0.80602927315E-01  0.88709009846E+00  0.88000000000E+00 0. -1.
        -11    1    4    4    0    0  0.52264594332E-01 -0.16783026979E-01  0.20901644174E-01  0.58740085677E-01  0.51100000000E-03 0. -1.
         11    1    4    4    0    0  0.50469080752E-01 -0.36358143458E-02  0.36134897262E-01  0.62179893688E-01  0.51100000000E-03 0.  1.
</event>
<event>
 8    1  0.1129602E+005  0.1043930E+01  0.7957747E-01            NaN
         13   -1    0    0    0    0  0.00000000000E+00  0.00000000000E+00  0.74505805969E-08  0.10566000000E+00  0.10566000000E+00 0. -1.
     999900   -1    0    0    0    0 -0.00000000000E+00 -0.00000000000E+00 -0.74505805969E-08  0.93827000000E+00  0.93827000000E+00 0. -1.
     999902    2    1    2    0    0 -0.11333618890E-01 -0.15326590652E-01 -0.14195193376E-01  0.10201632414E+01  0.10198863566E+01 0.  0.
     999903    2    3    3    0    0  0.17907485466E-01  0.51966062517E-01 -0.11738090210E+00  0.13110158224E+00  0.19702766252E-01 0.  0.
         14    1    1    2    0    0  0.11333618890E-01  0.15326590652E-01  0.14195193376E-01  0.23766758574E-01  0.00000000000E+00 0. -1.
     999901    1    3    3    0    0 -0.29241104356E-01 -0.67292653169E-01  0.10318570872E+00  0.88906165919E+00  0.88000000000E+00 0.  1.
        -11    1    4    4    0    0  0.17389514709E-02  0.33018959986E-01 -0.59174459994E-01  0.67787561598E-01  0.51100000000E-03 0. -1.
         11    1    4    4    0    0  0.16168533995E-01  0.18947102531E-01 -0.58206442106E-01  0.63314020639E-01  0.51100000000E-03 0.  1.
</event>
<event>
 8    1  0.1129602E+005  0.1043930E+01  0.7957747E-01            NaN
         13   -1    0    0    0    0  0.00000000000E+00  0.00000000000E+00  0.74505805969E-08  0.10566000000E+00  0.10566000000E+00 0.  1.
     999900   -1    0    0    0    0 -0.00000000000E+00 -0.00000000000E+00 -0.74505805969E-08  0.93827000000E+00  0.93827000000E+00 0.  1.
     999902    2    1    2    0    0  0.17068799418E-01 -0.57079089477E-02  0.14872101129E-01  0.10205825477E+01  0.10203154576E+01 0.  0.
     999903    2    3    3    0    0 -0.70969523705E-01 -0.74370244344E-01  0.79051856238E-01  0.13120956427E+00  0.19978669700E-01 0.  0.
         14    1    1    2    0    0 -0.17068799418E-01  0.57079089477E-02 -0.14872101129E-01  0.23347452326E-01  0.00000000000E+00 0. -1.
     999901    1    3    3    0    0  0.88038323123E-01  0.68662335396E-01 -0.64179755108E-01  0.88937298340E+00  0.88000000000E+00 0.  1.
        -11    1    4    4    0    0 -0.35723456533E-01 -0.23334790859E-01  0.30834251022E-01  0.52646841958E-01  0.51100000000E-03 0.  1.
         11    1    4    4    0    0 -0.35246067173E-01 -0.51035453485E-01  0.48217605216E-01  0.78562722314E-01  0.51100000000E-03 0. -1.
</event>
<event>
 8    1  0.1129602E+005  0.1043930E+01  0.7957747E-01            NaN
         13   -1    0    0    0    0  0.00000000000E+00  0.00000000000E+00  0.74505805969E-08  0.10566000000E+00  0.10566000000E+00 0. -1.
     999900   -1    0    0    0    0 -0.00000000000E+00 -0.00000000000E+00 -0.74505805969E-08  0.93827000000E+00  0.93827000000E+00 0.  1.
     999902    2    1    2    0    0  0.14093029207E-01 -0.14142548917E-01  0.12277679001E-01  0.10204914300E+01  0.10202222268E+01 0.  0.
     999903    2    3    3    0    0 -0.21128479863E-01  0.11968163531E+00  0.38760307791E-01  0.12928393642E+00  0.21020662784E-01 0.  0.
         14    1    1    2    0    0 -0.14093029207E-01  0.14142548917E-01 -0.12277679001E-01  0.23438570002E-01  0.00000000000E+00 0.  1.
     999901    1    3    3    0    0  0.35221509070E-01 -0.13382418423E+00 -0.26482628791E-01  0.89120749358E+00  0.88000000000E+00 0.  1.
        -11    1    4    4    0    0 -0.16554305328E-01  0.45710919820E-01  0.91411665088E-02  0.49470751579E-01  0.51100000000E-03 0.  1.
         11    1    4    4    0    0 -0.45741745344E-02  0.73970715490E-01  0.29619141282E-01  0.79813184839E-01  0.51100000000E-03 0. -1.
</event>
<event>
 8    1  0.1129602E+005  0.1043930E+01  0.7957747E-01            NaN
         13   -1    0    0    0    0  0.00000000000E+00  0.00000000000E+00  0.74505805969E-08  0.10566000000E+00  0.10566000000E+00 0.  1.
     999900   -1    0    0    0    0 -0.00000000000E+00 -0.00000000000E+00 -0.74505805969E-08  0.93827000000E+00  0.93827000000E+00 0.  1.
     999902    2    1    2    0    0  0.22629730995E-01 -0.39163083077E-02 -0.16798658062E-03  0.10209632759E+01  0.10207049233E+01 0.  0.
     999903    2    3    3    0    0 -0.11774460163E+00 -0.48045844094E-01  0.37466067166E-02  0.12873701917E+00  0.19672028234E-01 0.  0.
         14    1    1    2    0    0 -0.22629730995E-01  0.39163083077E-02  0.16798658062E-03  0.22966724085E-01  0.00000000000E+00 0. -1.
     999901    1    3    3    0    0  0.14037433262E+00  0.44129535787E-01 -0.39145932972E-02  0.89222625675E+00  0.88000000000E+00 0.  1.
        -11    1    4    4    0    0 -0.15757543472E-01  0.39883367732E-03  0.71315531695E-03  0.15786986922E-01  0.51100000000E-03 0. -1.
         11    1    4    4    0    0 -0.10198705816E+00 -0.48444677772E-01  0.30334513996E-02  0.11295003225E+00  0.51100000000E-03 0.  1.
</event>
<event>
 8    1  0.1129602E+005  0.1043930E+01  0.7957747E-01            NaN
         13   -1    0    0    0    0  0.00000000000E+00  0.00000000000E+00  0.74505805969E-08  0.10566000000E+00  0.10566000000E+00 0.  1.
     999900   -1    0    0    0    0 -0.00000000000E+00 -0.00000000000E+00 -0.74505805969E-08  0.93827000000E+00  0.93827000000E+00 0.  1.
     999902    2    1    2    0    0 -0.62431758981E-02 -0.36020205979E-02  0.22629379835E-01  0.10201804604E+01  0.10199039814E+01 0.  0.
     999903    2    3    3    0    0  0.55100694530E-01  0.98055504373E-01  0.63977993937E-01  0.13124456246E+00  0.21931324453E-01 0.  0.
         14    1    1    2    0    0  0.62431758981E-02  0.36020205979E-02 -0.22629379835E-01  0.23749539562E-01  0.00000000000E+00 0. -1.
     999901    1    3    3    0    0 -0.61343870428E-01 -0.10165752497E+00 -0.41348614103E-01  0.88893589798E+00  0.88000000000E+00 0. -1.
        -11    1    4    4    0    0  0.31049372173E-01  0.75397232507E-01  0.46113663526E-01  0.93677837650E-01  0.51100000000E-03 0. -1.
         11    1    4    4    0    0  0.24051322357E-01  0.22658271865E-01  0.17864330412E-01  0.37566724812E-01  0.51100000000E-03 0.  1.
</event>
<event>
 8    1  0.1129602E+005  0.1043930E+01  0.7957747E-01            NaN
         13   -1    0    0    0    0  0.00000000000E+00  0.00000000000E+00  0.74505805969E-08  0.10566000000E+00  0.10566000000E+00 0. -1.
     999900   -1    0    0    0    0 -0.00000000000E+00 -0.00000000000E+00 -0.74505805969E-08  0.93827000000E+00  0.93827000000E+00 0. -1.
     999902    2    1    2    0    0  0.15451604529E-01  0.67895947853E-02  0.16392070373E-01  0.10204023428E+01  0.10201310654E+01 0.  0.
     999903    2    3    3    0    0 -0.42905841683E-01 -0.94320464706E-01 -0.72692278046E-01  0.12823371709E+00  0.20553773327E-01 0.  0.
         14    1    1    2    0    0 -0.15451604529E-01 -0.67895947853E-02 -0.16392070373E-01  0.23527657150E-01  0.00000000000E+00 0.  1.
     999901    1    3    3    0    0  0.58357446212E-01  0.10111005949E+00  0.89084348420E-01  0.89216862576E+00  0.88000000000E+00 0.  1.
        -11    1    4    4    0    0 -0.19138082586E-01 -0.35039354388E-01 -0.16645206998E-01  0.43259063767E-01  0.51100000000E-03 0.  1.
         11    1    4    4    0    0 -0.23767759097E-01 -0.59281110317E-01 -0.56047071049E-01  0.84974653322E-01  0.51100000000E-03 0. -1.
</event>
<event>
 8    1  0.1129602E+005  0.1043930E+01  0.7957747E-01            NaN
         13   -1    0    0    0    0  0.00000000000E+00  0.00000000000E+00  0.74505805969E-08  0.10566000000E+00  0.10566000000E+00 0.  1.
     999900   -1    0    0    0    0 -0.00000000000E+00 -0.00000000000E+00 -0.74505805969E-08  0.93827000000E+00  0.93827000000E+00 0. -1.
     999902    2    1    2    0    0 -0.17307187608E-01  0.11282097015E-01 -0.11699108596E-01  0.10201877676E+01  0.10199114607E+01 0.  0.
     999903    2    3    3    0    0  0.60630561747E-01  0.82657153311E-01 -0.79553847435E-01  0.13127103530E+00  0.19874608305E-01 0.  0.
         14    1    1    2    0    0  0.17307187608E-01 -0.11282097015E-01  0.11699108596E-01  0.23742232370E-01  0.00000000000E+00 0. -1.
     999901    1    3    3    0    0 -0.77937749356E-01 -0.71375056296E-01  0.67854738839E-01  0.88891673233E+00  0.88000000000E+00 0.  1.
        -11    1    4    4    0    0  0.31624407104E-01  0.55109126698E-01 -0.56913723046E-01  0.85302707824E-01  0.51100000000E-03 0. -1.
         11    1    4    4    0    0  0.29006154643E-01  0.27548026613E-01 -0.22640124389E-01  0.45968327474E-01  0.51100000000E-03 0.  1.
</event>
<event>
 8    1  0.1129602E+005  0.1043930E+01  0.7957747E-01            NaN
         13   -1    0    0    0    0  0.00000000000E+00  0.00000000000E+00  0.74505805969E-08  0.10566000000E+00  0.10566000000E+00 0.  1.
     999900   -1    0    0    0    0 -0.00000000000E+00 -0.00000000000E+00 -0.74505805969E-08  0.93827000000E+00  0.93827000000E+00 0.  1.
     999902    2    1    2    0    0  0.80233848303E-02 -0.98496670986E-02  0.20208112297E-01  0.10200603865E+01  0.10197810714E+01 0.  0.
     999903    2    3    3    0    0 -0.99245980775E-01 -0.18075827964E-01 -0.76546733487E-01  0.12824432547E+00  0.20265841999E-01 0.  0.
         14    1    1    2    0    0 -0.80233848303E-02  0.98496670986E-02 -0.20208112297E-01  0.23869613501E-01  0.00000000000E+00 0. -1.
     999901    1    3    3    0    0  0.10726936561E+00  0.82261608650E-02  0.96754845784E-01  0.89181606103E+00  0.88000000000E+00 0.  1.
        -11    1    4    4    0    0 -0.79891981544E-01 -0.22498621698E-01 -0.63045698291E-01  0.10423021581E+00  0.51100000000E-03 0. -1.
         11    1    4    4    0    0 -0.19353999232E-01  0.44227937344E-02 -0.13501035197E-01  0.24014109666E-01  0.51100000000E-03 0.  1.
</event>
<event>
 8    1  0.1129602E+005  0.1043930E+01  0.7957747E-01            NaN
         13   -1    0    0    0    0  0.00000000000E+00  0.00000000000E+00  0.74505805969E-08  0.10566000000E+00  0.10566000000E+00 0. -1.
     999900   -1    0    0    0    0 -0.00000000000E+00 -0.00000000000E+00 -0.74505805969E-08  0.93827000000E+00  0.93827000000E+00 0.  1.
     999902    2    1    2    0    0  0.18837418586E-01 -0.12065047777E-01 -0.20938653947E-02  0.10214622901E+01  0.10212151644E+01 0.  0.
     999903    2    3    3    0    0  0.85699587598E-01  0.49738136728E-01  0.85239028185E-01  0.13246441744E+00  0.21513446983E-01 0.  0.
         14    1    1    2    0    0 -0.18837418586E-01  0.12065047777E-01  0.20938653947E-02  0.22467709922E-01  0.00000000000E+00 0. -1.
     999901    1    3    3    0    0 -0.66862169012E-01 -0.61803184505E-01 -0.87332893580E-01  0.88899787264E+00  0.88000000000E+00 0.  1.
        -11    1    4    4    0    0  0.38370919219E-01  0.17806315629E-01  0.23587551270E-01  0.48435792694E-01  0.51100000000E-03 0. -1.
         11    1    4    4    0    0  0.47328668379E-01  0.31931821100E-01  0.61651476915E-01  0.84028624742E-01  0.51100000000E-03 0.  1.
</event>
<event>
 8    1  0.1129602E+005  0.1043930E+01  0.7957747E-01            NaN
         13   -1    0    0    0    0  0.00000000000E+00  0.00000000000E+00  0.74505805969E-08  0.10566000000E+00  0.10566000000E+00 0.  1.
     999900   -1    0    0    0    0 -0.00000000000E+00 -0.00000000000E+00 -0.74505805969E-08  0.93827000000E+00  0.93827000000E+00 0. -1.
     999902    2    1    2    0    0  0.84801810894E-02  0.57037207132E-03  0.20820024257E-01  0.10214419542E+01  0.10211943760E+01 0.  0.
     999903    2    3    3    0    0  0.77487826108E-01 -0.10468029026E+00 -0.88759497582E-02  0.13199178250E+00  0.19512093676E-01 0.  0.
         14    1    1    2    0    0 -0.84801810894E-02 -0.57037207132E-03 -0.20820024257E-01  0.22488045840E-01  0.00000000000E+00 0. -1.
     999901    1    3    3    0    0 -0.69007645019E-01  0.10525066233E+00  0.29695974016E-01  0.88945017166E+00  0.88000000000E+00 0.  1.
        -11    1    4    4    0    0  0.43859305168E-01 -0.74231749422E-01 -0.33335639179E-02  0.86286528736E-01  0.51100000000E-03 0.  1.
         11    1    4    4    0    0  0.33628520941E-01 -0.30448540839E-01 -0.55423858403E-02  0.45705253764E-01  0.51100000000E-03 0. -1.
</event>
<event>
 8    1  0.1129602E+005  0.1043930E+01  0.7957747E-01            NaN
         13   -1    0    0    0    0  0.00000000000E+00  0.00000000000E+00  0.74505805969E-08  0.10566000000E+00  0.10566000000E+00 0.  1.
     999900   -1    0    0    0    0 -0.00000000000E+00 -0.00000000000E+00 -0.74505805969E-08  0.93827000000E+00  0.93827000000E+00 0.  1.
     999902    2    1    2    0    0  0.15899289666E-01 -0.16907246714E-01  0.40119266379E-02  0.10203771242E+01  0.10201052581E+01 0.  0.
     999903    2    3    3    0    0  0.32384662546E-01  0.12089925448E+00  0.21160441508E-01  0.12933477343E+00  0.24785544833E-01 0.  0.
         14    1    1    2    0    0 -0.15899289666E-01  0.16907246714E-01 -0.40119266379E-02  0.23552875805E-01  0.00000000000E+00 0. -1.
     999901    1    3    3    0    0 -0.16485372879E-01 -0.13780650119E+00 -0.17148514870E-01  0.89104235076E+00  0.88000000000E+00 0. -1.
        -11    1    4    4    0    0 -0.11596669152E-03  0.44265229704E-01  0.95455796087E-02  0.45285794904E-01  0.51100000000E-03 0. -1.
         11    1    4    4    0    0  0.32500629237E-01  0.76634024774E-01  0.11614861899E-01  0.84048978529E-01  0.51100000000E-03 0.  1.
</event>
<event>
 8    1  0.1129602E+005  0.1043930E+01  0.7957747E-01            NaN
         13   -1    0    0    0    0  0.00000000000E+00  0.00000000000E+00  0.74505805969E-08  0.10566000000E+00  0.10566000000E+00 0. -1.
     999900   -1    0    0    0    0 -0.00000000000E+00 -0.00000000000E+00 -0.74505805969E-08  0.93827000000E+00  0.93827000000E+00 0. -1.
     999902    2    1    2    0    0 -0.22367070019E-01  0.73239567704E-02 -0.92023868428E-03  0.10203763803E+01  0.10201044968E+01 0.  0.
     999903    2    3    3    0    0  0.10171352156E+00  0.76579052107E-01 -0.25518970667E-02  0.12897583967E+00  0.20451487760E-01 0.  0.
         14    1    1    2    0    0  0.22367070019E-01 -0.73239567704E-02  0.92023868428E-03  0.23553619748E-01  0.00000000000E+00 0. -1.
     999901    1    3    3    0    0 -0.12408059158E+00 -0.69255095337E-01  0.16316583824E-02  0.89140054058E+00  0.88000000000E+00 0.  1.
        -11    1    4    4    0    0  0.81914656801E-01  0.70790619320E-01 -0.34642738895E-02  0.10832167418E+00  0.51100000000E-03 0.  1.
         11    1    4    4    0    0  0.19798864756E-01  0.57884327870E-02  0.91237682278E-03  0.20654165493E-01  0.51100000000E-03 0. -1.
</event>
<event>
 7    1  0.1129602E+005  0.1043930E+01  0.7957747E-01            NaN
         13   -1    0    0    0    0  0.00000000000E+00  0.00000000000E+00  0.74505805969E-08  0.10566000000E+00  0.10566000000E+00 0.  1.
     999900   -1    0    0    0    0 -0.00000000000E+00 -0.00000000000E+00 -0.74505805969E-08  0.93827000000E+00  0.93827000000E+00 0.  1.
     999902    2    1    2    0    0  0.17594893270E-01  0.44130647252E-02  0.17153243599E-01  0.10189642399E+01  0.10186583495E+01 0.  0.
         14    1    1    2    0    0 -0.17594893270E-01 -0.44130647252E-02 -0.17153243599E-01  0.24965760061E-01  0.00000000000E+00 0.  1.
     999901    1    3    3    0    0  0.73222553157E-01  0.14834612826E-01 -0.99984716000E-01  0.88880737590E+00  0.88000000000E+00 0.  1.
        -11    1    3    3    0    0 -0.15552035854E-01 -0.12909470229E-02  0.33848810162E-01  0.37276472926E-01  0.51100000000E-03 0.  1.
         11    1    3    3    0    0 -0.40075624033E-01 -0.91306010777E-02  0.83289149436E-01  0.92880391109E-01  0.51100000000E-03 0. -1.
</event>
<event>
 8    1  0.1129602E+005  0.1043930E+01  0.7957747E-01            NaN
         13   -1    0    0    0    0  0.00000000000E+00  0.00000000000E+00  0.74505805969E-08  0.10566000000E+00  0.10566000000E+00 0. -1.
     999900   -1    0    0    0    0 -0.00000000000E+00 -0.00000000000E+00 -0.74505805969E-08  0.93827000000E+00  0.93827000000E+00 0. -1.
     999902    2    1    2    0    0  0.12452232869E-01 -0.18789816296E-01 -0.89028999747E-02  0.10196941396E+01  0.10194060827E+01 0.  0.
     999903    2    3    3    0    0 -0.11915069070E+00  0.14364219062E-01 -0.41764080026E-01  0.12868438845E+00  0.20303092528E-01 0.  0.
         14    1    1    2    0    0 -0.12452232869E-01  0.18789816296E-01  0.89028999747E-02  0.24235860369E-01  0.00000000000E+00 0.  1.
     999901    1    3    3    0    0  0.13160292357E+00 -0.33154035358E-01  0.32861180051E-01  0.89100975118E+00  0.88000000000E+00 0. -1.
        -11    1    4    4    0    0 -0.62391543283E-01  0.14145818988E-01 -0.13977178714E-01  0.65486116956E-01  0.51100000000E-03 0.  1.
         11    1    4    4    0    0 -0.56759147415E-01  0.21840007349E-03 -0.27786901312E-01  0.63198271490E-01  0.51100000000E-03 0. -1.
</event>
<event>
 8    1  0.1129602E+005  0.1043930E+01  0.7957747E-01            NaN
         13   -1    0    0    0    0  0.00000000000E+00  0.00000000000E+00  0.74505805969E-08  0.10566000000E+00  0.10566000000E+00 0. -1.
     999900   -1    0    0    0    0 -0.00000000000E+00 -0.00000000000E+00 -0.74505805969E-08  0.93827000000E+00  0.93827000000E+00 0.  1.
     999902    2    1    2    0    0 -0.16016131231E-01 -0.14502508553E-01  0.97113314232E-02  0.10202414126E+01  0.10199663675E+01 0.  0.
     999903    2    3    3    0    0  0.11979140455E+00  0.30768361432E-01  0.28348276480E-01  0.12847884660E+00  0.20162256182E-01 0.  0.
         14    1    1    2    0    0  0.16016131231E-01  0.14502508553E-01 -0.97113314232E-02  0.23688587378E-01  0.00000000000E+00 0.  1.
     999901    1    3    3    0    0 -0.13580753578E+00 -0.45270869985E-01 -0.18636945057E-01  0.89176256603E+00  0.88000000000E+00 0.  1.
        -11    1    4    4    0    0  0.52854775208E-01  0.21320034326E-01  0.19810334619E-01  0.60339718301E-01  0.51100000000E-03 0. -1.
         11    1    4    4    0    0  0.66936629341E-01  0.94483271059E-02  0.85379418614E-02  0.68139128296E-01  0.51100000000E-03 0.  1.
</event>
<event>
 8    1  0.1129602E+005  0.1043930E+01  0.7957747E-01            NaN
         13   -1    0    0    0    0  0.00000000000E+00  0.00000000000E+00  0.74505805969E-08  0.10566000000E+00  0.10566000000E+00 0. -1.
     999900   -1    0    0    0    0 -0.00000000000E+00 -0.00000000000E+00 -0.74505805969E-08  0.93827000000E+00  0.93827000000E+00 0.  1.
     999902    2    1    2    0    0  0.82745462241E-02  0.10216610257E-01 -0.19200013489E-01  0.10206601105E+01  0.10203948125E+01 0.  0.
     999903    2    3    3    0    0 -0.64309473439E-01 -0.26024667137E-01  0.10583987969E+00  0.12812616436E+00  0.20031030597E-01 0.  0.
         14    1    1    2    0    0 -0.82745462241E-02 -0.10216610257E-01  0.19200013489E-01  0.23269889521E-01  0.00000000000E+00 0. -1.
     999901    1    3    3    0    0  0.72584019663E-01  0.36241277394E-01 -0.12503989317E+00  0.89253394612E+00  0.88000000000E+00 0.  1.
        -11    1    4    4    0    0 -0.33895857113E-01 -0.86845337542E-02  0.37206889947E-01  0.51078019113E-01  0.51100000000E-03 0. -1.
         11    1    4    4    0    0 -0.30413616326E-01 -0.17340133383E-01  0.68632989739E-01  0.77048145242E-01  0.51100000000E-03 0.  1.
</event>
<event>
 8    1  0.1129602E+005  0.1043930E+01  0.7957747E-01            NaN
         13   -1    0    0    0    0  0.00000000000E+00  0.00000000000E+00  0.74505805969E-08  0.10566000000E+00  0.10566000000E+00 0.  1.
     999900   -1    0    0    0    0 -0.00000000000E+00 -0.00000000000E+00 -0.74505805969E-08  0.93827000000E+00  0.93827000000E+00 0. -1.
     999902    2    1    2    0    0 -0.14096649967E-02  0.48691163531E-02 -0.23260981645E-01  0.10201230952E+01  0.10198452631E+01 0.  0.
     999903    2    3    3    0    0 -0.11094147195E+00 -0.64621114500E-01  0.28797950017E-02  0.13023015269E+00  0.21626391535E-01 0.  0.
         14    1    1    2    0    0  0.14096649967E-02 -0.48691163531E-02  0.23260981645E-01  0.23806904808E-01  0.00000000000E+00 0.  1.
     999901    1    3    3    0    0  0.10953180696E+00  0.69490230853E-01 -0.26140776646E-01  0.88989294251E+00  0.88000000000E+00 0.  1.
        -11    1    4    4    0    0 -0.79685646000E-01 -0.57112521429E-01  0.15133825910E-02  0.98051995035E-01  0.51100000000E-03 0.  1.
         11    1    4    4    0    0 -0.31255825953E-01 -0.75085930711E-02  0.13664124107E-02  0.32178157651E-01  0.51100000000E-03 0. -1.
</event>
<event>
 8    1  0.1129602E+005  0.1043930E+01  0.7957747E-01            NaN
         13   -1    0    0    0    0  0.00000000000E+00  0.00000000000E+00  0.74505805969E-08  0.10566000000E+00  0.10566000000E+00 0.  1.
     999900   -1    0    0    0    0 -0.00000000000E+00 -0.00000000000E+00 -0.74505805969E-08  0.93827000000E+00  0.93827000000E+00 0. -1.
     999902    2    1    2    0    0  0.13167680719E-01 -0.20073280468E-01  0.69579980783E-02  0.10189352377E+01  0.10186286274E+01 0.  0.
     999903    2    3    3    0    0  0.50722935673E-01 -0.11648844355E+00 -0.30661098825E-01  0.13207477671E+00  0.19007103350E-01 0.  0.
         14    1    1    2    0    0 -0.13167680719E-01  0.20073280468E-01 -0.69579980783E-02  0.24994762282E-01  0.00000000000E+00 0.  1.
     999901    1    3    3    0    0 -0.37555254954E-01  0.96415163083E-01  0.37619096903E-01  0.88686046101E+00  0.88000000000E+00 0.  1.
        -11    1    4    4    0    0  0.35915059805E-01 -0.10021841881E+00 -0.25486458664E-01  0.10946891653E+00  0.51100000000E-03 0. -1.
         11    1    4    4    0    0  0.14807875868E-01 -0.16270024740E-01 -0.51746401613E-02  0.22605860182E-01  0.51100000000E-03 0.  1.
</event>
<event>
 8    1  0.1129602E+005  0.1043930E+01  0.7957747E-01            NaN
         13   -1    0    0    0    0  0.00000000000E+00  0.00000000000E+00  0.74505805969E-08  0.10566000000E+00  0.10566000000E+00 0. -1.
     999900   -1    0    0    0    0 -0.00000000000E+00 -0.00000000000E+00 -0.74505805969E-08  0.93827000000E+00  0.93827000000E+00 0. -1.
     999902    2    1    2    0    0 -0.15092842597E-02  0.57355957103E-02  0.25333356763E-01  0.10179116610E+01  0.10175790857E+01 0.  0.
     999903    2    3    3    0    0 -0.79983508142E-01  0.94934594607E-03 -0.95776326405E-01  0.12614450121E+00  0.18468017046E-01 0.  0.
         14    1    1    2    0    0  0.15092842597E-02 -0.57355957103E-02 -0.25333356763E-01  0.26018338956E-01  0.00000000000E+00 0.  1.
     999901    1    3    3    0    0  0.78474223882E-01  0.47862497642E-02  0.12110968317E+00  0.89176715983E+00  0.88000000000E+00 0.  1.
        -11    1    4    4    0    0 -0.12456242980E-01  0.61871114448E-04 -0.27074806671E-01  0.29807181928E-01  0.51100000000E-03 0. -1.
         11    1    4    4    0    0 -0.67527265162E-01  0.88747483163E-03 -0.68701519734E-01  0.96337319283E-01  0.51100000000E-03 0.  1.
</event>
<event>
 8    1  0.1129602E+005  0.1043930E+01  0.7957747E-01            NaN
         13   -1    0    0    0    0  0.00000000000E+00  0.00000000000E+00  0.74505805969E-08  0.10566000000E+00  0.10566000000E+00 0. -1.
     999900   -1    0    0    0    0 -0.00000000000E+00 -0.00000000000E+00 -0.74505805969E-08  0.93827000000E+00  0.93827000000E+00 0.  1.
     999902    2    1    2    0    0  0.21742276119E-01 -0.61267446127E-02 -0.63867012901E-02  0.10204554707E+01  0.10201854313E+01 0.  0.
     999903    2    3    3    0    0 -0.12054531233E+00 -0.28803896384E-01 -0.27936960216E-01  0.12847765449E+00  0.19110133041E-01 0.  0.
         14    1    1    2    0    0 -0.21742276119E-01  0.61267446127E-02  0.63867012901E-02  0.23474529255E-01  0.00000000000E+00 0. -1.
     999901    1    3    3    0    0  0.14228758845E+00  0.22677151772E-01  0.21550258926E-01  0.89197781626E+00  0.88000000000E+00 0. -1.
        -11    1    4    4    0    0 -0.10132028940E+00 -0.22148866084E-01 -0.16162009583E-01  0.10496592298E+00  0.51100000000E-03 0.  1.
         11    1    4    4    0    0 -0.19225022932E-01 -0.66550303002E-02 -0.11774950633E-01  0.23511731507E-01  0.51100000000E-03 0. -1.
</event>
<event>
 8    1  0.1129602E+005  0.1043930E+01  0.7957747E-01            NaN
         13   -1    0    0    0    0  0.00000000000E+00  0.00000000000E+00  0.74505805969E-08  0.10566000000E+00  0.10566000000E+00 0.  1.
     999900   -1    0    0    0    0 -0.00000000000E+00 -0.00000000000E+00 -0.74505805969E-08  0.93827000000E+00  0.93827000000E+00 0.  1.
     999902    2    1    2    0    0 -0.19100354347E-01  0.12627852143E-01  0.70851530653E-02  0.10199615712E+01  0.10196799111E+01 0.  0.
     999903    2    3    3    0    0 -0.55425053367E-01 -0.59887986629E-01 -0.98966360439E-01  0.12989137499E+00  0.20467567415E-01 0.  0.
         14    1    1    2    0    0  0.19100354347E-01 -0.12627852143E-01 -0.70851530653E-02  0.23968428816E-01  0.00000000000E+00 0. -1.
     999901    1    3    3    0    0  0.36324699020E-01  0.72515838772E-01  0.10605151350E+00  0.89007019619E+00  0.88000000000E+00 0. -1.
        -11    1    4    4    0    0 -0.43323282353E-01 -0.56237167206E-01 -0.78582565618E-01  0.10590092780E+00  0.51100000000E-03 0. -1.
         11    1    4    4    0    0 -0.12101771014E-01 -0.36508194227E-02 -0.20383794821E-01  0.23990447191E-01  0.51100000000E-03 0.  1.
</event>
<event>
 8    1  0.1129602E+005  0.1043930E+01  0.7957747E-01            NaN
         13   -1    0    0    0    0  0.00000000000E+00  0.00000000000E+00  0.74505805969E-08  0.10566000000E+00  0.10566000000E+00 0.  1.
     999900   -1    0    0    0    0 -0.00000000000E+00 -0.00000000000E+00 -0.74505805969E-08  0.93827000000E+00  0.93827000000E+00 0. -1.
     999902    2    1    2    0    0 -0.21673816797E-01 -0.35338697717E-02 -0.63945635429E-02  0.10210578988E+01  0.10208016946E+01 0.  0.
     999903    2    3    3    0    0 -0.11873497101E+00  0.21549605414E-01 -0.54706902620E-01  0.13404936982E+00  0.20347223884E-01 0.  0.
         14    1    1    2    0    0  0.21673816797E-01  0.35338697717E-02  0.63945635429E-02  0.22872101193E-01  0.00000000000E+00 0. -1.
     999901    1    3    3    0    0  0.97061154218E-01 -0.25083475185E-01  0.48312339078E-01  0.88700852899E+00  0.88000000000E+00 0.  1.
        -11    1    4    4    0    0 -0.39700631694E-01  0.53204253726E-03 -0.25584506457E-01  0.47236123018E-01  0.51100000000E-03 0. -1.
         11    1    4    4    0    0 -0.79034339321E-01  0.21017562876E-01 -0.29122396163E-01  0.86813246803E-01  0.51100000000E-03 0.  1.
</event>
<event>
 8    1  0.1129602E+005  0.1043930E+01  0.7957747E-01            NaN
         13   -1    0    0    0    0  0.00000000000E+00  0.00000000000E+00  0.74505805969E-08  0.10566000000E+00  0.10566000000E+00 0. -1.
     999900   -1    0    0    0    0 -0.00000000000E+00 -0.00000000000E+00 -0.74505805969E-08  0.93827000000E+00  0.93827000000E+00 0.  1.
     999902    2    1    2    0    0 -0.22739763575E-02 -0.53144629473E-02 -0.24176412712E-01  0.10190721357E+01  0.10187689161E+01 0.  0.
     999903    2    3    3    0    0 -0.64298134443E-01  0.77465148109E-01 -0.81731193206E-01  0.13114645586E+00  0.19603715931E-01 0.  0.
         14    1    1    2    0    0  0.22739763575E-02  0.53144629473E-02  0.24176412712E-01  0.24857864279E-01  0.00000000000E+00 0. -1.
     999901    1    3    3    0    0  0.62024158085E-01 -0.82779611057E-01  0.57554780494E-01  0.88792567986E+00  0.88000000000E+00 0. -1.
        -11    1    4    4    0    0 -0.31005740119E-01  0.38541623295E-01 -0.52656463118E-01  0.72248023334E-01  0.51100000000E-03 0.  1.
         11    1    4    4    0    0 -0.33292394324E-01  0.38923524814E-01 -0.29074730088E-01  0.58898432530E-01  0.51100000000E-03 0. -1.
</event>
<event>
 8    1  0.1129602E+005  0.1043930E+01  0.7957747E-01            NaN
         13   -1    0    0    0    0  0.00000000000E+00  0.00000000000E+00  0.74505805969E-08  0.10566000000E+00  0.10566000000E+00 0.  1.
     999900   -1    0    0    0    0 -0.00000000000E+00 -0.00000000000E+00 -0.74505805969E-08  0.93827000000E+00  0.93827000000E+00 0. -1.
     999902    2    1    2    0    0  0.62722993542E-02 -0.12828650564E-01 -0.16345283373E-01  0.10222255234E+01  0.10219950765E+01 0.  0.
     999903    2    3    3    0    0 -0.56716457395E-01  0.33096984431E-01  0.10979103517E+00  0.12982028013E+00  0.22069590189E-01 0.  0.
         14    1    1    2    0    0 -0.62722993542E-02  0.12828650564E-01  0.16345283373E-01  0.21704476566E-01  0.00000000000E+00 0.  1.
     999901    1    3    3    0    0  0.62988756750E-01 -0.45925634995E-01 -0.12613631854E+00  0.89240524331E+00  0.88000000000E+00 0. -1.
        -11    1    4    4    0    0 -0.38186716334E-01  0.11168978400E-01  0.73122522924E-01  0.83247437574E-01  0.51100000000E-03 0.  1.
         11    1    4    4    0    0 -0.18529741062E-01  0.21928006031E-01  0.36668512244E-01  0.46572842553E-01  0.51100000000E-03 0. -1.
</event>
<event>
 8    1  0.1129602E+005  0.1043930E+01  0.7957747E-01            NaN
         13   -1    0    0    0    0  0.00000000000E+00  0.00000000000E+00  0.74505805969E-08  0.10566000000E+00  0.10566000000E+00 0.  1.
     999900   -1    0    0    0    0 -0.00000000000E+00 -0.00000000000E+00 -0.74505805969E-08  0.93827000000E+00  0.93827000000E+00 0.  1.
     999902    2    1    2    0    0 -0.39600212687E-02 -0.12752933475E-01  0.18391158380E-01  0.10212021803E+01  0.10209492344E+01 0.  0.
     999903    2    3    3    0    0 -0.24453356613E-01 -0.92496595930E-01 -0.87989415462E-01  0.13097981766E+00  0.16124158669E-01 0.  0.
         14    1    1    2    0    0  0.39600212687E-02  0.12752933475E-01 -0.18391158380E-01  0.22727819676E-01  0.00000000000E+00 0. -1.
     999901    1    3    3    0    0  0.20493335345E-01  0.79743662455E-01  0.10638057384E+00  0.89022236266E+00  0.88000000000E+00 0. -1.
        -11    1    4    4    0    0 -0.59420966912E-02 -0.18393300565E-01 -0.27136199688E-01  0.33320511300E-01  0.51100000000E-03 0. -1.
         11    1    4    4    0    0 -0.18511259922E-01 -0.74103295365E-01 -0.60853215774E-01  0.97659306361E-01  0.51100000000E-03 0.  1.
</event>
<event>
 8    1  0.1129602E+005  0.1043930E+01  0.7957747E-01            NaN
         13   -1    0    0    0    0  0.00000000000E+00  0.00000000000E+00  0.74505805969E-08  0.10566000000E+00  0.10566000000E+00 0.  1.
     999900   -1    0    0    0    0 -0.00000000000E+00 -0.00000000000E+00 -0.74505805969E-08  0.93827000000E+00  0.93827000000E+00 0.  1.
     999902    2    1    2    0    0  0.66055658811E-02  0.16455298875E-01 -0.15797785622E-01  0.10201817286E+01  0.10199052795E+01 0.  0.
     999903    2    3    3    0    0 -0.97495566142E-01  0.84659119360E-01 -0.47369917538E-02  0.13135601571E+00  0.23651889233E-01 0.  0.
         14    1    1    2    0    0 -0.66055658811E-02 -0.16455298875E-01  0.15797785622E-01  0.23748271352E-01  0.00000000000E+00 0.  1.
     999901    1    3    3    0    0  0.10410113202E+00 -0.68203820485E-01 -0.11060793868E-01  0.88882571294E+00  0.88000000000E+00 0. -1.
        -11    1    4    4    0    0 -0.60067628194E-01  0.44802811874E-01 -0.13001770217E-01  0.76057340596E-01  0.51100000000E-03 0. -1.
         11    1    4    4    0    0 -0.37427937948E-01  0.39856307486E-01  0.82647784628E-02  0.55298675115E-01  0.51100000000E-03 0.  1.
</event>
<event>
 8    1  0.1129602E+005  0.1043930E+01  0.7957747E-01            NaN
         13   -1    0    0    0    0  0.00000000000E+00  0.00000000000E+00  0.74505805969E-08  0.10566000000E+00  0.10566000000E+00 0. -1.
     999900   -1    0    0    0    0 -0.00000000000E+00 -0.00000000000E+00 -0.74505805969E-08  0.93827000000E+00  0.93827000000E+00 0. -1.
     999902    2    1    2    0    0 -0.39091393417E-02  0.20692128337E-01 -0.11320854984E-01  0.10200216897E+01  0.10197414575E+01 0.  0.
     999903    2    3    3    0    0 -0.42488633363E-03  0.48557768090E-01  0.11896735901E+00  0.12998593049E+00  0.19623257814E-01 0.  0.
         14    1    1    2    0    0  0.39091393417E-02 -0.20692128337E-01  0.11320854984E-01  0.23908310335E-01  0.00000000000E+00 0.  1.
     999901    1    3    3    0    0 -0.34842530081E-02 -0.27865639753E-01 -0.13028821399E+00  0.89003575917E+00  0.88000000000E+00 0.  1.
        -11    1    4    4    0    0 -0.96403011107E-02  0.24246021411E-01  0.66212206450E-01  0.71169673062E-01  0.51100000000E-03 0.  1.
         11    1    4    4    0    0  0.92154147771E-02  0.24311746679E-01  0.52755152556E-01  0.58816257432E-01  0.51100000000E-03 0. -1.
</event>
<event>
 7    1  0.1129602E+005  0.1043930E+01  0.7957747E-01            NaN
         13   -1    0    0    0    0  0.00000000000E+00  0.00000000000E+00  0.74505805969E-08  0.10566000000E+00  0.10566000000E+00 0.  1.
     999900   -1    0    0    0    0 -0.00000000000E+00 -0.00000000000E+00 -0.74505805969E-08  0.93827000000E+00  0.93827000000E+00 0. -1.
     999903    2    1    2    0    0 -0.54479467883E-01 -0.93000297153E-01  0.29905946944E-01  0.11374221392E+00  0.20636324142E-01 0.  0.
         14    1    1    2    0    0  0.39054201101E-02 -0.38206341626E-01  0.19488456800E-02  0.38454841648E-01  0.00000000000E+00 0.  1.
     999901    1    1    2    0    0  0.50574047773E-01  0.13120663878E+00 -0.31854792624E-01  0.89173294443E+00  0.88000000000E+00 0.  1.
        -11    1    3    3    0    0 -0.30060848709E-01 -0.69908243139E-01  0.19534542187E-01  0.78566383035E-01  0.51100000000E-03 0. -1.
         11    1    3    3    0    0 -0.24418619174E-01 -0.23092054014E-01  0.10371404758E-01  0.35175830887E-01  0.51100000000E-03 0.  1.
</event>
<event>
 8    1  0.1129602E+005  0.1043930E+01  0.7957747E-01            NaN
         13   -1    0    0    0    0  0.00000000000E+00  0.00000000000E+00  0.74505805969E-08  0.10566000000E+00  0.10566000000E+00 0. -1.
     999900   -1    0    0    0    0 -0.00000000000E+00 -0.00000000000E+00 -0.74505805969E-08  0.93827000000E+00  0.93827000000E+00 0. -1.
     999902    2    1    2    0    0  0.52470667087E-02 -0.15196285074E-01 -0.16200787448E-01  0.10211062338E+01  0.10208511235E+01 0.  0.
     999903    2    3    3    0    0 -0.11212444429E+00  0.56102337690E-01 -0.30502264529E-01  0.13034021658E+00  0.18407080621E-01 0.  0.
         14    1    1    2    0    0 -0.52470667087E-02  0.15196285074E-01  0.16200787448E-01  0.22823766189E-01  0.00000000000E+00 0. -1.
     999901    1    3    3    0    0  0.11737151099E+00 -0.71298622764E-01  0.14301477081E-01  0.89076601723E+00  0.88000000000E+00 0. -1.
        -11    1    4    4    0    0 -0.73331049761E-01  0.37793434298E-01 -0.11047793793E-01  0.83235217328E-01  0.51100000000E-03 0. -1.
         11    1    4    4    0    0 -0.38793394525E-01  0.18308903393E-01 -0.19454470736E-01  0.47104999255E-01  0.51100000000E-03 0.  1.
</event>
<event>
 8    1  0.1129602E+005  0.1043930E+01  0.7957747E-01            NaN
         13   -1    0    0    0    0  0.00000000000E+00  0.00000000000E+00  0.74505805969E-08  0.10566000000E+00  0.10566000000E+00 0.  1.
     999900   -1    0    0    0    0 -0.00000000000E+00 -0.00000000000E+00 -0.74505805969E-08  0.93827000000E+00  0.93827000000E+00 0. -1.
     999902    2    1    2    0    0 -0.18575720430E-01 -0.11892283588E-01 -0.12993582710E-02  0.10218353823E+01  0.10215964842E+01 0.  0.
     999903    2    3    3    0    0  0.90612750779E-01 -0.70361437891E-01  0.59861405620E-01  0.13105965113E+00  0.20780801822E-01 0.  0.
         14    1    1    2    0    0  0.18575720430E-01  0.11892283588E-01  0.12993582710E-02  0.22094617678E-01  0.00000000000E+00 0.  1.
     999901    1    3    3    0    0 -0.10918847121E+00  0.58469154303E-01 -0.61160763891E-01  0.89077573120E+00  0.88000000000E+00 0. -1.
        -11    1    4    4    0    0  0.11179419024E-01 -0.18441002252E-01  0.13445555807E-01  0.25418380471E-01  0.51100000000E-03 0.  1.
         11    1    4    4    0    0  0.79433331755E-01 -0.51920435639E-01  0.46415849812E-01  0.10564127065E+00  0.51100000000E-03 0. -1.
</event>
<event>
 8    1  0.1129602E+005  0.1043930E+01  0.7957747E-01            NaN
         13   -1    0    0    0    0  0.00000000000E+00  0.00000000000E+00  0.74505805969E-08  0.10566000000E+00  0.10566000000E+00 0. -1.
     999900   -1    0    0    0    0 -0.00000000000E+00 -0.00000000000E+00 -0.74505805969E-08  0.93827000000E+00  0.93827000000E+00 0.  1.
     999902    2    1    2    0    0  0.12899525924E-01 -0.16272693452E-02 -0.20908311492E-01  0.10193088046E+01  0.10190114012E+01 0.  0.
     999903    2    3    3    0    0  0.70765296255E-01 -0.78296852339E-01  0.71996388952E-01  0.12922006985E+00  0.19396447835E-01 0.  0.
         14    1    1    2    0    0 -0.12899525924E-01  0.16272693452E-02  0.20908311492E-01  0.24621195423E-01  0.00000000000E+00 0. -1.
     999901    1    3    3    0    0 -0.57865770331E-01  0.76669582994E-01 -0.92904700444E-01  0.89008873473E+00  0.88000000000E+00 0.  1.
        -11    1    4    4    0    0  0.20910544760E-02 -0.21243170045E-02  0.74457672852E-02  0.80365292896E-02  0.51100000000E-03 0. -1.
         11    1    4    4    0    0  0.68674241779E-01 -0.76172535334E-01  0.64550621666E-01  0.12118354056E+00  0.51100000000E-03 0.  1.
</event>
<event>
 8    1  0.1129602E+005  0.1043930E+01  0.7957747E-01            NaN
         13   -1    0    0    0    0  0.00000000000E+00  0.00000000000E+00  0.74505805969E-08  0.10566000000E+00  0.10566000000E+00 0.  1.
     999900   -1    0    0    0    0 -0.00000000000E+00 -0.00000000000E+00 -0.74505805969E-08  0.93827000000E+00  0.93827000000E+00 0. -1.
     999902    2    1    2    0    0  0.58909021150E-02  0.22295867016E-01  0.62869131228E-02  0.10200274125E+01  0.10197473160E+01 0.  0.
     999903    2    3    3    0    0 -0.28330465277E-01  0.12459097442E+00  0.31091539471E-01  0.13309412272E+00  0.20538634474E-01 0.  0.
         14    1    1    2    0    0 -0.58909021150E-02 -0.22295867016E-01 -0.62869131228E-02  0.23902587524E-01  0.00000000000E+00 0. -1.
     999901    1    3    3    0    0  0.34221367392E-01 -0.10229510741E+00 -0.24804626349E-01  0.88693328975E+00  0.88000000000E+00 0. -1.
        -11    1    4    4    0    0 -0.54491408724E-02  0.55461789464E-01  0.59099214261E-02  0.56043657260E-01  0.51100000000E-03 0. -1.
         11    1    4    4    0    0 -0.22881324405E-01  0.69129184959E-01  0.25181618045E-01  0.77050465462E-01  0.51100000000E-03 0.  1.
</event>
<event>
 8    1  0.1129602E+005  0.1043930E+01  0.7957747E-01            NaN
         13   -1    0    0    0    0  0.00000000000E+00  0.00000000000E+00  0.74505805969E-08  0.10566000000E+00  0.10566000000E+00 0. -1.
     999900   -1    0    0    0    0 -0.00000000000E+00 -0.00000000000E+00 -0.74505805969E-08  0.93827000000E+00  0.93827000000E+00 0. -1.
     999902    2    1    2    0    0 -0.54496121336E-02  0.22964809448E-01  0.67444339969E-03  0.10203178078E+01  0.10200445546E+01 0.  0.
     999903    2    3    3    0    0 -0.29967246841E-01 -0.12221146845E+00 -0.13370415542E-01  0.12797565140E+00  0.19113357531E-01 0.  0.
         14    1    1    2    0    0  0.54496121336E-02 -0.22964809448E-01 -0.67444339969E-03  0.23612192174E-01  0.00000000000E+00 0. -1.
     999901    1    3    3    0    0  0.24517634708E-01  0.14517627789E+00  0.14044858942E-01  0.89234215643E+00  0.88000000000E+00 0.  1.
        -11    1    4    4    0    0 -0.15649281704E-01 -0.47633912493E-01  0.32153260450E-02  0.50244294002E-01  0.51100000000E-03 0. -1.
         11    1    4    4    0    0 -0.14317965137E-01 -0.74577555953E-01 -0.16585741587E-01  0.77731357396E-01  0.51100000000E-03 0.  1.
</event>
<event>
 8    1  0.1129602E+005  0.1043930E+01  0.7957747E-01            NaN
         13   -1    0    0    0    0  0.00000000000E+00  0.00000000000E+00  0.74505805969E-08  0.10566000000E+00  0.10566000000E+00 0. -1.
     999900   -1    0    0    0    0 -0.00000000000E+00 -0.00000000000E+00 -0.74505805969E-08  0.93827000000E+00  0.93827000000E+00 0. -1.
     999902    2    1    2    0    0 -0.80085007402E-02  0.18128199490E-01 -0.10010518100E-01  0.10217268882E+01  0.10214856122E+01 0.  0.
     999903    2    3    3    0    0 -0.17522692898E-01  0.58075485959E-01 -0.11797167527E+00  0.13417862641E+00  0.20168807203E-01 0.  0.
         14    1    1    2    0    0  0.80085007402E-02 -0.18128199490E-01  0.10010518100E-01  0.22203111797E-01  0.00000000000E+00 0.  1.
     999901    1    3    3    0    0  0.95141921577E-02 -0.39947286469E-01  0.10796115717E+00  0.88754826179E+00  0.88000000000E+00 0. -1.
        -11    1    4    4    0    0 -0.12807601969E-01  0.12682588566E-01 -0.39008872739E-01  0.42974829776E-01  0.51100000000E-03 0. -1.
         11    1    4    4    0    0 -0.47150909289E-02  0.45392897393E-01 -0.78962802532E-01  0.91203796637E-01  0.51100000000E-03 0.  1.
</event>
<event>
 8    1  0.1129602E+005  0.1043930E+01  0.7957747E-01            NaN
         13   -1    0    0    0    0  0.00000000000E+00  0.00000000000E+00  0.74505805969E-08  0.10566000000E+00  0.10566000000E+00 0.  1.
     999900   -1    0    0    0    0 -0.00000000000E+00 -0.00000000000E+00 -0.74505805969E-08  0.93827000000E+00  0.93827000000E+00 0. -1.
     999902    2    1    2    0    0  0.42966526141E-02 -0.14198711572E-01  0.18315726523E-01  0.10203603061E+01  0.10200880470E+01 0.  0.
     999903    2    3    3    0    0 -0.79072645162E-01  0.18813231461E-01 -0.97054563531E-01  0.12831180289E+00  0.20926288918E-01 0.  0.
         14    1    1    2    0    0 -0.42966526141E-02  0.14198711572E-01 -0.18315726523E-01  0.23569693932E-01  0.00000000000E+00 0. -1.
     999901    1    3    3    0    0  0.83369297776E-01 -0.33011943032E-01  0.11537029005E+00  0.89204850318E+00  0.88000000000E+00 0.  1.
        -11    1    4    4    0    0 -0.18893449934E-01  0.10529626704E-01 -0.15483839353E-01  0.26605373349E-01  0.51100000000E-03 0. -1.
         11    1    4    4    0    0 -0.60179195228E-01  0.82836047563E-02 -0.81570724179E-01  0.10170642954E+00  0.51100000000E-03 0.  1.
</event>
<event>
 8    1  0.1129602E+005  0.1043930E+01  0.7957747E-01            NaN
         13   -1    0    0    0    0  0.00000000000E+00  0.00000000000E+00  0.74505805969E-08  0.10566000000E+00  0.10566000000E+00 0.  1.
     999900   -1    0    0    0    0 -0.00000000000E+00 -0.00000000000E+00 -0.74505805969E-08  0.93827000000E+00  0.93827000000E+00 0. -1.
     999902    2    1    2    0    0 -0.81945125570E-02  0.19938391993E-01 -0.16397284463E-01  0.10168456789E+01  0.10164849110E+01 0.  0.
     999903    2    3    3    0    0 -0.95283473317E-01 -0.78779883191E-01 -0.22009135977E-01  0.12703599262E+00  0.19197163078E-01 0.  0.
         14    1    1    2    0    0  0.81945125570E-02 -0.19938391993E-01  0.16397284463E-01  0.27084321093E-01  0.00000000000E+00 0. -1.
     999901    1    3    3    0    0  0.87088960760E-01  0.98718275184E-01  0.56118515137E-02  0.88980968629E+00  0.88000000000E+00 0. -1.
        -11    1    4    4    0    0 -0.43912149656E-01 -0.24284764410E-01 -0.72739507213E-02  0.50706983246E-01  0.51100000000E-03 0. -1.
         11    1    4    4    0    0 -0.51371323661E-01 -0.54495118781E-01 -0.14735185256E-01  0.76329009369E-01  0.51100000000E-03 0.  1.
</event>
<event>
 8    1  0.1129602E+005  0.1043930E+01  0.7957747E-01            NaN
         13   -1    0    0    0    0  0.00000000000E+00  0.00000000000E+00  0.74505805969E-08  0.10566000000E+00  0.10566000000E+00 0.  1.
     999900   -1    0    0    0    0 -0.00000000000E+00 -0.00000000000E+00 -0.74505805969E-08  0.93827000000E+00  0.93827000000E+00 0.  1.
     999902    2    1    2    0    0  0.51978173715E-02  0.17861306964E-01  0.13552316047E-01  0.10209145951E+01  0.10206551336E+01 0.  0.
     999903    2    3    3    0    0 -0.40348713793E-01 -0.47263305601E-01  0.11429640833E+00  0.13160864450E+00  0.19882846600E-01 0.  0.
         14    1    1    2    0    0 -0.51978173715E-02 -0.17861306964E-01 -0.13552316047E-01  0.23015404887E-01  0.00000000000E+00 0. -1.
     999901    1    3    3    0    0  0.45546531165E-01  0.65124612565E-01 -0.10074409228E+00  0.88930595061E+00  0.88000000000E+00 0.  1.
        -11    1    4    4    0    0 -0.23577593211E-01 -0.39490900703E-01  0.71886197631E-01  0.85342373243E-01  0.51100000000E-03 0. -1.
         11    1    4    4    0    0 -0.16771120583E-01 -0.77724048987E-02  0.42410210700E-01  0.46266271258E-01  0.51100000000E-03 0.  1.
</event>
<event>
 8    1  0.1129602E+005  0.1043930E+01  0.7957747E-01            NaN
         13   -1    0    0    0    0  0.00000000000E+00  0.00000000000E+00  0.74505805969E-08  0.10566000000E+00  0.10566000000E+00 0.  1.
     999900   -1    0    0    0    0 -0.00000000000E+00 -0.00000000000E+00 -0.74505805969E-08  0.93827000000E+00  0.93827000000E+00 0. -1.
     999902    2    1    2    0    0  0.16361958135E-01  0.65263038827E-02  0.15562025799E-01  0.10204250439E+01  0.10201542958E+01 0.  0.
     999903    2    3    3    0    0 -0.10990076895E+00  0.61399048368E-01 -0.21306233553E-01  0.12895852015E+00  0.18119662631E-01 0.  0.
         14    1    1    2    0    0 -0.16361958135E-01 -0.65263038827E-02 -0.15562025799E-01  0.23504956144E-01  0.00000000000E+00 0.  1.
     999901    1    3    3    0    0  0.12626272709E+00 -0.54872744485E-01  0.36868259352E-01  0.89146652371E+00  0.88000000000E+00 0.  1.
        -11    1    4    4    0    0 -0.56436154950E-01  0.36315985817E-01 -0.19435688404E-01  0.69870576899E-01  0.51100000000E-03 0. -1.
         11    1    4    4    0    0 -0.53464614004E-01  0.25083062551E-01 -0.18705451496E-02  0.59087943252E-01  0.51100000000E-03 0.  1.
</event>
<event>
 8    1  0.1129602E+005  0.1043930E+01  0.7957747E-01            NaN
         13   -1    0    0    0    0  0.00000000000E+00  0.00000000000E+00  0.74505805969E-08  0.10566000000E+00  0.10566000000E+00 0. -1.
     999900   -1    0    0    0    0 -0.00000000000E+00 -0.00000000000E+00 -0.74505805969E-08  0.93827000000E+00  0.93827000000E+00 0.  1.
     999902    2    1    2    0    0 -0.11486075119E-01 -0.52785914326E-03  0.21279029239E-01  0.10197431101E+01  0.10194562300E+01 0.  0.
     999903    2    3    3    0    0  0.88766890365E-01  0.73575169475E-01  0.57028973844E-01  0.13023764387E+00  0.20412585218E-01 0.  0.
         14    1    1    2    0    0  0.11486075119E-01  0.52785914326E-03 -0.21279029239E-01  0.24186889884E-01  0.00000000000E+00 0.  1.
     999901    1    3    3    0    0 -0.10025296548E+00 -0.74103028618E-01 -0.35749944606E-01  0.88950546624E+00  0.88000000000E+00 0. -1.
        -11    1    4    4    0    0  0.54836151178E-01  0.35594575621E-01  0.39445919406E-01  0.76355870556E-01  0.51100000000E-03 0.  1.
         11    1    4    4    0    0  0.33930739187E-01  0.37980593853E-01  0.17583054439E-01  0.53881773316E-01  0.51100000000E-03 0. -1.
</event>
<event>
 8    1  0.1129602E+005  0.1043930E+01  0.7957747E-01            NaN
         13   -1    0    0    0    0  0.00000000000E+00  0.00000000000E+00  0.74505805969E-08  0.10566000000E+00  0.10566000000E+00 0.  1.
     999900   -1    0    0    0    0 -0.00000000000E+00 -0.00000000000E+00 -0.74505805969E-08  0.93827000000E+00  0.93827000000E+00 0. -1.
     999902    2    1    2    0    0  0.25103768295E-01 -0.24927966590E-01 -0.12406121850E-01  0.10064398071E+01  0.10057413041E+01 0.  0.
     999903    2    3    3    0    0  0.11576063756E-01 -0.11477112163E+00  0.29850698706E-01  0.12075338963E+00  0.19593398922E-01 0.  0.
         14    1    1    2    0    0 -0.25103768295E-01  0.24927966590E-01  0.12406121850E-01  0.37490192854E-01  0.00000000000E+00 0.  1.
     999901    1    3    3    0    0  0.13527704539E-01  0.89843155036E-01 -0.42256820556E-01  0.88568641752E+00  0.88000000000E+00 0.  1.
        -11    1    4    4    0    0  0.19566242724E-03 -0.67765763287E-01  0.24635661003E-01  0.72106961327E-01  0.51100000000E-03 0.  1.
         11    1    4    4    0    0  0.11380401329E-01 -0.47005358339E-01  0.52150377032E-02  0.48646428299E-01  0.51100000000E-03 0. -1.
</event>
<event>
 8    1  0.1129602E+005  0.1043930E+01  0.7957747E-01            NaN
         13   -1    0    0    0    0  0.00000000000E+00  0.00000000000E+00  0.74505805969E-08  0.10566000000E+00  0.10566000000E+00 0. -1.
     999900   -1    0    0    0    0 -0.00000000000E+00 -0.00000000000E+00 -0.74505805969E-08  0.93827000000E+00  0.93827000000E+00 0.  1.
     999902    2    1    2    0    0  0.13509251346E-01 -0.88381472646E-02 -0.16904261014E-01  0.10205555105E+01  0.10202877943E+01 0.  0.
     999903    2    3    3    0    0  0.82459951827E-01  0.21773590030E-01 -0.10058007889E+00  0.13337293625E+00  0.19956326710E-01 0.  0.
         14    1    1    2    0    0 -0.13509251346E-01  0.88381472646E-02  0.16904261014E-01  0.23374489501E-01  0.00000000000E+00 0. -1.
     999901    1    3    3    0    0 -0.68950700481E-01 -0.30611737294E-01  0.83675817877E-01  0.88718257425E+00  0.88000000000E+00 0. -1.
        -11    1    4    4    0    0  0.64218620565E-01  0.10050996115E-01 -0.66624149168E-01  0.93081105083E-01  0.51100000000E-03 0.  1.
         11    1    4    4    0    0  0.18241331262E-01  0.11722593914E-01 -0.33955929723E-01  0.40291831165E-01  0.51100000000E-03 0. -1.
</event>
<event>
 8    1  0.1129602E+005  0.1043930E+01  0.7957747E-01            NaN
         13   -1    0    0    0    0  0.00000000000E+00  0.00000000000E+00  0.74505805969E-08  0.10566000000E+00  0.10566000000E+00 0.  1.
     999900   -1    0    0    0    0 -0.00000000000E+00 -0.00000000000E+00 -0.74505805969E-08  0.93827000000E+00  0.93827000000E+00 0. -1.
     999902    2    1    2    0    0 -0.16543017309E-01  0.12931150329E-01 -0.11389502419E-01  0.10200426218E+01  0.10197628859E+01 0.  0.
     999903    2    3    3    0    0  0.32982091660E-01  0.11914373907E+00 -0.41096314516E-01  0.13177670156E+00  0.19827835954E-01 0.  0.
         14    1    1    2    0    0  0.16543017309E-01 -0.12931150329E-01  0.11389502419E-01  0.23887378171E-01  0.00000000000E+00 0. -1.
     999901    1    3    3    0    0 -0.49525108969E-01 -0.10621258874E+00  0.29706812097E-01  0.88826592027E+00  0.88000000000E+00 0.  1.
        -11    1    4    4    0    0  0.97087706579E-02  0.30239971173E-01 -0.17661723834E-02  0.31813465233E-01  0.51100000000E-03 0. -1.
         11    1    4    4    0    0  0.23273321003E-01  0.88903767893E-01 -0.39330142133E-01  0.99963236329E-01  0.51100000000E-03 0.  1.
</event>
<event>
 8    1  0.1129602E+005  0.1043930E+01  0.7957747E-01            NaN
         13   -1    0    0    0    0  0.00000000000E+00  0.00000000000E+00  0.74505805969E-08  0.10566000000E+00  0.10566000000E+00 0. -1.
     999900   -1    0    0    0    0 -0.00000000000E+00 -0.00000000000E+00 -0.74505805969E-08  0.93827000000E+00  0.93827000000E+00 0. -1.
     999902    2    1    2    0    0  0.38540233610E-02 -0.12007581505E-01 -0.20846825492E-01  0.10195655660E+01  0.10192744075E+01 0.  0.
     999903    2    3    3    0    0 -0.11599300819E+00 -0.33514815865E-01  0.40140500038E-01  0.12909079043E+00  0.21807145613E-01 0.  0.
         14    1    1    2    0    0 -0.38540233610E-02  0.12007581505E-01  0.20846825492E-01  0.24364433972E-01  0.00000000000E+00 0. -1.
     999901    1    3    3    0    0  0.11984703155E+00  0.21507234360E-01 -0.60987325530E-01  0.89047477560E+00  0.88000000000E+00 0. -1.
        -11    1    4    4    0    0 -0.91600391812E-01 -0.31778165567E-01  0.39291733803E-01  0.10461637087E+00  0.51100000000E-03 0.  1.
         11    1    4    4    0    0 -0.24392616375E-01 -0.17366502987E-02  0.84876623491E-03  0.24474419565E-01  0.51100000000E-03 0. -1.
</event>
<event>
 8    1  0.1129602E+005  0.1043930E+01  0.7957747E-01            NaN
         13   -1    0    0    0    0  0.00000000000E+00  0.00000000000E+00  0.74505805969E-08  0.10566000000E+00  0.10566000000E+00 0. -1.
     999900   -1    0    0    0    0 -0.00000000000E+00 -0.00000000000E+00 -0.74505805969E-08  0.93827000000E+00  0.93827000000E+00 0.  1.
     999902    2    1    2    0    0  0.68217815590E-02  0.12286496061E-01  0.18212369575E-01  0.10209259766E+01  0.10206667745E+01 0.  0.
     999903    2    3    3    0    0 -0.83458204221E-01 -0.96989502817E-01 -0.10904367432E-01  0.12910788740E+00  0.13330635858E-01 0.  0.
         14    1    1    2    0    0 -0.68217815590E-02 -0.12286496061E-01 -0.18212369575E-01  0.23004023444E-01  0.00000000000E+00 0.  1.
     999901    1    3    3    0    0  0.90279985780E-01  0.10927599888E+00  0.29116737007E-01  0.89181808915E+00  0.88000000000E+00 0. -1.
        -11    1    4    4    0    0 -0.74029868255E-01 -0.83132972687E-01 -0.13523539558E-01  0.11213679051E+00  0.51100000000E-03 0. -1.
         11    1    4    4    0    0 -0.94283359659E-02 -0.13856530130E-01  0.26191721253E-02  0.16971096899E-01  0.51100000000E-03 0.  1.
</event>
<event>
 8    1  0.1129602E+005  0.1043930E+01  0.7957747E-01            NaN
         13   -1    0    0    0    0  0.00000000000E+00  0.00000000000E+00  0.74505805969E-08  0.10566000000E+00  0.10566000000E+00 0. -1.
     999900   -1    0    0    0    0 -0.00000000000E+00 -0.00000000000E+00 -0.74505805969E-08  0.93827000000E+00  0.93827000000E+00 0.  1.
     999902    2    1    2    0    0 -0.82895286314E-02  0.24062295956E-02  0.22628029787E-01  0.10197115368E+01  0.10194238983E+01 0.  0.
     999903    2    3    3    0    0 -0.84688139478E-01 -0.91598033040E-01  0.35628573498E-01  0.13131828874E+00  0.20317900556E-01 0.  0.
         14    1    1    2    0    0  0.82895286314E-02 -0.24062295956E-02 -0.22628029787E-01  0.24218463160E-01  0.00000000000E+00 0.  1.
     999901    1    3    3    0    0  0.76398610847E-01  0.94004262635E-01 -0.13000543711E-01  0.88839324810E+00  0.88000000000E+00 0. -1.
        -11    1    4    4    0    0 -0.34054146622E-01 -0.44509114015E-01  0.24962859522E-01  0.61352682167E-01  0.51100000000E-03 0.  1.
         11    1    4    4    0    0 -0.50633992856E-01 -0.47088919025E-01  0.10665713976E-01  0.69965606573E-01  0.51100000000E-03 0. -1.
</event>
<event>
 8    1  0.1129602E+005  0.1043930E+01  0.7957747E-01            NaN
         13   -1    0    0    0    0  0.00000000000E+00  0.00000000000E+00  0.74505805969E-08  0.10566000000E+00  0.10566000000E+00 0.  1.
     999900   -1    0    0    0    0 -0.00000000000E+00 -0.00000000000E+00 -0.74505805969E-08  0.93827000000E+00  0.93827000000E+00 0. -1.
     999902    2    1    2    0    0 -0.17726658750E-01 -0.13997780726E-02  0.14715281062E-01  0.10208489839E+01  0.10205880239E+01 0.  0.
     999903    2    3    3    0    0 -0.31000154354E-01 -0.98661909323E-01  0.81090049177E-01  0.13290657712E+00  0.19833815669E-01 0.  0.
         14    1    1    2    0    0  0.17726658750E-01  0.13997780726E-02 -0.14715281062E-01  0.23081016135E-01  0.00000000000E+00 0. -1.
     999901    1    3    3    0    0  0.13273495604E-01  0.97262131251E-01 -0.66374768114E-01  0.88794240675E+00  0.88000000000E+00 0. -1.
        -11    1    4    4    0    0 -0.17380948729E-01 -0.72951984818E-01  0.48982000834E-01  0.89574477360E-01  0.51100000000E-03 0.  1.
         11    1    4    4    0    0 -0.13619205625E-01 -0.25709924505E-01  0.32108048342E-01  0.43332099756E-01  0.51100000000E-03 0. -1.
</event>
<event>
 8    1  0.1129602E+005  0.1043930E+01  0.7957747E-01            NaN
         13   -1    0    0    0    0  0.00000000000E+00  0.00000000000E+00  0.74505805969E-08  0.10566000000E+00  0.10566000000E+00 0. -1.
     999900   -1    0    0    0    0 -0.00000000000E+00 -0.00000000000E+00 -0.74505805969E-08  0.93827000000E+00  0.93827000000E+00 0. -1.
     999902    2    1    2    0    0 -0.21622041366E-01  0.13723379993E-01  0.23493580159E-01  0.10091766960E+01  0.10085781138E+01 0.  0.
     999903    2    3    3    0    0  0.15104868510E-01  0.78864413575E-01  0.91310960516E-01  0.12340504525E+00  0.21056136920E-01 0.  0.
         14    1    1    2    0    0  0.21622041366E-01 -0.13723379993E-01 -0.23493580159E-01  0.34753304014E-01  0.00000000000E+00 0. -1.
     999901    1    3    3    0    0 -0.36726909876E-01 -0.65141033583E-01 -0.67817380357E-01  0.88577165073E+00  0.88000000000E+00 0. -1.
        -11    1    4    4    0    0 -0.70267569901E-03  0.34619873294E-01  0.50115434300E-01  0.60916723944E-01  0.51100000000E-03 0.  1.
         11    1    4    4    0    0  0.15807544209E-01  0.44244540281E-01  0.41195526216E-01  0.62488321307E-01  0.51100000000E-03 0. -1.
</event>
<event>
 8    1  0.1129602E+005  0.1043930E+01  0.7957747E-01            NaN
         13   -1    0    0    0    0  0.00000000000E+00  0.00000000000E+00  0.74505805969E-08  0.10566000000E+00  0.10566000000E+00 0.  1.
     999900   -1    0    0    0    0 -0.00000000000E+00 -0.00000000000E+00 -0.74505805969E-08  0.93827000000E+00  0.93827000000E+00 0.  1.
     999902    2    1    2    0    0  0.15498465808E-01  0.45040172073E-02 -0.17215487117E-01  0.10203320846E+01  0.10200591656E+01 0.  0.
     999903    2    3    3    0    0  0.66336427152E-01  0.94764816187E-01  0.58401460091E-01  0.13103492796E+00  0.19455843607E-01 0.  0.
         14    1    1    2    0    0 -0.15498465808E-01 -0.45040172073E-02  0.17215487117E-01  0.23597915376E-01  0.00000000000E+00 0.  1.
     999901    1    3    3    0    0 -0.50837961344E-01 -0.90260798980E-01 -0.75616947208E-01  0.88929715666E+00  0.88000000000E+00 0.  1.
        -11    1    4    4    0    0  0.46335216383E-01  0.79729820231E-01  0.44261039528E-01  0.10228928220E+00  0.51100000000E-03 0.  1.
         11    1    4    4    0    0  0.20001210769E-01  0.15034995956E-01  0.14140420563E-01  0.28745645763E-01  0.51100000000E-03 0. -1.
</event>
<event>
 8    1  0.1129602E+005  0.1043930E+01  0.7957747E-01            NaN
         13   -1    0    0    0    0  0.00000000000E+00  0.00000000000E+00  0.74505805969E-08  0.10566000000E+00  0.10566000000E+00 0. -1.
     999900   -1    0    0    0    0 -0.00000000000E+00 -0.00000000000E+00 -0.74505805969E-08  0.93827000000E+00  0.93827000000E+00 0.  1.
     999902    2    1    2    0    0 -0.19663805479E-01  0.26878365365E-02 -0.10702508566E-01  0.10213815322E+01  0.10211326069E+01 0.  0.
     999903    2    3    3    0    0 -0.28352158392E-01 -0.23512270902E-01  0.12372672577E+00  0.13074515737E+00  0.20720080485E-01 0.  0.
         14    1    1    2    0    0  0.19663805479E-01 -0.26878365365E-02  0.10702508566E-01  0.22548467814E-01  0.00000000000E+00 0. -1.
     999901    1    3    3    0    0  0.86883529132E-02  0.26200107439E-01 -0.13442923434E+00  0.89063637482E+00  0.88000000000E+00 0.  1.
        -11    1    4    4    0    0 -0.11268685416E-01  0.93659864425E-03  0.48868044164E-01  0.50161811664E-01  0.51100000000E-03 0. -1.
         11    1    4    4    0    0 -0.17083472976E-01 -0.24448869546E-01  0.74858681611E-01  0.80583345702E-01  0.51100000000E-03 0.  1.
</event>
<event>
 8    1  0.1129602E+005  0.1043930E+01  0.7957747E-01            NaN
         13   -1    0    0    0    0  0.00000000000E+00  0.00000000000E+00  0.74505805969E-08  0.10566000000E+00  0.10566000000E+00 0. -1.
     999900   -1    0    0    0    0 -0.00000000000E+00 -0.00000000000E+00 -0.74505805969E-08  0.93827000000E+00  0.93827000000E+00 0. -1.
     999902    2    1    2    0    0 -0.47155513389E-02  0.19093106301E-01  0.14449776687E-01  0.10195255090E+01  0.10192333807E+01 0.  0.
     999903    2    3    3    0    0  0.24893583606E-01 -0.72064112035E-02 -0.12367059800E+00  0.12787221129E+00  0.19628111055E-01 0.  0.
         14    1    1    2    0    0  0.47155513389E-02 -0.19093106301E-01 -0.14449776687E-01  0.24404490958E-01  0.00000000000E+00 0. -1.
     999901    1    3    3    0    0 -0.29609134945E-01  0.26299517504E-01  0.13812037468E+00  0.89165329775E+00  0.88000000000E+00 0.  1.
        -11    1    4    4    0    0  0.92975049319E-02 -0.11621453943E-01 -0.77975165721E-01  0.79384440414E-01  0.51100000000E-03 0.  1.
         11    1    4    4    0    0  0.15596078674E-01  0.44150427394E-02 -0.45695432275E-01  0.48487770873E-01  0.51100000000E-03 0. -1.
</event>
<event>
 8    1  0.1129602E+005  0.1043930E+01  0.7957747E-01            NaN
         13   -1    0    0    0    0  0.00000000000E+00  0.00000000000E+00  0.74505805969E-08  0.10566000000E+00  0.10566000000E+00 0.  1.
     999900   -1    0    0    0    0 -0.00000000000E+00 -0.00000000000E+00 -0.74505805969E-08  0.93827000000E+00  0.93827000000E+00 0.  1.
     999902    2    1    2    0    0 -0.41141908180E-02  0.60864933225E-02 -0.23044650960E-01  0.10197426499E+01  0.10194557588E+01 0.  0.
     999903    2    3    3    0    0 -0.10005678971E+00 -0.35633050516E-01  0.69882377736E-01  0.12868657126E+00  0.19889983595E-01 0.  0.
         14    1    1    2    0    0  0.41141908180E-02 -0.60864933225E-02  0.23044650960E-01  0.24187350101E-01  0.00000000000E+00 0.  1.
     999901    1    3    3    0    0  0.95942598895E-01  0.41719543838E-01 -0.92927028695E-01  0.89105607864E+00  0.88000000000E+00 0.  1.
        -11    1    4    4    0    0 -0.40220111298E-01 -0.22067881849E-01  0.22133643053E-01  0.50939258317E-01  0.51100000000E-03 0. -1.
         11    1    4    4    0    0 -0.59836678416E-01 -0.13565168667E-01  0.47748734682E-01  0.77747312941E-01  0.51100000000E-03 0.  1.
</event>
<event>
 8    1  0.1129602E+005  0.1043930E+01  0.7957747E-01            NaN
         13   -1    0    0    0    0  0.00000000000E+00  0.00000000000E+00  0.74505805969E-08  0.10566000000E+00  0.10566000000E+00 0.  1.
     999900   -1    0    0    0    0 -0.00000000000E+00 -0.00000000000E+00 -0.74505805969E-08  0.93827000000E+00  0.93827000000E+00 0.  1.
     999902    2    1    2    0    0  0.12567136887E-01 -0.30985552191E-02  0.20591959210E-01  0.10196079368E+01  0.10193178023E+01 0.  0.
     999903    2    3    3    0    0  0.34733208009E-01 -0.11594473742E+00  0.47788293477E-01  0.13170859783E+00  0.20343447955E-01 0.  0.
         14    1    1    2    0    0 -0.12567136887E-01  0.30985552191E-02 -0.20591959210E-01  0.24322063196E-01  0.00000000000E+00 0. -1.
     999901    1    3    3    0    0 -0.22166071122E-01  0.11284618221E+00 -0.27196334266E-01  0.88789933897E+00  0.88000000000E+00 0. -1.
        -11    1    4    4    0    0  0.69888708748E-02 -0.33887489432E-01  0.23208535650E-01  0.41666575383E-01  0.51100000000E-03 0. -1.
         11    1    4    4    0    0  0.27744337134E-01 -0.82057247993E-01  0.24579757827E-01  0.90042022450E-01  0.51100000000E-03 0.  1.
</event>
<event>
 8    1  0.1129602E+005  0.1043930E+01  0.7957747E-01            NaN
         13   -1    0    0    0    0  0.00000000000E+00  0.00000000000E+00  0.74505805969E-08  0.10566000000E+00  0.10566000000E+00 0. -1.
     999900   -1    0    0    0    0 -0.00000000000E+00 -0.00000000000E+00 -0.74505805969E-08  0.93827000000E+00  0.93827000000E+00 0.  1.
     999902    2    1    2    0    0 -0.23035789632E-02 -0.18693376285E-01 -0.15373427487E-01  0.10196176355E+01  0.10193277351E+01 0.  0.
     999903    2    3    3    0    0 -0.30333969165E-01 -0.10597873358E+00 -0.71822800201E-01  0.13305631896E+00  0.19845093342E-01 0.  0.
         14    1    1    2    0    0  0.23035789632E-02  0.18693376285E-01  0.15373427487E-01  0.24312364461E-01  0.00000000000E+00 0.  1.
     999901    1    3    3    0    0  0.28030390202E-01  0.87285357297E-01  0.56449372714E-01  0.88656131658E+00  0.88000000000E+00 0.  1.
        -11    1    4    4    0    0 -0.38531239284E-02 -0.49172985222E-01 -0.32140558095E-01  0.58873641261E-01  0.51100000000E-03 0. -1.
         11    1    4    4    0    0 -0.26480845237E-01 -0.56805748359E-01 -0.39682242107E-01  0.74182677700E-01  0.51100000000E-03 0.  1.
</event>
<event>
 8    1  0.1129602E+005  0.1043930E+01  0.7957747E-01            NaN
         13   -1    0    0    0    0  0.00000000000E+00  0.00000000000E+00  0.74505805969E-08  0.10566000000E+00  0.10566000000E+00 0.  1.
     999900   -1    0    0    0    0 -0.00000000000E+00 -0.00000000000E+00 -0.74505805969E-08  0.93827000000E+00  0.93827000000E+00 0.  1.
     999902    2    1    2    0    0  0.82033859874E-02  0.26439412786E-02  0.21792786820E-01  0.10204947376E+01  0.10202256113E+01 0.  0.
     999903    2    3    3    0    0  0.23002221035E-01 -0.29833498301E-01  0.12657669718E+00  0.13355987105E+00  0.19935874513E-01 0.  0.
         14    1    1    2    0    0 -0.82033859874E-02 -0.26439412786E-02 -0.21792786820E-01  0.23435262417E-01  0.00000000000E+00 0. -1.
     999901    1    3    3    0    0 -0.14798835047E-01  0.32477439579E-01 -0.10478391036E+00  0.88693486653E+00  0.88000000000E+00 0.  1.
        -11    1    4    4    0    0  0.40904890269E-02  0.50829644353E-03  0.35071619832E-01  0.35316711404E-01  0.51100000000E-03 0. -1.
         11    1    4    4    0    0  0.18911732008E-01 -0.30341794744E-01  0.91505077348E-01  0.98243159646E-01  0.51100000000E-03 0.  1.
</event>
<event>
 8    1  0.1129602E+005  0.1043930E+01  0.7957747E-01            NaN
         13   -1    0    0    0    0  0.00000000000E+00  0.00000000000E+00  0.74505805969E-08  0.10566000000E+00  0.10566000000E+00 0. -1.
     999900   -1    0    0    0    0 -0.00000000000E+00 -0.00000000000E+00 -0.74505805969E-08  0.93827000000E+00  0.93827000000E+00 0.  1.
     999902    2    1    2    0    0  0.23021332740E-01  0.89185806766E-02  0.23967038538E-03  0.10192403203E+01  0.10189412398E+01 0.  0.
     999903    2    3    3    0    0  0.41110699709E-01 -0.78513261030E-01  0.93073020234E-01  0.12986436886E+00  0.18647933254E-01 0.  0.
         14    1    1    2    0    0 -0.23021332740E-01 -0.89185806766E-02 -0.23967038538E-03  0.24689679712E-01  0.00000000000E+00 0.  1.
     999901    1    3    3    0    0 -0.18089366969E-01  0.87431841707E-01 -0.92833349849E-01  0.88937595143E+00  0.88000000000E+00 0.  1.
        -11    1    4    4    0    0  0.20856504358E-01 -0.37229366198E-01  0.58098884293E-01  0.72088563299E-01  0.51100000000E-03 0.  1.
         11    1    4    4    0    0  0.20254195351E-01 -0.41283894832E-01  0.34974135942E-01  0.57775805557E-01  0.51100000000E-03 0. -1.
</event>
<event>
 8    1  0.1129602E+005  0.1043930E+01  0.7957747E-01            NaN
         13   -1    0    0    0    0  0.00000000000E+00  0.00000000000E+00  0.74505805969E-08  0.10566000000E+00  0.10566000000E+00 0. -1.
     999900   -1    0    0    0    0 -0.00000000000E+00 -0.00000000000E+00 -0.74505805969E-08  0.93827000000E+00  0.93827000000E+00 0. -1.
     999902    2    1    2    0    0  0.74549033039E-02  0.10292839152E-01 -0.20078178915E-01  0.10201676056E+01  0.10198908236E+01 0.  0.
     999903    2    3    3    0    0  0.99919159990E-01  0.54711089517E-01 -0.66949383026E-01  0.13297003483E+00  0.14888533374E-01 0.  0.
         14    1    1    2    0    0 -0.74549033039E-02 -0.10292839152E-01  0.20078178915E-01  0.23762394442E-01  0.00000000000E+00 0. -1.
     999901    1    3    3    0    0 -0.92464256686E-01 -0.44418250365E-01  0.46871204112E-01  0.88719757073E+00  0.88000000000E+00 0. -1.
        -11    1    4    4    0    0  0.55485225831E-01  0.22922693633E-01 -0.39093480187E-01  0.71642316288E-01  0.51100000000E-03 0.  1.
         11    1    4    4    0    0  0.44433934159E-01  0.31788395884E-01 -0.27855902839E-01  0.61327718543E-01  0.51100000000E-03 0. -1.
</event>
<event>
 8    1  0.1129602E+005  0.1043930E+01  0.7957747E-01            NaN
         13   -1    0    0    0    0  0.00000000000E+00  0.00000000000E+00  0.74505805969E-08  0.10566000000E+00  0.10566000000E+00 0.  1.
     999900   -1    0    0    0    0 -0.00000000000E+00 -0.00000000000E+00 -0.74505805969E-08  0.93827000000E+00  0.93827000000E+00 0.  1.
     999902    2    1    2    0    0 -0.71285554883E-02 -0.17220056374E-01 -0.13061934723E-01  0.10211712482E+01  0.10209176056E+01 0.  0.
     999903    2    3    3    0    0 -0.35205602605E-01 -0.25588665318E-01 -0.12460539908E+00  0.13364643242E+00  0.20991645265E-01 0.  0.
         14    1    1    2    0    0  0.71285554883E-02  0.17220056374E-01  0.13061934723E-01  0.22758751802E-01  0.00000000000E+00 0.  1.
     999901    1    3    3    0    0  0.28077047116E-01  0.83686089443E-02  0.11154346435E+00  0.88752481578E+00  0.88000000000E+00 0. -1.
        -11    1    4    4    0    0 -0.88457486726E-02  0.29740008762E-02 -0.27776408867E-01  0.29306687997E-01  0.51100000000E-03 0.  1.
         11    1    4    4    0    0 -0.26359853932E-01 -0.28562666195E-01 -0.96828990209E-01  0.10433974442E+00  0.51100000000E-03 0. -1.
</event>
<event>
 8    1  0.1129602E+005  0.1043930E+01  0.7957747E-01            NaN
         13   -1    0    0    0    0  0.00000000000E+00  0.00000000000E+00  0.74505805969E-08  0.10566000000E+00  0.10566000000E+00 0.  1.
     999900   -1    0    0    0    0 -0.00000000000E+00 -0.00000000000E+00 -0.74505805969E-08  0.93827000000E+00  0.93827000000E+00 0. -1.
     999902    2    1    2    0    0  0.13196784352E-01  0.11721748948E-01  0.15363744325E-01  0.10205291634E+01  0.10202608363E+01 0.  0.
     999903    2    3    3    0    0 -0.12263438052E+00  0.13507784878E-01  0.36413400053E-01  0.12985729153E+00  0.17757503233E-01 0.  0.
         14    1    1    2    0    0 -0.13196784352E-01 -0.11721748948E-01 -0.15363744325E-01  0.23400836637E-01  0.00000000000E+00 0. -1.
     999901    1    3    3    0    0  0.13583116487E+00 -0.17860359306E-02 -0.21049655728E-01  0.89067187184E+00  0.88000000000E+00 0.  1.
        -11    1    4    4    0    0 -0.83473010298E-01  0.17092419197E-01  0.27465901745E-01  0.89523913687E-01  0.51100000000E-03 0. -1.
         11    1    4    4    0    0 -0.39161370223E-01 -0.35846343192E-02  0.89474983084E-02  0.40333377839E-01  0.51100000000E-03 0.  1.
</event>
<event>
 8    1  0.1129602E+005  0.1043930E+01  0.7957747E-01            NaN
         13   -1    0    0    0    0  0.00000000000E+00  0.00000000000E+00  0.74505805969E-08  0.10566000000E+00  0.10566000000E+00 0. -1.
     999900   -1    0    0    0    0 -0.00000000000E+00 -0.00000000000E+00 -0.74505805969E-08  0.93827000000E+00  0.93827000000E+00 0. -1.
     999902    2    1    2    0    0 -0.11103801965E-01 -0.24916148560E-01  0.11627230931E-01  0.10142769837E+01  0.10138434289E+01 0.  0.
     999903    2    3    3    0    0 -0.26198904188E-01  0.10534029031E+00  0.55229024142E-01  0.12349321736E+00  0.20429642259E-01 0.  0.
         14    1    1    2    0    0  0.11103801965E-01  0.24916148560E-01 -0.11627230931E-01  0.29653016310E-01  0.00000000000E+00 0.  1.
     999901    1    3    3    0    0  0.15095102223E-01 -0.13025643887E+00 -0.43601793211E-01  0.89078376633E+00  0.88000000000E+00 0.  1.
        -11    1    4    4    0    0 -0.33201160179E-02  0.55564575159E-01  0.27261952183E-01  0.61983226286E-01  0.51100000000E-03 0. -1.
         11    1    4    4    0    0 -0.22878788170E-01  0.49775715155E-01  0.27967071959E-01  0.61509991077E-01  0.51100000000E-03 0.  1.
</event>
<event>
 8    1  0.1129602E+005  0.1043930E+01  0.7957747E-01            NaN
         13   -1    0    0    0    0  0.00000000000E+00  0.00000000000E+00  0.74505805969E-08  0.10566000000E+00  0.10566000000E+00 0. -1.
     999900   -1    0    0    0    0 -0.00000000000E+00 -0.00000000000E+00 -0.74505805969E-08  0.93827000000E+00  0.93827000000E+00 0.  1.
     999902    2    1    2    0    0 -0.13941229042E-02  0.53219316620E-02  0.23237998181E-01  0.10200496504E+01  0.10197700811E+01 0.  0.
     999903    2    3    3    0    0 -0.29542837111E-01  0.93495439103E-01 -0.81676504495E-01  0.12899748003E+00  0.18844683901E-01 0.  0.
         14    1    1    2    0    0  0.13941229042E-02 -0.53219316620E-02 -0.23237998181E-01  0.23880349552E-01  0.00000000000E+00 0.  1.
     999901    1    3    3    0    0  0.28148714206E-01 -0.88173507441E-01  0.10491450268E+00  0.89105217041E+00  0.88000000000E+00 0. -1.
        -11    1    4    4    0    0 -0.27217787310E-01  0.87662289494E-01 -0.68972423233E-01  0.11481699018E+00  0.51100000000E-03 0. -1.
         11    1    4    4    0    0 -0.23250498006E-02  0.58331496085E-02 -0.12704081262E-01  0.14180489859E-01  0.51100000000E-03 0.  1.
</event>
<event>
 8    1  0.1129602E+005  0.1043930E+01  0.7957747E-01            NaN
         13   -1    0    0    0    0  0.00000000000E+00  0.00000000000E+00  0.74505805969E-08  0.10566000000E+00  0.10566000000E+00 0.  1.
     999900   -1    0    0    0    0 -0.00000000000E+00 -0.00000000000E+00 -0.74505805969E-08  0.93827000000E+00  0.93827000000E+00 0. -1.
     999902    2    1    2    0    0  0.92570833031E-02 -0.38014377714E-02 -0.22102687103E-01  0.10196674095E+01  0.10193787092E+01 0.  0.
     999903    2    3    3    0    0  0.11785633568E+00  0.24204324933E-01 -0.50175496481E-01  0.13210546632E+00  0.21408142822E-01 0.  0.
         14    1    1    2    0    0 -0.92570833031E-02  0.38014377714E-02  0.22102687103E-01  0.24262590497E-01  0.00000000000E+00 0.  1.
     999901    1    3    3    0    0 -0.10859925238E+00 -0.28005762704E-01  0.28072809378E-01  0.88756194318E+00  0.88000000000E+00 0. -1.
        -11    1    4    4    0    0  0.82525209951E-01  0.23642961932E-01 -0.27615557076E-01  0.90179155242E-01  0.51100000000E-03 0. -1.
         11    1    4    4    0    0  0.35331125729E-01  0.56136300046E-03 -0.22559939405E-01  0.41926311078E-01  0.51100000000E-03 0.  1.
</event>
<event>
 8    1  0.1129602E+005  0.1043930E+01  0.7957747E-01            NaN
         13   -1    0    0    0    0  0.00000000000E+00  0.00000000000E+00  0.74505805969E-08  0.10566000000E+00  0.10566000000E+00 0.  1.
     999900   -1    0    0    0    0 -0.00000000000E+00 -0.00000000000E+00 -0.74505805969E-08  0.93827000000E+00  0.93827000000E+00 0.  1.
     999902    2    1    2    0    0  0.23900053163E-01  0.18385322326E-02  0.56460824093E-04  0.10199592693E+01  0.10196775545E+01 0.  0.
     999903    2    3    3    0    0 -0.34246051248E-01  0.80851744004E-03  0.12316890631E+00  0.12948821160E+00  0.20571138415E-01 0.  0.
         14    1    1    2    0    0 -0.23900053163E-01 -0.18385322326E-02 -0.56460824093E-04  0.23970730690E-01  0.00000000000E+00 0. -1.
     999901    1    3    3    0    0  0.58146104411E-01  0.10300147926E-02 -0.12311244548E+00  0.89047105771E+00  0.88000000000E+00 0.  1.
        -11    1    4    4    0    0 -0.20177462699E-01  0.10096657270E-01  0.80596952594E-01  0.83697087031E-01  0.51100000000E-03 0.  1.
         11    1    4    4    0    0 -0.14068588548E-01 -0.92881398303E-02  0.42571953713E-01  0.45791124568E-01  0.51100000000E-03 0. -1.
</event>
<event>
 8    1  0.1129602E+005  0.1043930E+01  0.7957747E-01            NaN
         13   -1    0    0    0    0  0.00000000000E+00  0.00000000000E+00  0.74505805969E-08  0.10566000000E+00  0.10566000000E+00 0.  1.
     999900   -1    0    0    0    0 -0.00000000000E+00 -0.00000000000E+00 -0.74505805969E-08  0.93827000000E+00  0.93827000000E+00 0.  1.
     999902    2    1    2    0    0  0.15680470332E-01 -0.16061964556E-01 -0.56674916051E-02  0.10207786649E+01  0.10205160942E+01 0.  0.
     999903    2    3    3    0    0  0.14186441376E-01 -0.13011037181E+00  0.15272936646E-01  0.13317077127E+00  0.19267271639E-01 0.  0.
         14    1    1    2    0    0 -0.15680470332E-01  0.16061964556E-01  0.56674916051E-02  0.23151335087E-01  0.00000000000E+00 0. -1.
     999901    1    3    3    0    0  0.14940289560E-02  0.11404840725E+00 -0.20940428252E-01  0.88760789364E+00  0.88000000000E+00 0. -1.
        -11    1    4    4    0    0 -0.47864612831E-02 -0.28224700900E-01  0.23207089460E-02  0.28726133807E-01  0.51100000000E-03 0. -1.
         11    1    4    4    0    0  0.18972902659E-01 -0.10188567091E+00  0.12952227700E-01  0.10444463746E+00  0.51100000000E-03 0.  1.
</event>
<event>
 8    1  0.1129602E+005  0.1043930E+01  0.7957747E-01            NaN
         13   -1    0    0    0    0  0.00000000000E+00  0.00000000000E+00  0.74505805969E-08  0.10566000000E+00  0.10566000000E+00 0. -1.
     999900   -1    0    0    0    0 -0.00000000000E+00 -0.00000000000E+00 -0.74505805969E-08  0.93827000000E+00  0.93827000000E+00 0.  1.
     999902    2    1    2    0    0  0.21256319287E-01  0.10098562895E-02  0.12562184362E-01  0.10192184765E+01  0.10189188601E+01 0.  0.
     999903    2    3    3    0    0  0.28992954637E-01  0.77538655249E-01  0.98167854342E-01  0.13172490278E+00  0.29354521130E-01 0.  0.
         14    1    1    2    0    0 -0.21256319287E-01 -0.10098562895E-02 -0.12562184362E-01  0.24711523533E-01  0.00000000000E+00 0.  1.
     999901    1    3    3    0    0 -0.77366353505E-02 -0.76528798960E-01 -0.85605669980E-01  0.88749357368E+00  0.88000000000E+00 0.  1.
        -11    1    4    4    0    0  0.25879095884E-01  0.74051843954E-01  0.76567789948E-01  0.10961884316E+00  0.51100000000E-03 0. -1.
         11    1    4    4    0    0  0.31138587531E-02  0.34868112953E-02  0.21600064395E-01  0.22106059626E-01  0.51100000000E-03 0.  1.
</event>
<event>
 8    1  0.1129602E+005  0.1043930E+01  0.7957747E-01            NaN
         13   -1    0    0    0    0  0.00000000000E+00  0.00000000000E+00  0.74505805969E-08  0.10566000000E+00  0.10566000000E+00 0. -1.
     999900   -1    0    0    0    0 -0.00000000000E+00 -0.00000000000E+00 -0.74505805969E-08  0.93827000000E+00  0.93827000000E+00 0.  1.
     999902    2    1    2    0    0  0.71793059829E-02  0.25855056679E-02  0.21854343410E-01  0.10207817906E+01  0.10205192915E+01 0.  0.
     999903    2    3    3    0    0 -0.96442053362E-01  0.72902357505E-01 -0.42150221559E-01  0.12961489817E+00  0.20188047570E-01 0.  0.
         14    1    1    2    0    0 -0.71793059829E-02 -0.25855056679E-02 -0.21854343410E-01  0.23148209430E-01  0.00000000000E+00 0.  1.
     999901    1    3    3    0    0  0.10362135935E+00 -0.70316851837E-01  0.64004564969E-01  0.89116689240E+00  0.88000000000E+00 0. -1.
        -11    1    4    4    0    0 -0.76287072397E-01  0.64867225148E-01 -0.29062854577E-01  0.10427072912E+00  0.51100000000E-03 0. -1.
         11    1    4    4    0    0 -0.20154980966E-01  0.80351323570E-02 -0.13087366982E-01  0.25344169058E-01  0.51100000000E-03 0.  1.
</event>
<event>
 8    1  0.1129602E+005  0.1043930E+01  0.7957747E-01            NaN
         13   -1    0    0    0    0  0.00000000000E+00  0.00000000000E+00  0.74505805969E-08  0.10566000000E+00  0.10566000000E+00 0.  1.
     999900   -1    0    0    0    0 -0.00000000000E+00 -0.00000000000E+00 -0.74505805969E-08  0.93827000000E+00  0.93827000000E+00 0.  1.
     999902    2    1    2    0    0 -0.14128456460E-01  0.24667295918E-02 -0.19031582153E-01  0.10200993652E+01  0.10198209724E+01 0.  0.
     999903    2    3    3    0    0 -0.70728281639E-01  0.97115707512E-01  0.47069001713E-01  0.13075620508E+00  0.21159956863E-01 0.  0.
         14    1    1    2    0    0  0.14128456460E-01 -0.24667295918E-02  0.19031582153E-01  0.23830634823E-01  0.00000000000E+00 0.  1.
     999901    1    3    3    0    0  0.56599825179E-01 -0.94648977920E-01 -0.66100583865E-01  0.88934316010E+00  0.88000000000E+00 0. -1.
        -11    1    4    4    0    0 -0.49941801276E-01  0.68766668743E-01  0.22667485020E-01  0.87960867679E-01  0.51100000000E-03 0. -1.
         11    1    4    4    0    0 -0.20786480363E-01  0.28349038769E-01  0.24401516693E-01  0.42795337397E-01  0.51100000000E-03 0.  1.
</event>
<event>
 8    1  0.1129602E+005  0.1043930E+01  0.7957747E-01            NaN
         13   -1    0    0    0    0  0.00000000000E+00  0.00000000000E+00  0.74505805969E-08  0.10566000000E+00  0.10566000000E+00 0. -1.
     999900   -1    0    0    0    0 -0.00000000000E+00 -0.00000000000E+00 -0.74505805969E-08  0.93827000000E+00  0.93827000000E+00 0.  1.
     999902    2    1    2    0    0  0.88853788174E-02  0.18321146658E-01  0.11129929202E-01  0.10207246193E+01  0.10204608070E+01 0.  0.
     999903    2    3    3    0    0  0.18380750098E-01 -0.11881775183E+00 -0.41093558807E-01  0.12852255007E+00  0.19335334931E-01 0.  0.
         14    1    1    2    0    0 -0.88853788174E-02 -0.18321146658E-01 -0.11129929202E-01  0.23205380747E-01  0.00000000000E+00 0.  1.
     999901    1    3    3    0    0 -0.94953712807E-02  0.13713889849E+00  0.52223488009E-01  0.89220206918E+00  0.88000000000E+00 0. -1.
        -11    1    4    4    0    0  0.96736879834E-02 -0.91050819690E-01 -0.38409648280E-01  0.99294482261E-01  0.51100000000E-03 0. -1.
         11    1    4    4    0    0  0.87070621147E-02 -0.27766932140E-01 -0.26839105268E-02  0.29228067809E-01  0.51100000000E-03 0.  1.
</event>
<event>
 8    1  0.1129602E+005  0.1043930E+01  0.7957747E-01            NaN
         13   -1    0    0    0    0  0.00000000000E+00  0.00000000000E+00  0.74505805969E-08  0.10566000000E+00  0.10566000000E+00 0.  1.
     999900   -1    0    0    0    0 -0.00000000000E+00 -0.00000000000E+00 -0.74505805969E-08  0.93827000000E+00  0.93827000000E+00 0.  1.
     999902    2    1    2    0    0  0.10560438820E-01 -0.15999923531E-01 -0.14009115686E-01  0.10201860377E+01  0.10199096901E+01 0.  0.
     999903    2    3    3    0    0 -0.53966961866E-01 -0.11864471842E+00 -0.32359115592E-02  0.13180785179E+00  0.19334851633E-01 0.  0.
         14    1    1    2    0    0 -0.10560438820E-01  0.15999923531E-01  0.14009115686E-01  0.23743962251E-01  0.00000000000E+00 0.  1.
     999901    1    3    3    0    0  0.64527400687E-01  0.10264479489E+00 -0.10773204127E-01  0.88837818596E+00  0.88000000000E+00 0. -1.
        -11    1    4    4    0    0 -0.25766546951E-01 -0.59177505266E-01 -0.11201839185E-01  0.65510567037E-01  0.51100000000E-03 0.  1.
         11    1    4    4    0    0 -0.28200414915E-01 -0.59467213156E-01  0.79659276256E-02  0.66297284755E-01  0.51100000000E-03 0. -1.
</event>
<event>
 8    1  0.1129602E+005  0.1043930E+01  0.7957747E-01            NaN
         13   -1    0    0    0    0  0.00000000000E+00  0.00000000000E+00  0.74505805969E-08  0.10566000000E+00  0.10566000000E+00 0.  1.
     999900   -1    0    0    0    0 -0.00000000000E+00 -0.00000000000E+00 -0.74505805969E-08  0.93827000000E+00  0.93827000000E+00 0. -1.
     999902    2    1    2    0    0  0.73781639345E-02 -0.22608811306E-01 -0.31527975595E-02  0.10199396731E+01  0.10196574920E+01 0.  0.
     999903    2    3    3    0    0 -0.89835688621E-01  0.52187530320E-01  0.72445793347E-01  0.12822213219E+00  0.19963289753E-01 0.  0.
         14    1    1    2    0    0 -0.73781639345E-02  0.22608811306E-01  0.31527975595E-02  0.23990326888E-01  0.00000000000E+00 0.  1.
     999901    1    3    3    0    0  0.97213852555E-01 -0.74796341627E-01 -0.75598590906E-01  0.89171754093E+00  0.88000000000E+00 0. -1.
        -11    1    4    4    0    0 -0.19132614451E-01  0.13485317803E-01  0.26815361640E-01  0.35598250980E-01  0.51100000000E-03 0. -1.
         11    1    4    4    0    0 -0.70703074170E-01  0.38702212517E-01  0.45630431706E-01  0.92623881205E-01  0.51100000000E-03 0.  1.
</event>
<event>
 8    1  0.1129602E+005  0.1043930E+01  0.7957747E-01            NaN
         13   -1    0    0    0    0  0.00000000000E+00  0.00000000000E+00  0.74505805969E-08  0.10566000000E+00  0.10566000000E+00 0.  1.
     999900   -1    0    0    0    0 -0.00000000000E+00 -0.00000000000E+00 -0.74505805969E-08  0.93827000000E+00  0.93827000000E+00 0.  1.
     999902    2    1    2    0    0 -0.21124807779E-01 -0.80957234826E-02 -0.16718065721E-02  0.10212453537E+01  0.10209933786E+01 0.  0.
     999903    2    3    3    0    0 -0.83009143322E-01 -0.16800742660E-02  0.10199327639E+00  0.13297890660E+00  0.19683004058E-01 0.  0.
         14    1    1    2    0    0  0.21124807779E-01  0.80957234826E-02  0.16718065721E-02  0.22684646341E-01  0.00000000000E+00 0.  1.
     999901    1    3    3    0    0  0.61884335543E-01 -0.64156492166E-02 -0.10366508296E+00  0.88826644706E+00  0.88000000000E+00 0.  1.
        -11    1    4    4    0    0 -0.55351221570E-01 -0.40094097499E-04  0.52689620523E-01  0.76421309650E-01  0.51100000000E-03 0. -1.
         11    1    4    4    0    0 -0.27657921752E-01 -0.16399801685E-02  0.49303655863E-01  0.56557596952E-01  0.51100000000E-03 0.  1.
</event>
<event>
 8    1  0.1129602E+005  0.1043930E+01  0.7957747E-01            NaN
         13   -1    0    0    0    0  0.00000000000E+00  0.00000000000E+00  0.74505805969E-08  0.10566000000E+00  0.10566000000E+00 0.  1.
     999900   -1    0    0    0    0 -0.00000000000E+00 -0.00000000000E+00 -0.74505805969E-08  0.93827000000E+00  0.93827000000E+00 0. -1.
     999902    2    1    2    0    0  0.17036164162E-01  0.16092144118E-01  0.35498019776E-02  0.10202279097E+01  0.10199525472E+01 0.  0.
     999903    2    3    3    0    0 -0.91864717362E-01  0.86153775216E-01  0.27651577522E-01  0.13042516202E+00  0.19609025191E-01 0.  0.
         14    1    1    2    0    0 -0.17036164162E-01 -0.16092144118E-01 -0.35498019776E-02  0.23702090324E-01  0.00000000000E+00 0.  1.
     999901    1    3    3    0    0  0.10890088152E+00 -0.70061631099E-01 -0.24101775544E-01  0.88980274765E+00  0.88000000000E+00 0.  1.
        -11    1    4    4    0    0 -0.15686606694E-01  0.25710419973E-01  0.86558136670E-02  0.31341339410E-01  0.51100000000E-03 0.  1.
         11    1    4    4    0    0 -0.76178110668E-01  0.60443355244E-01  0.18995763855E-01  0.99083822612E-01  0.51100000000E-03 0. -1.
</event>
<event>
 8    1  0.1129602E+005  0.1043930E+01  0.7957747E-01            NaN
         13   -1    0    0    0    0  0.00000000000E+00  0.00000000000E+00  0.74505805969E-08  0.10566000000E+00  0.10566000000E+00 0.  1.
     999900   -1    0    0    0    0 -0.00000000000E+00 -0.00000000000E+00 -0.74505805969E-08  0.93827000000E+00  0.93827000000E+00 0. -1.
     999902    2    1    2    0    0  0.11546316125E-01 -0.34790694944E-02 -0.21908631396E-01  0.10189218119E+01  0.10186148680E+01 0.  0.
     999903    2    3    3    0    0  0.50728696923E-01  0.53448953785E-01 -0.10776506874E+00  0.13204674371E+00  0.19820220280E-01 0.  0.
         14    1    1    2    0    0 -0.11546316125E-01  0.34790694944E-02  0.21908631396E-01  0.25008188064E-01  0.00000000000E+00 0.  1.
     999901    1    3    3    0    0 -0.39182380798E-01 -0.56928023279E-01  0.85856437348E-01  0.88687506822E+00  0.88000000000E+00 0.  1.
        -11    1    4    4    0    0  0.33931285095E-01  0.43095733544E-01 -0.90485991826E-01  0.10581375239E+00  0.51100000000E-03 0.  1.
         11    1    4    4    0    0  0.16797411829E-01  0.10353220241E-01 -0.17279076917E-01  0.26232991320E-01  0.51100000000E-03 0. -1.
</event>
<event>
 8    1  0.1129602E+005  0.1043930E+01  0.7957747E-01            NaN
         13   -1    0    0    0    0  0.00000000000E+00  0.00000000000E+00  0.74505805969E-08  0.10566000000E+00  0.10566000000E+00 0. -1.
     999900   -1    0    0    0    0 -0.00000000000E+00 -0.00000000000E+00 -0.74505805969E-08  0.93827000000E+00  0.93827000000E+00 0.  1.
     999902    2    1    2    0    0  0.22638978073E-01  0.94838473901E-05 -0.64524379601E-02  0.10203894526E+01  0.10201178743E+01 0.  0.
     999903    2    3    3    0    0 -0.98625319664E-01 -0.41465151928E-01 -0.68995144713E-01  0.12890935436E+00  0.20272620563E-01 0.  0.
         14    1    1    2    0    0 -0.22638978073E-01 -0.94838473901E-05  0.64524379601E-02  0.23540547440E-01  0.00000000000E+00 0. -1.
     999901    1    3    3    0    0  0.12126429774E+00  0.41474635775E-01  0.62542706753E-01  0.89148009820E+00  0.88000000000E+00 0. -1.
        -11    1    4    4    0    0 -0.49430662773E-01 -0.25438874598E-01 -0.24855507756E-01  0.60898145701E-01  0.51100000000E-03 0.  1.
         11    1    4    4    0    0 -0.49194656891E-01 -0.16026277330E-01 -0.44139636957E-01  0.68011208660E-01  0.51100000000E-03 0. -1.
</event>
<event>
 8    1  0.1129602E+005  0.1043930E+01  0.7957747E-01            NaN
         13   -1    0    0    0    0  0.00000000000E+00  0.00000000000E+00  0.74505805969E-08  0.10566000000E+00  0.10566000000E+00 0.  1.
     999900   -1    0    0    0    0 -0.00000000000E+00 -0.00000000000E+00 -0.74505805969E-08  0.93827000000E+00  0.93827000000E+00 0.  1.
     999902    2    1    2    0    0 -0.65679720017E-02  0.38667632995E-02  0.23086419321E-01  0.10196180097E+01  0.10193281184E+01 0.  0.
     999903    2    3    3    0    0  0.76060951897E-01  0.10200949545E+00  0.21166644592E-01  0.13031310111E+00  0.18500592203E-01 0.  0.
         14    1    1    2    0    0  0.65679720017E-02 -0.38667632995E-02 -0.23086419321E-01  0.24311990287E-01  0.00000000000E+00 0. -1.
     999901    1    3    3    0    0 -0.82628923899E-01 -0.98142732147E-01  0.19197747287E-02  0.88930490861E+00  0.88000000000E+00 0.  1.
        -11    1    4    4    0    0  0.43095056568E-01  0.51653410903E-01  0.25880610648E-02  0.67321749381E-01  0.51100000000E-03 0. -1.
         11    1    4    4    0    0  0.32965895329E-01  0.50356084543E-01  0.18578583527E-01  0.62991351726E-01  0.51100000000E-03 0.  1.
</event>
<event>
 8    1  0.1129602E+005  0.1043930E+01  0.7957747E-01            NaN
         13   -1    0    0    0    0  0.00000000000E+00  0.00000000000E+00  0.74505805969E-08  0.10566000000E+00  0.10566000000E+00 0.  1.
     999900   -1    0    0    0    0 -0.00000000000E+00 -0.00000000000E+00 -0.74505805969E-08  0.93827000000E+00  0.93827000000E+00 0. -1.
     999902    2    1    2    0    0  0.16642134852E-01 -0.17047385186E-01  0.41802431330E-02  0.10197422257E+01  0.10194553244E+01 0.  0.
     999903    2    3    3    0    0 -0.14208935013E-01 -0.84200643262E-02 -0.12648927940E+00  0.12951711746E+00  0.22413268287E-01 0.  0.
         14    1    1    2    0    0 -0.16642134852E-01  0.17047385186E-01 -0.41802431330E-02  0.24187774324E-01  0.00000000000E+00 0. -1.
     999901    1    3    3    0    0  0.30851069865E-01 -0.86273208594E-02  0.13066952253E+00  0.89022510821E+00  0.88000000000E+00 0.  1.
        -11    1    4    4    0    0  0.44751752415E-03 -0.51084870388E-03 -0.82088301271E-01  0.82092701045E-01  0.51100000000E-03 0. -1.
         11    1    4    4    0    0 -0.14656452537E-01 -0.79092156223E-02 -0.44400978128E-01  0.47424416416E-01  0.51100000000E-03 0.  1.
</event>
<event>
 8    1  0.1129602E+005  0.1043930E+01  0.7957747E-01            NaN
         13   -1    0    0    0    0  0.00000000000E+00  0.00000000000E+00  0.74505805969E-08  0.10566000000E+00  0.10566000000E+00 0. -1.
     999900   -1    0    0    0    0 -0.00000000000E+00 -0.00000000000E+00 -0.74505805969E-08  0.93827000000E+00  0.93827000000E+00 0. -1.
     999902    2    1    2    0    0  0.23690202392E-01  0.16114158461E-02  0.30187150866E-02  0.10199939395E+01  0.10197130487E+01 0.  0.
     999903    2    3    3    0    0 -0.45585917118E-01  0.67724598608E-01  0.98812291268E-01  0.12963078726E+00  0.19379757587E-01 0.  0.
         14    1    1    2    0    0 -0.23690202392E-01 -0.16114158461E-02 -0.30187150866E-02  0.23936060477E-01  0.00000000000E+00 0. -1.
     999901    1    3    3    0    0  0.69276119509E-01 -0.66113182762E-01 -0.95793576181E-01  0.89036315226E+00  0.88000000000E+00 0. -1.
        -11    1    4    4    0    0 -0.57792450049E-02  0.23101543854E-01  0.33133500805E-01  0.40806506808E-01  0.51100000000E-03 0. -1.
         11    1    4    4    0    0 -0.39806672113E-01  0.44623054754E-01  0.65678790463E-01  0.88824280452E-01  0.51100000000E-03 0.  1.
</event>
<event>
 8    1  0.1129602E+005  0.1043930E+01  0.7957747E-01            NaN
         13   -1    0    0    0    0  0.00000000000E+00  0.00000000000E+00  0.74505805969E-08  0.10566000000E+00  0.10566000000E+00 0. -1.
     999900   -1    0    0    0    0 -0.00000000000E+00 -0.00000000000E+00 -0.74505805969E-08  0.93827000000E+00  0.93827000000E+00 0. -1.
     999902    2    1    2    0    0 -0.37946514613E-02  0.35527000702E-02  0.22962449224E-01  0.10203865268E+01  0.10201148802E+01 0.  0.
     999903    2    3    3    0    0  0.43138902067E-01 -0.10346179170E+00  0.65684366202E-01  0.13163458045E+00  0.21164110980E-01 0.  0.
         14    1    1    2    0    0  0.37946514613E-02 -0.35527000702E-02 -0.22962449224E-01  0.23543473233E-01  0.00000000000E+00 0.  1.
     999901    1    3    3    0    0 -0.46933553528E-01  0.10701449177E+00 -0.42721916977E-01  0.88875194632E+00  0.88000000000E+00 0. -1.
        -11    1    4    4    0    0  0.32062817098E-01 -0.77131619329E-01  0.59075110918E-01  0.10231051164E+00  0.51100000000E-03 0.  1.
         11    1    4    4    0    0  0.11076084969E-01 -0.26330172369E-01  0.66092552841E-02  0.29324068810E-01  0.51100000000E-03 0. -1.
</event>
<event>
 8    1  0.1129602E+005  0.1043930E+01  0.7957747E-01            NaN
         13   -1    0    0    0    0  0.00000000000E+00  0.00000000000E+00  0.74505805969E-08  0.10566000000E+00  0.10566000000E+00 0.  1.
     999900   -1    0    0    0    0 -0.00000000000E+00 -0.00000000000E+00 -0.74505805969E-08  0.93827000000E+00  0.93827000000E+00 0.  1.
     999902    2    1    2    0    0  0.76658559193E-02  0.17473524949E-01  0.79806449883E-02  0.10232471541E+01  0.10230381020E+01 0.  0.
     999903    2    3    3    0    0  0.12487545961E+00 -0.26858531368E-01  0.35499473075E-01  0.13394365790E+00  0.19116217776E-01 0.  0.
         14    1    1    2    0    0 -0.76658559193E-02 -0.17473524949E-01 -0.79806449883E-02  0.20682845925E-01  0.00000000000E+00 0. -1.
     999901    1    3    3    0    0 -0.11720960369E+00  0.44332056318E-01 -0.27518828086E-01  0.88930349618E+00  0.88000000000E+00 0. -1.
        -11    1    4    4    0    0  0.76748917238E-01 -0.69752323617E-02  0.22085608980E-01  0.80169105076E-01  0.51100000000E-03 0. -1.
         11    1    4    4    0    0  0.48126542372E-01 -0.19883299007E-01  0.13413864095E-01  0.53774552821E-01  0.51100000000E-03 0.  1.
</event>
<event>
 8    1  0.1129602E+005  0.1043930E+01  0.7957747E-01            NaN
         13   -1    0    0    0    0  0.00000000000E+00  0.00000000000E+00  0.74505805969E-08  0.10566000000E+00  0.10566000000E+00 0.  1.
     999900   -1    0    0    0    0 -0.00000000000E+00 -0.00000000000E+00 -0.74505805969E-08  0.93827000000E+00  0.93827000000E+00 0. -1.
     999902    2    1    2    0    0  0.17211600044E-01 -0.13215469745E-01  0.85432396629E-02  0.10206088774E+01  0.10203423964E+01 0.  0.
     999903    2    3    3    0    0  0.13971476424E-01  0.96353811690E-01 -0.82460971225E-01  0.12915069426E+00  0.20020761031E-01 0.  0.
         14    1    1    2    0    0 -0.17211600044E-01  0.13215469745E-01 -0.85432396629E-02  0.23321122627E-01  0.00000000000E+00 0.  1.
     999901    1    3    3    0    0  0.32401236204E-02 -0.10956928144E+00  0.91004210888E-01  0.89145818311E+00  0.88000000000E+00 0. -1.
        -11    1    4    4    0    0  0.11568682484E-01  0.28920267869E-01 -0.18821909432E-01  0.36397001301E-01  0.51100000000E-03 0.  1.
         11    1    4    4    0    0  0.24027939399E-02  0.67433543821E-01 -0.63639061793E-01  0.92753692961E-01  0.51100000000E-03 0. -1.
</event>
<event>
 8    1  0.1129602E+005  0.1043930E+01  0.7957747E-01            NaN
         13   -1    0    0    0    0  0.00000000000E+00  0.00000000000E+00  0.74505805969E-08  0.10566000000E+00  0.10566000000E+00 0. -1.
     999900   -1    0    0    0    0 -0.00000000000E+00 -0.00000000000E+00 -0.74505805969E-08  0.93827000000E+00  0.93827000000E+00 0. -1.
     999902    2    1    2    0    0  0.10853678174E-01  0.11664746193E-01 -0.19079246291E-01  0.10190726817E+01  0.10187694756E+01 0.  0.
     999903    2    3    3    0    0  0.56091587675E-01 -0.86230431916E-01 -0.77876172889E-01  0.13054186461E+00  0.19862691558E-01 0.  0.
         14    1    1    2    0    0 -0.10853678174E-01 -0.11664746193E-01  0.19079246291E-01  0.24857318292E-01  0.00000000000E+00 0. -1.
     999901    1    3    3    0    0 -0.45237909500E-01  0.97895178109E-01  0.58796926599E-01  0.88853081710E+00  0.88000000000E+00 0.  1.
        -11    1    4    4    0    0  0.19996259493E-01 -0.15908902575E-01 -0.22238247409E-01  0.33878375753E-01  0.51100000000E-03 0.  1.
         11    1    4    4    0    0  0.36095328181E-01 -0.70321529341E-01 -0.55637925481E-01  0.96663488858E-01  0.51100000000E-03 0. -1.
</event>
<event>
 8    1  0.1129602E+005  0.1043930E+01  0.7957747E-01            NaN
         13   -1    0    0    0    0  0.00000000000E+00  0.00000000000E+00  0.74505805969E-08  0.10566000000E+00  0.10566000000E+00 0. -1.
     999900   -1    0    0    0    0 -0.00000000000E+00 -0.00000000000E+00 -0.74505805969E-08  0.93827000000E+00  0.93827000000E+00 0.  1.
     999902    2    1    2    0    0  0.47762789059E-02 -0.20985074571E-01 -0.45987815423E-03  0.10224033262E+01  0.10221766794E+01 0.  0.
     999903    2    3    3    0    0 -0.10477792053E+00  0.44064509783E-01 -0.62103422155E-01  0.13109333665E+00  0.20212229412E-01 0.  0.
         14    1    1    2    0    0 -0.47762789059E-02  0.20985074571E-01  0.45987815423E-03  0.21526673753E-01  0.00000000000E+00 0. -1.
     999901    1    3    3    0    0  0.10955419944E+00 -0.65049584354E-01  0.61643544001E-01  0.89130998960E+00  0.88000000000E+00 0. -1.
        -11    1    4    4    0    0 -0.48007488006E-01  0.13251817484E-01 -0.18367652172E-01  0.53084473612E-01  0.51100000000E-03 0.  1.
         11    1    4    4    0    0 -0.56770432523E-01  0.30812692299E-01 -0.43735769983E-01  0.78008863038E-01  0.51100000000E-03 0. -1.
</event>
<event>
 8    1  0.1129602E+005  0.1043930E+01  0.7957747E-01            NaN
         13   -1    0    0    0    0  0.00000000000E+00  0.00000000000E+00  0.74505805969E-08  0.10566000000E+00  0.10566000000E+00 0. -1.
     999900   -1    0    0    0    0 -0.00000000000E+00 -0.00000000000E+00 -0.74505805969E-08  0.93827000000E+00  0.93827000000E+00 0.  1.
     999902    2    1    2    0    0 -0.20875395404E-01  0.63422961152E-03  0.87600026314E-02  0.10212822181E+01  0.10210310705E+01 0.  0.
     999903    2    3    3    0    0 -0.50427825408E-01 -0.87285115593E-01 -0.82410729414E-01  0.13172319261E+00  0.19945279398E-01 0.  0.
         14    1    1    2    0    0  0.20875395404E-01 -0.63422961152E-03 -0.87600026314E-02  0.22647781935E-01  0.00000000000E+00 0.  1.
     999901    1    3    3    0    0  0.29552430003E-01  0.87919345204E-01  0.91170732046E-01  0.88955902545E+00  0.88000000000E+00 0. -1.
        -11    1    4    4    0    0 -0.17541304104E-01 -0.28593129940E-01 -0.15930262514E-01  0.37138912399E-01  0.51100000000E-03 0. -1.
         11    1    4    4    0    0 -0.32886521304E-01 -0.58691985653E-01 -0.66480466901E-01  0.94584280214E-01  0.51100000000E-03 0.  1.
</event>
<event>
 8    1  0.1129602E+005  0.1043930E+01  0.7957747E-01            NaN
         13   -1    0    0    0    0  0.00000000000E+00  0.00000000000E+00  0.74505805969E-08  0.10566000000E+00  0.10566000000E+00 0. -1.
     999900   -1    0    0    0    0 -0.00000000000E+00 -0.00000000000E+00 -0.74505805969E-08  0.93827000000E+00  0.93827000000E+00 0. -1.
     999902    2    1    2    0    0 -0.67536667864E-03 -0.27065368850E-02  0.17131730111E-01  0.10265726489E+01  0.10264258988E+01 0.  0.
     999903    2    3    3    0    0  0.47123991297E-01  0.31021081323E-01  0.12453196482E+00  0.13811491702E+00  0.19609742421E-01 0.  0.
         14    1    1    2    0    0  0.67536667864E-03  0.27065368850E-02 -0.17131730111E-01  0.17357351141E-01  0.00000000000E+00 0.  1.
     999901    1    3    3    0    0 -0.47799357975E-01 -0.33727618208E-01 -0.10740023471E+00  0.88845773184E+00  0.88000000000E+00 0. -1.
        -11    1    4    4    0    0  0.58934204533E-02  0.13757312481E-01  0.33792841990E-01  0.36962323278E-01  0.51100000000E-03 0.  1.
         11    1    4    4    0    0  0.41230570843E-01  0.17263768842E-01  0.90739122833E-01  0.10115259374E+00  0.51100000000E-03 0. -1.
</event>
<event>
 8    1  0.1129602E+005  0.1043930E+01  0.7957747E-01            NaN
         13   -1    0    0    0    0  0.00000000000E+00  0.00000000000E+00  0.74505805969E-08  0.10566000000E+00  0.10566000000E+00 0. -1.
     999900   -1    0    0    0    0 -0.00000000000E+00 -0.00000000000E+00 -0.74505805969E-08  0.93827000000E+00  0.93827000000E+00 0. -1.
     999902    2    1    2    0    0 -0.18207465889E-01 -0.14001008243E-01 -0.30749345728E-02  0.10207568416E+01  0.10204937699E+01 0.  0.
     999903    2    3    3    0    0 -0.95891287846E-01  0.64989507465E-01 -0.60071437733E-01  0.13198078484E+00  0.19788248271E-01 0.  0.
         14    1    1    2    0    0  0.18207465889E-01  0.14001008243E-01  0.30749345728E-02  0.23173158364E-01  0.00000000000E+00 0.  1.
     999901    1    3    3    0    0  0.77683821956E-01 -0.78990515709E-01  0.56996503161E-01  0.88877605680E+00  0.88000000000E+00 0. -1.
        -11    1    4    4    0    0 -0.56734689052E-01  0.49868547561E-01 -0.38958769679E-01  0.84992610464E-01  0.51100000000E-03 0. -1.
         11    1    4    4    0    0 -0.39156598794E-01  0.15120959905E-01 -0.21112668055E-01  0.46988174373E-01  0.51100000000E-03 0.  1.
</event>
<event>
 8    1  0.1129602E+005  0.1043930E+01  0.7957747E-01            NaN
         13   -1    0    0    0    0  0.00000000000E+00  0.00000000000E+00  0.74505805969E-08  0.10566000000E+00  0.10566000000E+00 0. -1.
     999900   -1    0    0    0    0 -0.00000000000E+00 -0.00000000000E+00 -0.74505805969E-08  0.93827000000E+00  0.93827000000E+00 0.  1.
     999902    2    1    2    0    0  0.25886821141E-03  0.10792796491E-01 -0.21353273578E-01  0.10200027402E+01  0.10197220583E+01 0.  0.
     999903    2    3    3    0    0  0.79843912201E-01  0.90677482396E-01 -0.50300324007E-01  0.13233541851E+00  0.19623564116E-01 0.  0.
         14    1    1    2    0    0 -0.25886821141E-03 -0.10792796491E-01  0.21353273578E-01  0.23927259796E-01  0.00000000000E+00 0. -1.
     999901    1    3    3    0    0 -0.79585043990E-01 -0.79884685905E-01  0.28947050429E-01  0.88766732169E+00  0.88000000000E+00 0. -1.
        -11    1    4    4    0    0  0.53805429267E-01  0.68061247561E-01 -0.27612211846E-01  0.91049728183E-01  0.51100000000E-03 0.  1.
         11    1    4    4    0    0  0.26038482934E-01  0.22616234835E-01 -0.22688112161E-01  0.41285690330E-01  0.51100000000E-03 0. -1.
</event>
<event>
 8    1  0.1129602E+005  0.1043930E+01  0.7957747E-01            NaN
         13   -1    0    0    0    0  0.00000000000E+00  0.00000000000E+00  0.74505805969E-08  0.10566000000E+00  0.10566000000E+00 0. -1.
     999900   -1    0    0    0    0 -0.00000000000E+00 -0.00000000000E+00 -0.74505805969E-08  0.93827000000E+00  0.93827000000E+00 0. -1.
     999902    2    1    2    0    0 -0.18201306951E-01  0.13637263917E-01 -0.63941524205E-02  0.10203048497E+01  0.10200312929E+01 0.  0.
     999903    2    3    3    0    0  0.49322930617E-01  0.10820615674E+00  0.50715637981E-01  0.13083066440E+00  0.20081408561E-01 0.  0.
         14    1    1    2    0    0  0.18201306951E-01 -0.13637263917E-01  0.63941524205E-02  0.23625150307E-01  0.00000000000E+00 0. -1.
     999901    1    3    3    0    0 -0.67524237568E-01 -0.94568892822E-01 -0.57109790402E-01  0.88947418530E+00  0.88000000000E+00 0. -1.
        -11    1    4    4    0    0  0.69201432521E-02  0.35194194895E-01  0.10981098191E-01  0.37514868724E-01  0.51100000000E-03 0. -1.
         11    1    4    4    0    0  0.42402787365E-01  0.73011961844E-01  0.39734539790E-01  0.93315795672E-01  0.51100000000E-03 0.  1.
</event>
<event>
 8    1  0.1129602E+005  0.1043930E+01  0.7957747E-01            NaN
         13   -1    0    0    0    0  0.00000000000E+00  0.00000000000E+00  0.74505805969E-08  0.10566000000E+00  0.10566000000E+00 0.  1.
     999900   -1    0    0    0    0 -0.00000000000E+00 -0.00000000000E+00 -0.74505805969E-08  0.93827000000E+00  0.93827000000E+00 0.  1.
     999902    2    1    2    0    0 -0.11871940024E-01 -0.68144517908E-02 -0.20920952206E-01  0.10189286809E+01  0.10186219077E+01 0.  0.
     999903    2    3    3    0    0  0.14517920472E-01  0.12143999790E+00  0.30797004215E-01  0.12773825482E+00  0.20252485535E-01 0.  0.
         14    1    1    2    0    0  0.11871940024E-01  0.68144517908E-02  0.20920952206E-01  0.25001319052E-01  0.00000000000E+00 0.  1.
     999901    1    3    3    0    0 -0.26389860496E-01 -0.12825444969E+00 -0.51717956421E-01  0.89119042613E+00  0.88000000000E+00 0.  1.
        -11    1    4    4    0    0  0.31826512355E-02  0.53825974749E-02 -0.20314045608E-02  0.65946455517E-02  0.51100000000E-03 0. -1.
         11    1    4    4    0    0  0.11335269236E-01  0.11605740043E+00  0.32828408776E-01  0.12114360927E+00  0.51100000000E-03 0.  1.
</event>
<event>
 8    1  0.1129602E+005  0.1043930E+01  0.7957747E-01            NaN
         13   -1    0    0    0    0  0.00000000000E+00  0.00000000000E+00  0.74505805969E-08  0.10566000000E+00  0.10566000000E+00 0.  1.
     999900   -1    0    0    0    0 -0.00000000000E+00 -0.00000000000E+00 -0.74505805969E-08  0.93827000000E+00  0.93827000000E+00 0.  1.
     999902    2    1    2    0    0 -0.33720103848E-02 -0.11957111461E-01  0.20042515427E-01  0.10203493852E+01  0.10200768709E+01 0.  0.
     999903    2    3    3    0    0  0.93083767343E-01 -0.42305627424E-01 -0.76166234202E-01  0.12934945650E+00  0.21809007551E-01 0.  0.
         14    1    1    2    0    0  0.33720103848E-02  0.11957111461E-01 -0.20042515427E-01  0.23580614775E-01  0.00000000000E+00 0. -1.
     999901    1    3    3    0    0 -0.96455777727E-01  0.30348515963E-01  0.96208749630E-01  0.89099992872E+00  0.88000000000E+00 0. -1.
        -11    1    4    4    0    0  0.41748341103E-01 -0.30603458775E-01 -0.34593117890E-01  0.62261068093E-01  0.51100000000E-03 0.  1.
         11    1    4    4    0    0  0.51335426240E-01 -0.11702168650E-01 -0.41573116312E-01  0.67088388409E-01  0.51100000000E-03 0. -1.
</event>
<event>
 8    1  0.1129602E+005  0.1043930E+01  0.7957747E-01            NaN
         13   -1    0    0    0    0  0.00000000000E+00  0.00000000000E+00  0.74505805969E-08  0.10566000000E+00  0.10566000000E+00 0.  1.
     999900   -1    0    0    0    0 -0.00000000000E+00 -0.00000000000E+00 -0.74505805969E-08  0.93827000000E+00  0.93827000000E+00 0.  1.
     999902    2    1    2    0    0  0.12119104824E-01 -0.25411968163E-01 -0.34171084011E-02  0.10155695089E+01  0.10151734383E+01 0.  0.
     999903    2    3    3    0    0  0.82788707370E-01  0.63877420775E-02  0.93803917705E-01  0.12683032203E+00  0.19798542692E-01 0.  0.
         14    1    1    2    0    0 -0.12119104824E-01  0.25411968163E-01  0.34171084011E-02  0.28360491136E-01  0.00000000000E+00 0. -1.
     999901    1    3    3    0    0 -0.70669602546E-01 -0.31799710241E-01 -0.97221026106E-01  0.88873918683E+00  0.88000000000E+00 0.  1.
        -11    1    4    4    0    0  0.60209201144E-01  0.12590209928E-01  0.62054648949E-01  0.87376781043E-01  0.51100000000E-03 0. -1.
         11    1    4    4    0    0  0.22579506226E-01 -0.62024678501E-02  0.31749268756E-01  0.39453540987E-01  0.51100000000E-03 0.  1.
</event>
