<event>
 8    1  0.1204770E+005  0.1043930E+01  0.7957747E-01            NaN
         13   -1    0    0    0    0  0.00000000000E+00  0.00000000000E+00  0.74505805969E-08  0.10566000000E+00  0.10566000000E+00 0. -1.
     999900   -1    0    0    0    0 -0.00000000000E+00 -0.00000000000E+00 -0.74505805969E-08  0.93827000000E+00  0.93827000000E+00 0.  1.
     999902    2    1    2    0    0 -0.95231821196E-02 -0.19429944834E-01  0.94163430833E-02  0.10203316680E+01  0.10200587393E+01 0.  0.
     999903    2    3    3    0    0  0.60546716543E-01  0.36563903298E-01  0.10780098716E+00  0.13031782550E+00  0.18943571570E-01 0.  0.
         14    1    1    2    0    0  0.95231821196E-02  0.19429944834E-01 -0.94163430833E-02  0.23598331954E-01  0.00000000000E+00 0.  1.
     999901    1    3    3    0    0 -0.70069898662E-01 -0.55993848132E-01 -0.98384644073E-01  0.89001384254E+00  0.88000000000E+00 0. -1.
        -11    1    4    4    0    0  0.40354919127E-01  0.30084789174E-01  0.87559649857E-01  0.10099785860E+00  0.51100000000E-03 0. -1.
         11    1    4    4    0    0  0.20191797416E-01  0.64791141245E-02  0.20241337299E-01  0.29319966906E-01  0.51100000000E-03 0.  1.
</event>
<event>
 8    1  0.1204770E+005  0.1043930E+01  0.7957747E-01            NaN
         13   -1    0    0    0    0  0.00000000000E+00  0.00000000000E+00  0.74505805969E-08  0.10566000000E+00  0.10566000000E+00 0.  1.
     999900   -1    0    0    0    0 -0.00000000000E+00 -0.00000000000E+00 -0.74505805969E-08  0.93827000000E+00  0.93827000000E+00 0. -1.
     999902    2    1    2    0    0  0.60601656757E-02  0.22320081694E-01 -0.89884286082E-02  0.10191166265E+01  0.10188145047E+01 0.  0.
     999903    2    3    3    0    0 -0.17528518661E-01 -0.12061179545E+00  0.28425542511E-01  0.12648806280E+00  0.18351141547E-01 0.  0.
         14    1    1    2    0    0 -0.60601656757E-02 -0.22320081694E-01  0.89884286082E-02  0.24813373485E-01  0.00000000000E+00 0.  1.
     999901    1    3    3    0    0  0.23588684337E-01  0.14293187714E+00 -0.37413971119E-01  0.89262856372E+00  0.88000000000E+00 0. -1.
        -11    1    4    4    0    0 -0.14052255743E-01 -0.38113302838E-01  0.76033707029E-02  0.41329917877E-01  0.51100000000E-03 0.  1.
         11    1    4    4    0    0 -0.34762629180E-02 -0.82498492607E-01  0.20822171808E-01  0.85158144920E-01  0.51100000000E-03 0. -1.
</event>
<event>
 8    1  0.1204770E+005  0.1043930E+01  0.7957747E-01            NaN
         13   -1    0    0    0    0  0.00000000000E+00  0.00000000000E+00  0.74505805969E-08  0.10566000000E+00  0.10566000000E+00 0. -1.
     999900   -1    0    0    0    0 -0.00000000000E+00 -0.00000000000E+00 -0.74505805969E-08  0.93827000000E+00  0.93827000000E+00 0.  1.
     999902    2    1    2    0    0  0.93761743094E-02 -0.21020590633E-01  0.61625706803E-02  0.10201023868E+01  0.10198240654E+01 0.  0.
     999903    2    3    3    0    0  0.89112812453E-01  0.85896666650E-01  0.35536992143E-01  0.12956766649E+00  0.14337771966E-01 0.  0.
         14    1    1    2    0    0 -0.93761743094E-02  0.21020590633E-01 -0.61625706803E-02  0.23827613238E-01  0.00000000000E+00 0. -1.
     999901    1    3    3    0    0 -0.79736638143E-01 -0.10691725728E+00 -0.29374421463E-01  0.89053472027E+00  0.88000000000E+00 0.  1.
        -11    1    4    4    0    0  0.36362284584E-01  0.34885219890E-01  0.21818095231E-01  0.54913429208E-01  0.51100000000E-03 0. -1.
         11    1    4    4    0    0  0.52750527869E-01  0.51011446761E-01  0.13718896912E-01  0.74654237285E-01  0.51100000000E-03 0.  1.
</event>
<event>
 8    1  0.1204770E+005  0.1043930E+01  0.7957747E-01            NaN
         13   -1    0    0    0    0  0.00000000000E+00  0.00000000000E+00  0.74505805969E-08  0.10566000000E+00  0.10566000000E+00 0. -1.
     999900   -1    0    0    0    0 -0.00000000000E+00 -0.00000000000E+00 -0.74505805969E-08  0.93827000000E+00  0.93827000000E+00 0. -1.
     999902    2    1    2    0    0  0.10161201996E-01 -0.21665130262E-01 -0.15684372125E-06  0.10200003553E+01  0.10197196168E+01 0.  0.
     999903    2    3    3    0    0 -0.44948311281E-01 -0.98731380768E-01  0.71231950090E-01  0.13205312800E+00  0.24409048835E-01 0.  0.
         14    1    1    2    0    0 -0.10161201996E-01  0.21665130262E-01  0.15684372126E-06  0.23929644697E-01  0.00000000000E+00 0.  1.
     999901    1    3    3    0    0  0.55109513277E-01  0.77066250506E-01 -0.71232106934E-01  0.88794722731E+00  0.88000000000E+00 0. -1.
        -11    1    4    4    0    0 -0.13617888507E-01 -0.54805903387E-01  0.28700087450E-01  0.63348954799E-01  0.51100000000E-03 0. -1.
         11    1    4    4    0    0 -0.31330422774E-01 -0.43925477381E-01  0.42531862641E-01  0.68704173199E-01  0.51100000000E-03 0.  1.
</event>
<event>
 8    1  0.1204770E+005  0.1043930E+01  0.7957747E-01            NaN
         13   -1    0    0    0    0  0.00000000000E+00  0.00000000000E+00  0.74505805969E-08  0.10566000000E+00  0.10566000000E+00 0. -1.
     999900   -1    0    0    0    0 -0.00000000000E+00 -0.00000000000E+00 -0.74505805969E-08  0.93827000000E+00  0.93827000000E+00 0.  1.
     999902    2    1    2    0    0  0.11537833275E-01  0.13362848576E-01 -0.16047306268E-01  0.10200720169E+01  0.10197929772E+01 0.  0.
     999903    2    3    3    0    0 -0.63740298384E-01  0.10922879308E+00  0.26248270771E-01  0.13066435320E+00  0.19759721773E-01 0.  0.
         14    1    1    2    0    0 -0.11537833275E-01 -0.13362848576E-01  0.16047306268E-01  0.23857983091E-01  0.00000000000E+00 0. -1.
     999901    1    3    3    0    0  0.75278131659E-01 -0.95865944501E-01 -0.42295577039E-01  0.88940766371E+00  0.88000000000E+00 0. -1.
        -11    1    4    4    0    0 -0.73219213517E-02  0.28692642908E-01  0.45207663021E-02  0.29959585082E-01  0.51100000000E-03 0. -1.
         11    1    4    4    0    0 -0.56418377032E-01  0.80536150169E-01  0.21727504469E-01  0.10070476812E+00  0.51100000000E-03 0.  1.
</event>
<event>
 8    1  0.1204770E+005  0.1043930E+01  0.7957747E-01            NaN
         13   -1    0    0    0    0  0.00000000000E+00  0.00000000000E+00  0.74505805969E-08  0.10566000000E+00  0.10566000000E+00 0. -1.
     999900   -1    0    0    0    0 -0.00000000000E+00 -0.00000000000E+00 -0.74505805969E-08  0.93827000000E+00  0.93827000000E+00 0.  1.
     999902    2    1    2    0    0  0.15577162703E-01  0.12688916239E-01  0.13737109159E-01  0.10195914552E+01  0.10193009226E+01 0.  0.
     999903    2    3    3    0    0  0.35905917633E-01  0.12398379258E+00 -0.18077373848E-01  0.13177842925E+00  0.19430574568E-01 0.  0.
         14    1    1    2    0    0 -0.15577162703E-01 -0.12688916239E-01 -0.13737109159E-01  0.24338544765E-01  0.00000000000E+00 0.  1.
     999901    1    3    3    0    0 -0.20328754930E-01 -0.11129487634E+00  0.31814483007E-01  0.88781302598E+00  0.88000000000E+00 0. -1.
        -11    1    4    4    0    0  0.21408093916E-01  0.62017912012E-01 -0.18378753652E-01  0.68136389707E-01  0.51100000000E-03 0. -1.
         11    1    4    4    0    0  0.14497823718E-01  0.61965880565E-01  0.30137980408E-03  0.63642039546E-01  0.51100000000E-03 0.  1.
</event>
<event>
 8    1  0.1204770E+005  0.1043930E+01  0.7957747E-01            NaN
         13   -1    0    0    0    0  0.00000000000E+00  0.00000000000E+00  0.74505805969E-08  0.10566000000E+00  0.10566000000E+00 0. -1.
     999900   -1    0    0    0    0 -0.00000000000E+00 -0.00000000000E+00 -0.74505805969E-08  0.93827000000E+00  0.93827000000E+00 0.  1.
     999902    2    1    2    0    0 -0.94354720450E-02 -0.21496355536E-01 -0.14117236621E-02  0.10204116157E+01  0.10201405546E+01 0.  0.
     999903    2    3    3    0    0  0.11702607455E+00 -0.31711728822E-01  0.42910571994E-01  0.13020863748E+00  0.20303601086E-01 0.  0.
         14    1    1    2    0    0  0.94354720450E-02  0.21496355536E-01  0.14117236621E-02  0.23518384251E-01  0.00000000000E+00 0. -1.
     999901    1    3    3    0    0 -0.12646154660E+00  0.10215373285E-01 -0.44322295656E-01  0.89020297826E+00  0.88000000000E+00 0.  1.
        -11    1    4    4    0    0  0.88940496510E-01 -0.24789467901E-01  0.23201080242E-01  0.95202315537E-01  0.51100000000E-03 0.  1.
         11    1    4    4    0    0  0.28085578042E-01 -0.69222609208E-02  0.19709491753E-01  0.35006321948E-01  0.51100000000E-03 0. -1.
</event>
<event>
 8    1  0.1204770E+005  0.1043930E+01  0.7957747E-01            NaN
         13   -1    0    0    0    0  0.00000000000E+00  0.00000000000E+00  0.74505805969E-08  0.10566000000E+00  0.10566000000E+00 0.  1.
     999900   -1    0    0    0    0 -0.00000000000E+00 -0.00000000000E+00 -0.74505805969E-08  0.93827000000E+00  0.93827000000E+00 0. -1.
     999902    2    1    2    0    0 -0.12804792545E-01  0.89751600951E-02  0.17974387856E-01  0.10201057512E+01  0.10198275094E+01 0.  0.
     999903    2    3    3    0    0  0.17094518678E-01 -0.11892992038E+00 -0.42232832214E-01  0.12832181564E+00  0.15694831012E-01 0.  0.
         14    1    1    2    0    0  0.12804792545E-01 -0.89751600951E-02 -0.17974387856E-01  0.23824248774E-01  0.00000000000E+00 0. -1.
     999901    1    3    3    0    0 -0.29899311223E-01  0.12790508048E+00  0.60207220069E-01  0.89178393559E+00  0.88000000000E+00 0.  1.
        -11    1    4    4    0    0  0.10808992308E-01 -0.28950636354E-01 -0.89420652281E-02  0.32174451224E-01  0.51100000000E-03 0.  1.
         11    1    4    4    0    0  0.62855263698E-02 -0.89979284030E-01 -0.33290766986E-01  0.96147364414E-01  0.51100000000E-03 0. -1.
</event>
<event>
 8    1  0.1204770E+005  0.1043930E+01  0.7957747E-01            NaN
         13   -1    0    0    0    0  0.00000000000E+00  0.00000000000E+00  0.74505805969E-08  0.10566000000E+00  0.10566000000E+00 0.  1.
     999900   -1    0    0    0    0 -0.00000000000E+00 -0.00000000000E+00 -0.74505805969E-08  0.93827000000E+00  0.93827000000E+00 0. -1.
     999902    2    1    2    0    0 -0.39550205373E-02 -0.16024913624E-01  0.19262759198E-01  0.10185628177E+01  0.10182468855E+01 0.  0.
     999903    2    3    3    0    0  0.38400493633E-01 -0.10542599903E+00 -0.61272405162E-01  0.12936517022E+00  0.19793949781E-01 0.  0.
         14    1    1    2    0    0  0.39550205373E-02  0.16024913624E-01 -0.19262759198E-01  0.25367182264E-01  0.00000000000E+00 0.  1.
     999901    1    3    3    0    0 -0.42355514170E-01  0.89401085409E-01  0.80535164361E-01  0.88919764752E+00  0.88000000000E+00 0.  1.
        -11    1    4    4    0    0  0.32769991883E-01 -0.67547071045E-01 -0.34428206943E-01  0.82595651999E-01  0.51100000000E-03 0. -1.
         11    1    4    4    0    0  0.56305017498E-02 -0.37878927987E-01 -0.26844198219E-01  0.46769518219E-01  0.51100000000E-03 0.  1.
</event>
<event>
 8    1  0.1204770E+005  0.1043930E+01  0.7957747E-01            NaN
         13   -1    0    0    0    0  0.00000000000E+00  0.00000000000E+00  0.74505805969E-08  0.10566000000E+00  0.10566000000E+00 0.  1.
     999900   -1    0    0    0    0 -0.00000000000E+00 -0.00000000000E+00 -0.74505805969E-08  0.93827000000E+00  0.93827000000E+00 0.  1.
     999902    2    1    2    0    0 -0.90213092522E-02  0.15339402354E-01  0.93985519429E-02  0.10238050388E+01  0.10236072212E+01 0.  0.
     999903    2    3    3    0    0  0.68411185898E-01  0.11856910102E-02 -0.11129535014E+00  0.13208583587E+00  0.19455509623E-01 0.  0.
         14    1    1    2    0    0  0.90213092522E-02 -0.15339402354E-01 -0.93985519429E-02  0.20124961213E-01  0.00000000000E+00 0. -1.
     999901    1    3    3    0    0 -0.77432495150E-01  0.14153711343E-01  0.12069390209E+00  0.89171920292E+00  0.88000000000E+00 0. -1.
        -11    1    4    4    0    0  0.40024960643E-01 -0.81588605718E-02 -0.71029074162E-01  0.81938726971E-01  0.51100000000E-03 0. -1.
         11    1    4    4    0    0  0.28386225255E-01  0.93445515820E-02 -0.40266275983E-01  0.50147108900E-01  0.51100000000E-03 0.  1.
</event>
<event>
 8    1  0.1204770E+005  0.1043930E+01  0.7957747E-01            NaN
         13   -1    0    0    0    0  0.00000000000E+00  0.00000000000E+00  0.74505805969E-08  0.10566000000E+00  0.10566000000E+00 0. -1.
     999900   -1    0    0    0    0 -0.00000000000E+00 -0.00000000000E+00 -0.74505805969E-08  0.93827000000E+00  0.93827000000E+00 0.  1.
     999902    2    1    2    0    0  0.47515726061E-02  0.12606210449E-01 -0.20072332931E-01  0.10197557878E+01  0.10194692120E+01 0.  0.
     999903    2    3    3    0    0 -0.28685653725E-01 -0.62974346599E-01  0.10443149110E+00  0.12715751824E+00  0.21782172792E-01 0.  0.
         14    1    1    2    0    0 -0.47515726061E-02 -0.12606210449E-01  0.20072332931E-01  0.24174212157E-01  0.00000000000E+00 0. -1.
     999901    1    3    3    0    0  0.33437226331E-01  0.75580557048E-01 -0.12450382403E+00  0.89259826961E+00  0.88000000000E+00 0.  1.
        -11    1    4    4    0    0 -0.25280395877E-01 -0.40130272824E-01  0.83253259349E-01  0.95817031501E-01  0.51100000000E-03 0.  1.
         11    1    4    4    0    0 -0.34052578479E-02 -0.22844073775E-01  0.21178231750E-01  0.31340486734E-01  0.51100000000E-03 0. -1.
</event>
<event>
 8    1  0.1438098E+005  0.1043930E+01  0.7957747E-01            NaN
         13   -1    0    0    0    0  0.00000000000E+00  0.00000000000E+00  0.74505805969E-08  0.10566000000E+00  0.10566000000E+00 0. -1.
     999900   -1    0    0    0    0 -0.00000000000E+00 -0.00000000000E+00 -0.74505805969E-08  0.93827000000E+00  0.93827000000E+00 0. -1.
     999902    2    1    2    0    0  0.15241637725E-01  0.18461526932E-01 -0.33522969649E-02  0.10197561837E+01  0.10194696174E+01 0.  0.
     999903    2    3    3    0    0  0.57309844704E-01  0.11056517423E+00 -0.42104365220E-01  0.13310262193E+00  0.20843568363E-01 0.  0.
         14    1    1    2    0    0 -0.15241637725E-01 -0.18461526932E-01  0.33522969649E-02  0.24173816251E-01  0.00000000000E+00 0. -1.
     999901    1    3    3    0    0 -0.42068206978E-01 -0.92103647301E-01  0.38752068255E-01  0.88665356181E+00  0.88000000000E+00 0. -1.
        -11    1    4    4    0    0  0.29825297879E-01  0.76536990924E-01 -0.22528680758E-01  0.85177825465E-01  0.51100000000E-03 0.  1.
         11    1    4    4    0    0  0.27484546825E-01  0.34028183309E-01 -0.19575684462E-01  0.47924796470E-01  0.51100000000E-03 0. -1.
</event>
<event>
 8    1  0.1204770E+005  0.1043930E+01  0.7957747E-01            NaN
         13   -1    0    0    0    0  0.00000000000E+00  0.00000000000E+00  0.74505805969E-08  0.10566000000E+00  0.10566000000E+00 0. -1.
     999900   -1    0    0    0    0 -0.00000000000E+00 -0.00000000000E+00 -0.74505805969E-08  0.93827000000E+00  0.93827000000E+00 0.  1.
     999902    2    1    2    0    0  0.12732778171E-01 -0.55063378384E-02  0.19992253347E-01  0.10195962048E+01  0.10193057869E+01 0.  0.
     999903    2    3    3    0    0 -0.61910790439E-01  0.91664071510E-01 -0.60157103850E-01  0.12749886129E+00  0.20045810232E-01 0.  0.
         14    1    1    2    0    0 -0.12732778171E-01  0.55063378384E-02 -0.19992253347E-01  0.24333795229E-01  0.00000000000E+00 0.  1.
     999901    1    3    3    0    0  0.74643568610E-01 -0.97170409349E-01  0.80149357197E-01  0.89209734348E+00  0.88000000000E+00 0.  1.
        -11    1    4    4    0    0 -0.46463499581E-01  0.52289405253E-01 -0.40795052778E-01  0.80978615370E-01  0.51100000000E-03 0. -1.
         11    1    4    4    0    0 -0.15447290858E-01  0.39374666257E-01 -0.19362051072E-01  0.46520245920E-01  0.51100000000E-03 0.  1.
</event>
<event>
 8    1  0.1204770E+005  0.1043930E+01  0.7957747E-01            NaN
         13   -1    0    0    0    0  0.00000000000E+00  0.00000000000E+00  0.74505805969E-08  0.10566000000E+00  0.10566000000E+00 0.  1.
     999900   -1    0    0    0    0 -0.00000000000E+00 -0.00000000000E+00 -0.74505805969E-08  0.93827000000E+00  0.93827000000E+00 0. -1.
     999902    2    1    2    0    0  0.12276094542E-01  0.13772277342E-01  0.14026738481E-01  0.10207539884E+01  0.10204908512E+01 0.  0.
     999903    2    3    3    0    0  0.35117794266E-02 -0.12436781987E+00 -0.27395760178E-01  0.12897188326E+00  0.20088100515E-01 0.  0.
         14    1    1    2    0    0 -0.12276094542E-01 -0.13772277342E-01 -0.14026738481E-01  0.23176011581E-01  0.00000000000E+00 0. -1.
     999901    1    3    3    0    0  0.87643151158E-02  0.13814009722E+00  0.41422498659E-01  0.89178210515E+00  0.88000000000E+00 0.  1.
        -11    1    4    4    0    0  0.57900365566E-02 -0.11321849056E+00 -0.19304414772E-01  0.11499944643E+00  0.51100000000E-03 0. -1.
         11    1    4    4    0    0 -0.22782571301E-02 -0.11149329315E-01 -0.80913454062E-02  0.13972436839E-01  0.51100000000E-03 0.  1.
</event>
<event>
 8    1  0.1204770E+005  0.1043930E+01  0.7957747E-01            NaN
         13   -1    0    0    0    0  0.00000000000E+00  0.00000000000E+00  0.74505805969E-08  0.10566000000E+00  0.10566000000E+00 0. -1.
     999900   -1    0    0    0    0 -0.00000000000E+00 -0.00000000000E+00 -0.74505805969E-08  0.93827000000E+00  0.93827000000E+00 0.  1.
     999902    2    1    2    0    0  0.10496699229E-03 -0.21903572296E-01 -0.95259146915E-02  0.10200444280E+01  0.10197647349E+01 0.  0.
     999903    2    3    3    0    0  0.35305150415E-01 -0.84669842897E-01  0.91882063561E-01  0.13130248816E+00  0.19560006417E-01 0.  0.
         14    1    1    2    0    0 -0.10496699229E-03  0.21903572296E-01  0.95259146915E-02  0.23885571965E-01  0.00000000000E+00 0. -1.
     999901    1    3    3    0    0 -0.35200183423E-01  0.62766270601E-01 -0.10140797825E+00  0.88874193987E+00  0.88000000000E+00 0.  1.
        -11    1    4    4    0    0  0.21679875345E-01 -0.44811991010E-01  0.36551214885E-01  0.61760699185E-01  0.51100000000E-03 0.  1.
         11    1    4    4    0    0  0.13625275071E-01 -0.39857851887E-01  0.55330848676E-01  0.69541788976E-01  0.51100000000E-03 0. -1.
</event>
<event>
 8    1  0.1204770E+005  0.1043930E+01  0.7957747E-01            NaN
         13   -1    0    0    0    0  0.00000000000E+00  0.00000000000E+00  0.74505805969E-08  0.10566000000E+00  0.10566000000E+00 0. -1.
     999900   -1    0    0    0    0 -0.00000000000E+00 -0.00000000000E+00 -0.74505805969E-08  0.93827000000E+00  0.93827000000E+00 0.  1.
     999902    2    1    2    0    0  0.23427441815E-01  0.10047351515E-02 -0.23047690851E-01  0.10110506664E+01  0.10105159076E+01 0.  0.
     999903    2    3    3    0    0 -0.72068965509E-01 -0.15426546101E-01 -0.95807134780E-01  0.12274695288E+00  0.21351656910E-01 0.  0.
         14    1    1    2    0    0 -0.23427441815E-01 -0.10047351515E-02  0.23047690851E-01  0.32879333574E-01  0.00000000000E+00 0. -1.
     999901    1    3    3    0    0  0.95496407324E-01  0.16431281252E-01  0.72759443929E-01  0.88830371354E+00  0.88000000000E+00 0. -1.
        -11    1    4    4    0    0 -0.34425486902E-01 -0.14525423919E-01 -0.34855640601E-01  0.51100674077E-01  0.51100000000E-03 0. -1.
         11    1    4    4    0    0 -0.37643478607E-01 -0.90112218202E-03 -0.60951494179E-01  0.71646278804E-01  0.51100000000E-03 0.  1.
</event>
<event>
 8    1  0.1204770E+005  0.1043930E+01  0.7957747E-01            NaN
         13   -1    0    0    0    0  0.00000000000E+00  0.00000000000E+00  0.74505805969E-08  0.10566000000E+00  0.10566000000E+00 0. -1.
     999900   -1    0    0    0    0 -0.00000000000E+00 -0.00000000000E+00 -0.74505805969E-08  0.93827000000E+00  0.93827000000E+00 0. -1.
     999902    2    1    2    0    0  0.50906826288E-02  0.24248469331E-02 -0.22219788694E-01  0.10210059091E+01  0.10207485256E+01 0.  0.
     999903    2    3    3    0    0 -0.33654879299E-01 -0.12258088062E+00 -0.26140889778E-01  0.13131887117E+00  0.20064311937E-01 0.  0.
         14    1    1    2    0    0 -0.50906826288E-02 -0.24248469331E-02  0.22219788694E-01  0.22924090863E-01  0.00000000000E+00 0. -1.
     999901    1    3    3    0    0  0.38745561928E-01  0.12500572755E+00  0.39211010839E-02  0.88968703797E+00  0.88000000000E+00 0. -1.
        -11    1    4    4    0    0 -0.12772740806E-01 -0.69849855505E-01 -0.65424171699E-02  0.71310655341E-01  0.51100000000E-03 0. -1.
         11    1    4    4    0    0 -0.20882138492E-01 -0.52731025114E-01 -0.19598472608E-01  0.60008215831E-01  0.51100000000E-03 0.  1.
</event>
<event>
 8    1  0.1204770E+005  0.1043930E+01  0.7957747E-01            NaN
         13   -1    0    0    0    0  0.00000000000E+00  0.00000000000E+00  0.74505805969E-08  0.10566000000E+00  0.10566000000E+00 0.  1.
     999900   -1    0    0    0    0 -0.00000000000E+00 -0.00000000000E+00 -0.74505805969E-08  0.93827000000E+00  0.93827000000E+00 0. -1.
     999902    2    1    2    0    0  0.22371497410E-01 -0.64587132480E-02  0.19577340609E-02  0.10205626810E+01  0.10202951310E+01 0.  0.
     999903    2    3    3    0    0 -0.39580123407E-01  0.12004122021E+00 -0.16765048965E-01  0.12916446525E+00  0.20637623361E-01 0.  0.
         14    1    1    2    0    0 -0.22371497410E-01  0.64587132480E-02 -0.19577340609E-02  0.23367318970E-01  0.00000000000E+00 0. -1.
     999901    1    3    3    0    0  0.61951620817E-01 -0.12649993346E+00  0.18722783026E-01  0.89139821578E+00  0.88000000000E+00 0.  1.
        -11    1    4    4    0    0 -0.27215718080E-01  0.69999023476E-01 -0.49086645129E-03  0.75106994808E-01  0.51100000000E-03 0. -1.
         11    1    4    4    0    0 -0.12364405326E-01  0.50042196737E-01 -0.16274182513E-01  0.54057470445E-01  0.51100000000E-03 0.  1.
</event>
<event>
 8    1  0.1204770E+005  0.1043930E+01  0.7957747E-01            NaN
         13   -1    0    0    0    0  0.00000000000E+00  0.00000000000E+00  0.74505805969E-08  0.10566000000E+00  0.10566000000E+00 0.  1.
     999900   -1    0    0    0    0 -0.00000000000E+00 -0.00000000000E+00 -0.74505805969E-08  0.93827000000E+00  0.93827000000E+00 0. -1.
     999902    2    1    2    0    0  0.22214677836E-01 -0.15017951224E-01 -0.59843503296E-02  0.10164555897E+01  0.10160842104E+01 0.  0.
     999903    2    3    3    0    0  0.80337643828E-01  0.96347688345E-01  0.10688199050E-01  0.12737822598E+00  0.19338065800E-01 0.  0.
         14    1    1    2    0    0 -0.22214677836E-01  0.15017951224E-01  0.59843503296E-02  0.27474410261E-01  0.00000000000E+00 0.  1.
     999901    1    3    3    0    0 -0.58122965992E-01 -0.11136563957E+00 -0.16672549379E-01  0.88907736376E+00  0.88000000000E+00 0.  1.
        -11    1    4    4    0    0  0.29691165702E-01  0.21979723483E-01  0.37039734765E-02  0.37130231694E-01  0.51100000000E-03 0. -1.
         11    1    4    4    0    0  0.50646478126E-01  0.74367964861E-01  0.69842255732E-02  0.90247994283E-01  0.51100000000E-03 0.  1.
</event>
<event>
 8    1  0.1204770E+005  0.1043930E+01  0.7957747E-01            NaN
         13   -1    0    0    0    0  0.00000000000E+00  0.00000000000E+00  0.74505805969E-08  0.10566000000E+00  0.10566000000E+00 0. -1.
     999900   -1    0    0    0    0 -0.00000000000E+00 -0.00000000000E+00 -0.74505805969E-08  0.93827000000E+00  0.93827000000E+00 0. -1.
     999902    2    1    2    0    0  0.11099482403E-01 -0.19302126123E-01 -0.71788540123E-02  0.10205354167E+01  0.10202672347E+01 0.  0.
     999903    2    3    3    0    0  0.47367726610E-01 -0.32772323369E-01 -0.11795694636E+00  0.13274680589E+00  0.19752128380E-01 0.  0.
         14    1    1    2    0    0 -0.11099482403E-01  0.19302126123E-01  0.71788540123E-02  0.23394583292E-01  0.00000000000E+00 0. -1.
     999901    1    3    3    0    0 -0.36268244207E-01  0.13470197246E-01  0.11077809235E+00  0.88778861082E+00  0.88000000000E+00 0.  1.
        -11    1    4    4    0    0  0.29328354270E-01 -0.12688425792E-01 -0.80160562898E-01  0.86296729245E-01  0.51100000000E-03 0. -1.
         11    1    4    4    0    0  0.18039372340E-01 -0.20083897577E-01 -0.37796383465E-01  0.46450076645E-01  0.51100000000E-03 0.  1.
</event>
<event>
 8    1  0.1204770E+005  0.1043930E+01  0.7957747E-01            NaN
         13   -1    0    0    0    0  0.00000000000E+00  0.00000000000E+00  0.74505805969E-08  0.10566000000E+00  0.10566000000E+00 0.  1.
     999900   -1    0    0    0    0 -0.00000000000E+00 -0.00000000000E+00 -0.74505805969E-08  0.93827000000E+00  0.93827000000E+00 0. -1.
     999902    2    1    2    0    0 -0.11590691212E-01 -0.81629347934E-02  0.15748065224E-01  0.10227408711E+01  0.10225213495E+01 0.  0.
     999903    2    3    3    0    0  0.33586763548E-01 -0.46351447205E-01 -0.11629951351E+00  0.13092478690E+00  0.18417264681E-01 0.  0.
         14    1    1    2    0    0  0.11590691212E-01  0.81629347934E-02 -0.15748065224E-01  0.21189128946E-01  0.00000000000E+00 0. -1.
     999901    1    3    3    0    0 -0.45177454760E-01  0.38188512412E-01  0.13204757874E+00  0.89181608415E+00  0.88000000000E+00 0.  1.
        -11    1    4    4    0    0  0.12928860567E-01 -0.32980414600E-01 -0.65065729123E-01  0.74085581661E-01  0.51100000000E-03 0. -1.
         11    1    4    4    0    0  0.20657902981E-01 -0.13371032605E-01 -0.51233784391E-01  0.56839205242E-01  0.51100000000E-03 0.  1.
</event>
<event>
 7    1  0.1204770E+005  0.1043930E+01  0.7957747E-01            NaN
         13   -1    0    0    0    0  0.00000000000E+00  0.00000000000E+00  0.74505805969E-08  0.10566000000E+00  0.10566000000E+00 0.  1.
     999900   -1    0    0    0    0 -0.00000000000E+00 -0.00000000000E+00 -0.74505805969E-08  0.93827000000E+00  0.93827000000E+00 0.  1.
     999903    2    1    2    0    0 -0.44482795655E-01 -0.81230355541E-01  0.59521229497E-01  0.11179522215E+00  0.19450068501E-01 0.  0.
         14    1    1    2    0    0  0.22824595823E-01 -0.30799897198E-01  0.16042042272E-01  0.41556503248E-01  0.00000000000E+00 0.  1.
     999901    1    1    2    0    0  0.21658199832E-01  0.11203025274E+00 -0.75563271769E-01  0.89057827460E+00  0.88000000000E+00 0.  1.
        -11    1    3    3    0    0 -0.14492076165E-01 -0.44329167995E-01  0.34846416473E-01  0.58220522745E-01  0.51100000000E-03 0.  1.
         11    1    3    3    0    0 -0.29990719490E-01 -0.36901187546E-01  0.24674813024E-01  0.53574699407E-01  0.51100000000E-03 0. -1.
</event>
<event>
 8    1  0.1204770E+005  0.1043930E+01  0.7957747E-01            NaN
         13   -1    0    0    0    0  0.00000000000E+00  0.00000000000E+00  0.74505805969E-08  0.10566000000E+00  0.10566000000E+00 0. -1.
     999900   -1    0    0    0    0 -0.00000000000E+00 -0.00000000000E+00 -0.74505805969E-08  0.93827000000E+00  0.93827000000E+00 0.  1.
     999902    2    1    2    0    0  0.17475438772E-01  0.34779239671E-02  0.13322243597E-01  0.10216820992E+01  0.10214398380E+01 0.  0.
     999903    2    3    3    0    0  0.29301742276E-01 -0.12605853065E+00  0.17905521328E-01  0.13210885266E+00  0.19565173290E-01 0.  0.
         14    1    1    2    0    0 -0.17475438772E-01 -0.34779239671E-02 -0.13322243597E-01  0.22247900797E-01  0.00000000000E+00 0.  1.
     999901    1    3    3    0    0 -0.11826303504E-01  0.12953645462E+00 -0.45832777318E-02  0.88957324654E+00  0.88000000000E+00 0.  1.
        -11    1    4    4    0    0  0.13651853520E-01 -0.54686636738E-01  0.17558622465E-01  0.59038696515E-01  0.51100000000E-03 0.  1.
         11    1    4    4    0    0  0.15649888756E-01 -0.71371893916E-01  0.34689886329E-03  0.73070156145E-01  0.51100000000E-03 0. -1.
</event>
<event>
 8    1  0.1204770E+005  0.1043930E+01  0.7957747E-01            NaN
         13   -1    0    0    0    0  0.00000000000E+00  0.00000000000E+00  0.74505805969E-08  0.10566000000E+00  0.10566000000E+00 0.  1.
     999900   -1    0    0    0    0 -0.00000000000E+00 -0.00000000000E+00 -0.74505805969E-08  0.93827000000E+00  0.93827000000E+00 0.  1.
     999902    2    1    2    0    0  0.40768966504E-02 -0.28973152410E-02  0.23171197498E-01  0.10202251500E+01  0.10199497226E+01 0.  0.
     999903    2    3    3    0    0  0.96517458062E-01  0.12305483741E-01  0.87957079707E-01  0.13288440762E+00  0.21325413855E-01 0.  0.
         14    1    1    2    0    0 -0.40768966504E-02  0.28973152410E-02 -0.23171197498E-01  0.23704850039E-01  0.00000000000E+00 0. -1.
     999901    1    3    3    0    0 -0.92440561411E-01 -0.15202798982E-01 -0.64785882209E-01  0.88734074234E+00  0.88000000000E+00 0.  1.
        -11    1    4    4    0    0  0.64350556877E-01 -0.17389443024E-02  0.60121178530E-01  0.88084251297E-01  0.51100000000E-03 0.  1.
         11    1    4    4    0    0  0.32166901185E-01  0.14044428044E-01  0.27835901176E-01  0.44800156319E-01  0.51100000000E-03 0. -1.
</event>
<event>
 8    1  0.1204770E+005  0.1043930E+01  0.7957747E-01            NaN
         13   -1    0    0    0    0  0.00000000000E+00  0.00000000000E+00  0.74505805969E-08  0.10566000000E+00  0.10566000000E+00 0.  1.
     999900   -1    0    0    0    0 -0.00000000000E+00 -0.00000000000E+00 -0.74505805969E-08  0.93827000000E+00  0.93827000000E+00 0. -1.
     999902    2    1    2    0    0 -0.96172856639E-02  0.49477019014E-02 -0.21095098337E-01  0.10202239858E+01  0.10199485311E+01 0.  0.
     999903    2    3    3    0    0 -0.12318046904E+00 -0.36692043883E-01 -0.22086768733E-01  0.13194956393E+00  0.20078048502E-01 0.  0.
         14    1    1    2    0    0  0.96172856639E-02 -0.49477019014E-02  0.21095098337E-01  0.23706014248E-01  0.00000000000E+00 0.  1.
     999901    1    3    3    0    0  0.11356318338E+00  0.41639745784E-01  0.99167039567E-03  0.88827442182E+00  0.88000000000E+00 0.  1.
        -11    1    4    4    0    0 -0.27060978851E-01 -0.58258471861E-02 -0.13001181785E-01  0.30586417257E-01  0.51100000000E-03 0. -1.
         11    1    4    4    0    0 -0.96119490191E-01 -0.30866196697E-01 -0.90855869478E-02  0.10136314668E+00  0.51100000000E-03 0.  1.
</event>
<event>
 8    1  0.1204770E+005  0.1043930E+01  0.7957747E-01            NaN
         13   -1    0    0    0    0  0.00000000000E+00  0.00000000000E+00  0.74505805969E-08  0.10566000000E+00  0.10566000000E+00 0.  1.
     999900   -1    0    0    0    0 -0.00000000000E+00 -0.00000000000E+00 -0.74505805969E-08  0.93827000000E+00  0.93827000000E+00 0.  1.
     999902    2    1    2    0    0  0.50265290345E-02  0.22059422261E-01 -0.49607671412E-02  0.10207676747E+01  0.10205048517E+01 0.  0.
     999903    2    3    3    0    0  0.38901255475E-01  0.96210169163E-01 -0.81834551570E-01  0.13366260248E+00  0.19977315694E-01 0.  0.
         14    1    1    2    0    0 -0.50265290345E-02 -0.22059422261E-01  0.49607671412E-02  0.23162325342E-01  0.00000000000E+00 0. -1.
     999901    1    3    3    0    0 -0.33874726440E-01 -0.74150746902E-01  0.76873784429E-01  0.88710507218E+00  0.88000000000E+00 0. -1.
        -11    1    4    4    0    0  0.12193616004E-01  0.56380568711E-01 -0.42890298214E-01  0.71883875809E-01  0.51100000000E-03 0.  1.
         11    1    4    4    0    0  0.26707639470E-01  0.39829600452E-01 -0.38944253356E-01  0.61778726668E-01  0.51100000000E-03 0. -1.
</event>
<event>
 8    1  0.1204770E+005  0.1043930E+01  0.7957747E-01            NaN
         13   -1    0    0    0    0  0.00000000000E+00  0.00000000000E+00  0.74505805969E-08  0.10566000000E+00  0.10566000000E+00 0.  1.
     999900   -1    0    0    0    0 -0.00000000000E+00 -0.00000000000E+00 -0.74505805969E-08  0.93827000000E+00  0.93827000000E+00 0.  1.
     999902    2    1    2    0    0 -0.69520798862E-03 -0.16380538118E-01  0.15691659259E-01  0.10212356502E+01  0.10209834571E+01 0.  0.
     999903    2    3    3    0    0 -0.90276587219E-01  0.17848883497E-01  0.93411009047E-01  0.13262056246E+00  0.19853265051E-01 0.  0.
         14    1    1    2    0    0  0.69520798862E-03  0.16380538118E-01 -0.15691659259E-01  0.22694349814E-01  0.00000000000E+00 0. -1.
     999901    1    3    3    0    0  0.89581379230E-01 -0.34229421614E-01 -0.77719349788E-01  0.88861508773E+00  0.88000000000E+00 0.  1.
        -11    1    4    4    0    0 -0.87532557036E-01  0.13817543846E-01  0.91440339916E-01  0.12733605124E+00  0.51100000000E-03 0.  1.
         11    1    4    4    0    0 -0.27440301827E-02  0.40313396509E-02  0.19706691306E-02  0.52845112212E-02  0.51100000000E-03 0. -1.
</event>
<event>
 8    1  0.1204770E+005  0.1043930E+01  0.7957747E-01            NaN
         13   -1    0    0    0    0  0.00000000000E+00  0.00000000000E+00  0.74505805969E-08  0.10566000000E+00  0.10566000000E+00 0.  1.
     999900   -1    0    0    0    0 -0.00000000000E+00 -0.00000000000E+00 -0.74505805969E-08  0.93827000000E+00  0.93827000000E+00 0. -1.
     999902    2    1    2    0    0 -0.26148445498E-02 -0.19608089084E-01 -0.68483138481E-02  0.10229964391E+01  0.10227822351E+01 0.  0.
     999903    2    3    3    0    0  0.37601202458E-01 -0.95184579374E-01 -0.85960507563E-01  0.13530962748E+00  0.21107625441E-01 0.  0.
         14    1    1    2    0    0  0.26148445498E-02  0.19608089084E-01  0.68483138481E-02  0.20933560903E-01  0.00000000000E+00 0.  1.
     999901    1    3    3    0    0 -0.40216047008E-01  0.75576490290E-01  0.79112193715E-01  0.88768681162E+00  0.88000000000E+00 0. -1.
        -11    1    4    4    0    0  0.19613722191E-01 -0.73642178363E-01 -0.58881947969E-01  0.96307909591E-01  0.51100000000E-03 0. -1.
         11    1    4    4    0    0  0.17987480267E-01 -0.21542401011E-01 -0.27078559594E-01  0.39001717890E-01  0.51100000000E-03 0.  1.
</event>
<event>
 8    1  0.1204770E+005  0.1043930E+01  0.7957747E-01            NaN
         13   -1    0    0    0    0  0.00000000000E+00  0.00000000000E+00  0.74505805969E-08  0.10566000000E+00  0.10566000000E+00 0. -1.
     999900   -1    0    0    0    0 -0.00000000000E+00 -0.00000000000E+00 -0.74505805969E-08  0.93827000000E+00  0.93827000000E+00 0. -1.
     999902    2    1    2    0    0 -0.41327095800E-02 -0.30752776619E-02 -0.23260815992E-01  0.10201055969E+01  0.10198273514E+01 0.  0.
     999903    2    3    3    0    0  0.71354548722E-02  0.11051690193E+00 -0.69845578086E-01  0.13151103536E+00  0.12322634177E-01 0.  0.
         14    1    1    2    0    0  0.41327095800E-02  0.30752776619E-02  0.23260815992E-01  0.23824403073E-01  0.00000000000E+00 0. -1.
     999901    1    3    3    0    0 -0.11268164452E-01 -0.11359217959E+00  0.46584762094E-01  0.88859456157E+00  0.88000000000E+00 0. -1.
        -11    1    4    4    0    0  0.64267991712E-02  0.36462855812E-01 -0.18491747359E-01  0.41389001473E-01  0.51100000000E-03 0. -1.
         11    1    4    4    0    0  0.70865570103E-03  0.74054046121E-01 -0.51353830727E-01  0.90122033883E-01  0.51100000000E-03 0.  1.
</event>
<event>
 8    1  0.1204770E+005  0.1043930E+01  0.7957747E-01            NaN
         13   -1    0    0    0    0  0.00000000000E+00  0.00000000000E+00  0.74505805969E-08  0.10566000000E+00  0.10566000000E+00 0. -1.
     999900   -1    0    0    0    0 -0.00000000000E+00 -0.00000000000E+00 -0.74505805969E-08  0.93827000000E+00  0.93827000000E+00 0.  1.
     999902    2    1    2    0    0 -0.18131367458E-01 -0.92306305481E-02  0.12346672611E-01  0.10201310221E+01  0.10198533771E+01 0.  0.
     999903    2    3    3    0    0  0.25141795917E-01  0.11915059286E+00  0.38859691899E-01  0.12936885101E+00  0.19931138350E-01 0.  0.
         14    1    1    2    0    0  0.18131367458E-01  0.92306305481E-02 -0.12346672611E-01  0.23798977935E-01  0.00000000000E+00 0.  1.
     999901    1    3    3    0    0 -0.43273163375E-01 -0.12838122341E+00 -0.26513019288E-01  0.89076217106E+00  0.88000000000E+00 0.  1.
        -11    1    4    4    0    0  0.20812461923E-01  0.51525663791E-01  0.15559895195E-01  0.57709826372E-01  0.51100000000E-03 0.  1.
         11    1    4    4    0    0  0.43293339943E-02  0.67624929069E-01  0.23299796704E-01  0.71659024637E-01  0.51100000000E-03 0. -1.
</event>
<event>
 8    1  0.1204770E+005  0.1043930E+01  0.7957747E-01            NaN
         13   -1    0    0    0    0  0.00000000000E+00  0.00000000000E+00  0.74505805969E-08  0.10566000000E+00  0.10566000000E+00 0. -1.
     999900   -1    0    0    0    0 -0.00000000000E+00 -0.00000000000E+00 -0.74505805969E-08  0.93827000000E+00  0.93827000000E+00 0.  1.
     999902    2    1    2    0    0 -0.28378304222E-02  0.94524730982E-02  0.20706995317E-01  0.10209913387E+01  0.10207336241E+01 0.  0.
     999903    2    3    3    0    0  0.27660074700E-01 -0.12529748234E+00  0.99473697146E-02  0.13014710858E+00  0.19359258635E-01 0.  0.
         14    1    1    2    0    0  0.28378304222E-02 -0.94524730982E-02 -0.20706995317E-01  0.22938661344E-01  0.00000000000E+00 0.  1.
     999901    1    3    3    0    0 -0.30497905122E-01  0.13474995544E+00  0.10759625603E-01  0.89084423007E+00  0.88000000000E+00 0.  1.
        -11    1    4    4    0    0  0.89023251963E-02 -0.66060404317E-01  0.13077556304E-01  0.67930199561E-01  0.51100000000E-03 0.  1.
         11    1    4    4    0    0  0.18757749504E-01 -0.59237078025E-01 -0.31301865894E-02  0.62216909024E-01  0.51100000000E-03 0. -1.
</event>
<event>
 8    1  0.1204770E+005  0.1043930E+01  0.7957747E-01            NaN
         13   -1    0    0    0    0  0.00000000000E+00  0.00000000000E+00  0.74505805969E-08  0.10566000000E+00  0.10566000000E+00 0. -1.
     999900   -1    0    0    0    0 -0.00000000000E+00 -0.00000000000E+00 -0.74505805969E-08  0.93827000000E+00  0.93827000000E+00 0.  1.
     999902    2    1    2    0    0 -0.34550483678E-02 -0.24413271534E-01  0.18213685994E-02  0.10192062752E+01  0.10189063592E+01 0.  0.
     999903    2    3    3    0    0 -0.93357495745E-02 -0.19406753893E-01  0.12704552260E+00  0.13030766643E+00  0.19384137855E-01 0.  0.
         14    1    1    2    0    0  0.34550483678E-02  0.24413271534E-01 -0.18213685994E-02  0.24723724836E-01  0.00000000000E+00 0. -1.
     999901    1    3    3    0    0  0.58807012066E-02 -0.50065176404E-02 -0.12522415400E+00  0.88889860874E+00  0.88000000000E+00 0.  1.
        -11    1    4    4    0    0  0.60239448148E-02 -0.66912178303E-02  0.41164611763E-01  0.42140796027E-01  0.51100000000E-03 0.  1.
         11    1    4    4    0    0 -0.15359694389E-01 -0.12715536063E-01  0.85880910838E-01  0.88166870402E-01  0.51100000000E-03 0. -1.
</event>
<event>
 8    1  0.1204770E+005  0.1043930E+01  0.7957747E-01            NaN
         13   -1    0    0    0    0  0.00000000000E+00  0.00000000000E+00  0.74505805969E-08  0.10566000000E+00  0.10566000000E+00 0. -1.
     999900   -1    0    0    0    0 -0.00000000000E+00 -0.00000000000E+00 -0.74505805969E-08  0.93827000000E+00  0.93827000000E+00 0.  1.
     999902    2    1    2    0    0  0.13789541785E-01 -0.46718134259E-02  0.19205270869E-01  0.10198297981E+01  0.10195449952E+01 0.  0.
     999903    2    3    3    0    0  0.94245552029E-01  0.38680273673E-01 -0.78049446478E-01  0.12976741089E+00  0.19221789356E-01 0.  0.
         14    1    1    2    0    0 -0.13789541785E-01  0.46718134259E-02 -0.19205270869E-01  0.24100201918E-01  0.00000000000E+00 0.  1.
     999901    1    3    3    0    0 -0.80456010244E-01 -0.43352087099E-01  0.97254717347E-01  0.89006238719E+00  0.88000000000E+00 0. -1.
        -11    1    4    4    0    0  0.47148476591E-01  0.98760993906E-02 -0.31561459720E-01  0.57592560672E-01  0.51100000000E-03 0. -1.
         11    1    4    4    0    0  0.47097075438E-01  0.28804174282E-01 -0.46487986758E-01  0.72174850223E-01  0.51100000000E-03 0.  1.
</event>
<event>
 8    1  0.1204770E+005  0.1043930E+01  0.7957747E-01            NaN
         13   -1    0    0    0    0  0.00000000000E+00  0.00000000000E+00  0.74505805969E-08  0.10566000000E+00  0.10566000000E+00 0.  1.
     999900   -1    0    0    0    0 -0.00000000000E+00 -0.00000000000E+00 -0.74505805969E-08  0.93827000000E+00  0.93827000000E+00 0.  1.
     999902    2    1    2    0    0  0.22078659194E-01  0.69249635907E-02  0.39739365884E-02  0.10204520426E+01  0.10201819233E+01 0.  0.
     999903    2    3    3    0    0 -0.72966555056E-01 -0.10300583642E+00 -0.12363965524E-01  0.12838405157E+00  0.19881563360E-01 0.  0.
         14    1    1    2    0    0 -0.22078659194E-01 -0.69249635907E-02 -0.39739365884E-02  0.23477957418E-01  0.00000000000E+00 0.  1.
     999901    1    3    3    0    0  0.95045214249E-01  0.10993080001E+00  0.16337902113E-01  0.89206799101E+00  0.88000000000E+00 0. -1.
        -11    1    4    4    0    0 -0.36504915632E-01 -0.52382856710E-01 -0.16212944893E-01  0.65876348149E-01  0.51100000000E-03 0. -1.
         11    1    4    4    0    0 -0.36461639424E-01 -0.50622979706E-01  0.38489793682E-02  0.62507703421E-01  0.51100000000E-03 0.  1.
</event>
<event>
 8    1  0.1204770E+005  0.1043930E+01  0.7957747E-01            NaN
         13   -1    0    0    0    0  0.00000000000E+00  0.00000000000E+00  0.74505805969E-08  0.10566000000E+00  0.10566000000E+00 0. -1.
     999900   -1    0    0    0    0 -0.00000000000E+00 -0.00000000000E+00 -0.74505805969E-08  0.93827000000E+00  0.93827000000E+00 0. -1.
     999902    2    1    2    0    0 -0.12912145851E-01  0.14938846086E-01 -0.16737921057E-01  0.10180446637E+01  0.10177155235E+01 0.  0.
     999903    2    3    3    0    0 -0.11018167825E+00  0.81170474226E-02 -0.67638161080E-01  0.13119702557E+00  0.20781000981E-01 0.  0.
         14    1    1    2    0    0  0.12912145851E-01 -0.14938846086E-01  0.16737921057E-01  0.25885336277E-01  0.00000000000E+00 0. -1.
     999901    1    3    3    0    0  0.97269532402E-01  0.68217986635E-02  0.50900240023E-01  0.88684763816E+00  0.88000000000E+00 0. -1.
        -11    1    4    4    0    0 -0.42457548167E-01 -0.51381365896E-02 -0.19192533176E-01  0.46879188289E-01  0.51100000000E-03 0. -1.
         11    1    4    4    0    0 -0.67724130086E-01  0.13255184012E-01 -0.48445627904E-01  0.84317837277E-01  0.51100000000E-03 0.  1.
</event>
<event>
 8    1  0.1204770E+005  0.1043930E+01  0.7957747E-01            NaN
         13   -1    0    0    0    0  0.00000000000E+00  0.00000000000E+00  0.74505805969E-08  0.10566000000E+00  0.10566000000E+00 0.  1.
     999900   -1    0    0    0    0 -0.00000000000E+00 -0.00000000000E+00 -0.74505805969E-08  0.93827000000E+00  0.93827000000E+00 0.  1.
     999902    2    1    2    0    0  0.56123296656E-02 -0.22661687389E-01 -0.34241856994E-02  0.10203339120E+01  0.10200610358E+01 0.  0.
     999903    2    3    3    0    0 -0.12606530027E+00 -0.25311931081E-01 -0.44009195248E-02  0.13053226221E+00  0.22048800365E-01 0.  0.
         14    1    1    2    0    0 -0.56123296656E-02  0.22661687389E-01  0.34241856994E-02  0.23596087966E-01  0.00000000000E+00 0.  1.
     999901    1    3    3    0    0  0.13167762994E+00  0.26502436921E-02  0.97673382539E-03  0.88980164982E+00  0.88000000000E+00 0.  1.
        -11    1    4    4    0    0 -0.76695459486E-01 -0.96711066215E-02  0.66012169993E-02  0.77585829866E-01  0.51100000000E-03 0. -1.
         11    1    4    4    0    0 -0.49369840786E-01 -0.15640824460E-01 -0.11002136524E-01  0.52946432346E-01  0.51100000000E-03 0.  1.
</event>
<event>
 8    1  0.1204770E+005  0.1043930E+01  0.7957747E-01            NaN
         13   -1    0    0    0    0  0.00000000000E+00  0.00000000000E+00  0.74505805969E-08  0.10566000000E+00  0.10566000000E+00 0.  1.
     999900   -1    0    0    0    0 -0.00000000000E+00 -0.00000000000E+00 -0.74505805969E-08  0.93827000000E+00  0.93827000000E+00 0. -1.
     999902    2    1    2    0    0  0.83744177354E-02 -0.10150160842E-01  0.19416532384E-01  0.10204745450E+01  0.10202049494E+01 0.  0.
     999903    2    3    3    0    0  0.23158017245E-01 -0.87780243429E-01  0.96055611442E-01  0.13361574400E+00  0.19616871746E-01 0.  0.
         14    1    1    2    0    0 -0.83744177354E-02  0.10150160842E-01 -0.19416532384E-01  0.23455454959E-01  0.00000000000E+00 0. -1.
     999901    1    3    3    0    0 -0.14783599509E-01  0.77630082587E-01 -0.76639079058E-01  0.88685880104E+00  0.88000000000E+00 0. -1.
        -11    1    4    4    0    0  0.19664623813E-01 -0.63382000746E-01  0.81057482665E-01  0.10475949630E+00  0.51100000000E-03 0.  1.
         11    1    4    4    0    0  0.34933934323E-02 -0.24398242683E-01  0.14998128777E-01  0.28856247703E-01  0.51100000000E-03 0. -1.
</event>
<event>
 8    1  0.1204770E+005  0.1043930E+01  0.7957747E-01            NaN
         13   -1    0    0    0    0  0.00000000000E+00  0.00000000000E+00  0.74505805969E-08  0.10566000000E+00  0.10566000000E+00 0.  1.
     999900   -1    0    0    0    0 -0.00000000000E+00 -0.00000000000E+00 -0.74505805969E-08  0.93827000000E+00  0.93827000000E+00 0.  1.
     999902    2    1    2    0    0  0.18760542857E-01 -0.14434484375E-01  0.19217476273E-02  0.10201812017E+01  0.10199047401E+01 0.  0.
     999903    2    3    3    0    0  0.12605017600E+00 -0.33981871870E-01  0.17708485771E-01  0.13330895224E+00  0.20353667778E-01 0.  0.
         14    1    1    2    0    0 -0.18760542857E-01  0.14434484375E-01 -0.19217476273E-02  0.23748798315E-01  0.00000000000E+00 0. -1.
     999901    1    3    3    0    0 -0.10728963315E+00  0.19547387495E-01 -0.15786738143E-01  0.88687224945E+00  0.88000000000E+00 0. -1.
        -11    1    4    4    0    0  0.33857855182E-01 -0.18290419723E-01  0.77753772633E-02  0.39263359812E-01  0.51100000000E-03 0. -1.
         11    1    4    4    0    0  0.92192320822E-01 -0.15691452147E-01  0.99331085073E-02  0.94045592426E-01  0.51100000000E-03 0.  1.
</event>
<event>
 8    1  0.1204770E+005  0.1043930E+01  0.7957747E-01            NaN
         13   -1    0    0    0    0  0.00000000000E+00  0.00000000000E+00  0.74505805969E-08  0.10566000000E+00  0.10566000000E+00 0.  1.
     999900   -1    0    0    0    0 -0.00000000000E+00 -0.00000000000E+00 -0.74505805969E-08  0.93827000000E+00  0.93827000000E+00 0. -1.
     999902    2    1    2    0    0 -0.16615462920E-01  0.15992685969E-01  0.71441883496E-02  0.10197871120E+01  0.10195012873E+01 0.  0.
     999903    2    3    3    0    0 -0.54350898742E-01 -0.11015595033E+00 -0.33958599336E-01  0.12904198534E+00  0.20255713384E-01 0.  0.
         14    1    1    2    0    0  0.16615462920E-01 -0.15992685969E-01 -0.71441883496E-02  0.24142887974E-01  0.00000000000E+00 0. -1.
     999901    1    3    3    0    0  0.37735435822E-01  0.12614863630E+00  0.41102787685E-01  0.89074512668E+00  0.88000000000E+00 0. -1.
        -11    1    4    4    0    0 -0.77269240274E-02 -0.36542023789E-01 -0.98683571478E-02  0.38635093521E-01  0.51100000000E-03 0. -1.
         11    1    4    4    0    0 -0.46623974715E-01 -0.73613926541E-01 -0.24090242188E-01  0.90406891821E-01  0.51100000000E-03 0.  1.
</event>
<event>
 8    1  0.1204770E+005  0.1043930E+01  0.7957747E-01            NaN
         13   -1    0    0    0    0  0.00000000000E+00  0.00000000000E+00  0.74505805969E-08  0.10566000000E+00  0.10566000000E+00 0. -1.
     999900   -1    0    0    0    0 -0.00000000000E+00 -0.00000000000E+00 -0.74505805969E-08  0.93827000000E+00  0.93827000000E+00 0. -1.
     999902    2    1    2    0    0 -0.81647924722E-02  0.19667783840E-01 -0.11472570484E-01  0.10197410473E+01  0.10194541178E+01 0.  0.
     999903    2    3    3    0    0  0.27808019465E-01  0.26041065219E-01 -0.12444807429E+00  0.13176687746E+00  0.20585523501E-01 0.  0.
         14    1    1    2    0    0  0.81647924722E-02 -0.19667783840E-01  0.11472570484E-01  0.24188952661E-01  0.00000000000E+00 0. -1.
     999901    1    3    3    0    0 -0.35972811937E-01 -0.63732813791E-02  0.11297550380E+00  0.88797416988E+00  0.88000000000E+00 0.  1.
        -11    1    4    4    0    0  0.19375263549E-01  0.41269456283E-02 -0.56567835774E-01  0.59938415753E-01  0.51100000000E-03 0. -1.
         11    1    4    4    0    0  0.84327559154E-02  0.21914119591E-01 -0.67880238512E-01  0.71828461707E-01  0.51100000000E-03 0.  1.
</event>
<event>
 8    1  0.1204770E+005  0.1043930E+01  0.7957747E-01            NaN
         13   -1    0    0    0    0  0.00000000000E+00  0.00000000000E+00  0.74505805969E-08  0.10566000000E+00  0.10566000000E+00 0.  1.
     999900   -1    0    0    0    0 -0.00000000000E+00 -0.00000000000E+00 -0.74505805969E-08  0.93827000000E+00  0.93827000000E+00 0. -1.
     999902    2    1    2    0    0 -0.18588172653E-01 -0.24138632032E-02  0.13708791347E-01  0.10207076431E+01  0.10204434403E+01 0.  0.
     999903    2    3    3    0    0  0.47529012475E-01  0.88693857077E-01  0.81651537465E-01  0.13093895656E+00  0.18773104807E-01 0.  0.
         14    1    1    2    0    0  0.18588172653E-01  0.24138632032E-02 -0.13708791347E-01  0.23222356864E-01  0.00000000000E+00 0. -1.
     999901    1    3    3    0    0 -0.66117185128E-01 -0.91107720280E-01 -0.67942746117E-01  0.88976868658E+00  0.88000000000E+00 0. -1.
        -11    1    4    4    0    0  0.31475660182E-01  0.72146832177E-01  0.57022724365E-01  0.97199458806E-01  0.51100000000E-03 0.  1.
         11    1    4    4    0    0  0.16053352293E-01  0.16547024900E-01  0.24628813099E-01  0.33739497752E-01  0.51100000000E-03 0. -1.
</event>
<event>
 8    1  0.1204770E+005  0.1043930E+01  0.7957747E-01            NaN
         13   -1    0    0    0    0  0.00000000000E+00  0.00000000000E+00  0.74505805969E-08  0.10566000000E+00  0.10566000000E+00 0.  1.
     999900   -1    0    0    0    0 -0.00000000000E+00 -0.00000000000E+00 -0.74505805969E-08  0.93827000000E+00  0.93827000000E+00 0.  1.
     999902    2    1    2    0    0 -0.18875457266E-01  0.21310102338E-02  0.14357311566E-01  0.10201191519E+01  0.10198412267E+01 0.  0.
     999903    2    3    3    0    0 -0.10131594863E+00  0.12817608626E-02 -0.80731726884E-01  0.13116522673E+00  0.20497332026E-01 0.  0.
         14    1    1    2    0    0  0.18875457266E-01 -0.21310102338E-02 -0.14357311566E-01  0.23810848096E-01  0.00000000000E+00 0. -1.
     999901    1    3    3    0    0  0.82440491367E-01  0.84924937121E-03  0.95089038450E-01  0.88895392517E+00  0.88000000000E+00 0.  1.
        -11    1    4    4    0    0 -0.88348891371E-01 -0.16015720596E-02 -0.61006201741E-01  0.10737834703E+00  0.51100000000E-03 0.  1.
         11    1    4    4    0    0 -0.12967057262E-01  0.28833329222E-02 -0.19725525143E-01  0.23786879702E-01  0.51100000000E-03 0. -1.
</event>
<event>
 8    1  0.1204770E+005  0.1043930E+01  0.7957747E-01            NaN
         13   -1    0    0    0    0  0.00000000000E+00  0.00000000000E+00  0.74505805969E-08  0.10566000000E+00  0.10566000000E+00 0. -1.
     999900   -1    0    0    0    0 -0.00000000000E+00 -0.00000000000E+00 -0.74505805969E-08  0.93827000000E+00  0.93827000000E+00 0. -1.
     999902    2    1    2    0    0  0.18338922259E-01 -0.66407198675E-02  0.13043083829E-01  0.10204664695E+01  0.10201966859E+01 0.  0.
     999903    2    3    3    0    0  0.38715040090E-01  0.11494625799E+00 -0.42375684836E-01  0.13014640381E+00  0.20757919117E-01 0.  0.
         14    1    1    2    0    0 -0.18338922259E-01  0.66407198675E-02 -0.13043083829E-01  0.23463530547E-01  0.00000000000E+00 0.  1.
     999901    1    3    3    0    0 -0.20376117831E-01 -0.12158697785E+00  0.55418768665E-01  0.89032006564E+00  0.88000000000E+00 0.  1.
        -11    1    4    4    0    0  0.20766535344E-01  0.81194468460E-01 -0.21227355867E-01  0.86456072412E-01  0.51100000000E-03 0. -1.
         11    1    4    4    0    0  0.17948504746E-01  0.33751789525E-01 -0.21148328969E-01  0.43690331401E-01  0.51100000000E-03 0.  1.
</event>
<event>
 8    1  0.1204770E+005  0.1043930E+01  0.7957747E-01            NaN
         13   -1    0    0    0    0  0.00000000000E+00  0.00000000000E+00  0.74505805969E-08  0.10566000000E+00  0.10566000000E+00 0. -1.
     999900   -1    0    0    0    0 -0.00000000000E+00 -0.00000000000E+00 -0.74505805969E-08  0.93827000000E+00  0.93827000000E+00 0. -1.
     999902    2    1    2    0    0  0.99555465471E-03 -0.21642060704E-01  0.86964767713E-02  0.10205847943E+01  0.10203177563E+01 0.  0.
     999903    2    3    3    0    0 -0.13365491548E-01 -0.92537130785E-01  0.93214074806E-01  0.13358108801E+00  0.20329446461E-01 0.  0.
         14    1    1    2    0    0 -0.99555465471E-03  0.21642060704E-01 -0.86964767713E-02  0.23345205693E-01  0.00000000000E+00 0.  1.
     999901    1    3    3    0    0  0.14361046203E-01  0.70895070081E-01 -0.84517598035E-01  0.88700370630E+00  0.88000000000E+00 0. -1.
        -11    1    4    4    0    0 -0.43233944475E-02 -0.11334770908E-01  0.22307730976E-01  0.25398124997E-01  0.51100000000E-03 0. -1.
         11    1    4    4    0    0 -0.90420971008E-02 -0.81202359877E-01  0.70906343830E-01  0.10818296301E+00  0.51100000000E-03 0.  1.
</event>
<event>
 8    1  0.1204770E+005  0.1043930E+01  0.7957747E-01            NaN
         13   -1    0    0    0    0  0.00000000000E+00  0.00000000000E+00  0.74505805969E-08  0.10566000000E+00  0.10566000000E+00 0. -1.
     999900   -1    0    0    0    0 -0.00000000000E+00 -0.00000000000E+00 -0.74505805969E-08  0.93827000000E+00  0.93827000000E+00 0.  1.
     999902    2    1    2    0    0  0.12881873424E-01 -0.18861243561E-01  0.63356127186E-02  0.10202270643E+01  0.10199516820E+01 0.  0.
     999903    2    3    3    0    0 -0.12601113115E+00 -0.12621532926E-01 -0.14403487366E-01  0.12907033793E+00  0.20336750457E-01 0.  0.
         14    1    1    2    0    0 -0.12881873424E-01  0.18861243561E-01 -0.63356127186E-02  0.23702935685E-01  0.00000000000E+00 0.  1.
     999901    1    3    3    0    0  0.13889300457E+00 -0.62397106347E-02  0.20739100085E-01  0.89115672638E+00  0.88000000000E+00 0. -1.
        -11    1    4    4    0    0 -0.85235119513E-01 -0.86516247448E-02 -0.10383461778E-03  0.85674664352E-01  0.51100000000E-03 0.  1.
         11    1    4    4    0    0 -0.40776011633E-01 -0.39699081813E-02 -0.14299652749E-01  0.43395673579E-01  0.51100000000E-03 0. -1.
</event>
<event>
 8    1  0.1204770E+005  0.1043930E+01  0.7957747E-01            NaN
         13   -1    0    0    0    0  0.00000000000E+00  0.00000000000E+00  0.74505805969E-08  0.10566000000E+00  0.10566000000E+00 0. -1.
     999900   -1    0    0    0    0 -0.00000000000E+00 -0.00000000000E+00 -0.74505805969E-08  0.93827000000E+00  0.93827000000E+00 0.  1.
     999902    2    1    2    0    0  0.15900210185E-01  0.15701274530E-01 -0.80165952593E-02  0.10201894755E+01  0.10199132087E+01 0.  0.
     999903    2    3    3    0    0 -0.11322795473E+00 -0.55572233454E-01 -0.72158069317E-02  0.12791449701E+00  0.20030172549E-01 0.  0.
         14    1    1    2    0    0 -0.15900210185E-01 -0.15701274530E-01  0.80165952593E-02  0.23740524538E-01  0.00000000000E+00 0.  1.
     999901    1    3    3    0    0  0.12912816491E+00  0.71273507985E-01 -0.80078832758E-03  0.89227497845E+00  0.88000000000E+00 0. -1.
        -11    1    4    4    0    0 -0.93805826955E-02 -0.11204998413E-01  0.12055282592E-02  0.14671800862E-01  0.51100000000E-03 0. -1.
         11    1    4    4    0    0 -0.10384737203E+00 -0.44367235042E-01 -0.84213351909E-02  0.11324269615E+00  0.51100000000E-03 0.  1.
</event>
<event>
 8    1  0.1204770E+005  0.1043930E+01  0.7957747E-01            NaN
         13   -1    0    0    0    0  0.00000000000E+00  0.00000000000E+00  0.74505805969E-08  0.10566000000E+00  0.10566000000E+00 0. -1.
     999900   -1    0    0    0    0 -0.00000000000E+00 -0.00000000000E+00 -0.74505805969E-08  0.93827000000E+00  0.93827000000E+00 0. -1.
     999902    2    1    2    0    0 -0.15521069214E-01 -0.15084780475E-01 -0.12684215676E-01  0.10188432800E+01  0.10185343812E+01 0.  0.
     999903    2    3    3    0    0  0.22169889205E-02  0.12118959046E+00  0.32945234296E-01  0.12700955697E+00  0.18820393840E-01 0.  0.
         14    1    1    2    0    0  0.15521069214E-01  0.15084780475E-01  0.12684215676E-01  0.25086719970E-01  0.00000000000E+00 0. -1.
     999901    1    3    3    0    0 -0.17738058135E-01 -0.13627437093E+00 -0.45629449972E-01  0.89183372306E+00  0.88000000000E+00 0. -1.
        -11    1    4    4    0    0  0.65011206206E-02  0.42890147333E-01  0.46024434699E-02  0.43626516185E-01  0.51100000000E-03 0. -1.
         11    1    4    4    0    0 -0.42841317001E-02  0.78299443124E-01  0.28342790826E-01  0.83383040786E-01  0.51100000000E-03 0.  1.
</event>
<event>
 8    1  0.1204770E+005  0.1043930E+01  0.7957747E-01            NaN
         13   -1    0    0    0    0  0.00000000000E+00  0.00000000000E+00  0.74505805969E-08  0.10566000000E+00  0.10566000000E+00 0.  1.
     999900   -1    0    0    0    0 -0.00000000000E+00 -0.00000000000E+00 -0.74505805969E-08  0.93827000000E+00  0.93827000000E+00 0.  1.
     999902    2    1    2    0    0  0.15996710488E-01  0.14879196302E-01 -0.62839166843E-02  0.10211973618E+01  0.10209443075E+01 0.  0.
     999903    2    3    3    0    0 -0.69171202369E-01  0.28978292647E-01 -0.10604502537E+00  0.13136331174E+00  0.19656438725E-01 0.  0.
         14    1    1    2    0    0 -0.15996710488E-01 -0.14879196302E-01  0.62839166843E-02  0.22732638165E-01  0.00000000000E+00 0. -1.
     999901    1    3    3    0    0  0.85167912857E-01 -0.14099096345E-01  0.99761108690E-01  0.88983405009E+00  0.88000000000E+00 0. -1.
        -11    1    4    4    0    0 -0.35219812475E-01  0.14428993343E-01 -0.37145127591E-01  0.53185079341E-01  0.51100000000E-03 0.  1.
         11    1    4    4    0    0 -0.33951389894E-01  0.14549299304E-01 -0.68899897783E-01  0.78178232401E-01  0.51100000000E-03 0. -1.
</event>
<event>
 8    1  0.1204770E+005  0.1043930E+01  0.7957747E-01            NaN
         13   -1    0    0    0    0  0.00000000000E+00  0.00000000000E+00  0.74505805969E-08  0.10566000000E+00  0.10566000000E+00 0. -1.
     999900   -1    0    0    0    0 -0.00000000000E+00 -0.00000000000E+00 -0.74505805969E-08  0.93827000000E+00  0.93827000000E+00 0.  1.
     999902    2    1    2    0    0  0.23773382725E-01  0.52277689883E-02 -0.21787443295E-03  0.10195876344E+01  0.10192970094E+01 0.  0.
     999903    2    3    3    0    0 -0.65865574757E-01 -0.15392152449E-01  0.10704730879E+00  0.12831542939E+00  0.20749236228E-01 0.  0.
         14    1    1    2    0    0 -0.23773382725E-01 -0.52277689883E-02  0.21787443295E-03  0.24342365622E-01  0.00000000000E+00 0.  1.
     999901    1    3    3    0    0  0.89638957482E-01  0.20619921438E-01 -0.10726518322E+00  0.89127220499E+00  0.88000000000E+00 0.  1.
        -11    1    4    4    0    0 -0.31467564347E-01 -0.92518807213E-03  0.64123642320E-01  0.71436448710E-01  0.51100000000E-03 0.  1.
         11    1    4    4    0    0 -0.34398010410E-01 -0.14466964377E-01  0.42923666472E-01  0.56878980677E-01  0.51100000000E-03 0. -1.
</event>
<event>
 8    1  0.1204770E+005  0.1043930E+01  0.7957747E-01            NaN
         13   -1    0    0    0    0  0.00000000000E+00  0.00000000000E+00  0.74505805969E-08  0.10566000000E+00  0.10566000000E+00 0.  1.
     999900   -1    0    0    0    0 -0.00000000000E+00 -0.00000000000E+00 -0.74505805969E-08  0.93827000000E+00  0.93827000000E+00 0.  1.
     999902    2    1    2    0    0  0.11204056685E-01  0.17221370114E-01  0.10291067384E-01  0.10209514765E+01  0.10206928553E+01 0.  0.
     999903    2    3    3    0    0  0.17544038811E-01  0.10128910387E+00  0.83421864776E-01  0.13390260931E+00  0.20085452371E-01 0.  0.
         14    1    1    2    0    0 -0.11204056685E-01 -0.17221370114E-01 -0.10291067384E-01  0.22978523510E-01  0.00000000000E+00 0.  1.
     999901    1    3    3    0    0 -0.63399821262E-02 -0.84067733759E-01 -0.73130797392E-01  0.88704886718E+00  0.88000000000E+00 0.  1.
        -11    1    4    4    0    0  0.14342522003E-01  0.69609344958E-01  0.68590961461E-01  0.98773224904E-01  0.51100000000E-03 0. -1.
         11    1    4    4    0    0  0.32015168077E-02  0.31679758915E-01  0.14830903315E-01  0.35129384409E-01  0.51100000000E-03 0.  1.
</event>
<event>
 8    1  0.1204770E+005  0.1043930E+01  0.7957747E-01            NaN
         13   -1    0    0    0    0  0.00000000000E+00  0.00000000000E+00  0.74505805969E-08  0.10566000000E+00  0.10566000000E+00 0. -1.
     999900   -1    0    0    0    0 -0.00000000000E+00 -0.00000000000E+00 -0.74505805969E-08  0.93827000000E+00  0.93827000000E+00 0.  1.
     999902    2    1    2    0    0 -0.11464104253E-01 -0.15573608524E-01 -0.12792969295E-01  0.10207433005E+01  0.10204799178E+01 0.  0.
     999903    2    3    3    0    0 -0.21016007216E-01  0.10359002856E+00  0.70636773530E-01  0.12875017655E+00  0.20358968793E-01 0.  0.
         14    1    1    2    0    0  0.11464104253E-01  0.15573608524E-01  0.12792969295E-01  0.23186699467E-01  0.00000000000E+00 0. -1.
     999901    1    3    3    0    0  0.95519029622E-02 -0.11916363708E+00 -0.83429742825E-01  0.89199312399E+00  0.88000000000E+00 0.  1.
        -11    1    4    4    0    0 -0.20590037660E-01  0.64004386563E-01  0.51963029813E-01  0.84976048028E-01  0.51100000000E-03 0. -1.
         11    1    4    4    0    0 -0.42596955571E-03  0.39585641993E-01  0.18673743717E-01  0.43774128518E-01  0.51100000000E-03 0.  1.
</event>
<event>
 8    1  0.1204770E+005  0.1043930E+01  0.7957747E-01            NaN
         13   -1    0    0    0    0  0.00000000000E+00  0.00000000000E+00  0.74505805969E-08  0.10566000000E+00  0.10566000000E+00 0. -1.
     999900   -1    0    0    0    0 -0.00000000000E+00 -0.00000000000E+00 -0.74505805969E-08  0.93827000000E+00  0.93827000000E+00 0.  1.
     999902    2    1    2    0    0 -0.11125596898E-01 -0.15123691466E-01  0.14969229127E-01  0.10199178620E+01  0.10196351615E+01 0.  0.
     999903    2    3    3    0    0 -0.72271401310E-01 -0.10422528952E+00  0.36436950239E-01  0.13304765324E+00  0.16969392053E-01 0.  0.
         14    1    1    2    0    0  0.11125596898E-01  0.15123691466E-01 -0.14969229127E-01  0.24012137984E-01  0.00000000000E+00 0.  1.
     999901    1    3    3    0    0  0.61145804412E-01  0.89101598051E-01 -0.21467721112E-01  0.88687020878E+00  0.88000000000E+00 0.  1.
        -11    1    4    4    0    0 -0.14439652902E-01 -0.10700352639E-01  0.59283695286E-02  0.18931661544E-01  0.51100000000E-03 0. -1.
         11    1    4    4    0    0 -0.57831748408E-01 -0.93524936878E-01  0.30508580710E-01  0.11411599169E+00  0.51100000000E-03 0.  1.
</event>
<event>
 8    1  0.1204770E+005  0.1043930E+01  0.7957747E-01            NaN
         13   -1    0    0    0    0  0.00000000000E+00  0.00000000000E+00  0.74505805969E-08  0.10566000000E+00  0.10566000000E+00 0. -1.
     999900   -1    0    0    0    0 -0.00000000000E+00 -0.00000000000E+00 -0.74505805969E-08  0.93827000000E+00  0.93827000000E+00 0.  1.
     999902    2    1    2    0    0 -0.34715430762E-02 -0.16340919064E-01 -0.19029958415E-01  0.10186077457E+01  0.10182929456E+01 0.  0.
     999903    2    3    3    0    0 -0.12548299953E+00  0.20885105863E-01  0.76907700598E-02  0.12900863946E+00  0.20047700405E-01 0.  0.
         14    1    1    2    0    0  0.34715430762E-02  0.16340919064E-01  0.19029958415E-01  0.25322254332E-01  0.00000000000E+00 0.  1.
     999901    1    3    3    0    0  0.12201145646E+00 -0.37226024927E-01 -0.26720728475E-01  0.88959910621E+00  0.88000000000E+00 0. -1.
        -11    1    4    4    0    0 -0.34682905456E-01  0.86090314510E-02  0.10778438568E-01  0.37329013011E-01  0.51100000000E-03 0. -1.
         11    1    4    4    0    0 -0.90800094079E-01  0.12276074412E-01 -0.30876685080E-02  0.91679626447E-01  0.51100000000E-03 0.  1.
</event>
<event>
 8    1  0.1204770E+005  0.1043930E+01  0.7957747E-01            NaN
         13   -1    0    0    0    0  0.00000000000E+00  0.00000000000E+00  0.74505805969E-08  0.10566000000E+00  0.10566000000E+00 0. -1.
     999900   -1    0    0    0    0 -0.00000000000E+00 -0.00000000000E+00 -0.74505805969E-08  0.93827000000E+00  0.93827000000E+00 0.  1.
     999902    2    1    2    0    0  0.20749014986E-01  0.74763356481E-02  0.83741259022E-02  0.10203388321E+01  0.10200660710E+01 0.  0.
     999903    2    3    3    0    0 -0.70319373294E-01  0.10642225802E+00 -0.13221749914E-01  0.12986135977E+00  0.20460860861E-01 0.  0.
         14    1    1    2    0    0 -0.20749014986E-01 -0.74763356481E-02 -0.83741259022E-02  0.23591167886E-01  0.00000000000E+00 0.  1.
     999901    1    3    3    0    0  0.91068388280E-01 -0.98945922376E-01  0.21595875816E-01  0.89047747234E+00  0.88000000000E+00 0.  1.
        -11    1    4    4    0    0 -0.37769449322E-01  0.45455430565E-01 -0.14025468484E-01  0.60742920222E-01  0.51100000000E-03 0. -1.
         11    1    4    4    0    0 -0.32549923972E-01  0.60966827459E-01  0.80371857014E-03  0.69118439548E-01  0.51100000000E-03 0.  1.
</event>
<event>
 8    1  0.1204770E+005  0.1043930E+01  0.7957747E-01            NaN
         13   -1    0    0    0    0  0.00000000000E+00  0.00000000000E+00  0.74505805969E-08  0.10566000000E+00  0.10566000000E+00 0. -1.
     999900   -1    0    0    0    0 -0.00000000000E+00 -0.00000000000E+00 -0.74505805969E-08  0.93827000000E+00  0.93827000000E+00 0. -1.
     999902    2    1    2    0    0  0.24735427025E-01  0.80453873314E-03 -0.35043064068E-02  0.10189346245E+01  0.10186279989E+01 0.  0.
     999903    2    3    3    0    0  0.73814117430E-01 -0.10276346531E+00 -0.27912229050E-01  0.13116731490E+00  0.20418575718E-01 0.  0.
         14    1    1    2    0    0 -0.24735427025E-01 -0.80453873314E-03  0.35043064068E-02  0.24995375494E-01  0.00000000000E+00 0.  1.
     999901    1    3    3    0    0 -0.49078690405E-01  0.10356800404E+00  0.24407922643E-01  0.88776730960E+00  0.88000000000E+00 0. -1.
        -11    1    4    4    0    0  0.58928969548E-01 -0.90716197122E-01 -0.18227886470E-01  0.10970218247E+00  0.51100000000E-03 0.  1.
         11    1    4    4    0    0  0.14885147882E-01 -0.12047268184E-01 -0.96843425798E-02  0.21465132434E-01  0.51100000000E-03 0. -1.
</event>
<event>
 8    1  0.1204770E+005  0.1043930E+01  0.7957747E-01            NaN
         13   -1    0    0    0    0  0.00000000000E+00  0.00000000000E+00  0.74505805969E-08  0.10566000000E+00  0.10566000000E+00 0.  1.
     999900   -1    0    0    0    0 -0.00000000000E+00 -0.00000000000E+00 -0.74505805969E-08  0.93827000000E+00  0.93827000000E+00 0.  1.
     999902    2    1    2    0    0  0.72637140399E-02 -0.20964116561E-01  0.23484442958E-02  0.10216192197E+01  0.10213755721E+01 0.  0.
     999903    2    3    3    0    0  0.10615207489E+00 -0.79378114313E-01 -0.37740044462E-02  0.13413480443E+00  0.20217680748E-01 0.  0.
         14    1    1    2    0    0 -0.72637140399E-02  0.20964116561E-01 -0.23484442958E-02  0.22310780252E-01  0.00000000000E+00 0.  1.
     999901    1    3    3    0    0 -0.98888360855E-01  0.58413997751E-01  0.61224487420E-02  0.88748441531E+00  0.88000000000E+00 0. -1.
        -11    1    4    4    0    0  0.47923683028E-01 -0.34273727473E-01  0.82782439244E-02  0.59499228847E-01  0.51100000000E-03 0.  1.
         11    1    4    4    0    0  0.58228391866E-01 -0.45104386839E-01 -0.12052248371E-01  0.74635575587E-01  0.51100000000E-03 0. -1.
</event>
<event>
 8    1  0.1204770E+005  0.1043930E+01  0.7957747E-01            NaN
         13   -1    0    0    0    0  0.00000000000E+00  0.00000000000E+00  0.74505805969E-08  0.10566000000E+00  0.10566000000E+00 0.  1.
     999900   -1    0    0    0    0 -0.00000000000E+00 -0.00000000000E+00 -0.74505805969E-08  0.93827000000E+00  0.93827000000E+00 0.  1.
     999902    2    1    2    0    0 -0.18591153365E-01  0.14064317201E-01  0.16652573243E-01  0.10152813666E+01  0.10148770906E+01 0.  0.
     999903    2    3    3    0    0 -0.12212226431E+00 -0.27135998282E-01 -0.14618946133E-01  0.12770372780E+00  0.21078867718E-01 0.  0.
         14    1    1    2    0    0  0.18591153365E-01 -0.14064317201E-01 -0.16652573243E-01  0.28648633430E-01  0.00000000000E+00 0. -1.
     999901    1    3    3    0    0  0.10353111094E+00  0.41200315483E-01  0.31271519376E-01  0.88757763877E+00  0.88000000000E+00 0. -1.
        -11    1    4    4    0    0 -0.34083778104E-01 -0.11512081024E-02  0.29812575623E-02  0.34237088480E-01  0.51100000000E-03 0. -1.
         11    1    4    4    0    0 -0.88038486204E-01 -0.25984790179E-01 -0.17600203695E-01  0.93466639315E-01  0.51100000000E-03 0.  1.
</event>
<event>
 8    1  0.1204770E+005  0.1043930E+01  0.7957747E-01            NaN
         13   -1    0    0    0    0  0.00000000000E+00  0.00000000000E+00  0.74505805969E-08  0.10566000000E+00  0.10566000000E+00 0. -1.
     999900   -1    0    0    0    0 -0.00000000000E+00 -0.00000000000E+00 -0.74505805969E-08  0.93827000000E+00  0.93827000000E+00 0.  1.
     999902    2    1    2    0    0 -0.21791720890E-01  0.48758800963E-03  0.85583733302E-02  0.10205128568E+01  0.10202441513E+01 0.  0.
     999903    2    3    3    0    0  0.78291348246E-01 -0.56511506059E-01  0.84433969478E-01  0.12977011979E+00  0.19700336581E-01 0.  0.
         14    1    1    2    0    0  0.21791720890E-01 -0.48758800963E-03 -0.85583733302E-02  0.23417143196E-01  0.00000000000E+00 0. -1.
     999901    1    3    3    0    0 -0.10008306914E+00  0.56999094068E-01 -0.75875596148E-01  0.89074273701E+00  0.88000000000E+00 0. -1.
        -11    1    4    4    0    0  0.42444599445E-01 -0.42460456322E-01  0.51668499381E-01  0.79210664196E-01  0.51100000000E-03 0.  1.
         11    1    4    4    0    0  0.35846748801E-01 -0.14051049737E-01  0.32765470097E-01  0.50559455594E-01  0.51100000000E-03 0. -1.
</event>
<event>
 8    1  0.1204770E+005  0.1043930E+01  0.7957747E-01            NaN
         13   -1    0    0    0    0  0.00000000000E+00  0.00000000000E+00  0.74505805969E-08  0.10566000000E+00  0.10566000000E+00 0.  1.
     999900   -1    0    0    0    0 -0.00000000000E+00 -0.00000000000E+00 -0.74505805969E-08  0.93827000000E+00  0.93827000000E+00 0. -1.
     999902    2    1    2    0    0 -0.17538047205E-01 -0.13325399469E-01 -0.10346861582E-01  0.10195946982E+01  0.10193042439E+01 0.  0.
     999903    2    3    3    0    0  0.18433851727E-01 -0.12010999837E+00 -0.46689505355E-01  0.13166580696E+00  0.19742244397E-01 0.  0.
         14    1    1    2    0    0  0.17538047205E-01  0.13325399469E-01  0.10346861582E-01  0.24335301834E-01  0.00000000000E+00 0.  1.
     999901    1    3    3    0    0 -0.35971898931E-01  0.10678459891E+00  0.36342643773E-01  0.88792889120E+00  0.88000000000E+00 0. -1.
        -11    1    4    4    0    0  0.73663397198E-02 -0.52187032052E-01 -0.98985057802E-02  0.53628265057E-01  0.51100000000E-03 0. -1.
         11    1    4    4    0    0  0.11067512007E-01 -0.67922966323E-01 -0.36790999575E-01  0.78037541906E-01  0.51100000000E-03 0.  1.
</event>
<event>
 8    1  0.1204770E+005  0.1043930E+01  0.7957747E-01            NaN
         13   -1    0    0    0    0  0.00000000000E+00  0.00000000000E+00  0.74505805969E-08  0.10566000000E+00  0.10566000000E+00 0.  1.
     999900   -1    0    0    0    0 -0.00000000000E+00 -0.00000000000E+00 -0.74505805969E-08  0.93827000000E+00  0.93827000000E+00 0.  1.
     999902    2    1    2    0    0  0.13326606007E-01  0.18366895832E-01  0.27852230926E-02  0.10210673939E+01  0.10208114048E+01 0.  0.
     999903    2    3    3    0    0  0.42670664396E-01 -0.38490082913E-01 -0.11576815177E+00  0.13081535515E+00  0.20201982510E-01 0.  0.
         14    1    1    2    0    0 -0.13326606007E-01 -0.18366895832E-01 -0.27852230926E-02  0.22862606104E-01  0.00000000000E+00 0. -1.
     999901    1    3    3    0    0 -0.29344058388E-01  0.56856978745E-01  0.11855337486E+00  0.89025203874E+00  0.88000000000E+00 0. -1.
        -11    1    4    4    0    0  0.23320300732E-01 -0.85318955491E-02 -0.40224487372E-01  0.47274730811E-01  0.51100000000E-03 0. -1.
         11    1    4    4    0    0  0.19350363663E-01 -0.29958187364E-01 -0.75543664397E-01  0.83540624343E-01  0.51100000000E-03 0.  1.
</event>
<event>
 8    1  0.1204770E+005  0.1043930E+01  0.7957747E-01            NaN
         13   -1    0    0    0    0  0.00000000000E+00  0.00000000000E+00  0.74505805969E-08  0.10566000000E+00  0.10566000000E+00 0. -1.
     999900   -1    0    0    0    0 -0.00000000000E+00 -0.00000000000E+00 -0.74505805969E-08  0.93827000000E+00  0.93827000000E+00 0.  1.
     999902    2    1    2    0    0  0.91057943459E-02  0.12499388967E-01  0.17733723471E-01  0.10204005469E+01  0.10201292276E+01 0.  0.
     999903    2    3    3    0    0  0.28375374597E-01 -0.11873497633E+00  0.40359822943E-01  0.13017264589E+00  0.20318610737E-01 0.  0.
         14    1    1    2    0    0 -0.91057943459E-02 -0.12499388967E-01 -0.17733723471E-01  0.23529453103E-01  0.00000000000E+00 0.  1.
     999901    1    3    3    0    0 -0.19269580251E-01  0.13123436529E+00 -0.22626099473E-01  0.89022790101E+00  0.88000000000E+00 0.  1.
        -11    1    4    4    0    0  0.46245548938E-02 -0.27921739256E-01  0.82764395572E-03  0.28318830247E-01  0.51100000000E-03 0. -1.
         11    1    4    4    0    0  0.23750819703E-01 -0.90813237072E-01  0.39532178988E-01  0.10185381564E+00  0.51100000000E-03 0.  1.
</event>
<event>
 8    1  0.1432966E+005  0.1043930E+01  0.7957747E-01            NaN
         13   -1    0    0    0    0  0.00000000000E+00  0.00000000000E+00  0.74505805969E-08  0.10566000000E+00  0.10566000000E+00 0.  1.
     999900   -1    0    0    0    0 -0.00000000000E+00 -0.00000000000E+00 -0.74505805969E-08  0.93827000000E+00  0.93827000000E+00 0. -1.
     999902    2    1    2    0    0  0.28639072541E-03 -0.18825633019E-01  0.14479132825E-01  0.10201785418E+01  0.10199020176E+01 0.  0.
     999903    2    3    3    0    0  0.17954047470E-01 -0.17904939384E-01  0.12856014074E+00  0.13263841871E+00  0.20550076792E-01 0.  0.
         14    1    1    2    0    0 -0.28639072541E-03  0.18825633019E-01 -0.14479132825E-01  0.23751458178E-01  0.00000000000E+00 0.  1.
     999901    1    3    3    0    0 -0.17667656745E-01 -0.92069363504E-03 -0.11408100791E+00  0.88754012311E+00  0.88000000000E+00 0. -1.
        -11    1    4    4    0    0  0.16549049107E-01 -0.44553240366E-02  0.48474408727E-01  0.51417413014E-01  0.51100000000E-03 0.  1.
         11    1    4    4    0    0  0.14049983635E-02 -0.13449615348E-01  0.80085732009E-01  0.81221005693E-01  0.51100000000E-03 0. -1.
</event>
<event>
 8    1  0.1204770E+005  0.1043930E+01  0.7957747E-01            NaN
         13   -1    0    0    0    0  0.00000000000E+00  0.00000000000E+00  0.74505805969E-08  0.10566000000E+00  0.10566000000E+00 0. -1.
     999900   -1    0    0    0    0 -0.00000000000E+00 -0.00000000000E+00 -0.74505805969E-08  0.93827000000E+00  0.93827000000E+00 0.  1.
     999902    2    1    2    0    0  0.15995621373E-01 -0.45166572645E-02 -0.14550050681E-01  0.10218400912E+01  0.10216012960E+01 0.  0.
     999903    2    3    3    0    0 -0.58336523362E-01  0.35489059345E-01  0.10795505403E+00  0.12935299001E+00  0.20378396496E-01 0.  0.
         14    1    1    2    0    0 -0.15995621373E-01  0.45166572645E-02  0.14550050681E-01  0.22089908800E-01  0.00000000000E+00 0. -1.
     999901    1    3    3    0    0  0.74332144735E-01 -0.40005716609E-01 -0.12250510471E+00  0.89248710119E+00  0.88000000000E+00 0. -1.
        -11    1    4    4    0    0 -0.25487016588E-01  0.72448581976E-02  0.54028013510E-01  0.60177764579E-01  0.51100000000E-03 0. -1.
         11    1    4    4    0    0 -0.32849506774E-01  0.28244201147E-01  0.53927040521E-01  0.69175225435E-01  0.51100000000E-03 0.  1.
</event>
<event>
 8    1  0.1204770E+005  0.1043930E+01  0.7957747E-01            NaN
         13   -1    0    0    0    0  0.00000000000E+00  0.00000000000E+00  0.74505805969E-08  0.10566000000E+00  0.10566000000E+00 0. -1.
     999900   -1    0    0    0    0 -0.00000000000E+00 -0.00000000000E+00 -0.74505805969E-08  0.93827000000E+00  0.93827000000E+00 0.  1.
     999902    2    1    2    0    0 -0.16018685556E-02 -0.29178830639E-01  0.14663054463E-01  0.10112348122E+01  0.10107061245E+01 0.  0.
     999903    2    3    3    0    0  0.12572530062E-02 -0.83978644699E-01 -0.88407568729E-01  0.12352159973E+00  0.19689945164E-01 0.  0.
         14    1    1    2    0    0  0.16018685556E-02  0.29178830639E-01 -0.14663054463E-01  0.32695187819E-01  0.00000000000E+00 0.  1.
     999901    1    3    3    0    0 -0.28591215618E-02  0.54799814060E-01  0.10307062319E+00  0.88771321245E+00  0.88000000000E+00 0. -1.
        -11    1    4    4    0    0 -0.72279024869E-02 -0.28700326877E-01 -0.23160786575E-01  0.37585030171E-01  0.51100000000E-03 0. -1.
         11    1    4    4    0    0  0.84851554931E-02 -0.55278317822E-01 -0.65246782154E-01  0.85936569558E-01  0.51100000000E-03 0.  1.
</event>
<event>
 8    1  0.1204770E+005  0.1043930E+01  0.7957747E-01            NaN
         13   -1    0    0    0    0  0.00000000000E+00  0.00000000000E+00  0.74505805969E-08  0.10566000000E+00  0.10566000000E+00 0. -1.
     999900   -1    0    0    0    0 -0.00000000000E+00 -0.00000000000E+00 -0.74505805969E-08  0.93827000000E+00  0.93827000000E+00 0. -1.
     999902    2    1    2    0    0  0.14179409812E-01  0.20938938639E-02 -0.18952176111E-01  0.10201681601E+01  0.10198913912E+01 0.  0.
     999903    2    3    3    0    0  0.75719129329E-03  0.60682772059E-01  0.11119916665E+00  0.12856724907E+00  0.21938794564E-01 0.  0.
         14    1    1    2    0    0 -0.14179409812E-01 -0.20938938639E-02  0.18952176111E-01  0.23761839859E-01  0.00000000000E+00 0. -1.
     999901    1    3    3    0    0  0.13422218519E-01 -0.58588878195E-01 -0.13015134276E+00  0.89160091107E+00  0.88000000000E+00 0. -1.
        -11    1    4    4    0    0  0.58544341910E-02  0.51508800917E-01  0.77285155110E-01  0.93062813695E-01  0.51100000000E-03 0. -1.
         11    1    4    4    0    0 -0.50972428977E-02  0.91739711427E-02  0.33914011539E-01  0.35504435376E-01  0.51100000000E-03 0.  1.
</event>
<event>
 8    1  0.1204770E+005  0.1043930E+01  0.7957747E-01            NaN
         13   -1    0    0    0    0  0.00000000000E+00  0.00000000000E+00  0.74505805969E-08  0.10566000000E+00  0.10566000000E+00 0. -1.
     999900   -1    0    0    0    0 -0.00000000000E+00 -0.00000000000E+00 -0.74505805969E-08  0.93827000000E+00  0.93827000000E+00 0.  1.
     999902    2    1    2    0    0 -0.11854677917E-01 -0.15839414821E-01  0.13021976976E-01  0.10202447232E+01  0.10199697559E+01 0.  0.
     999903    2    3    3    0    0 -0.90324568783E-01  0.30979668047E-01  0.89090399608E-01  0.13224925298E+00  0.20844616905E-01 0.  0.
         14    1    1    2    0    0  0.11854677917E-01  0.15839414821E-01 -0.13021976976E-01  0.23685276750E-01  0.00000000000E+00 0.  1.
     999901    1    3    3    0    0  0.78469890867E-01 -0.46819082868E-01 -0.76068422632E-01  0.88799547027E+00  0.88000000000E+00 0. -1.
        -11    1    4    4    0    0 -0.18399848652E-01 -0.21567353842E-02  0.17745425460E-01  0.25658666834E-01  0.51100000000E-03 0. -1.
         11    1    4    4    0    0 -0.71924720131E-01  0.33136403431E-01  0.71344974148E-01  0.10659058615E+00  0.51100000000E-03 0.  1.
</event>
<event>
 8    1  0.1204770E+005  0.1043930E+01  0.7957747E-01            NaN
         13   -1    0    0    0    0  0.00000000000E+00  0.00000000000E+00  0.74505805969E-08  0.10566000000E+00  0.10566000000E+00 0. -1.
     999900   -1    0    0    0    0 -0.00000000000E+00 -0.00000000000E+00 -0.74505805969E-08  0.93827000000E+00  0.93827000000E+00 0.  1.
     999902    2    1    2    0    0 -0.13381608030E-02  0.17698703690E-01  0.15608793036E-01  0.10202938157E+01  0.10200200004E+01 0.  0.
     999903    2    3    3    0    0  0.71235890074E-01  0.10932455008E+00  0.12912260150E-01  0.13256099564E+00  0.19475159005E-01 0.  0.
         14    1    1    2    0    0  0.13381608030E-02 -0.17698703690E-01 -0.15608793036E-01  0.23636184267E-01  0.00000000000E+00 0. -1.
     999901    1    3    3    0    0 -0.72574050877E-01 -0.91625846385E-01  0.26965328865E-02  0.88773282010E+00  0.88000000000E+00 0.  1.
        -11    1    4    4    0    0  0.48734491558E-01  0.74458099328E-01  0.17866636735E-01  0.90766387238E-01  0.51100000000E-03 0.  1.
         11    1    4    4    0    0  0.22501398516E-01  0.34866450747E-01 -0.49543765854E-02  0.41794608399E-01  0.51100000000E-03 0. -1.
</event>
<event>
 8    1  0.1204770E+005  0.1043930E+01  0.7957747E-01            NaN
         13   -1    0    0    0    0  0.00000000000E+00  0.00000000000E+00  0.74505805969E-08  0.10566000000E+00  0.10566000000E+00 0. -1.
     999900   -1    0    0    0    0 -0.00000000000E+00 -0.00000000000E+00 -0.74505805969E-08  0.93827000000E+00  0.93827000000E+00 0. -1.
     999902    2    1    2    0    0 -0.12706732478E-02 -0.22506526977E-02 -0.19206093633E-01  0.10245507822E+01  0.10243674884E+01 0.  0.
     999903    2    3    3    0    0  0.67250305399E-01 -0.11140096904E+00 -0.30003952029E-01  0.13509841713E+00  0.20458878116E-01 0.  0.
         14    1    1    2    0    0  0.12706732478E-02  0.22506526977E-02  0.19206093633E-01  0.19379217753E-01  0.00000000000E+00 0. -1.
     999901    1    3    3    0    0 -0.68520978646E-01  0.10915031634E+00  0.10797858396E-01  0.88945236512E+00  0.88000000000E+00 0. -1.
        -11    1    4    4    0    0  0.22948718357E-01 -0.27428368476E-01 -0.83800591923E-03  0.35776003779E-01  0.51100000000E-03 0. -1.
         11    1    4    4    0    0  0.44301587042E-01 -0.83972600563E-01 -0.29165946110E-01  0.99322413348E-01  0.51100000000E-03 0.  1.
</event>
<event>
 8    1  0.1204770E+005  0.1043930E+01  0.7957747E-01            NaN
         13   -1    0    0    0    0  0.00000000000E+00  0.00000000000E+00  0.74505805969E-08  0.10566000000E+00  0.10566000000E+00 0. -1.
     999900   -1    0    0    0    0 -0.00000000000E+00 -0.00000000000E+00 -0.74505805969E-08  0.93827000000E+00  0.93827000000E+00 0. -1.
     999902    2    1    2    0    0 -0.51523245809E-02 -0.15760695455E-01 -0.16018330732E-01  0.10208750029E+01  0.10206146377E+01 0.  0.
     999903    2    3    3    0    0 -0.23801313801E-01 -0.94486229516E-01  0.85896451741E-01  0.13130650227E+00  0.19210596269E-01 0.  0.
         14    1    1    2    0    0  0.51523245809E-02  0.15760695455E-01  0.16018330732E-01  0.23054997056E-01  0.00000000000E+00 0. -1.
     999901    1    3    3    0    0  0.18648989220E-01  0.78725534061E-01 -0.10191478247E+00  0.88956850068E+00  0.88000000000E+00 0. -1.
        -11    1    4    4    0    0 -0.45940542098E-02 -0.20695680792E-01  0.90709257168E-02  0.23064244013E-01  0.51100000000E-03 0.  1.
         11    1    4    4    0    0 -0.19207259591E-01 -0.73790548724E-01  0.76825526024E-01  0.10824225825E+00  0.51100000000E-03 0. -1.
</event>
<event>
 8    1  0.1502664E+005  0.1043930E+01  0.7957747E-01            NaN
         13   -1    0    0    0    0  0.00000000000E+00  0.00000000000E+00  0.74505805969E-08  0.10566000000E+00  0.10566000000E+00 0. -1.
     999900   -1    0    0    0    0 -0.00000000000E+00 -0.00000000000E+00 -0.74505805969E-08  0.93827000000E+00  0.93827000000E+00 0. -1.
     999902    2    1    2    0    0  0.73653857680E-02 -0.16506198636E-01  0.15393262326E-01  0.10201885589E+01  0.10199122706E+01 0.  0.
     999903    2    3    3    0    0  0.44821322738E-01  0.10644308924E+00  0.56267630840E-01  0.12991321463E+00  0.19295461528E-01 0.  0.
         14    1    1    2    0    0 -0.73653857680E-02  0.16506198636E-01 -0.15393262326E-01  0.23741441110E-01  0.00000000000E+00 0.  1.
     999901    1    3    3    0    0 -0.37455936970E-01 -0.12294928787E+00 -0.40874368514E-01  0.89027534426E+00  0.88000000000E+00 0. -1.
        -11    1    4    4    0    0  0.15174431372E-01  0.58418139465E-01  0.33683115406E-01  0.69121311985E-01  0.51100000000E-03 0. -1.
         11    1    4    4    0    0  0.29646891366E-01  0.48024949773E-01  0.22584515434E-01  0.60791902641E-01  0.51100000000E-03 0.  1.
</event>
<event>
 8    1  0.1204770E+005  0.1043930E+01  0.7957747E-01            NaN
         13   -1    0    0    0    0  0.00000000000E+00  0.00000000000E+00  0.74505805969E-08  0.10566000000E+00  0.10566000000E+00 0.  1.
     999900   -1    0    0    0    0 -0.00000000000E+00 -0.00000000000E+00 -0.74505805969E-08  0.93827000000E+00  0.93827000000E+00 0. -1.
     999902    2    1    2    0    0  0.92055010881E-02 -0.82512699658E-02 -0.20474234310E-01  0.10200130818E+01  0.10197326454E+01 0.  0.
     999903    2    3    3    0    0 -0.90371693333E-01 -0.91655569979E-01 -0.17179618049E-02  0.13028071041E+00  0.20058056956E-01 0.  0.
         14    1    1    2    0    0 -0.92055010881E-02  0.82512699658E-02  0.20474234310E-01  0.23916918215E-01  0.00000000000E+00 0.  1.
     999901    1    3    3    0    0  0.99577194421E-01  0.83404300014E-01 -0.18756272505E-01  0.88973237137E+00  0.88000000000E+00 0.  1.
        -11    1    4    4    0    0 -0.45673328059E-01 -0.32878547607E-01 -0.38030159608E-02  0.56407232162E-01  0.51100000000E-03 0. -1.
         11    1    4    4    0    0 -0.44698365274E-01 -0.58777022372E-01  0.20850541558E-02  0.73873478251E-01  0.51100000000E-03 0.  1.
</event>
<event>
 8    1  0.1204770E+005  0.1043930E+01  0.7957747E-01            NaN
         13   -1    0    0    0    0  0.00000000000E+00  0.00000000000E+00  0.74505805969E-08  0.10566000000E+00  0.10566000000E+00 0. -1.
     999900   -1    0    0    0    0 -0.00000000000E+00 -0.00000000000E+00 -0.74505805969E-08  0.93827000000E+00  0.93827000000E+00 0. -1.
     999902    2    1    2    0    0  0.20195368971E-01 -0.59194663344E-02 -0.92136584955E-02  0.10209564388E+01  0.10206979306E+01 0.  0.
     999903    2    3    3    0    0 -0.29527719163E-01  0.11267256571E+00 -0.55214521378E-01  0.13042146763E+00  0.19852520900E-01 0.  0.
         14    1    1    2    0    0 -0.20195368971E-01  0.59194663344E-02  0.92136584955E-02  0.22973561161E-01  0.00000000000E+00 0.  1.
     999901    1    3    3    0    0  0.49723088134E-01 -0.11859203204E+00  0.46000862883E-01  0.89053497121E+00  0.88000000000E+00 0. -1.
        -11    1    4    4    0    0 -0.26269150489E-01  0.78045128397E-01 -0.46465952666E-01  0.94553985702E-01  0.51100000000E-03 0. -1.
         11    1    4    4    0    0 -0.32585686743E-02  0.34627437310E-01 -0.87485687127E-02  0.35867481930E-01  0.51100000000E-03 0.  1.
</event>
<event>
 8    1  0.1204770E+005  0.1043930E+01  0.7957747E-01            NaN
         13   -1    0    0    0    0  0.00000000000E+00  0.00000000000E+00  0.74505805969E-08  0.10566000000E+00  0.10566000000E+00 0. -1.
     999900   -1    0    0    0    0 -0.00000000000E+00 -0.00000000000E+00 -0.74505805969E-08  0.93827000000E+00  0.93827000000E+00 0.  1.
     999902    2    1    2    0    0  0.89166700201E-02  0.17727908304E-01 -0.13700571329E-01  0.10198158674E+01  0.10195307313E+01 0.  0.
     999903    2    3    3    0    0  0.65538641223E-01 -0.54403466822E-01 -0.97474779052E-01  0.13109369438E+00  0.20716502130E-01 0.  0.
         14    1    1    2    0    0 -0.89166700201E-02 -0.17727908304E-01  0.13700571329E-01  0.24114132616E-01  0.00000000000E+00 0. -1.
     999901    1    3    3    0    0 -0.56621971203E-01  0.72131375126E-01  0.83774207723E-01  0.88872217300E+00  0.88000000000E+00 0. -1.
        -11    1    4    4    0    0  0.20901944397E-01 -0.29780329769E-01 -0.45924343174E-01  0.58592369279E-01  0.51100000000E-03 0.  1.
         11    1    4    4    0    0  0.44636696827E-01 -0.24623137053E-01 -0.51550435878E-01  0.72501325106E-01  0.51100000000E-03 0. -1.
</event>
<event>
 8    1  0.1204770E+005  0.1043930E+01  0.7957747E-01            NaN
         13   -1    0    0    0    0  0.00000000000E+00  0.00000000000E+00  0.74505805969E-08  0.10566000000E+00  0.10566000000E+00 0. -1.
     999900   -1    0    0    0    0 -0.00000000000E+00 -0.00000000000E+00 -0.74505805969E-08  0.93827000000E+00  0.93827000000E+00 0.  1.
     999902    2    1    2    0    0  0.17980484234E-01  0.11004594827E-02  0.15644063439E-01  0.10200711328E+01  0.10197920721E+01 0.  0.
     999903    2    3    3    0    0  0.11124564121E-01 -0.14191391563E-01 -0.12573749458E+00  0.12862871215E+00  0.20255283858E-01 0.  0.
         14    1    1    2    0    0 -0.17980484234E-01 -0.11004594827E-02 -0.15644063439E-01  0.23858867224E-01  0.00000000000E+00 0.  1.
     999901    1    3    3    0    0  0.68559201122E-02  0.15291851046E-01  0.14138155802E+00  0.89144242063E+00  0.88000000000E+00 0. -1.
        -11    1    4    4    0    0  0.31713967973E-02  0.49758425664E-02 -0.19394140313E-01  0.20278327504E-01  0.51100000000E-03 0. -1.
         11    1    4    4    0    0  0.79531673242E-02 -0.19167234129E-01 -0.10634335427E+00  0.10835038464E+00  0.51100000000E-03 0.  1.
</event>
<event>
 8    1  0.1204770E+005  0.1043930E+01  0.7957747E-01            NaN
         13   -1    0    0    0    0  0.00000000000E+00  0.00000000000E+00  0.74505805969E-08  0.10566000000E+00  0.10566000000E+00 0.  1.
     999900   -1    0    0    0    0 -0.00000000000E+00 -0.00000000000E+00 -0.74505805969E-08  0.93827000000E+00  0.93827000000E+00 0.  1.
     999902    2    1    2    0    0 -0.90638603387E-02  0.19634772955E-01  0.16600952955E-02  0.10222405143E+01  0.10220103890E+01 0.  0.
     999903    2    3    3    0    0  0.69688740599E-01  0.53349855998E-01 -0.97147680450E-01  0.13257672639E+00  0.20885134971E-01 0.  0.
         14    1    1    2    0    0  0.90638603387E-02 -0.19634772955E-01 -0.16600952955E-02  0.21689485693E-01  0.00000000000E+00 0.  1.
     999901    1    3    3    0    0 -0.78752600937E-01 -0.33715083042E-01  0.98807775746E-01  0.88966378791E+00  0.88000000000E+00 0. -1.
        -11    1    4    4    0    0  0.53517657188E-01  0.28752076198E-01 -0.64122763230E-01  0.88333523658E-01  0.51100000000E-03 0. -1.
         11    1    4    4    0    0  0.16171083410E-01  0.24597779800E-01 -0.33024917221E-01  0.44243202734E-01  0.51100000000E-03 0.  1.
</event>
<event>
 8    1  0.1204770E+005  0.1043930E+01  0.7957747E-01            NaN
         13   -1    0    0    0    0  0.00000000000E+00  0.00000000000E+00  0.74505805969E-08  0.10566000000E+00  0.10566000000E+00 0.  1.
     999900   -1    0    0    0    0 -0.00000000000E+00 -0.00000000000E+00 -0.74505805969E-08  0.93827000000E+00  0.93827000000E+00 0. -1.
     999902    2    1    2    0    0  0.17785751254E-01  0.10932526555E-01 -0.22004300150E-01  0.10135978008E+01  0.10131438493E+01 0.  0.
     999903    2    3    3    0    0 -0.12314582281E-01 -0.12794105896E-01 -0.12422676098E+00  0.12685183114E+00  0.18540788471E-01 0.  0.
         14    1    1    2    0    0 -0.17785751254E-01 -0.10932526555E-01  0.22004300150E-01  0.30332199222E-01  0.00000000000E+00 0. -1.
     999901    1    3    3    0    0  0.30100333535E-01  0.23726632451E-01  0.10222246083E+00  0.88674596964E+00  0.88000000000E+00 0.  1.
        -11    1    4    4    0    0 -0.27741155346E-02 -0.15225362507E-01 -0.65661825809E-01  0.67462907364E-01  0.51100000000E-03 0. -1.
         11    1    4    4    0    0 -0.95404667462E-02  0.24312566110E-02 -0.58564935175E-01  0.59388923778E-01  0.51100000000E-03 0.  1.
</event>
<event>
 7    1  0.1204770E+005  0.1043930E+01  0.7957747E-01            NaN
         13   -1    0    0    0    0  0.00000000000E+00  0.00000000000E+00  0.74505805969E-08  0.10566000000E+00  0.10566000000E+00 0. -1.
     999900   -1    0    0    0    0 -0.00000000000E+00 -0.00000000000E+00 -0.74505805969E-08  0.93827000000E+00  0.93827000000E+00 0.  1.
     999902    2    1    2    0    0  0.73040097069E-02  0.18879111100E-03  0.23607912118E-01  0.10192172965E+01  0.10189176511E+01 0.  0.
         14    1    1    2    0    0 -0.73040097069E-02 -0.18879111100E-03 -0.23607912118E-01  0.24712703504E-01  0.00000000000E+00 0.  1.
     999901    1    3    3    0    0 -0.75940426406E-01 -0.89446700846E-01 -0.72756115387E-02  0.88781788402E+00  0.88000000000E+00 0. -1.
        -11    1    3    3    0    0  0.36799125132E-01  0.38644470842E-01  0.32358041783E-01  0.62408931461E-01  0.51100000000E-03 0.  1.
         11    1    3    3    0    0  0.46445310981E-01  0.50991021115E-01 -0.14745181258E-02  0.68990481019E-01  0.51100000000E-03 0. -1.
</event>
<event>
 8    1  0.1204770E+005  0.1043930E+01  0.7957747E-01            NaN
         13   -1    0    0    0    0  0.00000000000E+00  0.00000000000E+00  0.74505805969E-08  0.10566000000E+00  0.10566000000E+00 0.  1.
     999900   -1    0    0    0    0 -0.00000000000E+00 -0.00000000000E+00 -0.74505805969E-08  0.93827000000E+00  0.93827000000E+00 0.  1.
     999902    2    1    2    0    0 -0.12236309460E-01  0.20192288717E-01 -0.17841752021E-02  0.10202521818E+01  0.10199773897E+01 0.  0.
     999903    2    3    3    0    0 -0.78992415454E-02  0.47162508844E-02  0.12861873893E+00  0.13049758761E+00  0.20054907848E-01 0.  0.
         14    1    1    2    0    0  0.12236309460E-01 -0.20192288717E-01  0.17841752021E-02  0.23677818184E-01  0.00000000000E+00 0.  1.
     999901    1    3    3    0    0 -0.43370679147E-02  0.15476037832E-01 -0.13040291413E+00  0.88975459421E+00  0.88000000000E+00 0.  1.
        -11    1    4    4    0    0  0.48651067802E-03 -0.62323981059E-02  0.69813203670E-01  0.70094393545E-01  0.51100000000E-03 0. -1.
         11    1    4    4    0    0 -0.83857522235E-02  0.10948648990E-01  0.58805535255E-01  0.60403194060E-01  0.51100000000E-03 0.  1.
</event>
<event>
 8    1  0.1204770E+005  0.1043930E+01  0.7957747E-01            NaN
         13   -1    0    0    0    0  0.00000000000E+00  0.00000000000E+00  0.74505805969E-08  0.10566000000E+00  0.10566000000E+00 0. -1.
     999900   -1    0    0    0    0 -0.00000000000E+00 -0.00000000000E+00 -0.74505805969E-08  0.93827000000E+00  0.93827000000E+00 0. -1.
     999902    2    1    2    0    0  0.16108541983E-01 -0.13533177684E-02  0.16809696390E-01  0.10206087117E+01  0.10203422269E+01 0.  0.
     999903    2    3    3    0    0 -0.64256448165E-01 -0.55970807396E-01 -0.93844860236E-01  0.12837217767E+00  0.20271551376E-01 0.  0.
         14    1    1    2    0    0 -0.16108541983E-01  0.13533177684E-02 -0.16809696390E-01  0.23321288269E-01  0.00000000000E+00 0. -1.
     999901    1    3    3    0    0  0.80364990148E-01  0.54617489628E-01  0.11065455663E+00  0.89223653406E+00  0.88000000000E+00 0.  1.
        -11    1    4    4    0    0 -0.48204133941E-01 -0.30755338327E-01 -0.68059291434E-01  0.88892393579E-01  0.51100000000E-03 0. -1.
         11    1    4    4    0    0 -0.16052314224E-01 -0.25215469069E-01 -0.25785568801E-01  0.39479784089E-01  0.51100000000E-03 0.  1.
</event>
<event>
 8    1  0.1204770E+005  0.1043930E+01  0.7957747E-01            NaN
         13   -1    0    0    0    0  0.00000000000E+00  0.00000000000E+00  0.74505805969E-08  0.10566000000E+00  0.10566000000E+00 0. -1.
     999900   -1    0    0    0    0 -0.00000000000E+00 -0.00000000000E+00 -0.74505805969E-08  0.93827000000E+00  0.93827000000E+00 0. -1.
     999902    2    1    2    0    0 -0.82369968040E-03  0.19901077555E-01 -0.12811893135E-01  0.10202471798E+01  0.10199722701E+01 0.  0.
     999903    2    3    3    0    0 -0.81126397725E-01  0.95907792009E-01  0.35450055221E-01  0.13201592630E+00  0.19791447799E-01 0.  0.
         14    1    1    2    0    0  0.82369968040E-03 -0.19901077555E-01  0.12811893135E-01  0.23682820244E-01  0.00000000000E+00 0. -1.
     999901    1    3    3    0    0  0.80302698044E-01 -0.76006714454E-01 -0.48261948356E-01  0.88823125346E+00  0.88000000000E+00 0. -1.
        -11    1    4    4    0    0 -0.24131117141E-01  0.32886002677E-01  0.20797154483E-01  0.45788456429E-01  0.51100000000E-03 0. -1.
         11    1    4    4    0    0 -0.56995280584E-01  0.63021789332E-01  0.14652900738E-01  0.86227469872E-01  0.51100000000E-03 0.  1.
</event>
<event>
 8    1  0.1204770E+005  0.1043930E+01  0.7957747E-01            NaN
         13   -1    0    0    0    0  0.00000000000E+00  0.00000000000E+00  0.74505805969E-08  0.10566000000E+00  0.10566000000E+00 0.  1.
     999900   -1    0    0    0    0 -0.00000000000E+00 -0.00000000000E+00 -0.74505805969E-08  0.93827000000E+00  0.93827000000E+00 0.  1.
     999902    2    1    2    0    0 -0.63716818574E-02 -0.20813788523E-01  0.92947378041E-02  0.10202613652E+01  0.10199867887E+01 0.  0.
     999903    2    3    3    0    0  0.79065665702E-01 -0.36098071480E-01 -0.94378920862E-01  0.12993480873E+00  0.20523731586E-01 0.  0.
         14    1    1    2    0    0  0.63716818574E-02  0.20813788523E-01 -0.92947378041E-02  0.23668634799E-01  0.00000000000E+00 0.  1.
     999901    1    3    3    0    0 -0.85437347559E-01  0.15284282957E-01  0.10367365867E+00  0.89032655648E+00  0.88000000000E+00 0. -1.
        -11    1    4    4    0    0  0.29429825993E-01 -0.19699497623E-01 -0.50506896392E-01  0.61687864031E-01  0.51100000000E-03 0. -1.
         11    1    4    4    0    0  0.49635839708E-01 -0.16398573857E-01 -0.43872024470E-01  0.68246944695E-01  0.51100000000E-03 0.  1.
</event>
<event>
 8    1  0.1204770E+005  0.1043930E+01  0.7957747E-01            NaN
         13   -1    0    0    0    0  0.00000000000E+00  0.00000000000E+00  0.74505805969E-08  0.10566000000E+00  0.10566000000E+00 0. -1.
     999900   -1    0    0    0    0 -0.00000000000E+00 -0.00000000000E+00 -0.74505805969E-08  0.93827000000E+00  0.93827000000E+00 0. -1.
     999902    2    1    2    0    0  0.35132720732E-03 -0.23286430695E-01 -0.14231396980E-02  0.10205974774E+01  0.10203307328E+01 0.  0.
     999903    2    3    3    0    0 -0.64051125419E-01 -0.21995267588E-01  0.11050407518E+00  0.13117235718E+00  0.20216285322E-01 0.  0.
         14    1    1    2    0    0 -0.35132720732E-03  0.23286430695E-01  0.14231396980E-02  0.23332522622E-01  0.00000000000E+00 0. -1.
     999901    1    3    3    0    0  0.64402452626E-01 -0.12911631067E-02 -0.11192721488E+00  0.88942512020E+00  0.88000000000E+00 0. -1.
        -11    1    4    4    0    0 -0.33502284489E-01 -0.12444761604E-01  0.39411321905E-01  0.53205155508E-01  0.51100000000E-03 0. -1.
         11    1    4    4    0    0 -0.30548840930E-01 -0.95505059844E-02  0.71092753280E-01  0.77967201672E-01  0.51100000000E-03 0.  1.
</event>
<event>
 8    1  0.1204770E+005  0.1043930E+01  0.7957747E-01            NaN
         13   -1    0    0    0    0  0.00000000000E+00  0.00000000000E+00  0.74505805969E-08  0.10566000000E+00  0.10566000000E+00 0.  1.
     999900   -1    0    0    0    0 -0.00000000000E+00 -0.00000000000E+00 -0.74505805969E-08  0.93827000000E+00  0.93827000000E+00 0. -1.
     999902    2    1    2    0    0 -0.22081074852E-01 -0.50249644554E-02 -0.26100255329E-02  0.10211344661E+01  0.10208799936E+01 0.  0.
     999903    2    3    3    0    0 -0.57570349984E-01  0.10701564337E+00  0.49810499850E-01  0.13177486616E+00  0.10809085691E-01 0.  0.
         14    1    1    2    0    0  0.22081074852E-01  0.50249644554E-02  0.26100255329E-02  0.22795533941E-01  0.00000000000E+00 0.  1.
     999901    1    3    3    0    0  0.35489275132E-01 -0.11204060782E+00 -0.52420525383E-01  0.88935959990E+00  0.88000000000E+00 0. -1.
        -11    1    4    4    0    0 -0.43763077361E-02  0.84115083291E-02  0.94137526137E-03  0.95421617129E-02  0.51100000000E-03 0. -1.
         11    1    4    4    0    0 -0.53194042248E-01  0.98604135038E-01  0.48869124589E-01  0.12223270445E+00  0.51100000000E-03 0.  1.
</event>
<event>
 8    1  0.1204770E+005  0.1043930E+01  0.7957747E-01            NaN
         13   -1    0    0    0    0  0.00000000000E+00  0.00000000000E+00  0.74505805969E-08  0.10566000000E+00  0.10566000000E+00 0.  1.
     999900   -1    0    0    0    0 -0.00000000000E+00 -0.00000000000E+00 -0.74505805969E-08  0.93827000000E+00  0.93827000000E+00 0.  1.
     999902    2    1    2    0    0  0.62286612699E-02 -0.29676408491E-02 -0.22718784418E-01  0.10201866582E+01  0.10199103251E+01 0.  0.
     999903    2    3    3    0    0  0.18898391656E-01  0.11366436303E+00 -0.60301466004E-01  0.13160576469E+00  0.20176071606E-01 0.  0.
         14    1    1    2    0    0 -0.62286612699E-02  0.29676408491E-02  0.22718784418E-01  0.23743341779E-01  0.00000000000E+00 0.  1.
     999901    1    3    3    0    0 -0.12669730386E-01 -0.11663200388E+00  0.37582681586E-01  0.88858089353E+00  0.88000000000E+00 0. -1.
        -11    1    4    4    0    0  0.20536669891E-01  0.63203754720E-01 -0.35730744876E-01  0.75454732597E-01  0.51100000000E-03 0. -1.
         11    1    4    4    0    0 -0.16382782348E-02  0.50460608314E-01 -0.24570721129E-01  0.56151032090E-01  0.51100000000E-03 0.  1.
</event>
<event>
 8    1  0.1204770E+005  0.1043930E+01  0.7957747E-01            NaN
         13   -1    0    0    0    0  0.00000000000E+00  0.00000000000E+00  0.74505805969E-08  0.10566000000E+00  0.10566000000E+00 0.  1.
     999900   -1    0    0    0    0 -0.00000000000E+00 -0.00000000000E+00 -0.74505805969E-08  0.93827000000E+00  0.93827000000E+00 0. -1.
     999902    2    1    2    0    0  0.11903283939E-01  0.55282400119E-02  0.19993493970E-01  0.10200137000E+01  0.10197332782E+01 0.  0.
     999903    2    3    3    0    0  0.76638665565E-01  0.93959174625E-01 -0.44852078976E-01  0.13084799653E+00  0.20191029010E-01 0.  0.
         14    1    1    2    0    0 -0.11903283939E-01 -0.55282400119E-02 -0.19993493970E-01  0.23916300034E-01  0.00000000000E+00 0. -1.
     999901    1    3    3    0    0 -0.64735381626E-01 -0.88430934613E-01  0.64845572947E-01  0.88916570343E+00  0.88000000000E+00 0.  1.
        -11    1    4    4    0    0  0.29837910589E-01  0.51725322049E-01 -0.18460907240E-01  0.62505008331E-01  0.51100000000E-03 0. -1.
         11    1    4    4    0    0  0.46800754976E-01  0.42233852576E-01 -0.26391171737E-01  0.68342988202E-01  0.51100000000E-03 0.  1.
</event>
<event>
 8    1  0.1204770E+005  0.1043930E+01  0.7957747E-01            NaN
         13   -1    0    0    0    0  0.00000000000E+00  0.00000000000E+00  0.74505805969E-08  0.10566000000E+00  0.10566000000E+00 0.  1.
     999900   -1    0    0    0    0 -0.00000000000E+00 -0.00000000000E+00 -0.74505805969E-08  0.93827000000E+00  0.93827000000E+00 0.  1.
     999902    2    1    2    0    0 -0.17996227439E-01 -0.14455803769E-02  0.16115869590E-01  0.10197292736E+01  0.10194420613E+01 0.  0.
     999903    2    3    3    0    0  0.35970942477E-01  0.12186704178E+00  0.15443526442E-01  0.12949396189E+00  0.19613747262E-01 0.  0.
         14    1    1    2    0    0  0.17996227439E-01  0.14455803769E-02 -0.16115869590E-01  0.24200726380E-01  0.00000000000E+00 0. -1.
     999901    1    3    3    0    0 -0.53967169917E-01 -0.12331262216E+00  0.67234314805E-03  0.89023531173E+00  0.88000000000E+00 0. -1.
        -11    1    4    4    0    0  0.16951211220E-02  0.25430218817E-01  0.86545598458E-02  0.26920846789E-01  0.51100000000E-03 0. -1.
         11    1    4    4    0    0  0.34275821355E-01  0.96436822961E-01  0.67889665957E-02  0.10257311510E+00  0.51100000000E-03 0.  1.
</event>
<event>
 8    1  0.1204770E+005  0.1043930E+01  0.7957747E-01            NaN
         13   -1    0    0    0    0  0.00000000000E+00  0.00000000000E+00  0.74505805969E-08  0.10566000000E+00  0.10566000000E+00 0.  1.
     999900   -1    0    0    0    0 -0.00000000000E+00 -0.00000000000E+00 -0.74505805969E-08  0.93827000000E+00  0.93827000000E+00 0. -1.
     999902    2    1    2    0    0  0.51200830318E-02 -0.22731447774E-03  0.23116331908E-01  0.10202523370E+01  0.10199775485E+01 0.  0.
     999903    2    3    3    0    0  0.81580965007E-01 -0.58973044868E-01 -0.78334742545E-01  0.12919136954E+00  0.20513512634E-01 0.  0.
         14    1    1    2    0    0 -0.51200830318E-02  0.22731447774E-03 -0.23116331908E-01  0.23677662954E-01  0.00000000000E+00 0. -1.
     999901    1    3    3    0    0 -0.76460881975E-01  0.58745730390E-01  0.10145107445E+00  0.89106096751E+00  0.88000000000E+00 0.  1.
        -11    1    4    4    0    0  0.33672904880E-01 -0.24697632090E-01 -0.45457385761E-01  0.61729025548E-01  0.51100000000E-03 0. -1.
         11    1    4    4    0    0  0.47908060127E-01 -0.34275412778E-01 -0.32877356783E-01  0.67462343988E-01  0.51100000000E-03 0.  1.
</event>
<event>
 8    1  0.1204770E+005  0.1043930E+01  0.7957747E-01            NaN
         13   -1    0    0    0    0  0.00000000000E+00  0.00000000000E+00  0.74505805969E-08  0.10566000000E+00  0.10566000000E+00 0.  1.
     999900   -1    0    0    0    0 -0.00000000000E+00 -0.00000000000E+00 -0.74505805969E-08  0.93827000000E+00  0.93827000000E+00 0.  1.
     999902    2    1    2    0    0  0.99533872256E-02 -0.95468569752E-03 -0.21353086111E-01  0.10203517128E+01  0.10200792529E+01 0.  0.
     999903    2    3    3    0    0  0.56601376603E-01 -0.87757744892E-01 -0.79871916567E-01  0.13291987905E+00  0.19571243380E-01 0.  0.
         14    1    1    2    0    0 -0.99533872256E-02  0.95468569752E-03  0.21353086111E-01  0.23578287226E-01  0.00000000000E+00 0.  1.
     999901    1    3    3    0    0 -0.46647989378E-01  0.86803059194E-01  0.58518830456E-01  0.88743183373E+00  0.88000000000E+00 0. -1.
        -11    1    4    4    0    0  0.31964072000E-01 -0.66012121458E-01 -0.53570370032E-01  0.90825920004E-01  0.51100000000E-03 0. -1.
         11    1    4    4    0    0  0.24637304603E-01 -0.21745623434E-01 -0.26301546535E-01  0.42093959041E-01  0.51100000000E-03 0.  1.
</event>
<event>
 8    1  0.1204770E+005  0.1043930E+01  0.7957747E-01            NaN
         13   -1    0    0    0    0  0.00000000000E+00  0.00000000000E+00  0.74505805969E-08  0.10566000000E+00  0.10566000000E+00 0.  1.
     999900   -1    0    0    0    0 -0.00000000000E+00 -0.00000000000E+00 -0.74505805969E-08  0.93827000000E+00  0.93827000000E+00 0. -1.
     999902    2    1    2    0    0 -0.58705926004E-02  0.60200588106E-02 -0.23596121386E-01  0.10188804110E+01  0.10185724373E+01 0.  0.
     999903    2    3    3    0    0 -0.77729915662E-01  0.60684211985E-02  0.98660393783E-01  0.12752727100E+00  0.21226540533E-01 0.  0.
         14    1    1    2    0    0  0.58705926004E-02 -0.60200588106E-02  0.23596121386E-01  0.25049589019E-01  0.00000000000E+00 0.  1.
     999901    1    3    3    0    0  0.71859323062E-01 -0.48362387870E-04 -0.12225651517E+00  0.89135313998E+00  0.88000000000E+00 0. -1.
        -11    1    4    4    0    0 -0.37725820810E-01 -0.58209957477E-02  0.37741406320E-01  0.53682365999E-01  0.51100000000E-03 0. -1.
         11    1    4    4    0    0 -0.40004094852E-01  0.11889416946E-01  0.60918987463E-01  0.73844905002E-01  0.51100000000E-03 0.  1.
</event>
<event>
 8    1  0.1204770E+005  0.1043930E+01  0.7957747E-01            NaN
         13   -1    0    0    0    0  0.00000000000E+00  0.00000000000E+00  0.74505805969E-08  0.10566000000E+00  0.10566000000E+00 0. -1.
     999900   -1    0    0    0    0 -0.00000000000E+00 -0.00000000000E+00 -0.74505805969E-08  0.93827000000E+00  0.93827000000E+00 0.  1.
     999902    2    1    2    0    0  0.49721596475E-02  0.21200201306E-01 -0.11600709717E-01  0.10192571937E+01  0.10189585269E+01 0.  0.
     999903    2    3    3    0    0 -0.95587929651E-01 -0.74282125319E-01 -0.35352126680E-01  0.12808193813E+00  0.22367914005E-01 0.  0.
         14    1    1    2    0    0 -0.49721596475E-02 -0.21200201306E-01  0.11600709717E-01  0.24672806344E-01  0.00000000000E+00 0. -1.
     999901    1    3    3    0    0  0.10056008930E+00  0.95482326625E-01  0.23751416963E-01  0.89117525553E+00  0.88000000000E+00 0.  1.
        -11    1    4    4    0    0 -0.53732170526E-01 -0.55392905713E-01 -0.22923515343E-01  0.80506327885E-01  0.51100000000E-03 0.  1.
         11    1    4    4    0    0 -0.41855759125E-01 -0.18889219606E-01 -0.12428611337E-01  0.47575610243E-01  0.51100000000E-03 0. -1.
</event>
<event>
 8    1  0.1204770E+005  0.1043930E+01  0.7957747E-01            NaN
         13   -1    0    0    0    0  0.00000000000E+00  0.00000000000E+00  0.74505805969E-08  0.10566000000E+00  0.10566000000E+00 0. -1.
     999900   -1    0    0    0    0 -0.00000000000E+00 -0.00000000000E+00 -0.74505805969E-08  0.93827000000E+00  0.93827000000E+00 0.  1.
     999902    2    1    2    0    0  0.68077352603E-02  0.18143484094E-01 -0.12800023633E-01  0.10207056189E+01  0.10204413695E+01 0.  0.
     999903    2    3    3    0    0 -0.50036479300E-01 -0.10627715965E+00 -0.50351608848E-01  0.12934604895E+00  0.19915620545E-01 0.  0.
         14    1    1    2    0    0 -0.68077352603E-02 -0.18143484094E-01  0.12800023633E-01  0.23224381143E-01  0.00000000000E+00 0. -1.
     999901    1    3    3    0    0  0.56844214560E-01  0.12442064374E+00  0.37551585215E-01  0.89135956991E+00  0.88000000000E+00 0. -1.
        -11    1    4    4    0    0 -0.25739424573E-01 -0.35414593590E-01 -0.24018654530E-01  0.49938645385E-01  0.51100000000E-03 0. -1.
         11    1    4    4    0    0 -0.24297054727E-01 -0.70862566056E-01 -0.26332954318E-01  0.79407403562E-01  0.51100000000E-03 0.  1.
</event>
<event>
 8    1  0.1204770E+005  0.1043930E+01  0.7957747E-01            NaN
         13   -1    0    0    0    0  0.00000000000E+00  0.00000000000E+00  0.74505805969E-08  0.10566000000E+00  0.10566000000E+00 0. -1.
     999900   -1    0    0    0    0 -0.00000000000E+00 -0.00000000000E+00 -0.74505805969E-08  0.93827000000E+00  0.93827000000E+00 0.  1.
     999902    2    1    2    0    0 -0.45383151566E-02 -0.62488918856E-02  0.20811718161E-01  0.10217315188E+01  0.10214903445E+01 0.  0.
     999903    2    3    3    0    0 -0.18470044605E-01 -0.58768985060E-01 -0.11245562441E+00  0.13004063186E+00  0.21664771407E-01 0.  0.
         14    1    1    2    0    0  0.45383151566E-02  0.62488918856E-02 -0.20811718161E-01  0.22198481188E-01  0.00000000000E+00 0.  1.
     999901    1    3    3    0    0  0.13931729448E-01  0.52520093174E-01  0.13326734257E+00  0.89169088695E+00  0.88000000000E+00 0. -1.
        -11    1    4    4    0    0 -0.73655529643E-02 -0.30795939787E-01 -0.78592930959E-01  0.84733412510E-01  0.51100000000E-03 0.  1.
         11    1    4    4    0    0 -0.11104491640E-01 -0.27973045272E-01 -0.33862693455E-01  0.45307219352E-01  0.51100000000E-03 0. -1.
</event>
<event>
 8    1  0.1204770E+005  0.1043930E+01  0.7957747E-01            NaN
         13   -1    0    0    0    0  0.00000000000E+00  0.00000000000E+00  0.74505805969E-08  0.10566000000E+00  0.10566000000E+00 0. -1.
     999900   -1    0    0    0    0 -0.00000000000E+00 -0.00000000000E+00 -0.74505805969E-08  0.93827000000E+00  0.93827000000E+00 0.  1.
     999902    2    1    2    0    0 -0.76576303251E-02  0.18589413400E-01  0.13039345707E-01  0.10199669007E+01  0.10196853673E+01 0.  0.
     999903    2    3    3    0    0 -0.59777355766E-01  0.35362313998E-01 -0.10799018979E+00  0.12999726949E+00  0.20336751686E-01 0.  0.
         14    1    1    2    0    0  0.76576303251E-02 -0.18589413400E-01 -0.13039345707E-01  0.23963099324E-01  0.00000000000E+00 0. -1.
     999901    1    3    3    0    0  0.52119725441E-01 -0.16772900599E-01  0.12102953550E+00  0.88996963119E+00  0.88000000000E+00 0. -1.
        -11    1    4    4    0    0 -0.46419267343E-01  0.16536237923E-01 -0.73878600702E-01  0.88805992523E-01  0.51100000000E-03 0.  1.
         11    1    4    4    0    0 -0.13358088423E-01  0.18826076075E-01 -0.34111589090E-01  0.41191276964E-01  0.51100000000E-03 0. -1.
</event>
<event>
 8    1  0.1204770E+005  0.1043930E+01  0.7957747E-01            NaN
         13   -1    0    0    0    0  0.00000000000E+00  0.00000000000E+00  0.74505805969E-08  0.10566000000E+00  0.10566000000E+00 0.  1.
     999900   -1    0    0    0    0 -0.00000000000E+00 -0.00000000000E+00 -0.74505805969E-08  0.93827000000E+00  0.93827000000E+00 0. -1.
     999902    2    1    2    0    0 -0.19845346582E-01  0.11214123951E-01  0.68514618841E-02  0.10201279646E+01  0.10198502475E+01 0.  0.
     999903    2    3    3    0    0 -0.63499143460E-01 -0.80299562738E-01 -0.78224110267E-01  0.13023007061E+00  0.18992073831E-01 0.  0.
         14    1    1    2    0    0  0.19845346582E-01 -0.11214123951E-01 -0.68514618841E-02  0.23802035352E-01  0.00000000000E+00 0. -1.
     999901    1    3    3    0    0  0.43653796878E-01  0.91513686689E-01  0.85075572151E-01  0.88989789404E+00  0.88000000000E+00 0.  1.
        -11    1    4    4    0    0 -0.32518118317E-01 -0.32230141904E-01 -0.44433999330E-01  0.63803224711E-01  0.51100000000E-03 0.  1.
         11    1    4    4    0    0 -0.30981025143E-01 -0.48069420834E-01 -0.33790110937E-01  0.66426845901E-01  0.51100000000E-03 0. -1.
</event>
<event>
 8    1  0.1204770E+005  0.1043930E+01  0.7957747E-01            NaN
         13   -1    0    0    0    0  0.00000000000E+00  0.00000000000E+00  0.74505805969E-08  0.10566000000E+00  0.10566000000E+00 0. -1.
     999900   -1    0    0    0    0 -0.00000000000E+00 -0.00000000000E+00 -0.74505805969E-08  0.93827000000E+00  0.93827000000E+00 0. -1.
     999902    2    1    2    0    0  0.21180971185E-01 -0.64565838996E-02  0.27834771645E-01  0.10083618186E+01  0.10077343210E+01 0.  0.
     999903    2    3    3    0    0 -0.10717296530E+00  0.14263683624E-01 -0.41676745856E-01  0.11609733227E+00  0.72209592521E-02 0.  0.
         14    1    1    2    0    0 -0.21180971185E-01  0.64565838996E-02 -0.27834771645E-01  0.35568181406E-01  0.00000000000E+00 0.  1.
     999901    1    3    3    0    0  0.12835393648E+00 -0.20720267523E-01  0.69511517501E-01  0.89226448633E+00  0.88000000000E+00 0.  1.
        -11    1    4    4    0    0 -0.43879733992E-01  0.89725581683E-02 -0.15465051774E-01  0.47385301547E-01  0.51100000000E-03 0.  1.
         11    1    4    4    0    0 -0.63293231307E-01  0.52911254555E-02 -0.26211694081E-01  0.68712030719E-01  0.51100000000E-03 0. -1.
</event>
<event>
 8    1  0.1204770E+005  0.1043930E+01  0.7957747E-01            NaN
         13   -1    0    0    0    0  0.00000000000E+00  0.00000000000E+00  0.74505805969E-08  0.10566000000E+00  0.10566000000E+00 0.  1.
     999900   -1    0    0    0    0 -0.00000000000E+00 -0.00000000000E+00 -0.74505805969E-08  0.93827000000E+00  0.93827000000E+00 0.  1.
     999902    2    1    2    0    0 -0.13205673724E-01 -0.77741613886E-02  0.18718872307E-01  0.10197386052E+01  0.10194516169E+01 0.  0.
     999903    2    3    3    0    0 -0.70393894465E-01 -0.25214004208E-01  0.10834909076E+00  0.13316756076E+00  0.20075541954E-01 0.  0.
         14    1    1    2    0    0  0.13205673724E-01  0.77741613886E-02 -0.18718872307E-01  0.24191394838E-01  0.00000000000E+00 0. -1.
     999901    1    3    3    0    0  0.57188220741E-01  0.17439842819E-01 -0.89630218452E-01  0.88657104440E+00  0.88000000000E+00 0.  1.
        -11    1    4    4    0    0 -0.55710962842E-01 -0.15090180876E-01  0.68979365045E-01  0.89943531522E-01  0.51100000000E-03 0. -1.
         11    1    4    4    0    0 -0.14682931623E-01 -0.10123823332E-01  0.39369725714E-01  0.43224029239E-01  0.51100000000E-03 0.  1.
</event>
<event>
 8    1  0.1204770E+005  0.1043930E+01  0.7957747E-01            NaN
         13   -1    0    0    0    0  0.00000000000E+00  0.00000000000E+00  0.74505805969E-08  0.10566000000E+00  0.10566000000E+00 0.  1.
     999900   -1    0    0    0    0 -0.00000000000E+00 -0.00000000000E+00 -0.74505805969E-08  0.93827000000E+00  0.93827000000E+00 0. -1.
     999902    2    1    2    0    0 -0.18780783418E-01 -0.98209981467E-02  0.10995272736E-01  0.10200539481E+01  0.10197744806E+01 0.  0.
     999903    2    3    3    0    0  0.94316591069E-01  0.78388578532E-01  0.31990820031E-01  0.12819478966E+00  0.19238059553E-01 0.  0.
         14    1    1    2    0    0  0.18780783418E-01  0.98209981467E-02 -0.10995272736E-01  0.23876051871E-01  0.00000000000E+00 0. -1.
     999901    1    3    3    0    0 -0.11309737449E+00 -0.88209576679E-01 -0.20995547295E-01  0.89185915847E+00  0.88000000000E+00 0.  1.
        -11    1    4    4    0    0  0.44574577406E-01  0.28757667678E-01  0.21080512093E-01  0.57083671153E-01  0.51100000000E-03 0. -1.
         11    1    4    4    0    0  0.49742013663E-01  0.49630910855E-01  0.10910307938E-01  0.71111118510E-01  0.51100000000E-03 0.  1.
</event>
<event>
 8    1  0.1204770E+005  0.1043930E+01  0.7957747E-01            NaN
         13   -1    0    0    0    0  0.00000000000E+00  0.00000000000E+00  0.74505805969E-08  0.10566000000E+00  0.10566000000E+00 0.  1.
     999900   -1    0    0    0    0 -0.00000000000E+00 -0.00000000000E+00 -0.74505805969E-08  0.93827000000E+00  0.93827000000E+00 0.  1.
     999902    2    1    2    0    0  0.51763610194E-02 -0.15252174536E-01  0.17297675475E-01  0.10202945792E+01  0.10200207817E+01 0.  0.
     999903    2    3    3    0    0  0.51795370409E-01  0.32363888067E-01  0.11581557159E+00  0.13229322932E+00  0.18922744373E-01 0.  0.
         14    1    1    2    0    0 -0.51763610194E-02  0.15252174536E-01 -0.17297675475E-01  0.23635420840E-01  0.00000000000E+00 0. -1.
     999901    1    3    3    0    0 -0.46619009390E-01 -0.47616062602E-01 -0.98517896119E-01  0.88800134984E+00  0.88000000000E+00 0.  1.
        -11    1    4    4    0    0  0.32776261570E-01  0.30334499676E-01  0.76919951043E-01  0.88946080197E-01  0.51100000000E-03 0.  1.
         11    1    4    4    0    0  0.19019108840E-01  0.20293883906E-02  0.38895620552E-01  0.43347149127E-01  0.51100000000E-03 0. -1.
</event>
<event>
 8    1  0.1204770E+005  0.1043930E+01  0.7957747E-01            NaN
         13   -1    0    0    0    0  0.00000000000E+00  0.00000000000E+00  0.74505805969E-08  0.10566000000E+00  0.10566000000E+00 0. -1.
     999900   -1    0    0    0    0 -0.00000000000E+00 -0.00000000000E+00 -0.74505805969E-08  0.93827000000E+00  0.93827000000E+00 0.  1.
     999902    2    1    2    0    0 -0.65986185924E-02  0.34481184434E-02  0.23224049199E-01  0.10195417293E+01  0.10192499939E+01 0.  0.
     999903    2    3    3    0    0  0.56501218476E-01  0.19787482444E-01 -0.11024964966E+00  0.12709352767E+00  0.20343238999E-01 0.  0.
         14    1    1    2    0    0  0.65986185924E-02 -0.34481184434E-02 -0.23224049199E-01  0.24388270733E-01  0.00000000000E+00 0.  1.
     999901    1    3    3    0    0 -0.63099837068E-01 -0.16339364000E-01  0.13347369886E+00  0.89244820160E+00  0.88000000000E+00 0. -1.
        -11    1    4    4    0    0  0.38492615202E-01  0.19006396126E-01 -0.60569255750E-01  0.74241635097E-01  0.51100000000E-03 0. -1.
         11    1    4    4    0    0  0.18008603274E-01  0.78108631741E-03 -0.49680393913E-01  0.52851892569E-01  0.51100000000E-03 0.  1.
</event>
<event>
 8    1  0.1204770E+005  0.1043930E+01  0.7957747E-01            NaN
         13   -1    0    0    0    0  0.00000000000E+00  0.00000000000E+00  0.74505805969E-08  0.10566000000E+00  0.10566000000E+00 0.  1.
     999900   -1    0    0    0    0 -0.00000000000E+00 -0.00000000000E+00 -0.74505805969E-08  0.93827000000E+00  0.93827000000E+00 0.  1.
     999902    2    1    2    0    0 -0.19168158054E-01 -0.81911659859E-02 -0.12368683400E-01  0.10196916458E+01  0.10194035289E+01 0.  0.
     999903    2    3    3    0    0  0.45967320125E-01  0.11657467743E+00 -0.20321372011E-01  0.12847203684E+00  0.19734643447E-01 0.  0.
         14    1    1    2    0    0  0.19168158054E-01  0.81911659859E-02  0.12368683400E-01  0.24238354161E-01  0.00000000000E+00 0.  1.
     999901    1    3    3    0    0 -0.65135478180E-01 -0.12476584342E+00  0.79526886112E-02  0.89121960900E+00  0.88000000000E+00 0.  1.
        -11    1    4    4    0    0  0.28138134803E-02  0.29161323781E-01 -0.64642108746E-02  0.30005791011E-01  0.51100000000E-03 0.  1.
         11    1    4    4    0    0  0.43153506645E-01  0.87413353653E-01 -0.13857161137E-01  0.98466245833E-01  0.51100000000E-03 0. -1.
</event>
<event>
 8    1  0.1204770E+005  0.1043930E+01  0.7957747E-01            NaN
         13   -1    0    0    0    0  0.00000000000E+00  0.00000000000E+00  0.74505805969E-08  0.10566000000E+00  0.10566000000E+00 0.  1.
     999900   -1    0    0    0    0 -0.00000000000E+00 -0.00000000000E+00 -0.74505805969E-08  0.93827000000E+00  0.93827000000E+00 0.  1.
     999902    2    1    2    0    0  0.14559512791E-02  0.15357832601E-01  0.18253073506E-01  0.10200310982E+01  0.10197510891E+01 0.  0.
     999903    2    3    3    0    0  0.65724805138E-01 -0.10881481089E+00  0.59494761643E-02  0.12890781294E+00  0.20528392287E-01 0.  0.
         14    1    1    2    0    0 -0.14559512791E-02 -0.15357832601E-01 -0.18253073506E-01  0.23898901832E-01  0.00000000000E+00 0. -1.
     999901    1    3    3    0    0 -0.64268853859E-01  0.12417264350E+00  0.12303597342E-01  0.89112328523E+00  0.88000000000E+00 0. -1.
        -11    1    4    4    0    0  0.33522038790E-01 -0.38993608049E-01 -0.29151298316E-02  0.51507161213E-01  0.51100000000E-03 0.  1.
         11    1    4    4    0    0  0.32202766348E-01 -0.69821202845E-01  0.88646059959E-02  0.77400651727E-01  0.51100000000E-03 0. -1.
</event>
<event>
 8    1  0.1204770E+005  0.1043930E+01  0.7957747E-01            NaN
         13   -1    0    0    0    0  0.00000000000E+00  0.00000000000E+00  0.74505805969E-08  0.10566000000E+00  0.10566000000E+00 0. -1.
     999900   -1    0    0    0    0 -0.00000000000E+00 -0.00000000000E+00 -0.74505805969E-08  0.93827000000E+00  0.93827000000E+00 0. -1.
     999902    2    1    2    0    0 -0.15404529714E-01 -0.67811638609E-02 -0.15780874520E-01  0.10208579450E+01  0.10205971900E+01 0.  0.
     999903    2    3    3    0    0  0.36534282808E-02 -0.21038050081E-01  0.12609960624E+00  0.12917608733E+00  0.18149483557E-01 0.  0.
         14    1    1    2    0    0  0.15404529714E-01  0.67811638609E-02  0.15780874520E-01  0.23072054951E-01  0.00000000000E+00 0. -1.
     999901    1    3    3    0    0 -0.19057957995E-01  0.14256886220E-01 -0.14188048076E+00  0.89168185772E+00  0.88000000000E+00 0. -1.
        -11    1    4    4    0    0 -0.67426629169E-02 -0.13699146892E-01  0.66945815499E-01  0.68666829420E-01  0.51100000000E-03 0. -1.
         11    1    4    4    0    0  0.10396091198E-01 -0.73389031885E-02  0.59153790744E-01  0.60509257908E-01  0.51100000000E-03 0.  1.
</event>
<event>
 8    1  0.1204770E+005  0.1043930E+01  0.7957747E-01            NaN
         13   -1    0    0    0    0  0.00000000000E+00  0.00000000000E+00  0.74505805969E-08  0.10566000000E+00  0.10566000000E+00 0.  1.
     999900   -1    0    0    0    0 -0.00000000000E+00 -0.00000000000E+00 -0.74505805969E-08  0.93827000000E+00  0.93827000000E+00 0.  1.
     999902    2    1    2    0    0 -0.20893510021E-02  0.24623493577E-01 -0.55005366251E-02  0.10186132521E+01  0.10182985906E+01 0.  0.
     999903    2    3    3    0    0  0.27645657643E-01 -0.11190907364E+00 -0.47710741043E-01  0.12658914139E+00  0.21460958882E-01 0.  0.
         14    1    1    2    0    0  0.20893510021E-02 -0.24623493577E-01  0.55005366251E-02  0.25316747949E-01  0.00000000000E+00 0.  1.
     999901    1    3    3    0    0 -0.29735008645E-01  0.13653256722E+00  0.42210204418E-01  0.89202411066E+00  0.88000000000E+00 0.  1.
        -11    1    4    4    0    0  0.15866820190E-01 -0.87090846194E-01 -0.28268145263E-01  0.92929654208E-01  0.51100000000E-03 0. -1.
         11    1    4    4    0    0  0.11778837453E-01 -0.24818227448E-01 -0.19442595780E-01  0.33659487178E-01  0.51100000000E-03 0.  1.
</event>
<event>
 8    1  0.1204770E+005  0.1043930E+01  0.7957747E-01            NaN
         13   -1    0    0    0    0  0.00000000000E+00  0.00000000000E+00  0.74505805969E-08  0.10566000000E+00  0.10566000000E+00 0. -1.
     999900   -1    0    0    0    0 -0.00000000000E+00 -0.00000000000E+00 -0.74505805969E-08  0.93827000000E+00  0.93827000000E+00 0.  1.
     999902    2    1    2    0    0  0.42666282353E-02 -0.24393534740E-02  0.23693519306E-01  0.10197321195E+01  0.10194449756E+01 0.  0.
     999903    2    3    3    0    0 -0.57782110918E-01  0.75039512702E-01 -0.83310181617E-01  0.12771036378E+00  0.19991244251E-01 0.  0.
         14    1    1    2    0    0 -0.42666282353E-02  0.24393534740E-02 -0.23693519306E-01  0.24197880464E-01  0.00000000000E+00 0.  1.
     999901    1    3    3    0    0  0.62048739153E-01 -0.77478866176E-01  0.10700370092E+00  0.89202175576E+00  0.88000000000E+00 0. -1.
        -11    1    4    4    0    0 -0.33818238850E-01  0.30548195061E-01 -0.31974099946E-01  0.55672881089E-01  0.51100000000E-03 0.  1.
         11    1    4    4    0    0 -0.23963872068E-01  0.44491317641E-01 -0.51336081670E-01  0.72037482689E-01  0.51100000000E-03 0. -1.
</event>
<event>
 8    1  0.1204770E+005  0.1043930E+01  0.7957747E-01            NaN
         13   -1    0    0    0    0  0.00000000000E+00  0.00000000000E+00  0.74505805969E-08  0.10566000000E+00  0.10566000000E+00 0.  1.
     999900   -1    0    0    0    0 -0.00000000000E+00 -0.00000000000E+00 -0.74505805969E-08  0.93827000000E+00  0.93827000000E+00 0.  1.
     999902    2    1    2    0    0  0.23836757065E-01  0.13152750123E-02  0.13342269596E-02  0.10200197282E+01  0.10197394495E+01 0.  0.
     999903    2    3    3    0    0 -0.32843072840E-01 -0.12324593985E+00  0.68273231398E-02  0.12942539099E+00  0.20882776838E-01 0.  0.
         14    1    1    2    0    0 -0.23836757065E-01 -0.13152750123E-02 -0.13342269596E-02  0.23910271795E-01  0.00000000000E+00 0.  1.
     999901    1    3    3    0    0  0.56679829905E-01  0.12456121487E+00 -0.54930961802E-02  0.89059433721E+00  0.88000000000E+00 0.  1.
        -11    1    4    4    0    0 -0.16742580714E-01 -0.92479025707E-01 -0.24357121328E-03  0.93984065951E-01  0.51100000000E-03 0.  1.
         11    1    4    4    0    0 -0.16100492126E-01 -0.30766914147E-01  0.70708943531E-02  0.35441325043E-01  0.51100000000E-03 0. -1.
</event>
<event>
 7    1  0.1204770E+005  0.1043930E+01  0.7957747E-01            NaN
         13   -1    0    0    0    0  0.00000000000E+00  0.00000000000E+00  0.74505805969E-08  0.10566000000E+00  0.10566000000E+00 0. -1.
     999900   -1    0    0    0    0 -0.00000000000E+00 -0.00000000000E+00 -0.74505805969E-08  0.93827000000E+00  0.93827000000E+00 0. -1.
     999902    2    1    2    0    0  0.22286159163E-01  0.14505194973E-02 -0.95992840595E-02  0.10196210891E+01  0.10193312720E+01 0.  0.
         14    1    1    2    0    0 -0.22286159163E-01 -0.14505194973E-02  0.95992840595E-02  0.24308910948E-01  0.00000000000E+00 0.  1.
     999901    1    3    3    0    0  0.13516717187E+00  0.46150081527E-01 -0.17427679622E-01  0.89168588550E+00  0.88000000000E+00 0. -1.
        -11    1    3    3    0    0 -0.52818673593E-01 -0.17737334585E-01 -0.15912076981E-01  0.57947222826E-01  0.51100000000E-03 0. -1.
         11    1    3    3    0    0 -0.60062339117E-01 -0.26962227445E-01  0.23740472544E-01  0.69987980729E-01  0.51100000000E-03 0.  1.
</event>
<event>
 8    1  0.1204770E+005  0.1043930E+01  0.7957747E-01            NaN
         13   -1    0    0    0    0  0.00000000000E+00  0.00000000000E+00  0.74505805969E-08  0.10566000000E+00  0.10566000000E+00 0. -1.
     999900   -1    0    0    0    0 -0.00000000000E+00 -0.00000000000E+00 -0.74505805969E-08  0.93827000000E+00  0.93827000000E+00 0.  1.
     999902    2    1    2    0    0 -0.15918368160E-01 -0.14494474221E-01  0.86472743726E-02  0.10207295780E+01  0.10204658798E+01 0.  0.
     999903    2    3    3    0    0  0.16112332568E-01  0.12622988775E+00  0.35334209658E-02  0.12895860775E+00  0.20597223781E-01 0.  0.
         14    1    1    2    0    0  0.15918368160E-01  0.14494474221E-01 -0.86472743726E-02  0.23200422020E-01  0.00000000000E+00 0.  1.
     999901    1    3    3    0    0 -0.32030700728E-01 -0.14072436197E+00  0.51138534069E-02  0.89177097023E+00  0.88000000000E+00 0.  1.
        -11    1    4    4    0    0  0.70944721523E-02  0.10583582404E+00 -0.15332753805E-02  0.10608565049E+00  0.51100000000E-03 0.  1.
         11    1    4    4    0    0  0.90178604160E-02  0.20394063711E-01  0.50666963462E-02  0.22872957264E-01  0.51100000000E-03 0. -1.
</event>
<event>
 8    1  0.1204770E+005  0.1043930E+01  0.7957747E-01            NaN
         13   -1    0    0    0    0  0.00000000000E+00  0.00000000000E+00  0.74505805969E-08  0.10566000000E+00  0.10566000000E+00 0. -1.
     999900   -1    0    0    0    0 -0.00000000000E+00 -0.00000000000E+00 -0.74505805969E-08  0.93827000000E+00  0.93827000000E+00 0. -1.
     999902    2    1    2    0    0 -0.98390062552E-02  0.51274134609E-02  0.21163494609E-01  0.10200346047E+01  0.10197546788E+01 0.  0.
     999903    2    3    3    0    0  0.11395012512E+00  0.14891296160E-01  0.58639020306E-01  0.13052715814E+00  0.19809659102E-01 0.  0.
         14    1    1    2    0    0  0.98390062552E-02 -0.51274134609E-02 -0.21163494609E-01  0.23895395308E-01  0.00000000000E+00 0.  1.
     999901    1    3    3    0    0 -0.12378913137E+00 -0.97638826986E-02 -0.37475525697E-01  0.88950744656E+00  0.88000000000E+00 0. -1.
        -11    1    4    4    0    0  0.43351739845E-01 -0.15804305614E-02  0.14966098954E-01  0.45892443247E-01  0.51100000000E-03 0. -1.
         11    1    4    4    0    0  0.70598385270E-01  0.16471726721E-01  0.43672921352E-01  0.84634714889E-01  0.51100000000E-03 0.  1.
</event>
<event>
 8    1  0.1204770E+005  0.1043930E+01  0.7957747E-01            NaN
         13   -1    0    0    0    0  0.00000000000E+00  0.00000000000E+00  0.74505805969E-08  0.10566000000E+00  0.10566000000E+00 0. -1.
     999900   -1    0    0    0    0 -0.00000000000E+00 -0.00000000000E+00 -0.74505805969E-08  0.93827000000E+00  0.93827000000E+00 0. -1.
     999902    2    1    2    0    0 -0.61145201495E-02  0.39965905538E-02  0.22796968406E-01  0.10199912895E+01  0.10197103357E+01 0.  0.
     999903    2    3    3    0    0  0.91203138082E-01 -0.94248617625E-02 -0.86643184573E-01  0.12778727186E+00  0.20388844994E-01 0.  0.
         14    1    1    2    0    0  0.61145201495E-02 -0.39965905538E-02 -0.22796968406E-01  0.23938710517E-01  0.00000000000E+00 0.  1.
     999901    1    3    3    0    0 -0.97317658232E-01  0.13421452316E-01  0.10944015298E+00  0.89220401763E+00  0.88000000000E+00 0.  1.
        -11    1    4    4    0    0  0.72146135805E-01 -0.78892539973E-02 -0.56023681150E-01  0.91685436198E-01  0.51100000000E-03 0. -1.
         11    1    4    4    0    0  0.19057002277E-01 -0.15356077651E-02 -0.30619503423E-01  0.36101835658E-01  0.51100000000E-03 0.  1.
</event>
<event>
 8    1  0.1204770E+005  0.1043930E+01  0.7957747E-01            NaN
         13   -1    0    0    0    0  0.00000000000E+00  0.00000000000E+00  0.74505805969E-08  0.10566000000E+00  0.10566000000E+00 0.  1.
     999900   -1    0    0    0    0 -0.00000000000E+00 -0.00000000000E+00 -0.74505805969E-08  0.93827000000E+00  0.93827000000E+00 0. -1.
     999902    2    1    2    0    0 -0.12586259695E-01 -0.16770489521E-01 -0.12152245787E-01  0.10196948947E+01  0.10194068559E+01 0.  0.
     999903    2    3    3    0    0 -0.51051934412E-01 -0.11787132301E+00 -0.25756522909E-01  0.13296716702E+00  0.22735879967E-01 0.  0.
         14    1    1    2    0    0  0.12586259695E-01  0.16770489521E-01  0.12152245787E-01  0.24235105313E-01  0.00000000000E+00 0. -1.
     999901    1    3    3    0    0  0.38465674717E-01  0.10110083348E+00  0.13604277122E-01  0.88672772767E+00  0.88000000000E+00 0.  1.
        -11    1    4    4    0    0 -0.43368618142E-01 -0.80387139547E-01 -0.11200158250E-01  0.92025180847E-01  0.51100000000E-03 0.  1.
         11    1    4    4    0    0 -0.76833162701E-02 -0.37484183458E-01 -0.14556364659E-01  0.40941986170E-01  0.51100000000E-03 0. -1.
</event>
<event>
 8    1  0.1204770E+005  0.1043930E+01  0.7957747E-01            NaN
         13   -1    0    0    0    0  0.00000000000E+00  0.00000000000E+00  0.74505805969E-08  0.10566000000E+00  0.10566000000E+00 0.  1.
     999900   -1    0    0    0    0 -0.00000000000E+00 -0.00000000000E+00 -0.74505805969E-08  0.93827000000E+00  0.93827000000E+00 0. -1.
     999902    2    1    2    0    0  0.17856843510E-01  0.14070754577E-01 -0.74073841936E-02  0.10200192841E+01  0.10197389948E+01 0.  0.
     999903    2    3    3    0    0  0.73903755636E-01  0.10383500334E+00 -0.33005352412E-01  0.13330956119E+00  0.20943084791E-01 0.  0.
         14    1    1    2    0    0 -0.17856843510E-01 -0.14070754577E-01  0.74073841936E-02  0.23910715905E-01  0.00000000000E+00 0. -1.
     999901    1    3    3    0    0 -0.56046912127E-01 -0.89764248767E-01  0.25597968218E-01  0.88670972290E+00  0.88000000000E+00 0. -1.
        -11    1    4    4    0    0  0.12570643095E-01  0.33605843197E-01 -0.78236226955E-02  0.36726611032E-01  0.51100000000E-03 0.  1.
         11    1    4    4    0    0  0.61333112541E-01  0.70229160146E-01 -0.25181729716E-01  0.96582950159E-01  0.51100000000E-03 0. -1.
</event>
<event>
 8    1  0.1204770E+005  0.1043930E+01  0.7957747E-01            NaN
         13   -1    0    0    0    0  0.00000000000E+00  0.00000000000E+00  0.74505805969E-08  0.10566000000E+00  0.10566000000E+00 0. -1.
     999900   -1    0    0    0    0 -0.00000000000E+00 -0.00000000000E+00 -0.74505805969E-08  0.93827000000E+00  0.93827000000E+00 0. -1.
     999902    2    1    2    0    0  0.16780784106E-01  0.96076091928E-02 -0.14080933335E-01  0.10200098505E+01  0.10197293374E+01 0.  0.
     999903    2    3    3    0    0  0.14806473898E-01  0.37574625969E-01 -0.12474020404E+00  0.13263646451E+00  0.20030702126E-01 0.  0.
         14    1    1    2    0    0 -0.16780784106E-01 -0.96076091928E-02  0.14080933335E-01  0.23920149523E-01  0.00000000000E+00 0. -1.
     999901    1    3    3    0    0  0.19743102086E-02 -0.27967016776E-01  0.11065927071E+00  0.88737338597E+00  0.88000000000E+00 0.  1.
        -11    1    4    4    0    0  0.76522742746E-02  0.31276690773E-01 -0.11303516797E+00  0.11753296987E+00  0.51100000000E-03 0.  1.
         11    1    4    4    0    0  0.71541996229E-02  0.62979351958E-02 -0.11705036075E-01  0.15103494645E-01  0.51100000000E-03 0. -1.
</event>
<event>
 7    1  0.1204770E+005  0.1043930E+01  0.7957747E-01            NaN
         13   -1    0    0    0    0  0.00000000000E+00  0.00000000000E+00  0.74505805969E-08  0.10566000000E+00  0.10566000000E+00 0.  1.
     999900   -1    0    0    0    0 -0.00000000000E+00 -0.00000000000E+00 -0.74505805969E-08  0.93827000000E+00  0.93827000000E+00 0. -1.
     999902    2    1    2    0    0 -0.15916792634E-01  0.64969328615E-02  0.16600755058E-01  0.10200314751E+01  0.10197514750E+01 0.  0.
         14    1    1    2    0    0  0.15916792634E-01 -0.64969328615E-02 -0.16600755058E-01  0.23898524910E-01  0.00000000000E+00 0. -1.
     999901    1    3    3    0    0 -0.11416538110E+00 -0.15796531143E-01 -0.65643480711E-01  0.88993950985E+00  0.88000000000E+00 0.  1.
        -11    1    3    3    0    0  0.57936293282E-01  0.12081741716E-01  0.49646856546E-01  0.77250592541E-01  0.51100000000E-03 0. -1.
         11    1    3    3    0    0  0.40312295184E-01  0.10211722289E-01  0.32597379224E-01  0.52841372696E-01  0.51100000000E-03 0.  1.
</event>
<event>
 8    1  0.1204770E+005  0.1043930E+01  0.7957747E-01            NaN
         13   -1    0    0    0    0  0.00000000000E+00  0.00000000000E+00  0.74505805969E-08  0.10566000000E+00  0.10566000000E+00 0. -1.
     999900   -1    0    0    0    0 -0.00000000000E+00 -0.00000000000E+00 -0.74505805969E-08  0.93827000000E+00  0.93827000000E+00 0. -1.
     999902    2    1    2    0    0 -0.11110972527E-01 -0.15355709137E-01  0.16496713618E-01  0.10188024638E+01  0.10184925465E+01 0.  0.
     999903    2    3    3    0    0 -0.39833560832E-01  0.56248983248E-01 -0.10469067946E+00  0.12715309144E+00  0.21380121872E-01 0.  0.
         14    1    1    2    0    0  0.11110972527E-01  0.15355709137E-01 -0.16496713618E-01  0.25127536166E-01  0.00000000000E+00 0.  1.
     999901    1    3    3    0    0  0.28722588306E-01 -0.71604692385E-01  0.12118739308E+00  0.89164937239E+00  0.88000000000E+00 0.  1.
        -11    1    4    4    0    0 -0.39990541631E-01  0.55823271758E-01 -0.93849833418E-01  0.11629072811E+00  0.51100000000E-03 0.  1.
         11    1    4    4    0    0  0.15698079873E-03  0.42571149049E-03 -0.10840846044E-01  0.10862363334E-01  0.51100000000E-03 0. -1.
</event>
<event>
 8    1  0.1204770E+005  0.1043930E+01  0.7957747E-01            NaN
         13   -1    0    0    0    0  0.00000000000E+00  0.00000000000E+00  0.74505805969E-08  0.10566000000E+00  0.10566000000E+00 0.  1.
     999900   -1    0    0    0    0 -0.00000000000E+00 -0.00000000000E+00 -0.74505805969E-08  0.93827000000E+00  0.93827000000E+00 0.  1.
     999902    2    1    2    0    0 -0.22910009219E-01  0.33762205437E-02  0.32864255753E-02  0.10205405156E+01  0.10202724518E+01 0.  0.
     999903    2    3    3    0    0  0.10499802180E+00 -0.62746569729E-02  0.71241808162E-01  0.12864840449E+00  0.20274635502E-01 0.  0.
         14    1    1    2    0    0  0.22910009219E-01 -0.33762205437E-02 -0.32864255753E-02  0.23389484403E-01  0.00000000000E+00 0.  1.
     999901    1    3    3    0    0 -0.12790803102E+00  0.96508775166E-02 -0.67955382586E-01  0.89189211111E+00  0.88000000000E+00 0.  1.
        -11    1    4    4    0    0  0.80976215452E-01  0.10120559910E-03  0.45597719021E-01  0.92933152386E-01  0.51100000000E-03 0. -1.
         11    1    4    4    0    0  0.24021806349E-01 -0.63758625720E-02  0.25644089141E-01  0.35715252101E-01  0.51100000000E-03 0.  1.
</event>
<event>
 8    1  0.1204770E+005  0.1043930E+01  0.7957747E-01            NaN
         13   -1    0    0    0    0  0.00000000000E+00  0.00000000000E+00  0.74505805969E-08  0.10566000000E+00  0.10566000000E+00 0.  1.
     999900   -1    0    0    0    0 -0.00000000000E+00 -0.00000000000E+00 -0.74505805969E-08  0.93827000000E+00  0.93827000000E+00 0. -1.
     999902    2    1    2    0    0 -0.23436065632E-01 -0.11617480218E-02 -0.20155188565E-03  0.10204642920E+01  0.10201944578E+01 0.  0.
     999903    2    3    3    0    0 -0.16030525400E-01 -0.31723470400E-01  0.12450066578E+00  0.13111649498E+00  0.20682435985E-01 0.  0.
         14    1    1    2    0    0  0.23436065632E-01  0.11617480218E-02  0.20155188565E-03  0.23465708042E-01  0.00000000000E+00 0. -1.
     999901    1    3    3    0    0 -0.74055402323E-02  0.30561722378E-01 -0.12470221766E+00  0.88934779698E+00  0.88000000000E+00 0. -1.
        -11    1    4    4    0    0 -0.68498824202E-02 -0.19397262147E-01  0.10069370121E+00  0.10277478900E+00  0.51100000000E-03 0.  1.
         11    1    4    4    0    0 -0.91806429794E-02 -0.12326208253E-01  0.23806964562E-01  0.28341705983E-01  0.51100000000E-03 0. -1.
</event>
<event>
 8    1  0.1204770E+005  0.1043930E+01  0.7957747E-01            NaN
         13   -1    0    0    0    0  0.00000000000E+00  0.00000000000E+00  0.74505805969E-08  0.10566000000E+00  0.10566000000E+00 0.  1.
     999900   -1    0    0    0    0 -0.00000000000E+00 -0.00000000000E+00 -0.74505805969E-08  0.93827000000E+00  0.93827000000E+00 0.  1.
     999902    2    1    2    0    0  0.10721284074E-01  0.18776615726E-01 -0.88240607830E-02  0.10205768144E+01  0.10203095916E+01 0.  0.
     999903    2    3    3    0    0 -0.69909984553E-01  0.81579226986E-01  0.72139353909E-01  0.13096979777E+00  0.20159993313E-01 0.  0.
         14    1    1    2    0    0 -0.10721284074E-01 -0.18776615726E-01  0.88240607830E-02  0.23353185629E-01  0.00000000000E+00 0.  1.
     999901    1    3    3    0    0  0.80631268627E-01 -0.62802611261E-01 -0.80963414692E-01  0.88960701660E+00  0.88000000000E+00 0.  1.
        -11    1    4    4    0    0 -0.20366951433E-01  0.31023610202E-01  0.15127031764E-01  0.40079487417E-01  0.51100000000E-03 0.  1.
         11    1    4    4    0    0 -0.49543033121E-01  0.50555616785E-01  0.57012322146E-01  0.90890310357E-01  0.51100000000E-03 0. -1.
</event>
<event>
 8    1  0.1204770E+005  0.1043930E+01  0.7957747E-01            NaN
         13   -1    0    0    0    0  0.00000000000E+00  0.00000000000E+00  0.74505805969E-08  0.10566000000E+00  0.10566000000E+00 0.  1.
     999900   -1    0    0    0    0 -0.00000000000E+00 -0.00000000000E+00 -0.74505805969E-08  0.93827000000E+00  0.93827000000E+00 0.  1.
     999902    2    1    2    0    0  0.16622590340E-01 -0.13524165434E-01  0.10608914104E-01  0.10200184417E+01  0.10197381325E+01 0.  0.
     999903    2    3    3    0    0  0.78735026782E-01  0.83636437347E-01  0.60248700320E-01  0.13110773425E+00  0.19106909656E-01 0.  0.
         14    1    1    2    0    0 -0.16622590340E-01  0.13524165434E-01 -0.10608914104E-01  0.23911558267E-01  0.00000000000E+00 0. -1.
     999901    1    3    3    0    0 -0.62112436442E-01 -0.97160602782E-01 -0.49639786216E-01  0.88891070748E+00  0.88000000000E+00 0. -1.
        -11    1    4    4    0    0  0.92070249560E-02  0.70282993086E-02  0.42935285394E-03  0.11602231018E-01  0.51100000000E-03 0. -1.
         11    1    4    4    0    0  0.69528001826E-01  0.76608138039E-01  0.59819347466E-01  0.11950550324E+00  0.51100000000E-03 0.  1.
</event>
<event>
 8    1  0.1204770E+005  0.1043930E+01  0.7957747E-01            NaN
         13   -1    0    0    0    0  0.00000000000E+00  0.00000000000E+00  0.74505805969E-08  0.10566000000E+00  0.10566000000E+00 0.  1.
     999900   -1    0    0    0    0 -0.00000000000E+00 -0.00000000000E+00 -0.74505805969E-08  0.93827000000E+00  0.93827000000E+00 0.  1.
     999902    2    1    2    0    0 -0.17688188711E-02 -0.10122905019E-01  0.20892332437E-01  0.10206471419E+01  0.10203815447E+01 0.  0.
     999903    2    3    3    0    0 -0.11167800675E+00 -0.22917384903E-01 -0.59431934921E-01  0.13008792646E+00  0.19837590582E-01 0.  0.
         14    1    1    2    0    0  0.17688188711E-02  0.10122905019E-01 -0.20892332437E-01  0.23282858091E-01  0.00000000000E+00 0. -1.
     999901    1    3    3    0    0  0.10990918788E+00  0.12794479884E-01  0.80324267358E-01  0.89055921545E+00  0.88000000000E+00 0. -1.
        -11    1    4    4    0    0 -0.62005691544E-01 -0.97051762336E-02 -0.22023057964E-01  0.66514452811E-01  0.51100000000E-03 0. -1.
         11    1    4    4    0    0 -0.49672315204E-01 -0.13212208669E-01 -0.37408876957E-01  0.63573473649E-01  0.51100000000E-03 0.  1.
</event>
<event>
 8    1  0.1204770E+005  0.1043930E+01  0.7957747E-01            NaN
         13   -1    0    0    0    0  0.00000000000E+00  0.00000000000E+00  0.74505805969E-08  0.10566000000E+00  0.10566000000E+00 0.  1.
     999900   -1    0    0    0    0 -0.00000000000E+00 -0.00000000000E+00 -0.74505805969E-08  0.93827000000E+00  0.93827000000E+00 0. -1.
     999902    2    1    2    0    0 -0.78162507767E-02 -0.15978661975E-01 -0.15566949442E-01  0.10202922901E+01  0.10200184390E+01 0.  0.
     999903    2    3    3    0    0 -0.11469114596E+00  0.56555724447E-01  0.17660937317E-01  0.13024309320E+00  0.17284261294E-01 0.  0.
         14    1    1    2    0    0  0.78162507767E-02  0.15978661975E-01  0.15566949442E-01  0.23637709907E-01  0.00000000000E+00 0.  1.
     999901    1    3    3    0    0  0.10687489519E+00 -0.72534386422E-01 -0.33227886758E-01  0.89004919690E+00  0.88000000000E+00 0.  1.
        -11    1    4    4    0    0 -0.10438940942E+00  0.52089047873E-01  0.11011094411E-01  0.11718328818E+00  0.51100000000E-03 0. -1.
         11    1    4    4    0    0 -0.10301736544E-01  0.44666765735E-02  0.66498429061E-02  0.13059805018E-01  0.51100000000E-03 0.  1.
</event>
<event>
 8    1  0.1204770E+005  0.1043930E+01  0.7957747E-01            NaN
         13   -1    0    0    0    0  0.00000000000E+00  0.00000000000E+00  0.74505805969E-08  0.10566000000E+00  0.10566000000E+00 0. -1.
     999900   -1    0    0    0    0 -0.00000000000E+00 -0.00000000000E+00 -0.74505805969E-08  0.93827000000E+00  0.93827000000E+00 0.  1.
     999902    2    1    2    0    0 -0.98600827714E-02  0.10809719800E-01  0.18989937687E-01  0.10199573279E+01  0.10196755669E+01 0.  0.
     999903    2    3    3    0    0 -0.11757890177E+00  0.94673809668E-02 -0.51696728131E-01  0.13057453598E+00  0.21511120420E-01 0.  0.
         14    1    1    2    0    0  0.98600827714E-02 -0.10809719800E-01 -0.18989937687E-01  0.23972672103E-01  0.00000000000E+00 0. -1.
     999901    1    3    3    0    0  0.10771881900E+00  0.13423388328E-02  0.70686665817E-01  0.88938279192E+00  0.88000000000E+00 0. -1.
        -11    1    4    4    0    0 -0.38463048613E-01  0.78469387716E-02 -0.27107918686E-01  0.47708289984E-01  0.51100000000E-03 0.  1.
         11    1    4    4    0    0 -0.79115853159E-01  0.16204421952E-02 -0.24588809445E-01  0.82866245993E-01  0.51100000000E-03 0. -1.
</event>
<event>
 8    1  0.1204770E+005  0.1043930E+01  0.7957747E-01            NaN
         13   -1    0    0    0    0  0.00000000000E+00  0.00000000000E+00  0.74505805969E-08  0.10566000000E+00  0.10566000000E+00 0.  1.
     999900   -1    0    0    0    0 -0.00000000000E+00 -0.00000000000E+00 -0.74505805969E-08  0.93827000000E+00  0.93827000000E+00 0.  1.
     999902    2    1    2    0    0 -0.10212459788E-01 -0.19598825141E-01 -0.69988122653E-02  0.10207482905E+01  0.10204850224E+01 0.  0.
     999903    2    3    3    0    0 -0.62364317182E-01  0.10870188108E+00 -0.25835872805E-01  0.12971758268E+00  0.21301453602E-01 0.  0.
         14    1    1    2    0    0  0.10212459788E-01  0.19598825141E-01  0.69988122653E-02  0.23181709492E-01  0.00000000000E+00 0.  1.
     999901    1    3    3    0    0  0.52151857394E-01 -0.12830070622E+00  0.18837060539E-01  0.89103070783E+00  0.88000000000E+00 0. -1.
        -11    1    4    4    0    0 -0.43723210856E-01  0.63284196008E-01 -0.74116954202E-02  0.77277441611E-01  0.51100000000E-03 0.  1.
         11    1    4    4    0    0 -0.18641106326E-01  0.45417685067E-01 -0.18424177384E-01  0.52440141068E-01  0.51100000000E-03 0. -1.
</event>
<event>
 8    1  0.1204770E+005  0.1043930E+01  0.7957747E-01            NaN
         13   -1    0    0    0    0  0.00000000000E+00  0.00000000000E+00  0.74505805969E-08  0.10566000000E+00  0.10566000000E+00 0.  1.
     999900   -1    0    0    0    0 -0.00000000000E+00 -0.00000000000E+00 -0.74505805969E-08  0.93827000000E+00  0.93827000000E+00 0.  1.
     999902    2    1    2    0    0 -0.52502214490E-02  0.19103664845E-01  0.13159072380E-01  0.10201460554E+01  0.10198687652E+01 0.  0.
     999903    2    3    3    0    0 -0.28868740463E-01  0.12632561292E+00 -0.20696512855E-01  0.13267741862E+00  0.19580273473E-01 0.  0.
         14    1    1    2    0    0  0.52502214490E-02 -0.19103664845E-01 -0.13159072380E-01  0.23783944620E-01  0.00000000000E+00 0.  1.
     999901    1    3    3    0    0  0.23618519014E-01 -0.10722194808E+00  0.33855585234E-01  0.88746863677E+00  0.88000000000E+00 0.  1.
        -11    1    4    4    0    0 -0.12082854447E-02  0.46388599243E-01 -0.54605686098E-02  0.46727304908E-01  0.51100000000E-03 0.  1.
         11    1    4    4    0    0 -0.27660455019E-01  0.79937013682E-01 -0.15235944245E-01  0.85950113707E-01  0.51100000000E-03 0. -1.
</event>
<event>
 8    1  0.1492765E+005  0.1043930E+01  0.7957747E-01            NaN
         13   -1    0    0    0    0  0.00000000000E+00  0.00000000000E+00  0.74505805969E-08  0.10566000000E+00  0.10566000000E+00 0. -1.
     999900   -1    0    0    0    0 -0.00000000000E+00 -0.00000000000E+00 -0.74505805969E-08  0.93827000000E+00  0.93827000000E+00 0.  1.
     999902    2    1    2    0    0  0.95244791593E-02 -0.15143293910E-01 -0.16143948130E-01  0.10198330684E+01  0.10195483437E+01 0.  0.
     999903    2    3    3    0    0  0.64355955727E-01 -0.43908876379E-01 -0.10602101020E+00  0.13309080825E+00  0.20075611466E-01 0.  0.
         14    1    1    2    0    0 -0.95244791593E-02  0.15143293910E-01  0.16143948130E-01  0.24096931649E-01  0.00000000000E+00 0. -1.
     999901    1    3    3    0    0 -0.54831476568E-01  0.28765582470E-01  0.89877062067E-01  0.88674226010E+00  0.88000000000E+00 0. -1.
        -11    1    4    4    0    0  0.11650164677E-01 -0.15241729165E-01 -0.36662895434E-01  0.41381948571E-01  0.51100000000E-03 0. -1.
         11    1    4    4    0    0  0.52705791050E-01 -0.28667147214E-01 -0.69358114763E-01  0.91708859682E-01  0.51100000000E-03 0.  1.
</event>
<event>
 8    1  0.1204770E+005  0.1043930E+01  0.7957747E-01            NaN
         13   -1    0    0    0    0  0.00000000000E+00  0.00000000000E+00  0.74505805969E-08  0.10566000000E+00  0.10566000000E+00 0. -1.
     999900   -1    0    0    0    0 -0.00000000000E+00 -0.00000000000E+00 -0.74505805969E-08  0.93827000000E+00  0.93827000000E+00 0. -1.
     999902    2    1    2    0    0  0.44670824435E-02  0.21585157382E-01 -0.97738999026E-02  0.10198177010E+01  0.10195326087E+01 0.  0.
     999903    2    3    3    0    0 -0.10170928307E+00 -0.59149836197E-01  0.46302668198E-01  0.12800149723E+00  0.19923976162E-01 0.  0.
         14    1    1    2    0    0 -0.44670824435E-02 -0.21585157382E-01  0.97738999026E-02  0.24112299021E-01  0.00000000000E+00 0. -1.
     999901    1    3    3    0    0  0.10617636551E+00  0.80734993579E-01 -0.56076568100E-01  0.89181620375E+00  0.88000000000E+00 0. -1.
        -11    1    4    4    0    0 -0.26096778004E-01 -0.96085861245E-02  0.36723442474E-02  0.28055551728E-01  0.51100000000E-03 0. -1.
         11    1    4    4    0    0 -0.75612505065E-01 -0.49541250073E-01  0.42630323950E-01  0.99945945501E-01  0.51100000000E-03 0.  1.
</event>
<event>
 8    1  0.1204770E+005  0.1043930E+01  0.7957747E-01            NaN
         13   -1    0    0    0    0  0.00000000000E+00  0.00000000000E+00  0.74505805969E-08  0.10566000000E+00  0.10566000000E+00 0.  1.
     999900   -1    0    0    0    0 -0.00000000000E+00 -0.00000000000E+00 -0.74505805969E-08  0.93827000000E+00  0.93827000000E+00 0.  1.
     999902    2    1    2    0    0 -0.57793290866E-02 -0.20981726177E-01 -0.92582792232E-02  0.10202794353E+01  0.10200052827E+01 0.  0.
     999903    2    3    3    0    0 -0.87620911632E-01  0.28787845889E-01  0.89018773758E-01  0.12964290217E+00  0.19410712929E-01 0.  0.
         14    1    1    2    0    0  0.57793290866E-02  0.20981726177E-01  0.92582792232E-02  0.23650564734E-01  0.00000000000E+00 0.  1.
     999901    1    3    3    0    0  0.81841582546E-01 -0.49769572066E-01 -0.98277052981E-01  0.89063653309E+00  0.88000000000E+00 0.  1.
        -11    1    4    4    0    0 -0.18305341327E-01  0.14750680534E-01  0.21382314650E-01  0.31782583251E-01  0.51100000000E-03 0.  1.
         11    1    4    4    0    0 -0.69315570306E-01  0.14037165355E-01  0.67636459108E-01  0.97860318923E-01  0.51100000000E-03 0. -1.
</event>
<event>
 7    1  0.1224564E+005  0.1043930E+01  0.7957747E-01            NaN
         13   -1    0    0    0    0  0.00000000000E+00  0.00000000000E+00  0.74505805969E-08  0.10566000000E+00  0.10566000000E+00 0.  1.
     999900   -1    0    0    0    0 -0.00000000000E+00 -0.00000000000E+00 -0.74505805969E-08  0.93827000000E+00  0.93827000000E+00 0. -1.
     999903    2    1    2    0    0 -0.61320880607E-01  0.24703144158E-01 -0.92672658163E-01  0.11573315978E+00  0.20867366205E-01 0.  0.
         14    1    1    2    0    0 -0.10458283701E-01  0.30709474551E-01  0.24992352194E-01  0.40951986440E-01  0.00000000000E+00 0.  1.
     999901    1    1    2    0    0  0.71779164308E-01 -0.55412618708E-01  0.67680305969E-01  0.88724485378E+00  0.88000000000E+00 0.  1.
        -11    1    3    3    0    0 -0.54185000082E-01  0.13856356621E-01 -0.69994540055E-01  0.89596370524E-01  0.51100000000E-03 0. -1.
         11    1    3    3    0    0 -0.71358805254E-02  0.10846787537E-01 -0.22678118108E-01  0.26136789257E-01  0.51100000000E-03 0.  1.
</event>
<event>
 8    1  0.1204770E+005  0.1043930E+01  0.7957747E-01            NaN
         13   -1    0    0    0    0  0.00000000000E+00  0.00000000000E+00  0.74505805969E-08  0.10566000000E+00  0.10566000000E+00 0. -1.
     999900   -1    0    0    0    0 -0.00000000000E+00 -0.00000000000E+00 -0.74505805969E-08  0.93827000000E+00  0.93827000000E+00 0.  1.
     999902    2    1    2    0    0 -0.20967543130E-01 -0.72862295286E-02  0.11822210579E-01  0.10187806130E+01  0.10184701496E+01 0.  0.
     999903    2    3    3    0    0  0.11653066930E+00 -0.29795991773E-01 -0.33494979339E-01  0.12666733791E+00  0.21342512487E-01 0.  0.
         14    1    1    2    0    0  0.20967543130E-01  0.72862295286E-02 -0.11822210579E-01  0.25149387043E-01  0.00000000000E+00 0.  1.
     999901    1    3    3    0    0 -0.13749821243E+00  0.22509762245E-01  0.45317189919E-01  0.89211327505E+00  0.88000000000E+00 0. -1.
        -11    1    4    4    0    0  0.69905711167E-01 -0.14230850229E-01 -0.95149179252E-02  0.71973052847E-01  0.51100000000E-03 0.  1.
         11    1    4    4    0    0  0.46624958130E-01 -0.15565141544E-01 -0.23980061414E-01  0.54694285061E-01  0.51100000000E-03 0. -1.
</event>
<event>
 8    1  0.1204770E+005  0.1043930E+01  0.7957747E-01            NaN
         13   -1    0    0    0    0  0.00000000000E+00  0.00000000000E+00  0.74505805969E-08  0.10566000000E+00  0.10566000000E+00 0.  1.
     999900   -1    0    0    0    0 -0.00000000000E+00 -0.00000000000E+00 -0.74505805969E-08  0.93827000000E+00  0.93827000000E+00 0. -1.
     999902    2    1    2    0    0  0.15878725316E-01  0.10412813736E-01  0.14600398322E-01  0.10199772916E+01  0.10196960053E+01 0.  0.
     999903    2    3    3    0    0  0.21681836902E-01  0.12489785044E+00  0.31930971223E-01  0.13237329856E+00  0.20821338865E-01 0.  0.
         14    1    1    2    0    0 -0.15878725316E-01 -0.10412813736E-01 -0.14600398322E-01  0.23952708380E-01  0.00000000000E+00 0. -1.
     999901    1    3    3    0    0 -0.58031115862E-02 -0.11448503671E+00 -0.17330572901E-01  0.88760399306E+00  0.88000000000E+00 0.  1.
        -11    1    4    4    0    0 -0.34120259815E-02  0.16294797458E-01  0.95380884891E-03  0.16683321546E-01  0.51100000000E-03 0. -1.
         11    1    4    4    0    0  0.25093862884E-01  0.10860305299E+00  0.30977162374E-01  0.11568997702E+00  0.51100000000E-03 0.  1.
</event>
<event>
 8    1  0.1204770E+005  0.1043930E+01  0.7957747E-01            NaN
         13   -1    0    0    0    0  0.00000000000E+00  0.00000000000E+00  0.74505805969E-08  0.10566000000E+00  0.10566000000E+00 0. -1.
     999900   -1    0    0    0    0 -0.00000000000E+00 -0.00000000000E+00 -0.74505805969E-08  0.93827000000E+00  0.93827000000E+00 0. -1.
     999902    2    1    2    0    0 -0.88863525506E-02 -0.10579009428E-01 -0.18391816536E-01  0.10209269216E+01  0.10206677410E+01 0.  0.
     999903    2    3    3    0    0  0.36966639435E-01  0.43352762796E-01  0.11330038311E+00  0.12831616184E+00  0.19546511245E-01 0.  0.
         14    1    1    2    0    0  0.88863525506E-02  0.10579009428E-01  0.18391816536E-01  0.23003078438E-01  0.00000000000E+00 0. -1.
     999901    1    3    3    0    0 -0.45852991986E-01 -0.53931772224E-01 -0.13169219965E+00  0.89261075973E+00  0.88000000000E+00 0. -1.
        -11    1    4    4    0    0 -0.11109137334E-02  0.78211150458E-02  0.11429934575E-01  0.13903542544E-01  0.51100000000E-03 0.  1.
         11    1    4    4    0    0  0.38077553168E-01  0.35531647751E-01  0.10187044854E+00  0.11441261929E+00  0.51100000000E-03 0. -1.
</event>
<event>
 8    1  0.1204770E+005  0.1043930E+01  0.7957747E-01            NaN
         13   -1    0    0    0    0  0.00000000000E+00  0.00000000000E+00  0.74505805969E-08  0.10566000000E+00  0.10566000000E+00 0.  1.
     999900   -1    0    0    0    0 -0.00000000000E+00 -0.00000000000E+00 -0.74505805969E-08  0.93827000000E+00  0.93827000000E+00 0. -1.
     999902    2    1    2    0    0 -0.21322789593E-01 -0.42714120969E-02  0.10185845284E-01  0.10199163005E+01  0.10196335628E+01 0.  0.
     999903    2    3    3    0    0 -0.13041766286E+00 -0.31191566807E-02  0.17424847281E-01  0.13314946410E+00  0.20165777061E-01 0.  0.
         14    1    1    2    0    0  0.21322789593E-01  0.42714120969E-02 -0.10185845284E-01  0.24013699454E-01  0.00000000000E+00 0.  1.
     999901    1    3    3    0    0  0.10909487326E+00 -0.11522554162E-02 -0.72390019968E-02  0.88676683644E+00  0.88000000000E+00 0.  1.
        -11    1    4    4    0    0 -0.18075873249E-01 -0.87333031974E-03  0.96499032890E-02  0.20515400411E-01  0.51100000000E-03 0. -1.
         11    1    4    4    0    0 -0.11234178961E+00 -0.22458263609E-02  0.77749439920E-02  0.11263406369E+00  0.51100000000E-03 0.  1.
</event>
<event>
 8    1  0.1204770E+005  0.1043930E+01  0.7957747E-01            NaN
         13   -1    0    0    0    0  0.00000000000E+00  0.00000000000E+00  0.74505805969E-08  0.10566000000E+00  0.10566000000E+00 0.  1.
     999900   -1    0    0    0    0 -0.00000000000E+00 -0.00000000000E+00 -0.74505805969E-08  0.93827000000E+00  0.93827000000E+00 0. -1.
     999902    2    1    2    0    0 -0.81346954712E-02  0.22859612424E-01 -0.46083482045E-02  0.10192323883E+01  0.10189331133E+01 0.  0.
     999903    2    3    3    0    0  0.84158928761E-01  0.79202624847E-01 -0.58418543919E-01  0.13098231918E+00  0.19694176597E-01 0.  0.
         14    1    1    2    0    0  0.81346954712E-02 -0.22859612424E-01  0.46083482045E-02  0.24697611701E-01  0.00000000000E+00 0.  1.
     999901    1    3    3    0    0 -0.92293624232E-01 -0.56343012423E-01  0.53810195715E-01  0.88825006912E+00  0.88000000000E+00 0.  1.
        -11    1    4    4    0    0  0.44688697009E-01  0.28619749683E-01 -0.26718336449E-01  0.59416330548E-01  0.51100000000E-03 0.  1.
         11    1    4    4    0    0  0.39470231753E-01  0.50582875164E-01 -0.31700207470E-01  0.71565988634E-01  0.51100000000E-03 0. -1.
</event>
<event>
 8    1  0.1204770E+005  0.1043930E+01  0.7957747E-01            NaN
         13   -1    0    0    0    0  0.00000000000E+00  0.00000000000E+00  0.74505805969E-08  0.10566000000E+00  0.10566000000E+00 0. -1.
     999900   -1    0    0    0    0 -0.00000000000E+00 -0.00000000000E+00 -0.74505805969E-08  0.93827000000E+00  0.93827000000E+00 0. -1.
     999902    2    1    2    0    0 -0.76036563221E-02 -0.22152939685E-01  0.36116124688E-02  0.10202316441E+01  0.10199563695E+01 0.  0.
     999903    2    3    3    0    0  0.90123557373E-01  0.70013967229E-01 -0.54553228763E-01  0.12813944274E+00  0.20480498462E-01 0.  0.
         14    1    1    2    0    0  0.76036563221E-02  0.22152939685E-01 -0.36116124688E-02  0.23698355867E-01  0.00000000000E+00 0. -1.
     999901    1    3    3    0    0 -0.97727213695E-01 -0.92166906914E-01  0.58164841231E-01  0.89209220139E+00  0.88000000000E+00 0. -1.
        -11    1    4    4    0    0  0.23424473060E-01  0.81340162416E-02 -0.14496796805E-01  0.28727798331E-01  0.51100000000E-03 0.  1.
         11    1    4    4    0    0  0.66699084313E-01  0.61879950987E-01 -0.40056431958E-01  0.99411644411E-01  0.51100000000E-03 0. -1.
</event>
<event>
 8    1  0.1204770E+005  0.1043930E+01  0.7957747E-01            NaN
         13   -1    0    0    0    0  0.00000000000E+00  0.00000000000E+00  0.74505805969E-08  0.10566000000E+00  0.10566000000E+00 0.  1.
     999900   -1    0    0    0    0 -0.00000000000E+00 -0.00000000000E+00 -0.74505805969E-08  0.93827000000E+00  0.93827000000E+00 0.  1.
     999902    2    1    2    0    0  0.33821593579E-02  0.12451011125E-01 -0.19634640957E-01  0.10204356218E+01  0.10201651202E+01 0.  0.
     999903    2    3    3    0    0  0.39819598790E-01  0.10696699707E+00 -0.66287391211E-01  0.13339704449E+00  0.19318756043E-01 0.  0.
         14    1    1    2    0    0 -0.33821593579E-02 -0.12451011125E-01  0.19634640957E-01  0.23494378167E-01  0.00000000000E+00 0.  1.
     999901    1    3    3    0    0 -0.36437439432E-01 -0.94515985943E-01  0.46652750254E-01  0.88703857734E+00  0.88000000000E+00 0. -1.
        -11    1    4    4    0    0  0.18820961458E-01  0.35982771901E-01 -0.32546205846E-01  0.52043300240E-01  0.51100000000E-03 0. -1.
         11    1    4    4    0    0  0.20998637332E-01  0.70984225167E-01 -0.33741185365E-01  0.81353744248E-01  0.51100000000E-03 0.  1.
</event>
<event>
 8    1  0.1204770E+005  0.1043930E+01  0.7957747E-01            NaN
         13   -1    0    0    0    0  0.00000000000E+00  0.00000000000E+00  0.74505805969E-08  0.10566000000E+00  0.10566000000E+00 0.  1.
     999900   -1    0    0    0    0 -0.00000000000E+00 -0.00000000000E+00 -0.74505805969E-08  0.93827000000E+00  0.93827000000E+00 0. -1.
     999902    2    1    2    0    0  0.14887072194E-02 -0.22613537172E-01 -0.60859646565E-02  0.10204645514E+01  0.10201947233E+01 0.  0.
     999903    2    3    3    0    0 -0.26546218925E-01  0.81200977654E-01 -0.95626945064E-01  0.12940843770E+00  0.17427868913E-01 0.  0.
         14    1    1    2    0    0 -0.14887072194E-02  0.22613537172E-01  0.60859646565E-02  0.23465448609E-01  0.00000000000E+00 0.  1.
     999901    1    3    3    0    0  0.28034926144E-01 -0.10381451483E+00  0.89540980408E-01  0.89105611369E+00  0.88000000000E+00 0.  1.
        -11    1    4    4    0    0 -0.80005502333E-02  0.21865728799E-01 -0.38404258902E-01  0.44913996959E-01  0.51100000000E-03 0. -1.
         11    1    4    4    0    0 -0.18545668691E-01  0.59335248854E-01 -0.57222686162E-01  0.84494440743E-01  0.51100000000E-03 0.  1.
</event>
<event>
 8    1  0.1204770E+005  0.1043930E+01  0.7957747E-01            NaN
         13   -1    0    0    0    0  0.00000000000E+00  0.00000000000E+00  0.74505805969E-08  0.10566000000E+00  0.10566000000E+00 0.  1.
     999900   -1    0    0    0    0 -0.00000000000E+00 -0.00000000000E+00 -0.74505805969E-08  0.93827000000E+00  0.93827000000E+00 0.  1.
     999902    2    1    2    0    0 -0.16467931264E-01 -0.12842936715E-01  0.11638798064E-01  0.10200219385E+01  0.10197417122E+01 0.  0.
     999903    2    3    3    0    0 -0.80855137774E-03  0.50265614993E-01 -0.11645522487E+00  0.12837403481E+00  0.19768348598E-01 0.  0.
         14    1    1    2    0    0  0.16467931264E-01  0.12842936715E-01 -0.11638798064E-01  0.23908061485E-01  0.00000000000E+00 0. -1.
     999901    1    3    3    0    0 -0.15659379886E-01 -0.63108551708E-01  0.12809402294E+00  0.89164790371E+00  0.88000000000E+00 0. -1.
        -11    1    4    4    0    0  0.35159179029E-03  0.30312253326E-01 -0.45656260487E-01  0.54806127040E-01  0.51100000000E-03 0.  1.
         11    1    4    4    0    0 -0.11601431680E-02  0.19953361667E-01 -0.70798964385E-01  0.73567907765E-01  0.51100000000E-03 0. -1.
</event>
<event>
 8    1  0.1204770E+005  0.1043930E+01  0.7957747E-01            NaN
         13   -1    0    0    0    0  0.00000000000E+00  0.00000000000E+00  0.74505805969E-08  0.10566000000E+00  0.10566000000E+00 0.  1.
     999900   -1    0    0    0    0 -0.00000000000E+00 -0.00000000000E+00 -0.74505805969E-08  0.93827000000E+00  0.93827000000E+00 0.  1.
     999902    2    1    2    0    0  0.63129144903E-03 -0.40552649076E-02 -0.23437404459E-01  0.10201359749E+01  0.10198584469E+01 0.  0.
     999903    2    3    3    0    0  0.85316405327E-01 -0.87430642890E-01 -0.45427875421E-01  0.13187553845E+00  0.20111177028E-01 0.  0.
         14    1    1    2    0    0 -0.63129144903E-03  0.40552649076E-02  0.23437404459E-01  0.23794025093E-01  0.00000000000E+00 0.  1.
     999901    1    3    3    0    0 -0.84685113878E-01  0.83375377983E-01  0.21990470962E-01  0.88826043646E+00  0.88000000000E+00 0.  1.
        -11    1    4    4    0    0  0.52861285240E-01 -0.61507022542E-01 -0.21369521080E-01  0.83871013178E-01  0.51100000000E-03 0. -1.
         11    1    4    4    0    0  0.32455120086E-01 -0.25923620348E-01 -0.24058354341E-01  0.48004525270E-01  0.51100000000E-03 0.  1.
</event>
<event>
 8    1  0.1204770E+005  0.1043930E+01  0.7957747E-01            NaN
         13   -1    0    0    0    0  0.00000000000E+00  0.00000000000E+00  0.74505805969E-08  0.10566000000E+00  0.10566000000E+00 0.  1.
     999900   -1    0    0    0    0 -0.00000000000E+00 -0.00000000000E+00 -0.74505805969E-08  0.93827000000E+00  0.93827000000E+00 0.  1.
     999902    2    1    2    0    0  0.16535506851E-01 -0.15251661558E-01  0.71393536281E-02  0.10203290141E+01  0.10200560232E+01 0.  0.
     999903    2    3    3    0    0  0.87450403720E-01 -0.26424457808E-01 -0.92725248491E-01  0.13177586836E+00  0.20520299549E-01 0.  0.
         14    1    1    2    0    0 -0.16535506851E-01  0.15251661558E-01 -0.71393536281E-02  0.23600985940E-01  0.00000000000E+00 0. -1.
     999901    1    3    3    0    0 -0.70914896869E-01  0.11172796250E-01  0.99864602119E-01  0.88855314570E+00  0.88000000000E+00 0. -1.
        -11    1    4    4    0    0  0.72995404357E-01 -0.26890603462E-01 -0.68993463434E-01  0.10397977077E+00  0.51100000000E-03 0. -1.
         11    1    4    4    0    0  0.14454999363E-01  0.46614565343E-03 -0.23731785057E-01  0.27796097592E-01  0.51100000000E-03 0.  1.
</event>
<event>
 8    1  0.1204770E+005  0.1043930E+01  0.7957747E-01            NaN
         13   -1    0    0    0    0  0.00000000000E+00  0.00000000000E+00  0.74505805969E-08  0.10566000000E+00  0.10566000000E+00 0. -1.
     999900   -1    0    0    0    0 -0.00000000000E+00 -0.00000000000E+00 -0.74505805969E-08  0.93827000000E+00  0.93827000000E+00 0.  1.
     999902    2    1    2    0    0 -0.16847777542E-01  0.16557598598E-01 -0.29702720720E-02  0.10201219300E+01  0.10198440704E+01 0.  0.
     999903    2    3    3    0    0 -0.88443450378E-02 -0.12641555983E+00  0.76654014463E-02  0.12848383276E+00  0.19754004533E-01 0.  0.
         14    1    1    2    0    0  0.16847777542E-01 -0.16557598598E-01  0.29702720720E-02  0.23808069968E-01  0.00000000000E+00 0. -1.
     999901    1    3    3    0    0 -0.80034325043E-02  0.14297315842E+00 -0.10635673518E-01  0.89163809728E+00  0.88000000000E+00 0. -1.
        -11    1    4    4    0    0  0.39254709873E-02 -0.22772932396E-01 -0.38147289393E-02  0.23427100765E-01  0.51100000000E-03 0.  1.
         11    1    4    4    0    0 -0.12769816025E-01 -0.10364262743E+00  0.11480130386E-01  0.10505673199E+00  0.51100000000E-03 0. -1.
</event>
<event>
 8    1  0.1204770E+005  0.1043930E+01  0.7957747E-01            NaN
         13   -1    0    0    0    0  0.00000000000E+00  0.00000000000E+00  0.74505805969E-08  0.10566000000E+00  0.10566000000E+00 0.  1.
     999900   -1    0    0    0    0 -0.00000000000E+00 -0.00000000000E+00 -0.74505805969E-08  0.93827000000E+00  0.93827000000E+00 0.  1.
     999902    2    1    2    0    0  0.21708105046E-01  0.71037479657E-02 -0.11788918490E-02  0.10210587332E+01  0.10208025479E+01 0.  0.
     999903    2    3    3    0    0 -0.65212694474E-01  0.10674334688E+00  0.31182733726E-01  0.13059225438E+00  0.20859923238E-01 0.  0.
         14    1    1    2    0    0 -0.21708105046E-01 -0.71037479657E-02  0.11788918490E-02  0.22871266818E-01  0.00000000000E+00 0.  1.
     999901    1    3    3    0    0  0.86920799521E-01 -0.99639598915E-01 -0.32361625575E-01  0.89046647880E+00  0.88000000000E+00 0. -1.
        -11    1    4    4    0    0 -0.64784785103E-01  0.96195938234E-01  0.26165420951E-01  0.11889330212E+00  0.51100000000E-03 0. -1.
         11    1    4    4    0    0 -0.42790937135E-03  0.10547408646E-01  0.50173127743E-02  0.11698952263E-01  0.51100000000E-03 0.  1.
</event>
<event>
 8    1  0.1204770E+005  0.1043930E+01  0.7957747E-01            NaN
         13   -1    0    0    0    0  0.00000000000E+00  0.00000000000E+00  0.74505805969E-08  0.10566000000E+00  0.10566000000E+00 0.  1.
     999900   -1    0    0    0    0 -0.00000000000E+00 -0.00000000000E+00 -0.74505805969E-08  0.93827000000E+00  0.93827000000E+00 0.  1.
     999902    2    1    2    0    0  0.19310389186E-01  0.11232480473E-01  0.61477614555E-02  0.10207598744E+01  0.10204968724E+01 0.  0.
     999903    2    3    3    0    0 -0.84909931000E-01  0.98330650676E-01 -0.13826227863E-02  0.13030792565E+00  0.99815127563E-02 0.  0.
         14    1    1    2    0    0 -0.19310389186E-01 -0.11232480473E-01 -0.61477614555E-02  0.23170125572E-01  0.00000000000E+00 0. -1.
     999901    1    3    3    0    0  0.10422032019E+00 -0.87098170203E-01  0.75303842418E-02  0.89045194878E+00  0.88000000000E+00 0.  1.
        -11    1    4    4    0    0 -0.68907000909E-01  0.85028824623E-01  0.11509194785E-04  0.10944558942E+00  0.51100000000E-03 0. -1.
         11    1    4    4    0    0 -0.16002930092E-01  0.13301826054E-01 -0.13941319811E-02  0.20862336227E-01  0.51100000000E-03 0.  1.
</event>
<event>
 8    1  0.1204770E+005  0.1043930E+01  0.7957747E-01            NaN
         13   -1    0    0    0    0  0.00000000000E+00  0.00000000000E+00  0.74505805969E-08  0.10566000000E+00  0.10566000000E+00 0. -1.
     999900   -1    0    0    0    0 -0.00000000000E+00 -0.00000000000E+00 -0.74505805969E-08  0.93827000000E+00  0.93827000000E+00 0. -1.
     999902    2    1    2    0    0  0.11074598496E-01  0.18729311556E-01 -0.88505500014E-02  0.10204402985E+01  0.10201699058E+01 0.  0.
     999903    2    3    3    0    0 -0.46908719780E-01 -0.11410136478E+00 -0.29038468510E-01  0.12835644263E+00  0.20312416776E-01 0.  0.
         14    1    1    2    0    0 -0.11074598496E-01 -0.18729311556E-01  0.88505500014E-02  0.23489701542E-01  0.00000000000E+00 0. -1.
     999901    1    3    3    0    0  0.57983318276E-01  0.13283067634E+00  0.20187918509E-01  0.89208385583E+00  0.88000000000E+00 0.  1.
        -11    1    4    4    0    0 -0.85562422295E-02 -0.37087931874E-01 -0.16192490273E-01  0.41366433664E-01  0.51100000000E-03 0.  1.
         11    1    4    4    0    0 -0.38352477550E-01 -0.77013432906E-01 -0.12845978237E-01  0.86990008967E-01  0.51100000000E-03 0. -1.
</event>
<event>
 8    1  0.1204770E+005  0.1043930E+01  0.7957747E-01            NaN
         13   -1    0    0    0    0  0.00000000000E+00  0.00000000000E+00  0.74505805969E-08  0.10566000000E+00  0.10566000000E+00 0. -1.
     999900   -1    0    0    0    0 -0.00000000000E+00 -0.00000000000E+00 -0.74505805969E-08  0.93827000000E+00  0.93827000000E+00 0. -1.
     999902    2    1    2    0    0  0.64716646327E-02  0.22298360787E-01  0.35920881977E-02  0.10204352679E+01  0.10201647581E+01 0.  0.
     999903    2    3    3    0    0 -0.62146100801E-01 -0.84165380703E-01  0.72634946308E-01  0.12868987701E+00  0.18420094108E-01 0.  0.
         14    1    1    2    0    0 -0.64716646327E-02 -0.22298360787E-01 -0.35920881977E-02  0.23494732059E-01  0.00000000000E+00 0.  1.
     999901    1    3    3    0    0  0.68617765433E-01  0.10646374149E+00 -0.69042858110E-01  0.89174539093E+00  0.88000000000E+00 0.  1.
        -11    1    4    4    0    0 -0.10174540652E-01 -0.56510932939E-02  0.11840085315E-01  0.16610384528E-01  0.51100000000E-03 0. -1.
         11    1    4    4    0    0 -0.51971560149E-01 -0.78514287409E-01  0.60794860992E-01  0.11207949249E+00  0.51100000000E-03 0.  1.
</event>
<event>
 8    1  0.1204770E+005  0.1043930E+01  0.7957747E-01            NaN
         13   -1    0    0    0    0  0.00000000000E+00  0.00000000000E+00  0.74505805969E-08  0.10566000000E+00  0.10566000000E+00 0.  1.
     999900   -1    0    0    0    0 -0.00000000000E+00 -0.00000000000E+00 -0.74505805969E-08  0.93827000000E+00  0.93827000000E+00 0. -1.
     999902    2    1    2    0    0 -0.92913542687E-03 -0.21837775638E-01 -0.81512482291E-02  0.10206020214E+01  0.10203353819E+01 0.  0.
     999903    2    3    3    0    0 -0.90408306310E-01 -0.93654701785E-01 -0.26562294282E-01  0.13296292835E+00  0.53590878522E-02 0.  0.
         14    1    1    2    0    0  0.92913542687E-03  0.21837775638E-01  0.81512482291E-02  0.23327978591E-01  0.00000000000E+00 0.  1.
     999901    1    3    3    0    0  0.89479170883E-01  0.71816926147E-01  0.18411046053E-01  0.88763909306E+00  0.88000000000E+00 0. -1.
        -11    1    4    4    0    0 -0.19417897657E-01 -0.22419255057E-01 -0.45317881145E-02  0.30007931805E-01  0.51100000000E-03 0.  1.
         11    1    4    4    0    0 -0.70990408653E-01 -0.71235446728E-01 -0.22030506167E-01  0.10295499655E+00  0.51100000000E-03 0. -1.
</event>
<event>
 8    1  0.1204770E+005  0.1043930E+01  0.7957747E-01            NaN
         13   -1    0    0    0    0  0.00000000000E+00  0.00000000000E+00  0.74505805969E-08  0.10566000000E+00  0.10566000000E+00 0.  1.
     999900   -1    0    0    0    0 -0.00000000000E+00 -0.00000000000E+00 -0.74505805969E-08  0.93827000000E+00  0.93827000000E+00 0.  1.
     999902    2    1    2    0    0  0.15657653070E-01 -0.16921759984E-01 -0.16225498625E-02  0.10208185152E+01  0.10205568579E+01 0.  0.
     999903    2    3    3    0    0  0.21670484473E-01  0.10121587870E-01  0.12687913299E+00  0.13105440081E+00  0.22469649379E-01 0.  0.
         14    1    1    2    0    0 -0.15657653070E-01  0.16921759984E-01  0.16225498625E-02  0.23111484778E-01  0.00000000000E+00 0.  1.
     999901    1    3    3    0    0 -0.60128314027E-02 -0.27043347854E-01 -0.12850168286E+00  0.88976411442E+00  0.88000000000E+00 0.  1.
        -11    1    4    4    0    0  0.78569186796E-02  0.26094049478E-02  0.96383854056E-01  0.96740108585E-01  0.51100000000E-03 0. -1.
         11    1    4    4    0    0  0.13813565793E-01  0.75121829227E-02  0.30495278937E-01  0.34314292221E-01  0.51100000000E-03 0.  1.
</event>
<event>
 8    1  0.1204770E+005  0.1043930E+01  0.7957747E-01            NaN
         13   -1    0    0    0    0  0.00000000000E+00  0.00000000000E+00  0.74505805969E-08  0.10566000000E+00  0.10566000000E+00 0. -1.
     999900   -1    0    0    0    0 -0.00000000000E+00 -0.00000000000E+00 -0.74505805969E-08  0.93827000000E+00  0.93827000000E+00 0.  1.
     999902    2    1    2    0    0  0.18225646137E-01 -0.15207850323E-01 -0.87731698152E-02  0.10186234515E+01  0.10183090467E+01 0.  0.
     999903    2    3    3    0    0 -0.50933652860E-01 -0.11760417257E+00 -0.98759260397E-02  0.12999010105E+00  0.19362697577E-01 0.  0.
         14    1    1    2    0    0 -0.18225646137E-01  0.15207850323E-01  0.87731698152E-02  0.25306548504E-01  0.00000000000E+00 0. -1.
     999901    1    3    3    0    0  0.69159298997E-01  0.10239632225E+00  0.11027562245E-02  0.88863335044E+00  0.88000000000E+00 0. -1.
        -11    1    4    4    0    0 -0.17592389444E-01 -0.54013463924E-01 -0.12386316840E-01  0.58143171716E-01  0.51100000000E-03 0.  1.
         11    1    4    4    0    0 -0.33341263416E-01 -0.63590708646E-01  0.25103908007E-02  0.71846929337E-01  0.51100000000E-03 0. -1.
</event>
<event>
 8    1  0.1204770E+005  0.1043930E+01  0.7957747E-01            NaN
         13   -1    0    0    0    0  0.00000000000E+00  0.00000000000E+00  0.74505805969E-08  0.10566000000E+00  0.10566000000E+00 0. -1.
     999900   -1    0    0    0    0 -0.00000000000E+00 -0.00000000000E+00 -0.74505805969E-08  0.93827000000E+00  0.93827000000E+00 0. -1.
     999902    2    1    2    0    0 -0.41039779392E-02  0.35297387083E-02 -0.23123704557E-01  0.10201811600E+01  0.10199046974E+01 0.  0.
     999903    2    3    3    0    0 -0.10456664858E+00 -0.18552645322E-01 -0.76833973877E-01  0.13256346473E+00  0.19779484218E-01 0.  0.
         14    1    1    2    0    0  0.41039779392E-02 -0.35297387083E-02  0.23123704557E-01  0.23748840029E-01  0.00000000000E+00 0. -1.
     999901    1    3    3    0    0  0.10046267064E+00  0.22082384030E-01  0.53710269320E-01  0.88761769524E+00  0.88000000000E+00 0.  1.
        -11    1    4    4    0    0 -0.40961463061E-01  0.39841601268E-03 -0.22175590092E-01  0.46583453160E-01  0.51100000000E-03 0.  1.
         11    1    4    4    0    0 -0.63605185517E-01 -0.18951061334E-01 -0.54658383785E-01  0.85980011569E-01  0.51100000000E-03 0. -1.
</event>
<event>
 8    1  0.1204770E+005  0.1043930E+01  0.7957747E-01            NaN
         13   -1    0    0    0    0  0.00000000000E+00  0.00000000000E+00  0.74505805969E-08  0.10566000000E+00  0.10566000000E+00 0.  1.
     999900   -1    0    0    0    0 -0.00000000000E+00 -0.00000000000E+00 -0.74505805969E-08  0.93827000000E+00  0.93827000000E+00 0.  1.
     999902    2    1    2    0    0 -0.16305871348E-01 -0.12141680677E-01 -0.11712571702E-01  0.10204675580E+01  0.10201977998E+01 0.  0.
     999903    2    3    3    0    0  0.18310469798E-01  0.11607609080E+00 -0.51060434072E-01  0.12963292558E+00  0.19712820878E-01 0.  0.
         14    1    1    2    0    0  0.16305871348E-01  0.12141680677E-01  0.11712571702E-01  0.23462442029E-01  0.00000000000E+00 0.  1.
     999901    1    3    3    0    0 -0.34616341146E-01 -0.12821777148E+00  0.39347862370E-01  0.89083463239E+00  0.88000000000E+00 0.  1.
        -11    1    4    4    0    0  0.11650589245E-02  0.66280665956E-01 -0.32113449515E-01  0.73661515072E-01  0.51100000000E-03 0.  1.
         11    1    4    4    0    0  0.17145410873E-01  0.49795424843E-01 -0.18946984556E-01  0.55971410507E-01  0.51100000000E-03 0. -1.
</event>
<event>
 8    1  0.1204770E+005  0.1043930E+01  0.7957747E-01            NaN
         13   -1    0    0    0    0  0.00000000000E+00  0.00000000000E+00  0.74505805969E-08  0.10566000000E+00  0.10566000000E+00 0. -1.
     999900   -1    0    0    0    0 -0.00000000000E+00 -0.00000000000E+00 -0.74505805969E-08  0.93827000000E+00  0.93827000000E+00 0.  1.
     999902    2    1    2    0    0  0.20580875454E-01 -0.16962962613E-02  0.11362549299E-01  0.10203597352E+01  0.10200874629E+01 0.  0.
     999903    2    3    3    0    0 -0.95780202722E-01 -0.82451629778E-01  0.13863805204E-01  0.12903062614E+00  0.22013152901E-01 0.  0.
         14    1    1    2    0    0 -0.20580875454E-01  0.16962962613E-02 -0.11362549299E-01  0.23570264785E-01  0.00000000000E+00 0.  1.
     999901    1    3    3    0    0  0.11636107818E+00  0.80755333516E-01 -0.25012559051E-02  0.89132910908E+00  0.88000000000E+00 0. -1.
        -11    1    4    4    0    0 -0.73329270158E-01 -0.52541306442E-01  0.15773175139E-01  0.91579609737E-01  0.51100000000E-03 0.  1.
         11    1    4    4    0    0 -0.22450932564E-01 -0.29910323336E-01 -0.19093699345E-02  0.37451016402E-01  0.51100000000E-03 0. -1.
</event>
<event>
 8    1  0.1204770E+005  0.1043930E+01  0.7957747E-01            NaN
         13   -1    0    0    0    0  0.00000000000E+00  0.00000000000E+00  0.74505805969E-08  0.10566000000E+00  0.10566000000E+00 0.  1.
     999900   -1    0    0    0    0 -0.00000000000E+00 -0.00000000000E+00 -0.74505805969E-08  0.93827000000E+00  0.93827000000E+00 0. -1.
     999902    2    1    2    0    0  0.11533401937E-01 -0.20592475352E-01 -0.66800955532E-03  0.10203182309E+01  0.10200449876E+01 0.  0.
     999903    2    3    3    0    0  0.97932213635E-01 -0.66589374425E-01 -0.57133928004E-01  0.13309285409E+00  0.20604825308E-01 0.  0.
         14    1    1    2    0    0 -0.11533401937E-01  0.20592475352E-01  0.66800955532E-03  0.23611769060E-01  0.00000000000E+00 0.  1.
     999901    1    3    3    0    0 -0.86398811698E-01  0.45996899073E-01  0.56465918449E-01  0.88722537685E+00  0.88000000000E+00 0. -1.
        -11    1    4    4    0    0  0.95273848910E-02 -0.15799728081E-03 -0.58806388305E-02  0.11208883087E-01  0.51100000000E-03 0. -1.
         11    1    4    4    0    0  0.88404828744E-01 -0.66431377144E-01 -0.51253289174E-01  0.12188397100E+00  0.51100000000E-03 0.  1.
</event>
<event>
 8    1  0.1204770E+005  0.1043930E+01  0.7957747E-01            NaN
         13   -1    0    0    0    0  0.00000000000E+00  0.00000000000E+00  0.74505805969E-08  0.10566000000E+00  0.10566000000E+00 0.  1.
     999900   -1    0    0    0    0 -0.00000000000E+00 -0.00000000000E+00 -0.74505805969E-08  0.93827000000E+00  0.93827000000E+00 0. -1.
     999902    2    1    2    0    0  0.22288745447E-01  0.53615918102E-02 -0.61920302364E-02  0.10201839250E+01  0.10199075275E+01 0.  0.
     999903    2    3    3    0    0  0.56113564264E-01 -0.11657394300E+00 -0.76577801709E-02  0.13113131605E+00  0.19964072051E-01 0.  0.
         14    1    1    2    0    0 -0.22288745447E-01 -0.53615918102E-02  0.61920302364E-02  0.23746075019E-01  0.00000000000E+00 0. -1.
     999901    1    3    3    0    0 -0.33824818816E-01  0.12193553481E+00  0.14657499345E-02  0.88905260893E+00  0.88000000000E+00 0.  1.
        -11    1    4    4    0    0  0.11215075764E-01 -0.11724534323E-01 -0.52005325986E-02  0.17045506440E-01  0.51100000000E-03 0.  1.
         11    1    4    4    0    0  0.44898488500E-01 -0.10484940867E+00 -0.24572475723E-02  0.11408580961E+00  0.51100000000E-03 0. -1.
</event>
<event>
 8    1  0.1204770E+005  0.1043930E+01  0.7957747E-01            NaN
         13   -1    0    0    0    0  0.00000000000E+00  0.00000000000E+00  0.74505805969E-08  0.10566000000E+00  0.10566000000E+00 0.  1.
     999900   -1    0    0    0    0 -0.00000000000E+00 -0.00000000000E+00 -0.74505805969E-08  0.93827000000E+00  0.93827000000E+00 0. -1.
     999902    2    1    2    0    0 -0.30659515364E-02 -0.19136850204E-01  0.13718960016E-01  0.10201849172E+01  0.10199085431E+01 0.  0.
     999903    2    3    3    0    0 -0.74265891485E-01  0.10103367530E+00  0.24164350400E-01  0.12910720292E+00  0.19013885286E-01 0.  0.
         14    1    1    2    0    0  0.30659515364E-02  0.19136850204E-01 -0.13718960016E-01  0.23745082827E-01  0.00000000000E+00 0. -1.
     999901    1    3    3    0    0  0.71199939949E-01 -0.12017052551E+00 -0.10445390384E-01  0.89107771425E+00  0.88000000000E+00 0.  1.
        -11    1    4    4    0    0 -0.19145493122E-01  0.38799985361E-01  0.13282628301E-01  0.45262325465E-01  0.51100000000E-03 0. -1.
         11    1    4    4    0    0 -0.55120398363E-01  0.62233689941E-01  0.10881722099E-01  0.83844877460E-01  0.51100000000E-03 0.  1.
</event>
<event>
 8    1  0.1204770E+005  0.1043930E+01  0.7957747E-01            NaN
         13   -1    0    0    0    0  0.00000000000E+00  0.00000000000E+00  0.74505805969E-08  0.10566000000E+00  0.10566000000E+00 0. -1.
     999900   -1    0    0    0    0 -0.00000000000E+00 -0.00000000000E+00 -0.74505805969E-08  0.93827000000E+00  0.93827000000E+00 0. -1.
     999902    2    1    2    0    0 -0.11923959299E-01 -0.19312646738E-01  0.81766213993E-02  0.10198049867E+01  0.10195195901E+01 0.  0.
     999903    2    3    3    0    0  0.10884114028E+00 -0.35594077358E-01 -0.56528736812E-01  0.12905469754E+00  0.18608726722E-01 0.  0.
         14    1    1    2    0    0  0.11923959299E-01  0.19312646738E-01 -0.81766213993E-02  0.24125013303E-01  0.00000000000E+00 0.  1.
     999901    1    3    3    0    0 -0.12076509958E+00  0.16281430620E-01  0.64705358212E-01  0.89075028916E+00  0.88000000000E+00 0.  1.
        -11    1    4    4    0    0  0.15642249966E-01  0.14444635946E-02 -0.71377276687E-02  0.17261944744E-01  0.51100000000E-03 0. -1.
         11    1    4    4    0    0  0.93198890313E-01 -0.37038540952E-01 -0.49391009144E-01  0.11179275279E+00  0.51100000000E-03 0.  1.
</event>
<event>
 8    1  0.1204770E+005  0.1043930E+01  0.7957747E-01            NaN
         13   -1    0    0    0    0  0.00000000000E+00  0.00000000000E+00  0.74505805969E-08  0.10566000000E+00  0.10566000000E+00 0. -1.
     999900   -1    0    0    0    0 -0.00000000000E+00 -0.00000000000E+00 -0.74505805969E-08  0.93827000000E+00  0.93827000000E+00 0. -1.
     999902    2    1    2    0    0  0.26580059697E-02 -0.63679973982E-02 -0.21520774383E-01  0.10213299974E+01  0.10210799202E+01 0.  0.
     999903    2    3    3    0    0 -0.42852499228E-01 -0.67374998912E-01  0.10027327222E+00  0.12968721575E+00  0.19705776793E-01 0.  0.
         14    1    1    2    0    0 -0.26580059697E-02  0.63679973982E-02  0.21520774383E-01  0.22600002581E-01  0.00000000000E+00 0. -1.
     999901    1    3    3    0    0  0.45510505197E-01  0.61007001514E-01 -0.12179404660E+00  0.89164278167E+00  0.88000000000E+00 0.  1.
        -11    1    4    4    0    0 -0.20670550010E-01 -0.46909979486E-01  0.54173194048E-01  0.74584273728E-01  0.51100000000E-03 0. -1.
         11    1    4    4    0    0 -0.22181949218E-01 -0.20465019427E-01  0.46100078169E-01  0.55102942021E-01  0.51100000000E-03 0.  1.
</event>
<event>
 8    1  0.1204770E+005  0.1043930E+01  0.7957747E-01            NaN
         13   -1    0    0    0    0  0.00000000000E+00  0.00000000000E+00  0.74505805969E-08  0.10566000000E+00  0.10566000000E+00 0. -1.
     999900   -1    0    0    0    0 -0.00000000000E+00 -0.00000000000E+00 -0.74505805969E-08  0.93827000000E+00  0.93827000000E+00 0. -1.
     999902    2    1    2    0    0 -0.17792456009E-01  0.19905078201E-02  0.15856960831E-01  0.10200139631E+01  0.10197335476E+01 0.  0.
     999903    2    3    3    0    0  0.60342129230E-01  0.94501040183E-02 -0.11034114046E+00  0.12755297253E+00  0.19081836850E-01 0.  0.
         14    1    1    2    0    0  0.17792456009E-01 -0.19905078201E-02 -0.15856960831E-01  0.23916036858E-01  0.00000000000E+00 0.  1.
     999901    1    3    3    0    0 -0.78134585238E-01 -0.74595961981E-02  0.12619810129E+00  0.89246099061E+00  0.88000000000E+00 0.  1.
        -11    1    4    4    0    0  0.12251275710E-01 -0.57365817665E-02 -0.24573494864E-01  0.28055657143E-01  0.51100000000E-03 0. -1.
         11    1    4    4    0    0  0.48090853520E-01  0.15186685785E-01 -0.85767645600E-01  0.99497315392E-01  0.51100000000E-03 0.  1.
</event>
<event>
 8    1  0.1204770E+005  0.1043930E+01  0.7957747E-01            NaN
         13   -1    0    0    0    0  0.00000000000E+00  0.00000000000E+00  0.74505805969E-08  0.10566000000E+00  0.10566000000E+00 0.  1.
     999900   -1    0    0    0    0 -0.00000000000E+00 -0.00000000000E+00 -0.74505805969E-08  0.93827000000E+00  0.93827000000E+00 0.  1.
     999902    2    1    2    0    0 -0.12135617301E-01 -0.19996493789E-01  0.17640093537E-03  0.10205384612E+01  0.10202703498E+01 0.  0.
     999903    2    3    3    0    0 -0.70044463402E-02  0.11362140101E+00 -0.56334505936E-01  0.12864522019E+00  0.20423787187E-01 0.  0.
         14    1    1    2    0    0  0.12135617301E-01  0.19996493789E-01 -0.17640093537E-03  0.23391538821E-01  0.00000000000E+00 0.  1.
     999901    1    3    3    0    0 -0.51311709610E-02 -0.13361789480E+00  0.56510906872E-01  0.89189324099E+00  0.88000000000E+00 0. -1.
        -11    1    4    4    0    0 -0.66637747735E-02  0.10643111674E+00 -0.46234454964E-01  0.11623198550E+00  0.51100000000E-03 0.  1.
         11    1    4    4    0    0 -0.34067156671E-03  0.71902842646E-02 -0.10100050973E-01  0.12413234694E-01  0.51100000000E-03 0. -1.
</event>
<event>
 8    1  0.1204770E+005  0.1043930E+01  0.7957747E-01            NaN
         13   -1    0    0    0    0  0.00000000000E+00  0.00000000000E+00  0.74505805969E-08  0.10566000000E+00  0.10566000000E+00 0.  1.
     999900   -1    0    0    0    0 -0.00000000000E+00 -0.00000000000E+00 -0.74505805969E-08  0.93827000000E+00  0.93827000000E+00 0.  1.
     999902    2    1    2    0    0 -0.85457319645E-02  0.20972740895E-01 -0.41775543549E-02  0.10209009454E+01  0.10206411725E+01 0.  0.
     999903    2    3    3    0    0 -0.81959063111E-01  0.90126303984E-01 -0.51524945811E-01  0.13387585671E+00  0.20685412110E-01 0.  0.
         14    1    1    2    0    0  0.85457319645E-02 -0.20972740895E-01  0.41775543549E-02  0.23029054602E-01  0.00000000000E+00 0. -1.
     999901    1    3    3    0    0  0.73413331147E-01 -0.69153563088E-01  0.47347391456E-01  0.88702508868E+00  0.88000000000E+00 0. -1.
        -11    1    4    4    0    0 -0.42345878865E-01  0.61271742840E-01 -0.33276229586E-01  0.81577990315E-01  0.51100000000E-03 0. -1.
         11    1    4    4    0    0 -0.39613184246E-01  0.28854561144E-01 -0.18248716225E-01  0.52297866398E-01  0.51100000000E-03 0.  1.
</event>
<event>
 8    1  0.1204770E+005  0.1043930E+01  0.7957747E-01            NaN
         13   -1    0    0    0    0  0.00000000000E+00  0.00000000000E+00  0.74505805969E-08  0.10566000000E+00  0.10566000000E+00 0.  1.
     999900   -1    0    0    0    0 -0.00000000000E+00 -0.00000000000E+00 -0.74505805969E-08  0.93827000000E+00  0.93827000000E+00 0. -1.
     999902    2    1    2    0    0 -0.10535885535E-01  0.53146612130E-02  0.18909510511E-01  0.10216405385E+01  0.10213973613E+01 0.  0.
     999903    2    3    3    0    0 -0.78021510255E-01  0.23778762545E-01 -0.10024552408E+00  0.13085821104E+00  0.20540708059E-01 0.  0.
         14    1    1    2    0    0  0.10535885535E-01 -0.53146612130E-02 -0.18909510511E-01  0.22289461537E-01  0.00000000000E+00 0. -1.
     999901    1    3    3    0    0  0.67485624720E-01 -0.18464101332E-01  0.11915503459E+00  0.89078232742E+00  0.88000000000E+00 0.  1.
        -11    1    4    4    0    0 -0.11197414806E-01  0.45321055837E-02 -0.53807242356E-02  0.13233872965E-01  0.51100000000E-03 0.  1.
         11    1    4    4    0    0 -0.66824095450E-01  0.19246656961E-01 -0.94864799845E-01  0.11762433807E+00  0.51100000000E-03 0. -1.
</event>
<event>
 8    1  0.1204770E+005  0.1043930E+01  0.7957747E-01            NaN
         13   -1    0    0    0    0  0.00000000000E+00  0.00000000000E+00  0.74505805969E-08  0.10566000000E+00  0.10566000000E+00 0.  1.
     999900   -1    0    0    0    0 -0.00000000000E+00 -0.00000000000E+00 -0.74505805969E-08  0.93827000000E+00  0.93827000000E+00 0.  1.
     999902    2    1    2    0    0 -0.55705413585E-02 -0.21499278883E-01 -0.49558072824E-02  0.10211745622E+01  0.10209209943E+01 0.  0.
     999903    2    3    3    0    0  0.98368500645E-01  0.23791225295E-01  0.79090339126E-01  0.12992919254E+00  0.19594106527E-01 0.  0.
         14    1    1    2    0    0  0.55705413585E-02  0.21499278883E-01  0.49558072824E-02  0.22755437797E-01  0.00000000000E+00 0.  1.
     999901    1    3    3    0    0 -0.10393904200E+00 -0.45290504178E-01 -0.84046146408E-01  0.89124536966E+00  0.88000000000E+00 0. -1.
        -11    1    4    4    0    0  0.59860211742E-01  0.21765869761E-01  0.41166232015E-01  0.75841399087E-01  0.51100000000E-03 0. -1.
         11    1    4    4    0    0  0.38508288903E-01  0.20253555338E-02  0.37924107111E-01  0.54087793452E-01  0.51100000000E-03 0.  1.
</event>
<event>
 8    1  0.1204770E+005  0.1043930E+01  0.7957747E-01            NaN
         13   -1    0    0    0    0  0.00000000000E+00  0.00000000000E+00  0.74505805969E-08  0.10566000000E+00  0.10566000000E+00 0.  1.
     999900   -1    0    0    0    0 -0.00000000000E+00 -0.00000000000E+00 -0.74505805969E-08  0.93827000000E+00  0.93827000000E+00 0.  1.
     999902    2    1    2    0    0  0.20372316912E-01  0.36565629819E-02 -0.10589317369E-01  0.10206805830E+01  0.10204157570E+01 0.  0.
     999903    2    3    3    0    0 -0.10513048532E+00 -0.11124172186E-01 -0.72155344625E-01  0.12952414374E+00  0.19848020113E-01 0.  0.
         14    1    1    2    0    0 -0.20372316912E-01 -0.36565629819E-02  0.10589317369E-01  0.23249417016E-01  0.00000000000E+00 0.  1.
     999901    1    3    3    0    0  0.12550280223E+00  0.14780735168E-01  0.61566027256E-01  0.89115643925E+00  0.88000000000E+00 0.  1.
        -11    1    4    4    0    0 -0.96843521372E-01 -0.60574424752E-02 -0.60526586382E-01  0.11436384490E+00  0.51100000000E-03 0. -1.
         11    1    4    4    0    0 -0.82869639480E-02 -0.50667297113E-02 -0.11628758243E-01  0.15160298833E-01  0.51100000000E-03 0.  1.
</event>
<event>
 8    1  0.1204770E+005  0.1043930E+01  0.7957747E-01            NaN
         13   -1    0    0    0    0  0.00000000000E+00  0.00000000000E+00  0.74505805969E-08  0.10566000000E+00  0.10566000000E+00 0.  1.
     999900   -1    0    0    0    0 -0.00000000000E+00 -0.00000000000E+00 -0.74505805969E-08  0.93827000000E+00  0.93827000000E+00 0. -1.
     999902    2    1    2    0    0  0.88267959149E-02  0.42704427190E-02  0.23483974017E-01  0.10184811092E+01  0.10181631126E+01 0.  0.
     999903    2    3    3    0    0 -0.85128899675E-01  0.80594332610E-01 -0.46051781684E-01  0.12747705185E+00  0.19678824742E-01 0.  0.
         14    1    1    2    0    0 -0.88267959149E-02 -0.42704427190E-02 -0.23483974017E-01  0.25448890796E-01  0.00000000000E+00 0. -1.
     999901    1    3    3    0    0  0.93955695590E-01 -0.76323889891E-01  0.69535755701E-01  0.89100405735E+00  0.88000000000E+00 0.  1.
        -11    1    4    4    0    0 -0.17617301913E-01  0.11255643471E-01 -0.15367212835E-01  0.25951323434E-01  0.51100000000E-03 0. -1.
         11    1    4    4    0    0 -0.67511597762E-01  0.69338689139E-01 -0.30684568849E-01  0.10152572842E+00  0.51100000000E-03 0.  1.
</event>
<event>
 8    1  0.1204770E+005  0.1043930E+01  0.7957747E-01            NaN
         13   -1    0    0    0    0  0.00000000000E+00  0.00000000000E+00  0.74505805969E-08  0.10566000000E+00  0.10566000000E+00 0. -1.
     999900   -1    0    0    0    0 -0.00000000000E+00 -0.00000000000E+00 -0.74505805969E-08  0.93827000000E+00  0.93827000000E+00 0.  1.
     999902    2    1    2    0    0 -0.92338102544E-02  0.15987317716E-01  0.14765830322E-01  0.10202892021E+01  0.10200152786E+01 0.  0.
     999903    2    3    3    0    0  0.38003002110E-01  0.28322935742E-02  0.12532447437E+00  0.13201695507E+00  0.16431752599E-01 0.  0.
         14    1    1    2    0    0  0.92338102544E-02 -0.15987317716E-01 -0.14765830322E-01  0.23640797886E-01  0.00000000000E+00 0. -1.
     999901    1    3    3    0    0 -0.47236812364E-01  0.13155024142E-01 -0.11055864404E+00  0.88827224705E+00  0.88000000000E+00 0.  1.
        -11    1    4    4    0    0  0.30812725443E-01 -0.43014902517E-02  0.87995433483E-01  0.93334796847E-01  0.51100000000E-03 0.  1.
         11    1    4    4    0    0  0.71902766668E-02  0.71337838259E-02  0.37329040884E-01  0.38682158219E-01  0.51100000000E-03 0. -1.
</event>
<event>
 8    1  0.1204770E+005  0.1043930E+01  0.7957747E-01            NaN
         13   -1    0    0    0    0  0.00000000000E+00  0.00000000000E+00  0.74505805969E-08  0.10566000000E+00  0.10566000000E+00 0. -1.
     999900   -1    0    0    0    0 -0.00000000000E+00 -0.00000000000E+00 -0.74505805969E-08  0.93827000000E+00  0.93827000000E+00 0. -1.
     999902    2    1    2    0    0 -0.18952455206E-01 -0.13611161619E-01 -0.80940292684E-03  0.10205823146E+01  0.10203152192E+01 0.  0.
     999903    2    3    3    0    0 -0.12052796658E+00 -0.29463652455E-01  0.44871529582E-01  0.13342075461E+00  0.19812774957E-01 0.  0.
         14    1    1    2    0    0  0.18952455206E-01  0.13611161619E-01  0.80940292684E-03  0.23347685369E-01  0.00000000000E+00 0.  1.
     999901    1    3    3    0    0  0.10157551137E+00  0.15852490836E-01 -0.45680932509E-01  0.88716156002E+00  0.88000000000E+00 0.  1.
        -11    1    4    4    0    0 -0.85613656609E-01 -0.12231407058E-01  0.34609970294E-01  0.93152652572E-01  0.51100000000E-03 0. -1.
         11    1    4    4    0    0 -0.34914309970E-01 -0.17232245397E-01  0.10261559288E-01  0.40268102043E-01  0.51100000000E-03 0.  1.
</event>
<event>
 8    1  0.1204770E+005  0.1043930E+01  0.7957747E-01            NaN
         13   -1    0    0    0    0  0.00000000000E+00  0.00000000000E+00  0.74505805969E-08  0.10566000000E+00  0.10566000000E+00 0. -1.
     999900   -1    0    0    0    0 -0.00000000000E+00 -0.00000000000E+00 -0.74505805969E-08  0.93827000000E+00  0.93827000000E+00 0. -1.
     999902    2    1    2    0    0 -0.60352282534E-02  0.17729362983E-02  0.24778427110E-01  0.10183656159E+01  0.10180446896E+01 0.  0.
     999903    2    3    3    0    0  0.11480182970E+00  0.84794783675E-02 -0.49828760704E-01  0.12695504567E+00  0.19578472148E-01 0.  0.
         14    1    1    2    0    0  0.60352282534E-02 -0.17729362983E-02 -0.24778427110E-01  0.25564384077E-01  0.00000000000E+00 0.  1.
     999901    1    3    3    0    0 -0.12083705796E+00 -0.67065420692E-02  0.74607187814E-01  0.89141057025E+00  0.88000000000E+00 0.  1.
        -11    1    4    4    0    0  0.10197080133E-01 -0.39565584068E-02 -0.14879789529E-02  0.11050339363E-01  0.51100000000E-03 0.  1.
         11    1    4    4    0    0  0.10460474957E+00  0.12436036774E-01 -0.48340781751E-01  0.11590470631E+00  0.51100000000E-03 0. -1.
</event>
<event>
 8    1  0.1204770E+005  0.1043930E+01  0.7957747E-01            NaN
         13   -1    0    0    0    0  0.00000000000E+00  0.00000000000E+00  0.74505805969E-08  0.10566000000E+00  0.10566000000E+00 0.  1.
     999900   -1    0    0    0    0 -0.00000000000E+00 -0.00000000000E+00 -0.74505805969E-08  0.93827000000E+00  0.93827000000E+00 0.  1.
     999902    2    1    2    0    0  0.92859946059E-02 -0.21472851111E-02  0.21333143025E-01  0.10205645657E+01  0.10202970593E+01 0.  0.
     999903    2    3    3    0    0  0.56512492122E-01  0.11259665928E+00  0.33274763812E-01  0.13177937390E+00  0.19670384627E-01 0.  0.
         14    1    1    2    0    0 -0.92859946059E-02  0.21472851111E-02 -0.21333143025E-01  0.23365434310E-01  0.00000000000E+00 0. -1.
     999901    1    3    3    0    0 -0.47226497516E-01 -0.11474394439E+00 -0.11941620786E-01  0.88878519179E+00  0.88000000000E+00 0. -1.
        -11    1    4    4    0    0  0.49251652530E-01  0.85141961241E-01  0.19771403543E-01  0.10032969829E+00  0.51100000000E-03 0.  1.
         11    1    4    4    0    0  0.72608395922E-02  0.27454698038E-01  0.13503360269E-01  0.31449675603E-01  0.51100000000E-03 0. -1.
</event>
<event>
 8    1  0.1204770E+005  0.1043930E+01  0.7957747E-01            NaN
         13   -1    0    0    0    0  0.00000000000E+00  0.00000000000E+00  0.74505805969E-08  0.10566000000E+00  0.10566000000E+00 0. -1.
     999900   -1    0    0    0    0 -0.00000000000E+00 -0.00000000000E+00 -0.74505805969E-08  0.93827000000E+00  0.93827000000E+00 0.  1.
     999902    2    1    2    0    0 -0.17985708022E-02 -0.22887064551E-01 -0.87196349034E-02  0.10193722189E+01  0.10190763642E+01 0.  0.
     999903    2    3    3    0    0 -0.55690372937E-01  0.22029461409E-01 -0.11425376234E+00  0.13029445361E+00  0.18330510746E-01 0.  0.
         14    1    1    2    0    0  0.17985708022E-02  0.22887064551E-01  0.87196349034E-02  0.24557781120E-01  0.00000000000E+00 0.  1.
     999901    1    3    3    0    0  0.53891802135E-01 -0.44916525960E-01  0.10553412744E+00  0.88907776527E+00  0.88000000000E+00 0. -1.
        -11    1    4    4    0    0 -0.12716642359E-01  0.12047724487E-01 -0.22825729003E-01  0.28777346711E-01  0.51100000000E-03 0.  1.
         11    1    4    4    0    0 -0.42973730578E-01  0.99817369221E-02 -0.91428033340E-01  0.10151710690E+00  0.51100000000E-03 0. -1.
</event>
<event>
 8    1  0.1204770E+005  0.1043930E+01  0.7957747E-01            NaN
         13   -1    0    0    0    0  0.00000000000E+00  0.00000000000E+00  0.74505805969E-08  0.10566000000E+00  0.10566000000E+00 0.  1.
     999900   -1    0    0    0    0 -0.00000000000E+00 -0.00000000000E+00 -0.74505805969E-08  0.93827000000E+00  0.93827000000E+00 0. -1.
     999902    2    1    2    0    0 -0.22295964803E-01 -0.77192035309E-02 -0.20964667232E-02  0.10202426337E+01  0.10199676173E+01 0.  0.
     999903    2    3    3    0    0 -0.36939880059E-01  0.12305647338E+00  0.10070216522E-01  0.13037480637E+00  0.19716249575E-01 0.  0.
         14    1    1    2    0    0  0.22295964803E-01  0.77192035309E-02  0.20964667232E-02  0.23687366303E-01  0.00000000000E+00 0.  1.
     999901    1    3    3    0    0  0.14643915256E-01 -0.13077567691E+00 -0.12166683246E-01  0.88986782732E+00  0.88000000000E+00 0.  1.
        -11    1    4    4    0    0 -0.13780423121E-01  0.47329875499E-01  0.13490711421E-01  0.51110445036E-01  0.51100000000E-03 0. -1.
         11    1    4    4    0    0 -0.23159456939E-01  0.75726597878E-01 -0.34204948987E-02  0.79264361337E-01  0.51100000000E-03 0.  1.
</event>
<event>
 8    1  0.1204770E+005  0.1043930E+01  0.7957747E-01            NaN
         13   -1    0    0    0    0  0.00000000000E+00  0.00000000000E+00  0.74505805969E-08  0.10566000000E+00  0.10566000000E+00 0. -1.
     999900   -1    0    0    0    0 -0.00000000000E+00 -0.00000000000E+00 -0.74505805969E-08  0.93827000000E+00  0.93827000000E+00 0. -1.
     999902    2    1    2    0    0  0.94999455529E-02 -0.18928113915E-01 -0.12581881489E-01  0.10192961573E+01  0.10189984446E+01 0.  0.
     999903    2    3    3    0    0  0.10834434193E+00 -0.95811820299E-03 -0.72292701090E-01  0.13156955675E+00  0.18571462335E-01 0.  0.
         14    1    1    2    0    0 -0.94999455529E-02  0.18928113915E-01  0.12581881489E-01  0.24633842650E-01  0.00000000000E+00 0. -1.
     999901    1    3    3    0    0 -0.98844396376E-01 -0.17969995712E-01  0.59710819600E-01  0.88772660060E+00  0.88000000000E+00 0.  1.
        -11    1    4    4    0    0  0.31985558947E-01 -0.45763685928E-02 -0.30546115762E-01  0.44467352517E-01  0.51100000000E-03 0.  1.
         11    1    4    4    0    0  0.76358782981E-01  0.36182503898E-02 -0.41746585327E-01  0.87102204230E-01  0.51100000000E-03 0. -1.
</event>
<event>
 8    1  0.1204770E+005  0.1043930E+01  0.7957747E-01            NaN
         13   -1    0    0    0    0  0.00000000000E+00  0.00000000000E+00  0.74505805969E-08  0.10566000000E+00  0.10566000000E+00 0.  1.
     999900   -1    0    0    0    0 -0.00000000000E+00 -0.00000000000E+00 -0.74505805969E-08  0.93827000000E+00  0.93827000000E+00 0. -1.
     999902    2    1    2    0    0  0.23135746683E-01  0.59880841437E-02  0.50197296182E-02  0.10195103847E+01  0.10192178898E+01 0.  0.
     999903    2    3    3    0    0  0.34959592211E-01 -0.19245820613E-01 -0.12212775431E+00  0.12993574705E+00  0.19378732883E-01 0.  0.
         14    1    1    2    0    0 -0.23135746683E-01 -0.59880841437E-02 -0.50197296182E-02  0.24419615307E-01  0.00000000000E+00 0. -1.
     999901    1    3    3    0    0 -0.11823845528E-01  0.25233904756E-01  0.12714748393E+00  0.88957463765E+00  0.88000000000E+00 0.  1.
        -11    1    4    4    0    0  0.21970441606E-01 -0.21941239711E-01 -0.83214089448E-01  0.88819840735E-01  0.51100000000E-03 0. -1.
         11    1    4    4    0    0  0.12989150605E-01  0.26954190990E-02 -0.38913664866E-01  0.41115906312E-01  0.51100000000E-03 0.  1.
</event>
<event>
 8    1  0.1233879E+005  0.1043930E+01  0.7957747E-01            NaN
         13   -1    0    0    0    0  0.00000000000E+00  0.00000000000E+00  0.74505805969E-08  0.10566000000E+00  0.10566000000E+00 0. -1.
     999900   -1    0    0    0    0 -0.00000000000E+00 -0.00000000000E+00 -0.74505805969E-08  0.93827000000E+00  0.93827000000E+00 0.  1.
     999902    2    1    2    0    0  0.12296585279E-01  0.18182411511E-01 -0.79231588660E-02  0.10205937076E+01  0.10203268758E+01 0.  0.
     999903    2    3    3    0    0 -0.25753181153E-01 -0.11005273283E+00 -0.56521034283E-01  0.12916014837E+00  0.26699930123E-01 0.  0.
         14    1    1    2    0    0 -0.12296585279E-01 -0.18182411511E-01  0.79231588660E-02  0.23336292428E-01  0.00000000000E+00 0. -1.
     999901    1    3    3    0    0  0.38049766431E-01  0.12823514434E+00  0.48597875417E-01  0.89143355920E+00  0.88000000000E+00 0.  1.
        -11    1    4    4    0    0 -0.27131024043E-01 -0.70348993152E-01 -0.28799412958E-01  0.80713943101E-01  0.51100000000E-03 0. -1.
         11    1    4    4    0    0  0.13778428905E-02 -0.39703739679E-01 -0.27721621324E-01  0.48446205273E-01  0.51100000000E-03 0.  1.
</event>
<event>
 8    1  0.1204770E+005  0.1043930E+01  0.7957747E-01            NaN
         13   -1    0    0    0    0  0.00000000000E+00  0.00000000000E+00  0.74505805969E-08  0.10566000000E+00  0.10566000000E+00 0.  1.
     999900   -1    0    0    0    0 -0.00000000000E+00 -0.00000000000E+00 -0.74505805969E-08  0.93827000000E+00  0.93827000000E+00 0.  1.
     999902    2    1    2    0    0 -0.19045221311E-01 -0.26330192861E-02  0.13390587791E-01  0.10205000814E+01  0.10202310792E+01 0.  0.
     999903    2    3    3    0    0 -0.12785587800E-01 -0.12919637593E+00  0.39778748380E-02  0.13137350691E+00  0.19697716159E-01 0.  0.
         14    1    1    2    0    0  0.19045221311E-01  0.26330192861E-02 -0.13390587791E-01  0.23429918624E-01  0.00000000000E+00 0. -1.
     999901    1    3    3    0    0 -0.62596335112E-02  0.12656335664E+00  0.94127129526E-02  0.88912657447E+00  0.88000000000E+00 0. -1.
        -11    1    4    4    0    0 -0.78678239617E-02 -0.37234802293E-01 -0.67571109143E-02  0.38655566541E-01  0.51100000000E-03 0.  1.
         11    1    4    4    0    0 -0.49177638383E-02 -0.91961573633E-01  0.10734985752E-01  0.92717940370E-01  0.51100000000E-03 0. -1.
</event>
<event>
 8    1  0.1204770E+005  0.1043930E+01  0.7957747E-01            NaN
         13   -1    0    0    0    0  0.00000000000E+00  0.00000000000E+00  0.74505805969E-08  0.10566000000E+00  0.10566000000E+00 0.  1.
     999900   -1    0    0    0    0 -0.00000000000E+00 -0.00000000000E+00 -0.74505805969E-08  0.93827000000E+00  0.93827000000E+00 0. -1.
     999902    2    1    2    0    0  0.62569274340E-02 -0.13341468665E-01 -0.16393127116E-01  0.10218873472E+01  0.10216495836E+01 0.  0.
     999903    2    3    3    0    0 -0.69608943764E-01 -0.10586525847E+00  0.32973772596E-01  0.13241931915E+00  0.19868276239E-01 0.  0.
         14    1    1    2    0    0 -0.62569274340E-02  0.13341468665E-01  0.16393127116E-01  0.22042652828E-01  0.00000000000E+00 0.  1.
     999901    1    3    3    0    0  0.75865871198E-01  0.92523789807E-01 -0.49366899712E-01  0.88946802803E+00  0.88000000000E+00 0. -1.
        -11    1    4    4    0    0 -0.31232997772E-01 -0.32687460351E-01  0.16711643640E-01  0.48202804567E-01  0.51100000000E-03 0. -1.
         11    1    4    4    0    0 -0.38375945992E-01 -0.73177798122E-01  0.16262128956E-01  0.84216514579E-01  0.51100000000E-03 0.  1.
</event>
<event>
 8    1  0.1204770E+005  0.1043930E+01  0.7957747E-01            NaN
         13   -1    0    0    0    0  0.00000000000E+00  0.00000000000E+00  0.74505805969E-08  0.10566000000E+00  0.10566000000E+00 0. -1.
     999900   -1    0    0    0    0 -0.00000000000E+00 -0.00000000000E+00 -0.74505805969E-08  0.93827000000E+00  0.93827000000E+00 0. -1.
     999902    2    1    2    0    0  0.14064262865E-01  0.36416540631E-02 -0.17993017200E-01  0.10208039584E+01  0.10205419676E+01 0.  0.
     999903    2    3    3    0    0 -0.93562270744E-01  0.55410986902E-01  0.66063470436E-01  0.12876750861E+00  0.19809421275E-01 0.  0.
         14    1    1    2    0    0 -0.14064262865E-01 -0.36416540631E-02  0.17993017200E-01  0.23126041646E-01  0.00000000000E+00 0. -1.
     999901    1    3    3    0    0  0.10762653361E+00 -0.51769332839E-01 -0.84056487636E-01  0.89203644974E+00  0.88000000000E+00 0. -1.
        -11    1    4    4    0    0 -0.33766499445E-01  0.15425880751E-01  0.32692680304E-01  0.49469250532E-01  0.51100000000E-03 0. -1.
         11    1    4    4    0    0 -0.59795771299E-01  0.39985106151E-01  0.33370790132E-01  0.79298258078E-01  0.51100000000E-03 0.  1.
</event>
<event>
 8    1  0.1204770E+005  0.1043930E+01  0.7957747E-01            NaN
         13   -1    0    0    0    0  0.00000000000E+00  0.00000000000E+00  0.74505805969E-08  0.10566000000E+00  0.10566000000E+00 0.  1.
     999900   -1    0    0    0    0 -0.00000000000E+00 -0.00000000000E+00 -0.74505805969E-08  0.93827000000E+00  0.93827000000E+00 0. -1.
     999902    2    1    2    0    0  0.14153458552E-01 -0.13214961685E-01 -0.13419771903E-01  0.10203705883E+01  0.10200985696E+01 0.  0.
     999903    2    3    3    0    0 -0.13250569120E-01  0.79607476023E-01  0.97955463187E-01  0.12808620053E+00  0.17259031794E-01 0.  0.
         14    1    1    2    0    0 -0.14153458552E-01  0.13214961685E-01  0.13419771903E-01  0.23559411691E-01  0.00000000000E+00 0.  1.
     999901    1    3    3    0    0  0.27404027671E-01 -0.92822437708E-01 -0.11137523509E+00  0.89228438777E+00  0.88000000000E+00 0. -1.
        -11    1    4    4    0    0  0.40422962801E-02  0.21694469362E-01  0.25246351368E-01  0.33535496694E-01  0.51100000000E-03 0.  1.
         11    1    4    4    0    0 -0.17292865400E-01  0.57913006661E-01  0.72709111820E-01  0.94550703841E-01  0.51100000000E-03 0. -1.
</event>
<event>
 8    1  0.1204770E+005  0.1043930E+01  0.7957747E-01            NaN
         13   -1    0    0    0    0  0.00000000000E+00  0.00000000000E+00  0.74505805969E-08  0.10566000000E+00  0.10566000000E+00 0.  1.
     999900   -1    0    0    0    0 -0.00000000000E+00 -0.00000000000E+00 -0.74505805969E-08  0.93827000000E+00  0.93827000000E+00 0.  1.
     999902    2    1    2    0    0 -0.18794881776E-02 -0.22893765106E-01 -0.67871610217E-02  0.10199774947E+01  0.10196962132E+01 0.  0.
     999903    2    3    3    0    0  0.40727639657E-02  0.69211150323E-01 -0.10742265230E+00  0.12944605399E+00  0.20245590373E-01 0.  0.
         14    1    1    2    0    0  0.18794881776E-02  0.22893765106E-01  0.67871610217E-02  0.23952505323E-01  0.00000000000E+00 0. -1.
     999901    1    3    3    0    0 -0.59522521433E-02 -0.92104915429E-01  0.10063549128E+00  0.89053144069E+00  0.88000000000E+00 0. -1.
        -11    1    4    4    0    0 -0.66149309659E-04  0.38303208989E-01 -0.41258901930E-01  0.56300073748E-01  0.51100000000E-03 0. -1.
         11    1    4    4    0    0  0.41389132754E-02  0.30907941334E-01 -0.66163750374E-01  0.73145980239E-01  0.51100000000E-03 0.  1.
</event>
<event>
 8    1  0.1204770E+005  0.1043930E+01  0.7957747E-01            NaN
         13   -1    0    0    0    0  0.00000000000E+00  0.00000000000E+00  0.74505805969E-08  0.10566000000E+00  0.10566000000E+00 0.  1.
     999900   -1    0    0    0    0 -0.00000000000E+00 -0.00000000000E+00 -0.74505805969E-08  0.93827000000E+00  0.93827000000E+00 0. -1.
     999902    2    1    2    0    0 -0.20257954552E-01  0.29705733828E-02  0.13188609034E-01  0.10195753611E+01  0.10192844394E+01 0.  0.
     999903    2    3    3    0    0 -0.94051444404E-01  0.27466430383E-01  0.87686106118E-01  0.13301154317E+00  0.20078307121E-01 0.  0.
         14    1    1    2    0    0  0.20257954552E-01 -0.29705733828E-02 -0.13188609034E-01  0.24354638924E-01  0.00000000000E+00 0.  1.
     999901    1    3    3    0    0  0.73793489852E-01 -0.24495857000E-01 -0.74497497084E-01  0.88656381791E+00  0.88000000000E+00 0. -1.
        -11    1    4    4    0    0 -0.28032412763E-01  0.20633103307E-02  0.34525058045E-01  0.44523186867E-01  0.51100000000E-03 0.  1.
         11    1    4    4    0    0 -0.66019031641E-01  0.25403120052E-01  0.53161048074E-01  0.88488356299E-01  0.51100000000E-03 0. -1.
</event>
<event>
 8    1  0.1204770E+005  0.1043930E+01  0.7957747E-01            NaN
         13   -1    0    0    0    0  0.00000000000E+00  0.00000000000E+00  0.74505805969E-08  0.10566000000E+00  0.10566000000E+00 0. -1.
     999900   -1    0    0    0    0 -0.00000000000E+00 -0.00000000000E+00 -0.74505805969E-08  0.93827000000E+00  0.93827000000E+00 0. -1.
     999902    2    1    2    0    0  0.19915322563E-01 -0.10153531425E-01  0.92530663501E-02  0.10197363333E+01  0.10194492905E+01 0.  0.
     999903    2    3    3    0    0 -0.36602150763E-02 -0.27212760485E-01 -0.12434883358E+00  0.12917679515E+00  0.21681339534E-01 0.  0.
         14    1    1    2    0    0 -0.19915322563E-01  0.10153531425E-01 -0.92530663501E-02  0.24193666734E-01  0.00000000000E+00 0.  1.
     999901    1    3    3    0    0  0.23575537639E-01  0.17059229060E-01  0.13360189993E+00  0.89055953812E+00  0.88000000000E+00 0.  1.
        -11    1    4    4    0    0  0.80674832411E-02 -0.41479964798E-02 -0.34258119395E-01  0.35442488994E-01  0.51100000000E-03 0. -1.
         11    1    4    4    0    0 -0.11727698317E-01 -0.23064764005E-01 -0.90090714185E-01  0.93734306152E-01  0.51100000000E-03 0.  1.
</event>
<event>
 8    1  0.1204770E+005  0.1043930E+01  0.7957747E-01            NaN
         13   -1    0    0    0    0  0.00000000000E+00  0.00000000000E+00  0.74505805969E-08  0.10566000000E+00  0.10566000000E+00 0.  1.
     999900   -1    0    0    0    0 -0.00000000000E+00 -0.00000000000E+00 -0.74505805969E-08  0.93827000000E+00  0.93827000000E+00 0.  1.
     999902    2    1    2    0    0  0.56933969653E-02 -0.11852659591E-01  0.20824190451E-01  0.10193018207E+01  0.10190042465E+01 0.  0.
     999903    2    3    3    0    0 -0.10494828827E+00  0.17572895353E-01 -0.67185343873E-01  0.12753216213E+00  0.20679266993E-01 0.  0.
         14    1    1    2    0    0 -0.56933969653E-02  0.11852659591E-01 -0.20824190451E-01  0.24628179314E-01  0.00000000000E+00 0. -1.
     999901    1    3    3    0    0  0.11064168524E+00 -0.29425554944E-01  0.88009534324E-01  0.89176965856E+00  0.88000000000E+00 0. -1.
        -11    1    4    4    0    0 -0.34300199829E-01  0.97570546924E-02 -0.12295398990E-01  0.37724551448E-01  0.51100000000E-03 0. -1.
         11    1    4    4    0    0 -0.70648088441E-01  0.78158406602E-02 -0.54889944883E-01  0.89807610679E-01  0.51100000000E-03 0.  1.
</event>
<event>
 8    1  0.1204770E+005  0.1043930E+01  0.7957747E-01            NaN
         13   -1    0    0    0    0  0.00000000000E+00  0.00000000000E+00  0.74505805969E-08  0.10566000000E+00  0.10566000000E+00 0.  1.
     999900   -1    0    0    0    0 -0.00000000000E+00 -0.00000000000E+00 -0.74505805969E-08  0.93827000000E+00  0.93827000000E+00 0. -1.
     999902    2    1    2    0    0  0.66730505848E-02  0.36269877189E-02 -0.22819688005E-01  0.10198795779E+01  0.10195959644E+01 0.  0.
     999903    2    3    3    0    0  0.11741347128E+00  0.53446579256E-01 -0.16996892707E-01  0.13152191486E+00  0.19148359101E-01 0.  0.
         14    1    1    2    0    0 -0.66730505848E-02 -0.36269877189E-02  0.22819688005E-01  0.24050422131E-01  0.00000000000E+00 0.  1.
     999901    1    3    3    0    0 -0.11074042069E+00 -0.49819591537E-01 -0.58227952986E-02  0.88835766301E+00  0.88000000000E+00 0. -1.
        -11    1    4    4    0    0  0.10011388671E+00  0.39370272686E-01 -0.95420131443E-02  0.10800055471E+00  0.51100000000E-03 0. -1.
         11    1    4    4    0    0  0.17299584571E-01  0.14076306570E-01 -0.74548795622E-02  0.23521360149E-01  0.51100000000E-03 0.  1.
</event>
<event>
 8    1  0.1204770E+005  0.1043930E+01  0.7957747E-01            NaN
         13   -1    0    0    0    0  0.00000000000E+00  0.00000000000E+00  0.74505805969E-08  0.10566000000E+00  0.10566000000E+00 0.  1.
     999900   -1    0    0    0    0 -0.00000000000E+00 -0.00000000000E+00 -0.74505805969E-08  0.93827000000E+00  0.93827000000E+00 0. -1.
     999902    2    1    2    0    0 -0.11386091781E-01 -0.49130377075E-02  0.20371898603E-01  0.10200805707E+01  0.10198017334E+01 0.  0.
     999903    2    3    3    0    0  0.10015884825E+00  0.73050809796E-01 -0.26589678648E-01  0.12838217723E+00  0.20168210755E-01 0.  0.
         14    1    1    2    0    0  0.11386091781E-01  0.49130377075E-02 -0.20371898603E-01  0.23849429307E-01  0.00000000000E+00 0. -1.
     999901    1    3    3    0    0 -0.11154494003E+00 -0.77963847504E-01  0.46961577250E-01  0.89169839346E+00  0.88000000000E+00 0.  1.
        -11    1    4    4    0    0  0.36529670155E-01  0.31122844867E-01 -0.19664446413E-01  0.51865208454E-01  0.51100000000E-03 0. -1.
         11    1    4    4    0    0  0.63629178097E-01  0.41927964929E-01 -0.69252322347E-02  0.76516968777E-01  0.51100000000E-03 0.  1.
</event>
<event>
 8    1  0.1204770E+005  0.1043930E+01  0.7957747E-01            NaN
         13   -1    0    0    0    0  0.00000000000E+00  0.00000000000E+00  0.74505805969E-08  0.10566000000E+00  0.10566000000E+00 0.  1.
     999900   -1    0    0    0    0 -0.00000000000E+00 -0.00000000000E+00 -0.74505805969E-08  0.93827000000E+00  0.93827000000E+00 0. -1.
     999902    2    1    2    0    0  0.33767351182E-02 -0.23446903995E-01 -0.55032931607E-02  0.10196103396E+01  0.10193202631E+01 0.  0.
     999903    2    3    3    0    0 -0.12337557535E+00 -0.37101227323E-01 -0.53803950097E-02  0.13042385529E+00  0.19580595364E-01 0.  0.
         14    1    1    2    0    0 -0.33767351182E-02  0.23446903995E-01  0.55032931607E-02  0.24319660414E-01  0.00000000000E+00 0.  1.
     999901    1    3    3    0    0  0.12675231047E+00  0.13654323328E-01 -0.12289815108E-03  0.88918648430E+00  0.88000000000E+00 0.  1.
        -11    1    4    4    0    0 -0.59088236528E-01 -0.12429030737E-01  0.57989635178E-02  0.60661269356E-01  0.51100000000E-03 0.  1.
         11    1    4    4    0    0 -0.64287338826E-01 -0.24672196586E-01 -0.11179358527E-01  0.69762585931E-01  0.51100000000E-03 0. -1.
</event>
<event>
 8    1  0.1204770E+005  0.1043930E+01  0.7957747E-01            NaN
         13   -1    0    0    0    0  0.00000000000E+00  0.00000000000E+00  0.74505805969E-08  0.10566000000E+00  0.10566000000E+00 0.  1.
     999900   -1    0    0    0    0 -0.00000000000E+00 -0.00000000000E+00 -0.74505805969E-08  0.93827000000E+00  0.93827000000E+00 0.  1.
     999902    2    1    2    0    0  0.23145720687E-01 -0.17844976687E-02 -0.74720651694E-02  0.10195426964E+01  0.10192509844E+01 0.  0.
     999903    2    3    3    0    0 -0.53201008318E-02  0.97961158846E-01  0.81363731112E-01  0.12900841988E+00  0.19960549698E-01 0.  0.
         14    1    1    2    0    0 -0.23145720687E-01  0.17844976687E-02  0.74720651694E-02  0.24387303581E-01  0.00000000000E+00 0. -1.
     999901    1    3    3    0    0  0.28465821519E-01 -0.99745656515E-01 -0.88835796282E-01  0.89053427654E+00  0.88000000000E+00 0.  1.
        -11    1    4    4    0    0  0.18193654223E-02  0.40802965949E-01  0.45532525688E-01  0.61169143670E-01  0.51100000000E-03 0.  1.
         11    1    4    4    0    0 -0.71394662541E-02  0.57158192897E-01  0.35831205425E-01  0.67839276211E-01  0.51100000000E-03 0. -1.
</event>
<event>
 8    1  0.1204770E+005  0.1043930E+01  0.7957747E-01            NaN
         13   -1    0    0    0    0  0.00000000000E+00  0.00000000000E+00  0.74505805969E-08  0.10566000000E+00  0.10566000000E+00 0.  1.
     999900   -1    0    0    0    0 -0.00000000000E+00 -0.00000000000E+00 -0.74505805969E-08  0.93827000000E+00  0.93827000000E+00 0.  1.
     999902    2    1    2    0    0  0.19089350705E-01  0.13690217865E-01 -0.67217947910E-02  0.10194962549E+01  0.10192034173E+01 0.  0.
     999903    2    3    3    0    0  0.58651909031E-01 -0.86986007121E-01 -0.74434458942E-01  0.13029104617E+00  0.20704013310E-01 0.  0.
         14    1    1    2    0    0 -0.19089350705E-01 -0.13690217865E-01  0.67217947910E-02  0.24433745123E-01  0.00000000000E+00 0. -1.
     999901    1    3    3    0    0 -0.39562558326E-01  0.10067622499E+00  0.67712664151E-01  0.88920520870E+00  0.88000000000E+00 0. -1.
        -11    1    4    4    0    0  0.77151933309E-02 -0.26625662424E-01 -0.23147947268E-01  0.36118398239E-01  0.51100000000E-03 0. -1.
         11    1    4    4    0    0  0.50936715700E-01 -0.60360344697E-01 -0.51286511675E-01  0.94172647934E-01  0.51100000000E-03 0.  1.
</event>
<event>
 8    1  0.1204770E+005  0.1043930E+01  0.7957747E-01            NaN
         13   -1    0    0    0    0  0.00000000000E+00  0.00000000000E+00  0.74505805969E-08  0.10566000000E+00  0.10566000000E+00 0.  1.
     999900   -1    0    0    0    0 -0.00000000000E+00 -0.00000000000E+00 -0.74505805969E-08  0.93827000000E+00  0.93827000000E+00 0.  1.
     999902    2    1    2    0    0 -0.10916661260E-01  0.15800874439E-01  0.14204819777E-01  0.10200423875E+01  0.10197626460E+01 0.  0.
     999903    2    3    3    0    0 -0.12836734962E+00  0.22342521588E-01 -0.63721511557E-02  0.13197658528E+00  0.19996250454E-01 0.  0.
         14    1    1    2    0    0  0.10916661260E-01 -0.15800874439E-01 -0.14204819777E-01  0.23887612501E-01  0.00000000000E+00 0. -1.
     999901    1    3    3    0    0  0.11745068836E+00 -0.65416471496E-02  0.20576970933E-01  0.88806580222E+00  0.88000000000E+00 0. -1.
        -11    1    4    4    0    0 -0.90792898365E-01  0.17533468558E-01  0.44436293509E-02  0.92578506555E-01  0.51100000000E-03 0.  1.
         11    1    4    4    0    0 -0.37574451253E-01  0.48090530299E-02 -0.10815780507E-01  0.39398078722E-01  0.51100000000E-03 0. -1.
</event>
<event>
 8    1  0.1204770E+005  0.1043930E+01  0.7957747E-01            NaN
         13   -1    0    0    0    0  0.00000000000E+00  0.00000000000E+00  0.74505805969E-08  0.10566000000E+00  0.10566000000E+00 0.  1.
     999900   -1    0    0    0    0 -0.00000000000E+00 -0.00000000000E+00 -0.74505805969E-08  0.93827000000E+00  0.93827000000E+00 0.  1.
     999902    2    1    2    0    0  0.90650621142E-02  0.46012063708E-04  0.34868735391E-01  0.10079021472E+01  0.10072580266E+01 0.  0.
     999903    2    3    3    0    0 -0.66347544881E-01 -0.86444006764E-01  0.46000297271E-01  0.12038229036E+00  0.22389851848E-01 0.  0.
         14    1    1    2    0    0 -0.90650621142E-02 -0.46012063708E-04 -0.34868735391E-01  0.36027852781E-01  0.00000000000E+00 0. -1.
     999901    1    3    3    0    0  0.75412606995E-01  0.86490018828E-01 -0.11131561880E-01  0.88751985686E+00  0.88000000000E+00 0.  1.
        -11    1    4    4    0    0 -0.10698032475E-01 -0.22940797891E-01  0.26209077823E-02  0.25453062396E-01  0.51100000000E-03 0. -1.
         11    1    4    4    0    0 -0.55649512406E-01 -0.63503208873E-01  0.43379389489E-01  0.94929227963E-01  0.51100000000E-03 0.  1.
</event>
<event>
 8    1  0.1204770E+005  0.1043930E+01  0.7957747E-01            NaN
         13   -1    0    0    0    0  0.00000000000E+00  0.00000000000E+00  0.74505805969E-08  0.10566000000E+00  0.10566000000E+00 0.  1.
     999900   -1    0    0    0    0 -0.00000000000E+00 -0.00000000000E+00 -0.74505805969E-08  0.93827000000E+00  0.93827000000E+00 0. -1.
     999902    2    1    2    0    0  0.11534322846E-01 -0.97755059435E-02 -0.17725361132E-01  0.10206321557E+01  0.10203662126E+01 0.  0.
     999903    2    3    3    0    0 -0.53697756239E-01 -0.76128568127E-01 -0.92198681087E-01  0.13259824401E+00  0.20067127572E-01 0.  0.
         14    1    1    2    0    0 -0.11534322846E-01  0.97755059435E-02  0.17725361132E-01  0.23297844261E-01  0.00000000000E+00 0.  1.
     999901    1    3    3    0    0  0.65232079085E-01  0.66353062183E-01  0.74473319956E-01  0.88803391173E+00  0.88000000000E+00 0.  1.
        -11    1    4    4    0    0 -0.31442965170E-01 -0.35043251020E-01 -0.34610159677E-01  0.58436407954E-01  0.51100000000E-03 0. -1.
         11    1    4    4    0    0 -0.22254791070E-01 -0.41085317107E-01 -0.57588521410E-01  0.74161836052E-01  0.51100000000E-03 0.  1.
</event>
<event>
 7    1  0.1204770E+005  0.1043930E+01  0.7957747E-01            NaN
         13   -1    0    0    0    0  0.00000000000E+00  0.00000000000E+00  0.74505805969E-08  0.10566000000E+00  0.10566000000E+00 0. -1.
     999900   -1    0    0    0    0 -0.00000000000E+00 -0.00000000000E+00 -0.74505805969E-08  0.93827000000E+00  0.93827000000E+00 0. -1.
     999902    2    1    2    0    0 -0.69903542699E-02 -0.15978997842E-01  0.15568320026E-01  0.10205512487E+01  0.10202834337E+01 0.  0.
         14    1    1    2    0    0  0.69903542699E-02  0.15978997842E-01 -0.15568320026E-01  0.23378751321E-01  0.00000000000E+00 0.  1.
     999901    1    3    3    0    0  0.11076110878E+00 -0.24365985307E-02  0.59475304485E-01  0.88893828361E+00  0.88000000000E+00 0. -1.
        -11    1    3    3    0    0 -0.91263312352E-01 -0.31063073097E-02 -0.47465775267E-01  0.10291696784E+00  0.51100000000E-03 0. -1.
         11    1    3    3    0    0 -0.26488150700E-01 -0.10436092002E-01  0.35587908087E-02  0.28695997226E-01  0.51100000000E-03 0.  1.
</event>
<event>
 8    1  0.1204770E+005  0.1043930E+01  0.7957747E-01            NaN
         13   -1    0    0    0    0  0.00000000000E+00  0.00000000000E+00  0.74505805969E-08  0.10566000000E+00  0.10566000000E+00 0.  1.
     999900   -1    0    0    0    0 -0.00000000000E+00 -0.00000000000E+00 -0.74505805969E-08  0.93827000000E+00  0.93827000000E+00 0.  1.
     999902    2    1    2    0    0  0.24345535486E-01 -0.33263797251E-02  0.10901683417E-03  0.10193580285E+01  0.10190618276E+01 0.  0.
     999903    2    3    3    0    0 -0.48603762944E-01 -0.69324166934E-01 -0.95136298119E-01  0.12876890992E+00  0.19035520721E-01 0.  0.
         14    1    1    2    0    0 -0.24345535486E-01  0.33263797251E-02 -0.10901683417E-03  0.24571971530E-01  0.00000000000E+00 0.  1.
     999901    1    3    3    0    0  0.72949298430E-01  0.65997787209E-01  0.95245314953E-01  0.89058911855E+00  0.88000000000E+00 0. -1.
        -11    1    4    4    0    0 -0.41253390348E-01 -0.57703423886E-01 -0.67606569349E-01  0.97992023571E-01  0.51100000000E-03 0.  1.
         11    1    4    4    0    0 -0.73503725963E-02 -0.11620743048E-01 -0.27529728769E-01  0.30776886350E-01  0.51100000000E-03 0. -1.
</event>
<event>
 8    1  0.1204770E+005  0.1043930E+01  0.7957747E-01            NaN
         13   -1    0    0    0    0  0.00000000000E+00  0.00000000000E+00  0.74505805969E-08  0.10566000000E+00  0.10566000000E+00 0.  1.
     999900   -1    0    0    0    0 -0.00000000000E+00 -0.00000000000E+00 -0.74505805969E-08  0.93827000000E+00  0.93827000000E+00 0.  1.
     999902    2    1    2    0    0  0.47941288571E-02 -0.76107636568E-02 -0.23403221077E-01  0.10188577414E+01  0.10185492031E+01 0.  0.
     999903    2    3    3    0    0  0.27874122706E-01  0.66412041317E-01  0.10217104454E+00  0.12656801381E+00  0.19824576364E-01 0.  0.
         14    1    1    2    0    0 -0.47941288571E-02  0.76107636568E-02  0.23403221077E-01  0.25072258608E-01  0.00000000000E+00 0.  1.
     999901    1    3    3    0    0 -0.23079993848E-01 -0.74022804973E-01 -0.12557426562E+00  0.89228972759E+00  0.88000000000E+00 0.  1.
        -11    1    4    4    0    0  0.72468540386E-02  0.23532399792E-01  0.51324568335E-01  0.56927701246E-01  0.51100000000E-03 0. -1.
         11    1    4    4    0    0  0.20627268667E-01  0.42879641525E-01  0.50846476204E-01  0.69640312559E-01  0.51100000000E-03 0.  1.
</event>
<event>
 8    1  0.1204770E+005  0.1043930E+01  0.7957747E-01            NaN
         13   -1    0    0    0    0  0.00000000000E+00  0.00000000000E+00  0.74505805969E-08  0.10566000000E+00  0.10566000000E+00 0. -1.
     999900   -1    0    0    0    0 -0.00000000000E+00 -0.00000000000E+00 -0.74505805969E-08  0.93827000000E+00  0.93827000000E+00 0.  1.
     999902    2    1    2    0    0 -0.10012297952E-01 -0.19473545128E-02  0.20715768341E-01  0.10208392798E+01  0.10205780979E+01 0.  0.
     999903    2    3    3    0    0  0.24185459873E-01 -0.12158858835E+00  0.40166459564E-01  0.13187255331E+00  0.20206547402E-01 0.  0.
         14    1    1    2    0    0  0.10012297952E-01  0.19473545128E-02 -0.20715768341E-01  0.23090720167E-01  0.00000000000E+00 0.  1.
     999901    1    3    3    0    0 -0.34197757825E-01  0.11964123383E+00 -0.19450691223E-01  0.88896672652E+00  0.88000000000E+00 0. -1.
        -11    1    4    4    0    0  0.19363440368E-01 -0.11381081787E+00  0.32530724183E-01  0.11994312912E+00  0.51100000000E-03 0.  1.
         11    1    4    4    0    0  0.48220195055E-02 -0.77777704797E-02  0.76357353805E-02  0.11929424192E-01  0.51100000000E-03 0. -1.
</event>
<event>
 8    1  0.1204770E+005  0.1043930E+01  0.7957747E-01            NaN
         13   -1    0    0    0    0  0.00000000000E+00  0.00000000000E+00  0.74505805969E-08  0.10566000000E+00  0.10566000000E+00 0. -1.
     999900   -1    0    0    0    0 -0.00000000000E+00 -0.00000000000E+00 -0.74505805969E-08  0.93827000000E+00  0.93827000000E+00 0.  1.
     999902    2    1    2    0    0  0.25739595802E-02  0.16105592198E-01  0.17419828297E-01  0.10200665177E+01  0.10197873478E+01 0.  0.
     999903    2    3    3    0    0 -0.12203604613E-01 -0.14010314992E-01 -0.12517435579E+00  0.12795753022E+00  0.18955033668E-01 0.  0.
         14    1    1    2    0    0 -0.25739595802E-02 -0.16105592198E-01 -0.17419828297E-01  0.23863482266E-01  0.00000000000E+00 0.  1.
     999901    1    3    3    0    0  0.14777564193E-01  0.30115907190E-01  0.14259418408E+00  0.89210898751E+00  0.88000000000E+00 0. -1.
        -11    1    4    4    0    0 -0.10659626612E-01 -0.61600590717E-02 -0.29803732193E-01  0.32250543265E-01  0.51100000000E-03 0. -1.
         11    1    4    4    0    0 -0.15439780009E-02 -0.78502559201E-02 -0.95370623594E-01  0.95706986954E-01  0.51100000000E-03 0.  1.
</event>
<event>
 8    1  0.1204770E+005  0.1043930E+01  0.7957747E-01            NaN
         13   -1    0    0    0    0  0.00000000000E+00  0.00000000000E+00  0.74505805969E-08  0.10566000000E+00  0.10566000000E+00 0.  1.
     999900   -1    0    0    0    0 -0.00000000000E+00 -0.00000000000E+00 -0.74505805969E-08  0.93827000000E+00  0.93827000000E+00 0.  1.
     999902    2    1    2    0    0 -0.19148020330E-01  0.17830010150E-01  0.32082127894E-03  0.10177640131E+01  0.10174276031E+01 0.  0.
     999903    2    3    3    0    0  0.74982870612E-02 -0.74807746049E-01  0.10013928656E+00  0.12689056216E+00  0.20516210034E-01 0.  0.
         14    1    1    2    0    0  0.19148020330E-01 -0.17830010150E-01 -0.32082127894E-03  0.26165986907E-01  0.00000000000E+00 0.  1.
     999901    1    3    3    0    0 -0.26646307391E-01  0.92637756199E-01 -0.99818465281E-01  0.89087345094E+00  0.88000000000E+00 0. -1.
        -11    1    4    4    0    0  0.11007370779E-01 -0.53917000747E-01  0.59426831254E-01  0.80993916901E-01  0.51100000000E-03 0.  1.
         11    1    4    4    0    0 -0.35090837176E-02 -0.20890745302E-01  0.40712455306E-01  0.45896645257E-01  0.51100000000E-03 0. -1.
</event>
<event>
 8    1  0.1204770E+005  0.1043930E+01  0.7957747E-01            NaN
         13   -1    0    0    0    0  0.00000000000E+00  0.00000000000E+00  0.74505805969E-08  0.10566000000E+00  0.10566000000E+00 0. -1.
     999900   -1    0    0    0    0 -0.00000000000E+00 -0.00000000000E+00 -0.74505805969E-08  0.93827000000E+00  0.93827000000E+00 0. -1.
     999902    2    1    2    0    0 -0.38524004471E-03  0.13902826615E-01  0.19219436052E-01  0.10202060939E+01  0.10199302184E+01 0.  0.
     999903    2    3    3    0    0 -0.11701862648E+00  0.55649694050E-01  0.92818861896E-02  0.13147390553E+00  0.20223427845E-01 0.  0.
         14    1    1    2    0    0  0.38524004471E-03 -0.13902826615E-01 -0.19219436052E-01  0.23723906085E-01  0.00000000000E+00 0.  1.
     999901    1    3    3    0    0  0.11663338643E+00 -0.41746867435E-01  0.99375498623E-02  0.88873218838E+00  0.88000000000E+00 0.  1.
        -11    1    4    4    0    0 -0.59376966719E-01  0.35176748709E-01 -0.29990694567E-02  0.69081715129E-01  0.51100000000E-03 0.  1.
         11    1    4    4    0    0 -0.57641659759E-01  0.20472945341E-01  0.12280955646E-01  0.62392190403E-01  0.51100000000E-03 0. -1.
</event>
<event>
 8    1  0.1204770E+005  0.1043930E+01  0.7957747E-01            NaN
         13   -1    0    0    0    0  0.00000000000E+00  0.00000000000E+00  0.74505805969E-08  0.10566000000E+00  0.10566000000E+00 0.  1.
     999900   -1    0    0    0    0 -0.00000000000E+00 -0.00000000000E+00 -0.74505805969E-08  0.93827000000E+00  0.93827000000E+00 0. -1.
     999902    2    1    2    0    0  0.13322691236E-01 -0.13832033422E-01  0.13083175665E-01  0.10206923423E+01  0.10204277872E+01 0.  0.
     999903    2    3    3    0    0  0.63910194119E-01 -0.55099739991E-01  0.10198156662E+00  0.13380731988E+00  0.19587359820E-01 0.  0.
         14    1    1    2    0    0 -0.13322691236E-01  0.13832033422E-01 -0.13083175665E-01  0.23237657709E-01  0.00000000000E+00 0.  1.
     999901    1    3    3    0    0 -0.50587502883E-01  0.41267706570E-01 -0.88898390957E-01  0.88688502241E+00  0.88000000000E+00 0. -1.
        -11    1    4    4    0    0  0.54720028761E-01 -0.42098219975E-01  0.91937901839E-01  0.11497556518E+00  0.51100000000E-03 0.  1.
         11    1    4    4    0    0  0.91901653575E-02 -0.13001520016E-01  0.10043664783E-01  0.18831754705E-01  0.51100000000E-03 0. -1.
</event>
<event>
 8    1  0.1204770E+005  0.1043930E+01  0.7957747E-01            NaN
         13   -1    0    0    0    0  0.00000000000E+00  0.00000000000E+00  0.74505805969E-08  0.10566000000E+00  0.10566000000E+00 0.  1.
     999900   -1    0    0    0    0 -0.00000000000E+00 -0.00000000000E+00 -0.74505805969E-08  0.93827000000E+00  0.93827000000E+00 0. -1.
     999902    2    1    2    0    0 -0.82983314577E-02 -0.21077726423E-01  0.68309170438E-02  0.10202700278E+01  0.10199956546E+01 0.  0.
     999903    2    3    3    0    0 -0.60397914850E-01 -0.67924911337E-01  0.95170775903E-01  0.13307616175E+00  0.19750608624E-01 0.  0.
         14    1    1    2    0    0  0.82983314577E-02  0.21077726423E-01 -0.68309170438E-02  0.23659972185E-01  0.00000000000E+00 0.  1.
     999901    1    3    3    0    0  0.52099583392E-01  0.46847184914E-01 -0.88339858860E-01  0.88719386607E+00  0.88000000000E+00 0. -1.
        -11    1    4    4    0    0 -0.34864070850E-01 -0.42732433710E-01  0.70626407973E-01  0.89609792719E-01  0.51100000000E-03 0. -1.
         11    1    4    4    0    0 -0.25533844000E-01 -0.25192477627E-01  0.24544367930E-01  0.43466369028E-01  0.51100000000E-03 0.  1.
</event>
<event>
 8    1  0.1204770E+005  0.1043930E+01  0.7957747E-01            NaN
         13   -1    0    0    0    0  0.00000000000E+00  0.00000000000E+00  0.74505805969E-08  0.10566000000E+00  0.10566000000E+00 0. -1.
     999900   -1    0    0    0    0 -0.00000000000E+00 -0.00000000000E+00 -0.74505805969E-08  0.93827000000E+00  0.93827000000E+00 0.  1.
     999902    2    1    2    0    0 -0.88299873479E-02  0.91787736823E-02  0.20558135577E-01  0.10197462141E+01  0.10194594085E+01 0.  0.
     999903    2    3    3    0    0  0.33043120479E-01  0.10286411331E+00  0.73454278076E-01  0.13220562238E+00  0.20246530660E-01 0.  0.
         14    1    1    2    0    0  0.88299873479E-02 -0.91787736823E-02 -0.20558135577E-01  0.24183785917E-01  0.00000000000E+00 0.  1.
     999901    1    3    3    0    0 -0.41873107827E-01 -0.93685339631E-01 -0.52896142499E-01  0.88754059170E+00  0.88000000000E+00 0.  1.
        -11    1    4    4    0    0  0.28322975585E-01  0.55883811373E-01  0.43830593044E-01  0.76462888562E-01  0.51100000000E-03 0. -1.
         11    1    4    4    0    0  0.47201448938E-02  0.46980301940E-01  0.29623685032E-01  0.55742733823E-01  0.51100000000E-03 0.  1.
</event>
<event>
 8    1  0.1204770E+005  0.1043930E+01  0.7957747E-01            NaN
         13   -1    0    0    0    0  0.00000000000E+00  0.00000000000E+00  0.74505805969E-08  0.10566000000E+00  0.10566000000E+00 0. -1.
     999900   -1    0    0    0    0 -0.00000000000E+00 -0.00000000000E+00 -0.74505805969E-08  0.93827000000E+00  0.93827000000E+00 0. -1.
     999902    2    1    2    0    0 -0.67157144302E-02  0.24965801458E-01 -0.41097684070E-02  0.10177521036E+01  0.10174153833E+01 0.  0.
     999903    2    3    3    0    0  0.17168733265E-01  0.77103534424E-01 -0.10188311605E+00  0.13048188685E+00  0.20140333615E-01 0.  0.
         14    1    1    2    0    0  0.67157144302E-02 -0.24965801458E-01  0.41097684070E-02  0.26177896385E-01  0.00000000000E+00 0.  1.
     999901    1    3    3    0    0 -0.23884447696E-01 -0.52137732965E-01  0.97773347645E-01  0.88727021676E+00  0.88000000000E+00 0.  1.
        -11    1    4    4    0    0  0.11755730483E-01  0.71682350620E-01 -0.97676074107E-01  0.12172687938E+00  0.51100000000E-03 0. -1.
         11    1    4    4    0    0  0.54130027824E-02  0.54211838034E-02 -0.42070419448E-02  0.87550074745E-02  0.51100000000E-03 0.  1.
</event>
<event>
 8    1  0.1204770E+005  0.1043930E+01  0.7957747E-01            NaN
         13   -1    0    0    0    0  0.00000000000E+00  0.00000000000E+00  0.74505805969E-08  0.10566000000E+00  0.10566000000E+00 0.  1.
     999900   -1    0    0    0    0 -0.00000000000E+00 -0.00000000000E+00 -0.74505805969E-08  0.93827000000E+00  0.93827000000E+00 0. -1.
     999902    2    1    2    0    0 -0.16957226238E-01  0.11030869846E-01 -0.12282113223E-01  0.10202640346E+01  0.10199895208E+01 0.  0.
     999903    2    3    3    0    0  0.11499928009E+00 -0.52440721123E-01 -0.75111932154E-03  0.12809021399E+00  0.20776792024E-01 0.  0.
         14    1    1    2    0    0  0.16957226238E-01 -0.11030869846E-01  0.12282113223E-01  0.23665965361E-01  0.00000000000E+00 0.  1.
     999901    1    3    3    0    0 -0.13195650633E+00  0.63471590969E-01 -0.11530993902E-01  0.89217382064E+00  0.88000000000E+00 0.  1.
        -11    1    4    4    0    0  0.64046702723E-01 -0.21066108986E-01  0.68429057841E-02  0.67770550817E-01  0.51100000000E-03 0. -1.
         11    1    4    4    0    0  0.50952577371E-01 -0.31374612137E-01 -0.75940251056E-02  0.60319663177E-01  0.51100000000E-03 0.  1.
</event>
<event>
 8    1  0.1204770E+005  0.1043930E+01  0.7957747E-01            NaN
         13   -1    0    0    0    0  0.00000000000E+00  0.00000000000E+00  0.74505805969E-08  0.10566000000E+00  0.10566000000E+00 0. -1.
     999900   -1    0    0    0    0 -0.00000000000E+00 -0.00000000000E+00 -0.74505805969E-08  0.93827000000E+00  0.93827000000E+00 0.  1.
     999902    2    1    2    0    0  0.12621796935E-01  0.17940446504E-01  0.38043771413E-02  0.10216669664E+01  0.10214243720E+01 0.  0.
     999903    2    3    3    0    0  0.55967135927E-01 -0.15543283115E-01  0.11749621108E+00  0.13266426020E+00  0.20506885740E-01 0.  0.
         14    1    1    2    0    0 -0.12621796935E-01 -0.17940446504E-01 -0.38043771413E-02  0.22263033577E-01  0.00000000000E+00 0. -1.
     999901    1    3    3    0    0 -0.43345338993E-01  0.33483729619E-01 -0.11369183394E+00  0.88900270622E+00  0.88000000000E+00 0.  1.
        -11    1    4    4    0    0  0.46843684452E-01 -0.81208218986E-02  0.10616190936E+00  0.11632235659E+00  0.51100000000E-03 0. -1.
         11    1    4    4    0    0  0.91234514755E-02 -0.74224612164E-02  0.11334301717E-01  0.16341903614E-01  0.51100000000E-03 0.  1.
</event>
<event>
 8    1  0.1204770E+005  0.1043930E+01  0.7957747E-01            NaN
         13   -1    0    0    0    0  0.00000000000E+00  0.00000000000E+00  0.74505805969E-08  0.10566000000E+00  0.10566000000E+00 0. -1.
     999900   -1    0    0    0    0 -0.00000000000E+00 -0.00000000000E+00 -0.74505805969E-08  0.93827000000E+00  0.93827000000E+00 0.  1.
     999902    2    1    2    0    0 -0.82180514672E-02 -0.21632521215E-01 -0.10429832292E-01  0.10185472550E+01  0.10182309300E+01 0.  0.
     999903    2    3    3    0    0  0.46846929205E-01 -0.83053144661E-01  0.85336195510E-01  0.12951644719E+00  0.19994604662E-01 0.  0.
         14    1    1    2    0    0  0.82180514672E-02  0.21632521215E-01  0.10429832292E-01  0.25382745038E-01  0.00000000000E+00 0.  1.
     999901    1    3    3    0    0 -0.55064980672E-01  0.61420623446E-01 -0.95766027802E-01  0.88903080777E+00  0.88000000000E+00 0.  1.
        -11    1    4    4    0    0  0.24986251436E-02 -0.12106964207E-01  0.19310203310E-01  0.22933965701E-01  0.51100000000E-03 0.  1.
         11    1    4    4    0    0  0.44348304061E-01 -0.70946180453E-01  0.66025992200E-01  0.10658248149E+00  0.51100000000E-03 0. -1.
</event>
<event>
 8    1  0.1204770E+005  0.1043930E+01  0.7957747E-01            NaN
         13   -1    0    0    0    0  0.00000000000E+00  0.00000000000E+00  0.74505805969E-08  0.10566000000E+00  0.10566000000E+00 0.  1.
     999900   -1    0    0    0    0 -0.00000000000E+00 -0.00000000000E+00 -0.74505805969E-08  0.93827000000E+00  0.93827000000E+00 0. -1.
     999902    2    1    2    0    0  0.19828743513E-01 -0.10198503282E-01  0.15554361835E-01  0.10167431151E+01  0.10163795725E+01 0.  0.
     999903    2    3    3    0    0  0.80689109936E-01 -0.13073462264E-01  0.99851707160E-01  0.13061767702E+00  0.20222913947E-01 0.  0.
         14    1    1    2    0    0 -0.19828743513E-01  0.10198503282E-01 -0.15554361835E-01  0.27186884900E-01  0.00000000000E+00 0. -1.
     999901    1    3    3    0    0 -0.60860366423E-01  0.28749589821E-02 -0.84297345325E-01  0.88612543808E+00  0.88000000000E+00 0. -1.
        -11    1    4    4    0    0  0.38295182297E-01 -0.17599790711E-02  0.60788394804E-01  0.71868689826E-01  0.51100000000E-03 0. -1.
         11    1    4    4    0    0  0.42393927639E-01 -0.11313483193E-01  0.39063312355E-01  0.58748987190E-01  0.51100000000E-03 0.  1.
</event>
<event>
 8    1  0.1204770E+005  0.1043930E+01  0.7957747E-01            NaN
         13   -1    0    0    0    0  0.00000000000E+00  0.00000000000E+00  0.74505805969E-08  0.10566000000E+00  0.10566000000E+00 0.  1.
     999900   -1    0    0    0    0 -0.00000000000E+00 -0.00000000000E+00 -0.74505805969E-08  0.93827000000E+00  0.93827000000E+00 0. -1.
     999902    2    1    2    0    0  0.22659933500E-02 -0.13109515526E-01  0.19658816989E-01  0.10201926200E+01  0.10199164273E+01 0.  0.
     999903    2    3    3    0    0  0.12122812567E-01  0.78501230745E-01  0.10288417943E+00  0.13147660988E+00  0.19787338265E-01 0.  0.
         14    1    1    2    0    0 -0.22659933500E-02  0.13109515526E-01 -0.19658816989E-01  0.23737379986E-01  0.00000000000E+00 0. -1.
     999901    1    3    3    0    0 -0.98568192165E-02 -0.91610746271E-01 -0.83225362438E-01  0.88871601014E+00  0.88000000000E+00 0. -1.
        -11    1    4    4    0    0  0.11564242105E-02  0.99248594175E-02  0.26057328921E-01  0.27912106028E-01  0.51100000000E-03 0.  1.
         11    1    4    4    0    0  0.10966388356E-01  0.68576371328E-01  0.76826850506E-01  0.10356450385E+00  0.51100000000E-03 0. -1.
</event>
<event>
 8    1  0.1204770E+005  0.1043930E+01  0.7957747E-01            NaN
         13   -1    0    0    0    0  0.00000000000E+00  0.00000000000E+00  0.74505805969E-08  0.10566000000E+00  0.10566000000E+00 0.  1.
     999900   -1    0    0    0    0 -0.00000000000E+00 -0.00000000000E+00 -0.74505805969E-08  0.93827000000E+00  0.93827000000E+00 0. -1.
     999902    2    1    2    0    0  0.77768515833E-02  0.20238838798E-02 -0.22225241915E-01  0.10202966146E+01  0.10200228649E+01 0.  0.
     999903    2    3    3    0    0  0.58092218675E-01 -0.11827487735E-01 -0.11810111980E+00  0.13355218660E+00  0.19331753911E-01 0.  0.
         14    1    1    2    0    0 -0.77768515833E-02 -0.20238838798E-02  0.22225241915E-01  0.23633385383E-01  0.00000000000E+00 0.  1.
     999901    1    3    3    0    0 -0.50315367092E-01  0.13851371615E-01  0.95875877890E-01  0.88674442802E+00  0.88000000000E+00 0.  1.
        -11    1    4    4    0    0  0.30752044633E-01 -0.28833510653E-02 -0.80378678182E-01  0.86110365170E-01  0.51100000000E-03 0. -1.
         11    1    4    4    0    0  0.27340174042E-01 -0.89441366696E-02 -0.37722441623E-01  0.47441821428E-01  0.51100000000E-03 0.  1.
</event>
<event>
 8    1  0.1204770E+005  0.1043930E+01  0.7957747E-01            NaN
         13   -1    0    0    0    0  0.00000000000E+00  0.00000000000E+00  0.74505805969E-08  0.10566000000E+00  0.10566000000E+00 0.  1.
     999900   -1    0    0    0    0 -0.00000000000E+00 -0.00000000000E+00 -0.74505805969E-08  0.93827000000E+00  0.93827000000E+00 0. -1.
     999902    2    1    2    0    0 -0.82822188933E-02  0.15530104925E-01 -0.16114392696E-01  0.10200667865E+01  0.10197876229E+01 0.  0.
     999903    2    3    3    0    0 -0.23055360468E-01  0.10271431393E-01  0.12479254332E+00  0.12871911917E+00  0.18930948751E-01 0.  0.
         14    1    1    2    0    0  0.82822188933E-02 -0.15530104925E-01  0.16114392696E-01  0.23863213546E-01  0.00000000000E+00 0.  1.
     999901    1    3    3    0    0  0.14773141574E-01  0.52586735324E-02 -0.14090693602E+00  0.89134766729E+00  0.88000000000E+00 0. -1.
        -11    1    4    4    0    0 -0.21272800049E-01  0.46883239040E-03  0.92680241072E-01  0.95092796951E-01  0.51100000000E-03 0.  1.
         11    1    4    4    0    0 -0.17825604183E-02  0.98025990021E-02  0.32112302253E-01  0.33626322217E-01  0.51100000000E-03 0. -1.
</event>
<event>
 8    1  0.1204770E+005  0.1043930E+01  0.7957747E-01            NaN
         13   -1    0    0    0    0  0.00000000000E+00  0.00000000000E+00  0.74505805969E-08  0.10566000000E+00  0.10566000000E+00 0.  1.
     999900   -1    0    0    0    0 -0.00000000000E+00 -0.00000000000E+00 -0.74505805969E-08  0.93827000000E+00  0.93827000000E+00 0.  1.
     999902    2    1    2    0    0 -0.22337768255E-02  0.96081220511E-02 -0.21732956179E-01  0.10200631369E+01  0.10197838870E+01 0.  0.
     999903    2    3    3    0    0  0.39557984288E-01 -0.22260298458E-01 -0.12308262125E+00  0.13268841218E+00  0.19913012450E-01 0.  0.
         14    1    1    2    0    0  0.22337768255E-02 -0.96081220511E-02  0.21732956179E-01  0.23866863064E-01  0.00000000000E+00 0.  1.
     999901    1    3    3    0    0 -0.41791761114E-01  0.31868420509E-01  0.10134966507E+00  0.88737472475E+00  0.88000000000E+00 0. -1.
        -11    1    4    4    0    0  0.20272799265E-02 -0.97170423431E-02 -0.27243760596E-01  0.29000248071E-01  0.51100000000E-03 0.  1.
         11    1    4    4    0    0  0.37530704362E-01 -0.12543256115E-01 -0.95838860655E-01  0.10368816411E+00  0.51100000000E-03 0. -1.
</event>
<event>
 8    1  0.1204770E+005  0.1043930E+01  0.7957747E-01            NaN
         13   -1    0    0    0    0  0.00000000000E+00  0.00000000000E+00  0.74505805969E-08  0.10566000000E+00  0.10566000000E+00 0. -1.
     999900   -1    0    0    0    0 -0.00000000000E+00 -0.00000000000E+00 -0.74505805969E-08  0.93827000000E+00  0.93827000000E+00 0. -1.
     999902    2    1    2    0    0 -0.17876710540E-01  0.10433143946E-02  0.14573995753E-01  0.10208417641E+01  0.10205806390E+01 0.  0.
     999903    2    3    3    0    0  0.55752394614E-01 -0.26607307522E-01 -0.11085046255E+00  0.12847575357E+00  0.20047840012E-01 0.  0.
         14    1    1    2    0    0  0.17876710540E-01 -0.10433143946E-02 -0.14573995753E-01  0.23088235898E-01  0.00000000000E+00 0.  1.
     999901    1    3    3    0    0 -0.73629105154E-01  0.27650621916E-01  0.12542445830E+00  0.89236601053E+00  0.88000000000E+00 0.  1.
        -11    1    4    4    0    0  0.33262155676E-01 -0.18570443465E-01 -0.85708194414E-01  0.93794392590E-01  0.51100000000E-03 0. -1.
         11    1    4    4    0    0  0.22490238938E-01 -0.80368640566E-02 -0.25142268133E-01  0.34681360977E-01  0.51100000000E-03 0.  1.
</event>
<event>
 8    1  0.1204770E+005  0.1043930E+01  0.7957747E-01            NaN
         13   -1    0    0    0    0  0.00000000000E+00  0.00000000000E+00  0.74505805969E-08  0.10566000000E+00  0.10566000000E+00 0.  1.
     999900   -1    0    0    0    0 -0.00000000000E+00 -0.00000000000E+00 -0.74505805969E-08  0.93827000000E+00  0.93827000000E+00 0. -1.
     999902    2    1    2    0    0 -0.13018813021E-01 -0.16174393478E-01 -0.83369162940E-02  0.10215558035E+01  0.10213107534E+01 0.  0.
     999903    2    3    3    0    0  0.39727162556E-02  0.17744703887E-01 -0.12937666839E+00  0.13246084858E+00  0.21837973623E-01 0.  0.
         14    1    1    2    0    0  0.13018813021E-01  0.16174393478E-01  0.83369162940E-02  0.22374196525E-01  0.00000000000E+00 0. -1.
     999901    1    3    3    0    0 -0.16991529277E-01 -0.33919097365E-01  0.12103975210E+00  0.88909495490E+00  0.88000000000E+00 0.  1.
        -11    1    4    4    0    0 -0.30298713957E-02 -0.40068128473E-02 -0.15133176590E-01  0.15953332711E-01  0.51100000000E-03 0.  1.
         11    1    4    4    0    0  0.70025876513E-02  0.21751516734E-01 -0.11424349180E+00  0.11650751587E+00  0.51100000000E-03 0. -1.
</event>
<event>
 8    1  0.1204770E+005  0.1043930E+01  0.7957747E-01            NaN
         13   -1    0    0    0    0  0.00000000000E+00  0.00000000000E+00  0.74505805969E-08  0.10566000000E+00  0.10566000000E+00 0.  1.
     999900   -1    0    0    0    0 -0.00000000000E+00 -0.00000000000E+00 -0.74505805969E-08  0.93827000000E+00  0.93827000000E+00 0.  1.
     999902    2    1    2    0    0 -0.77451702845E-02 -0.75623379618E-02 -0.21508713235E-01  0.10198509352E+01  0.10195666376E+01 0.  0.
     999903    2    3    3    0    0 -0.83331828240E-01 -0.80284755849E-01  0.57605274783E-01  0.13009764575E+00  0.14737507521E-01 0.  0.
         14    1    1    2    0    0  0.77451702845E-02  0.75623379618E-02  0.21508713235E-01  0.24079064833E-01  0.00000000000E+00 0.  1.
     999901    1    3    3    0    0  0.75586657956E-01  0.72722417887E-01 -0.79113988018E-01  0.88975328941E+00  0.88000000000E+00 0.  1.
        -11    1    4    4    0    0 -0.36498617847E-01 -0.30534931525E-01  0.16555349944E-01  0.50387219419E-01  0.51100000000E-03 0. -1.
         11    1    4    4    0    0 -0.46833210393E-01 -0.49749824324E-01  0.41049924840E-01  0.79710426334E-01  0.51100000000E-03 0.  1.
</event>
<event>
 8    1  0.1204770E+005  0.1043930E+01  0.7957747E-01            NaN
         13   -1    0    0    0    0  0.00000000000E+00  0.00000000000E+00  0.74505805969E-08  0.10566000000E+00  0.10566000000E+00 0. -1.
     999900   -1    0    0    0    0 -0.00000000000E+00 -0.00000000000E+00 -0.74505805969E-08  0.93827000000E+00  0.93827000000E+00 0. -1.
     999902    2    1    2    0    0  0.32538476777E-02 -0.35051267756E-02  0.22206075430E-01  0.10212147359E+01  0.10209620725E+01 0.  0.
     999903    2    3    3    0    0 -0.10051110975E+00  0.42442838459E-01 -0.66979166999E-01  0.12945670290E+00  0.19208107495E-01 0.  0.
         14    1    1    2    0    0 -0.32538476777E-02  0.35051267756E-02 -0.22206075430E-01  0.22715264128E-01  0.00000000000E+00 0.  1.
     999901    1    3    3    0    0  0.10376495743E+00 -0.45947965234E-01  0.89185242429E-01  0.89175803297E+00  0.88000000000E+00 0. -1.
        -11    1    4    4    0    0 -0.64783378624E-01  0.17302510363E-01 -0.38910828831E-01  0.77527909375E-01  0.51100000000E-03 0. -1.
         11    1    4    4    0    0 -0.35727731131E-01  0.25140328096E-01 -0.28068338169E-01  0.51928793526E-01  0.51100000000E-03 0.  1.
</event>
<event>
 8    1  0.1204770E+005  0.1043930E+01  0.7957747E-01            NaN
         13   -1    0    0    0    0  0.00000000000E+00  0.00000000000E+00  0.74505805969E-08  0.10566000000E+00  0.10566000000E+00 0. -1.
     999900   -1    0    0    0    0 -0.00000000000E+00 -0.00000000000E+00 -0.74505805969E-08  0.93827000000E+00  0.93827000000E+00 0.  1.
     999902    2    1    2    0    0  0.18862242941E-01 -0.42409829329E-02 -0.12869160089E-01  0.10207053272E+01  0.10204410711E+01 0.  0.
     999903    2    3    3    0    0 -0.56805076868E-01 -0.11244773289E+00  0.25331833398E-01  0.13003504033E+00  0.19902274744E-01 0.  0.
         14    1    1    2    0    0 -0.18862242941E-01  0.42409829329E-02  0.12869160089E-01  0.23224672794E-01  0.00000000000E+00 0. -1.
     999901    1    3    3    0    0  0.75667319809E-01  0.10820674996E+00 -0.38200993486E-01  0.89067028688E+00  0.88000000000E+00 0.  1.
        -11    1    4    4    0    0 -0.38288603686E-01 -0.92334228800E-01  0.23145779483E-01  0.10260416760E+00  0.51100000000E-03 0.  1.
         11    1    4    4    0    0 -0.18516473182E-01 -0.20113504090E-01  0.21860539154E-02  0.27430872727E-01  0.51100000000E-03 0. -1.
</event>
<event>
 8    1  0.1204770E+005  0.1043930E+01  0.7957747E-01            NaN
         13   -1    0    0    0    0  0.00000000000E+00  0.00000000000E+00  0.74505805969E-08  0.10566000000E+00  0.10566000000E+00 0.  1.
     999900   -1    0    0    0    0 -0.00000000000E+00 -0.00000000000E+00 -0.74505805969E-08  0.93827000000E+00  0.93827000000E+00 0.  1.
     999902    2    1    2    0    0  0.76568964768E-02 -0.17458372929E-01 -0.14153435456E-01  0.10201867360E+01  0.10199104048E+01 0.  0.
     999903    2    3    3    0    0 -0.43308278540E-01  0.10810839496E+00 -0.50573019843E-01  0.12906898377E+00  0.23197848701E-01 0.  0.
         14    1    1    2    0    0 -0.76568964768E-02  0.17458372929E-01  0.14153435456E-01  0.23743263975E-01  0.00000000000E+00 0.  1.
     999901    1    3    3    0    0  0.50965175017E-01 -0.12556676789E+00  0.36419584387E-01  0.89111775226E+00  0.88000000000E+00 0. -1.
        -11    1    4    4    0    0  0.21993191961E-02  0.13222466950E-01 -0.40807630475E-02  0.14020855367E-01  0.51100000000E-03 0. -1.
         11    1    4    4    0    0 -0.45507597736E-01  0.94885928007E-01 -0.46492256796E-01  0.11504812840E+00  0.51100000000E-03 0.  1.
</event>
<event>
 8    1  0.1204770E+005  0.1043930E+01  0.7957747E-01            NaN
         13   -1    0    0    0    0  0.00000000000E+00  0.00000000000E+00  0.74505805969E-08  0.10566000000E+00  0.10566000000E+00 0.  1.
     999900   -1    0    0    0    0 -0.00000000000E+00 -0.00000000000E+00 -0.74505805969E-08  0.93827000000E+00  0.93827000000E+00 0. -1.
     999902    2    1    2    0    0  0.17823907408E-01  0.71946194357E-02  0.15552538517E-01  0.10192047967E+01  0.10189048444E+01 0.  0.
     999903    2    3    3    0    0  0.38228989626E-01  0.12276381349E+00 -0.14401231987E-01  0.13090876813E+00  0.19932399283E-01 0.  0.
         14    1    1    2    0    0 -0.17823907408E-01 -0.71946194357E-02 -0.15552538517E-01  0.24725203305E-01  0.00000000000E+00 0. -1.
     999901    1    3    3    0    0 -0.20405082218E-01 -0.11556919405E+00  0.29953770504E-01  0.88829602856E+00  0.88000000000E+00 0.  1.
        -11    1    4    4    0    0  0.27513000472E-01  0.10081581065E+00 -0.46572851439E-02  0.10460757285E+00  0.51100000000E-03 0.  1.
         11    1    4    4    0    0  0.10715989154E-01  0.21948002841E-01 -0.97439468426E-02  0.26301195284E-01  0.51100000000E-03 0. -1.
</event>
<event>
 8    1  0.1204770E+005  0.1043930E+01  0.7957747E-01            NaN
         13   -1    0    0    0    0  0.00000000000E+00  0.00000000000E+00  0.74505805969E-08  0.10566000000E+00  0.10566000000E+00 0. -1.
     999900   -1    0    0    0    0 -0.00000000000E+00 -0.00000000000E+00 -0.74505805969E-08  0.93827000000E+00  0.93827000000E+00 0. -1.
     999902    2    1    2    0    0  0.14309310288E-01 -0.54529670972E-02 -0.17349633449E-01  0.10207891056E+01  0.10205267744E+01 0.  0.
     999903    2    3    3    0    0 -0.27416194119E-01 -0.10307722914E+00 -0.76131743276E-01  0.13246098456E+00  0.19321160144E-01 0.  0.
         14    1    1    2    0    0 -0.14309310288E-01  0.54529670972E-02  0.17349633449E-01  0.23140894362E-01  0.00000000000E+00 0.  1.
     999901    1    3    3    0    0  0.41725504407E-01  0.97624262045E-01  0.58782109827E-01  0.88832812108E+00  0.88000000000E+00 0. -1.
        -11    1    4    4    0    0 -0.12352053590E-01 -0.25747535065E-01 -0.28749882298E-01  0.40525617120E-01  0.51100000000E-03 0.  1.
         11    1    4    4    0    0 -0.15064140529E-01 -0.77329694078E-01 -0.47381860978E-01  0.91935367442E-01  0.51100000000E-03 0. -1.
</event>
<event>
 8    1  0.1204770E+005  0.1043930E+01  0.7957747E-01            NaN
         13   -1    0    0    0    0  0.00000000000E+00  0.00000000000E+00  0.74505805969E-08  0.10566000000E+00  0.10566000000E+00 0. -1.
     999900   -1    0    0    0    0 -0.00000000000E+00 -0.00000000000E+00 -0.74505805969E-08  0.93827000000E+00  0.93827000000E+00 0.  1.
     999902    2    1    2    0    0 -0.17354522598E-01 -0.13158306885E-01  0.66135964355E-02  0.10211690652E+01  0.10209153734E+01 0.  0.
     999903    2    3    3    0    0 -0.64762573000E-01  0.11155886997E+00  0.83819960019E-02  0.13111006454E+00  0.21909332141E-01 0.  0.
         14    1    1    2    0    0  0.17354522598E-01  0.13158306885E-01 -0.66135964355E-02  0.22760934790E-01  0.00000000000E+00 0. -1.
     999901    1    3    3    0    0  0.47408050401E-01 -0.12471717686E+00 -0.17683995664E-02  0.89005900068E+00  0.88000000000E+00 0.  1.
        -11    1    4    4    0    0 -0.16026693534E-01  0.47518722018E-01 -0.41930582258E-03  0.50152973852E-01  0.51100000000E-03 0. -1.
         11    1    4    4    0    0 -0.48735879466E-01  0.64040147953E-01  0.88013018245E-02  0.80957090683E-01  0.51100000000E-03 0.  1.
</event>
<event>
 8    1  0.1204770E+005  0.1043930E+01  0.7957747E-01            NaN
         13   -1    0    0    0    0  0.00000000000E+00  0.00000000000E+00  0.74505805969E-08  0.10566000000E+00  0.10566000000E+00 0.  1.
     999900   -1    0    0    0    0 -0.00000000000E+00 -0.00000000000E+00 -0.74505805969E-08  0.93827000000E+00  0.93827000000E+00 0.  1.
     999902    2    1    2    0    0 -0.92621437286E-02 -0.21257445223E-01 -0.59297266687E-02  0.10199961758E+01  0.10197153380E+01 0.  0.
     999903    2    3    3    0    0  0.31565034343E-01  0.11003698846E+00  0.52564654914E-01  0.12740070219E+00  0.19063204058E-01 0.  0.
         14    1    1    2    0    0  0.92621437286E-02  0.21257445223E-01  0.59297266687E-02  0.23933824229E-01  0.00000000000E+00 0.  1.
     999901    1    3    3    0    0 -0.40827178072E-01 -0.13129443368E+00 -0.58494381582E-01  0.89259547358E+00  0.88000000000E+00 0.  1.
        -11    1    4    4    0    0  0.30928890903E-01  0.78162676739E-01  0.40513123198E-01  0.93314385814E-01  0.51100000000E-03 0.  1.
         11    1    4    4    0    0  0.63614344012E-03  0.31874311722E-01  0.12051531715E-01  0.34086316374E-01  0.51100000000E-03 0. -1.
</event>
<event>
 8    1  0.1204770E+005  0.1043930E+01  0.7957747E-01            NaN
         13   -1    0    0    0    0  0.00000000000E+00  0.00000000000E+00  0.74505805969E-08  0.10566000000E+00  0.10566000000E+00 0.  1.
     999900   -1    0    0    0    0 -0.00000000000E+00 -0.00000000000E+00 -0.74505805969E-08  0.93827000000E+00  0.93827000000E+00 0.  1.
     999902    2    1    2    0    0 -0.85781675548E-02  0.21201519869E-01 -0.11217632234E-01  0.10184560000E+01  0.10181373676E+01 0.  0.
     999903    2    3    3    0    0 -0.51295863558E-01 -0.53105100293E-01 -0.10437947763E+00  0.12939728158E+00  0.19928969748E-01 0.  0.
         14    1    1    2    0    0  0.85781675548E-02 -0.21201519869E-01  0.11217632234E-01  0.25474000006E-01  0.00000000000E+00 0.  1.
     999901    1    3    3    0    0  0.42717696004E-01  0.74306620162E-01  0.93161845393E-01  0.88905871841E+00  0.88000000000E+00 0. -1.
        -11    1    4    4    0    0 -0.37488092511E-01 -0.26741862602E-01 -0.71494300903E-01  0.85042227617E-01  0.51100000000E-03 0.  1.
         11    1    4    4    0    0 -0.13807771048E-01 -0.26363237690E-01 -0.32885176725E-01  0.44355053963E-01  0.51100000000E-03 0. -1.
</event>
<event>
 8    1  0.1204770E+005  0.1043930E+01  0.7957747E-01            NaN
         13   -1    0    0    0    0  0.00000000000E+00  0.00000000000E+00  0.74505805969E-08  0.10566000000E+00  0.10566000000E+00 0.  1.
     999900   -1    0    0    0    0 -0.00000000000E+00 -0.00000000000E+00 -0.74505805969E-08  0.93827000000E+00  0.93827000000E+00 0.  1.
     999902    2    1    2    0    0 -0.11010806440E-01  0.86466285620E-02  0.18955970097E-01  0.10203645412E+01  0.10200923812E+01 0.  0.
     999903    2    3    3    0    0 -0.11289174057E+00 -0.44800733367E-01  0.48653463851E-01  0.13237901976E+00  0.20134411573E-01 0.  0.
         14    1    1    2    0    0  0.11010806440E-01 -0.86466285620E-02 -0.18955970097E-01  0.23565458754E-01  0.00000000000E+00 0. -1.
     999901    1    3    3    0    0  0.10188093413E+00  0.53447361929E-01 -0.29697493754E-01  0.88798552149E+00  0.88000000000E+00 0. -1.
        -11    1    4    4    0    0 -0.39884019941E-01 -0.15128085898E-01  0.27588556289E-01  0.50803381665E-01  0.51100000000E-03 0. -1.
         11    1    4    4    0    0 -0.73007720625E-01 -0.29672647470E-01  0.21064907563E-01  0.81575638094E-01  0.51100000000E-03 0.  1.
</event>
<event>
 8    1  0.1204770E+005  0.1043930E+01  0.7957747E-01            NaN
         13   -1    0    0    0    0  0.00000000000E+00  0.00000000000E+00  0.74505805969E-08  0.10566000000E+00  0.10566000000E+00 0. -1.
     999900   -1    0    0    0    0 -0.00000000000E+00 -0.00000000000E+00 -0.74505805969E-08  0.93827000000E+00  0.93827000000E+00 0. -1.
     999902    2    1    2    0    0  0.11402683082E-01 -0.16190651045E-01  0.10074902705E-01  0.10217114936E+01  0.10214698792E+01 0.  0.
     999903    2    3    3    0    0  0.72426451225E-01 -0.52373595832E-01 -0.95815936528E-01  0.13252873644E+00  0.19864237021E-01 0.  0.
         14    1    1    2    0    0 -0.11402683082E-01  0.16190651045E-01 -0.10074902705E-01  0.22218506414E-01  0.00000000000E+00 0. -1.
     999901    1    3    3    0    0 -0.61023768142E-01  0.36182944788E-01  0.10589083923E+00  0.88918275715E+00  0.88000000000E+00 0.  1.
        -11    1    4    4    0    0  0.30600405994E-01 -0.16742357322E-01 -0.50106275569E-01  0.61054003539E-01  0.51100000000E-03 0.  1.
         11    1    4    4    0    0  0.41826045231E-01 -0.35631238511E-01 -0.45709660958E-01  0.71474732902E-01  0.51100000000E-03 0. -1.
</event>
<event>
 8    1  0.1204770E+005  0.1043930E+01  0.7957747E-01            NaN
         13   -1    0    0    0    0  0.00000000000E+00  0.00000000000E+00  0.74505805969E-08  0.10566000000E+00  0.10566000000E+00 0.  1.
     999900   -1    0    0    0    0 -0.00000000000E+00 -0.00000000000E+00 -0.74505805969E-08  0.93827000000E+00  0.93827000000E+00 0.  1.
     999902    2    1    2    0    0  0.18844215877E-01  0.92284353726E-02  0.47632614308E-03  0.10229420182E+01  0.10227266875E+01 0.  0.
     999903    2    3    3    0    0  0.19931770403E-01 -0.12044704680E+00  0.46612168391E-01  0.13224261363E+00  0.20264453172E-01 0.  0.
         14    1    1    2    0    0 -0.18844215877E-01 -0.92284353726E-02 -0.47632614308E-03  0.20987981753E-01  0.00000000000E+00 0.  1.
     999901    1    3    3    0    0 -0.10875545252E-02  0.12967548217E+00 -0.46135842248E-01  0.89069940462E+00  0.88000000000E+00 0.  1.
        -11    1    4    4    0    0  0.63331457154E-02 -0.95044131688E-02  0.81338687807E-02  0.14030807057E-01  0.51100000000E-03 0. -1.
         11    1    4    4    0    0  0.13598624687E-01 -0.11094263363E+00  0.38478299611E-01  0.11821180657E+00  0.51100000000E-03 0.  1.
</event>
<event>
 8    1  0.1204770E+005  0.1043930E+01  0.7957747E-01            NaN
         13   -1    0    0    0    0  0.00000000000E+00  0.00000000000E+00  0.74505805969E-08  0.10566000000E+00  0.10566000000E+00 0.  1.
     999900   -1    0    0    0    0 -0.00000000000E+00 -0.00000000000E+00 -0.74505805969E-08  0.93827000000E+00  0.93827000000E+00 0. -1.
     999902    2    1    2    0    0 -0.22494859604E-01  0.11565071994E-02 -0.73358919390E-02  0.10202409408E+01  0.10199658846E+01 0.  0.
     999903    2    3    3    0    0 -0.12158872207E+00  0.50618178363E-01 -0.55119826383E-02  0.13329709972E+00  0.19791855052E-01 0.  0.
         14    1    1    2    0    0  0.22494859604E-01 -0.11565071994E-02  0.73358919390E-02  0.23689059248E-01  0.00000000000E+00 0. -1.
     999901    1    3    3    0    0  0.99093862468E-01 -0.49461671164E-01 -0.18239093007E-02  0.88694384103E+00  0.88000000000E+00 0.  1.
        -11    1    4    4    0    0 -0.27319502468E-01  0.78795975619E-02  0.62753524942E-02  0.29121889410E-01  0.51100000000E-03 0. -1.
         11    1    4    4    0    0 -0.94269219603E-01  0.42738580801E-01 -0.11787335133E-01  0.10417521031E+00  0.51100000000E-03 0.  1.
</event>
<event>
 8    1  0.1204770E+005  0.1043930E+01  0.7957747E-01            NaN
         13   -1    0    0    0    0  0.00000000000E+00  0.00000000000E+00  0.74505805969E-08  0.10566000000E+00  0.10566000000E+00 0.  1.
     999900   -1    0    0    0    0 -0.00000000000E+00 -0.00000000000E+00 -0.74505805969E-08  0.93827000000E+00  0.93827000000E+00 0. -1.
     999902    2    1    2    0    0 -0.83912526874E-02  0.13303202974E-01 -0.17770980551E-01  0.10201982474E+01  0.10199221872E+01 0.  0.
     999903    2    3    3    0    0  0.97208015806E-01 -0.59958114193E-02 -0.85380108745E-01  0.13110058592E+00  0.20304003725E-01 0.  0.
         14    1    1    2    0    0  0.83912526874E-02 -0.13303202974E-01  0.17770980551E-01  0.23731752585E-01  0.00000000000E+00 0.  1.
     999901    1    3    3    0    0 -0.10559926849E+00  0.19299014394E-01  0.67609128194E-01  0.88909766150E+00  0.88000000000E+00 0. -1.
        -11    1    4    4    0    0  0.60578032848E-01 -0.10628705416E-01 -0.62354920933E-01  0.87584614677E-01  0.51100000000E-03 0. -1.
         11    1    4    4    0    0  0.36629982958E-01  0.46328939964E-02 -0.23025187812E-01  0.43515971241E-01  0.51100000000E-03 0.  1.
</event>
<event>
 8    1  0.1204770E+005  0.1043930E+01  0.7957747E-01            NaN
         13   -1    0    0    0    0  0.00000000000E+00  0.00000000000E+00  0.74505805969E-08  0.10566000000E+00  0.10566000000E+00 0.  1.
     999900   -1    0    0    0    0 -0.00000000000E+00 -0.00000000000E+00 -0.74505805969E-08  0.93827000000E+00  0.93827000000E+00 0.  1.
     999902    2    1    2    0    0  0.19938466753E-01  0.73814765867E-02 -0.13036345632E-01  0.10189905742E+01  0.10186853367E+01 0.  0.
     999903    2    3    3    0    0  0.84530412815E-02  0.12751704712E+00 -0.19133397575E-01  0.13073292892E+00  0.19823233595E-01 0.  0.
         14    1    1    2    0    0 -0.19938466753E-01 -0.73814765867E-02  0.13036345632E-01  0.24939425825E-01  0.00000000000E+00 0.  1.
     999901    1    3    3    0    0  0.11485425472E-01 -0.12013557053E+00  0.60970519433E-02  0.88825764525E+00  0.88000000000E+00 0. -1.
        -11    1    4    4    0    0  0.54661394735E-02  0.10848230226E+00 -0.23110499961E-01  0.11105244218E+00  0.51100000000E-03 0. -1.
         11    1    4    4    0    0  0.29869018081E-02  0.19034744856E-01  0.39771023861E-02  0.19680486745E-01  0.51100000000E-03 0.  1.
</event>
<event>
 8    1  0.1204770E+005  0.1043930E+01  0.7957747E-01            NaN
         13   -1    0    0    0    0  0.00000000000E+00  0.00000000000E+00  0.74505805969E-08  0.10566000000E+00  0.10566000000E+00 0.  1.
     999900   -1    0    0    0    0 -0.00000000000E+00 -0.00000000000E+00 -0.74505805969E-08  0.93827000000E+00  0.93827000000E+00 0. -1.
     999902    2    1    2    0    0  0.16123858155E-01 -0.15802720992E-01  0.60111814632E-02  0.10205668004E+01  0.10202993458E+01 0.  0.
     999903    2    3    3    0    0  0.90218049933E-01 -0.40238310495E-01  0.87256777594E-01  0.13338705865E+00  0.20492535590E-01 0.  0.
         14    1    1    2    0    0 -0.16123858155E-01  0.15802720992E-01 -0.60111814632E-02  0.23363199592E-01  0.00000000000E+00 0. -1.
     999901    1    3    3    0    0 -0.74094191778E-01  0.24435589503E-01 -0.81245596131E-01  0.88717974175E+00  0.88000000000E+00 0.  1.
        -11    1    4    4    0    0  0.22442655770E-01 -0.12115629816E-01  0.11709825390E-01  0.28068530697E-01  0.51100000000E-03 0. -1.
         11    1    4    4    0    0  0.67775394163E-01 -0.28122680679E-01  0.75546952204E-01  0.10531852796E+00  0.51100000000E-03 0.  1.
</event>
<event>
 8    1  0.1204770E+005  0.1043930E+01  0.7957747E-01            NaN
         13   -1    0    0    0    0  0.00000000000E+00  0.00000000000E+00  0.74505805969E-08  0.10566000000E+00  0.10566000000E+00 0.  1.
     999900   -1    0    0    0    0 -0.00000000000E+00 -0.00000000000E+00 -0.74505805969E-08  0.93827000000E+00  0.93827000000E+00 0. -1.
     999902    2    1    2    0    0 -0.22194297209E-01 -0.56175078150E-02  0.56583750094E-02  0.10203469461E+01  0.10200743747E+01 0.  0.
     999903    2    3    3    0    0  0.10882966404E+00  0.34921273990E-01  0.54992614412E-01  0.12835785514E+00  0.19701781228E-01 0.  0.
         14    1    1    2    0    0  0.22194297209E-01  0.56175078150E-02 -0.56583750094E-02  0.23583053882E-01  0.00000000000E+00 0. -1.
     999901    1    3    3    0    0 -0.13102396125E+00 -0.40538781805E-01 -0.49334239403E-01  0.89198909098E+00  0.88000000000E+00 0. -1.
        -11    1    4    4    0    0  0.71875069031E-01  0.26626081320E-01  0.46118001352E-01  0.89454485211E-01  0.51100000000E-03 0. -1.
         11    1    4    4    0    0  0.36954595008E-01  0.82951926698E-02  0.88746130606E-02  0.38903369926E-01  0.51100000000E-03 0.  1.
</event>
<event>
 8    1  0.1204770E+005  0.1043930E+01  0.7957747E-01            NaN
         13   -1    0    0    0    0  0.00000000000E+00  0.00000000000E+00  0.74505805969E-08  0.10566000000E+00  0.10566000000E+00 0. -1.
     999900   -1    0    0    0    0 -0.00000000000E+00 -0.00000000000E+00 -0.74505805969E-08  0.93827000000E+00  0.93827000000E+00 0.  1.
     999902    2    1    2    0    0  0.84278219960E-02 -0.19436879463E-01 -0.16074126024E-01  0.10173368055E+01  0.10169891729E+01 0.  0.
     999903    2    3    3    0    0 -0.85960953613E-01  0.37212723422E-01  0.80841219558E-01  0.12519836182E+00  0.19111637595E-01 0.  0.
         14    1    1    2    0    0 -0.84278219960E-02  0.19436879463E-01  0.16074126024E-01  0.26593194511E-01  0.00000000000E+00 0. -1.
     999901    1    3    3    0    0  0.94388775609E-01 -0.56649602885E-01 -0.96915345582E-01  0.89213844367E+00  0.88000000000E+00 0.  1.
        -11    1    4    4    0    0 -0.66072737339E-01  0.26020240946E-01  0.70743831936E-01  0.10023776951E+00  0.51100000000E-03 0.  1.
         11    1    4    4    0    0 -0.19888216274E-01  0.11192482475E-01  0.10097387622E-01  0.24960592307E-01  0.51100000000E-03 0. -1.
</event>
<event>
 8    1  0.1204770E+005  0.1043930E+01  0.7957747E-01            NaN
         13   -1    0    0    0    0  0.00000000000E+00  0.00000000000E+00  0.74505805969E-08  0.10566000000E+00  0.10566000000E+00 0. -1.
     999900   -1    0    0    0    0 -0.00000000000E+00 -0.00000000000E+00 -0.74505805969E-08  0.93827000000E+00  0.93827000000E+00 0.  1.
     999902    2    1    2    0    0  0.19237413900E-01  0.11863348820E-01 -0.38442561757E-02  0.10210041315E+01  0.10207467077E+01 0.  0.
     999903    2    3    3    0    0 -0.21886368179E-01 -0.12144010184E+00 -0.31151738347E-01  0.12959700010E+00  0.24458948989E-01 0.  0.
         14    1    1    2    0    0 -0.19237413900E-01 -0.11863348820E-01  0.38442561757E-02  0.22925868453E-01  0.00000000000E+00 0. -1.
     999901    1    3    3    0    0  0.41123782079E-01  0.13330345066E+00  0.27307482171E-01  0.89140713145E+00  0.88000000000E+00 0. -1.
        -11    1    4    4    0    0 -0.16906472467E-01 -0.85252686118E-01 -0.10272580288E-01  0.87519348309E-01  0.51100000000E-03 0.  1.
         11    1    4    4    0    0 -0.49798957123E-02 -0.36187415723E-01 -0.20879158059E-01  0.42077651792E-01  0.51100000000E-03 0. -1.
</event>
<event>
 8    1  0.1204770E+005  0.1043930E+01  0.7957747E-01            NaN
         13   -1    0    0    0    0  0.00000000000E+00  0.00000000000E+00  0.74505805969E-08  0.10566000000E+00  0.10566000000E+00 0.  1.
     999900   -1    0    0    0    0 -0.00000000000E+00 -0.00000000000E+00 -0.74505805969E-08  0.93827000000E+00  0.93827000000E+00 0. -1.
     999902    2    1    2    0    0 -0.11534641785E-01 -0.12150385825E-01 -0.16564883554E-01  0.10203699660E+01  0.10200979327E+01 0.  0.
     999903    2    3    3    0    0  0.69909886887E-01  0.70550649215E-01 -0.81790964297E-01  0.13035473347E+00  0.20923869365E-01 0.  0.
         14    1    1    2    0    0  0.11534641785E-01  0.12150385825E-01  0.16564883554E-01  0.23560034040E-01  0.00000000000E+00 0. -1.
     999901    1    3    3    0    0 -0.81444528672E-01 -0.82701035040E-01  0.65226080743E-01  0.89001523249E+00  0.88000000000E+00 0.  1.
        -11    1    4    4    0    0  0.42981368279E-01  0.38770843656E-01 -0.34732957209E-01  0.67507153506E-01  0.51100000000E-03 0. -1.
         11    1    4    4    0    0  0.26928518608E-01  0.31779805559E-01 -0.47058007088E-01  0.62847579969E-01  0.51100000000E-03 0.  1.
</event>
<event>
 8    1  0.1204770E+005  0.1043930E+01  0.7957747E-01            NaN
         13   -1    0    0    0    0  0.00000000000E+00  0.00000000000E+00  0.74505805969E-08  0.10566000000E+00  0.10566000000E+00 0.  1.
     999900   -1    0    0    0    0 -0.00000000000E+00 -0.00000000000E+00 -0.74505805969E-08  0.93827000000E+00  0.93827000000E+00 0.  1.
     999902    2    1    2    0    0 -0.18791384316E-01  0.13080510013E-01  0.68006336962E-02  0.10200456016E+01  0.10197659363E+01 0.  0.
     999903    2    3    3    0    0  0.12225362931E+00  0.28817999513E-01  0.18924249004E-01  0.12859266037E+00  0.20037917186E-01 0.  0.
         14    1    1    2    0    0  0.18791384316E-01 -0.13080510013E-01 -0.68006336962E-02  0.23884398368E-01  0.00000000000E+00 0. -1.
     999901    1    3    3    0    0 -0.14104501362E+00 -0.15737489500E-01 -0.12123615308E-01  0.89145294127E+00  0.88000000000E+00 0. -1.
        -11    1    4    4    0    0  0.10493717738E+00  0.26514835483E-01  0.22986587536E-01  0.11065031416E+00  0.51100000000E-03 0.  1.
         11    1    4    4    0    0  0.17316451929E-01  0.23031640302E-02 -0.40623385320E-02  0.17942346204E-01  0.51100000000E-03 0. -1.
</event>
<event>
 8    1  0.1204770E+005  0.1043930E+01  0.7957747E-01            NaN
         13   -1    0    0    0    0  0.00000000000E+00  0.00000000000E+00  0.74505805969E-08  0.10566000000E+00  0.10566000000E+00 0.  1.
     999900   -1    0    0    0    0 -0.00000000000E+00 -0.00000000000E+00 -0.74505805969E-08  0.93827000000E+00  0.93827000000E+00 0.  1.
     999902    2    1    2    0    0  0.75516126947E-02  0.96205249945E-02 -0.21432553006E-01  0.10192533778E+01  0.10189546175E+01 0.  0.
     999903    2    3    3    0    0 -0.12132968753E+00 -0.29228220402E-01 -0.26656248794E-01  0.12900234490E+00  0.18864449225E-01 0.  0.
         14    1    1    2    0    0 -0.75516126947E-02 -0.96205249945E-02  0.21432553006E-01  0.24676622212E-01  0.00000000000E+00 0.  1.
     999901    1    3    3    0    0  0.12888130023E+00  0.38848745396E-01  0.52236957880E-02  0.89025103289E+00  0.88000000000E+00 0. -1.
        -11    1    4    4    0    0 -0.32638221283E-01 -0.97166641479E-02 -0.15792633293E-01  0.37541116632E-01  0.51100000000E-03 0. -1.
         11    1    4    4    0    0 -0.88691466248E-01 -0.19511556254E-01 -0.10863615501E-01  0.91461228264E-01  0.51100000000E-03 0.  1.
</event>
<event>
 8    1  0.1204770E+005  0.1043930E+01  0.7957747E-01            NaN
         13   -1    0    0    0    0  0.00000000000E+00  0.00000000000E+00  0.74505805969E-08  0.10566000000E+00  0.10566000000E+00 0. -1.
     999900   -1    0    0    0    0 -0.00000000000E+00 -0.00000000000E+00 -0.74505805969E-08  0.93827000000E+00  0.93827000000E+00 0.  1.
     999902    2    1    2    0    0 -0.89468918314E-03  0.20373054980E-01  0.12320021772E-01  0.10201047031E+01  0.10198264364E+01 0.  0.
     999903    2    3    3    0    0  0.45366991168E-01  0.39341333106E-01 -0.11330898786E+00  0.12977746731E+00  0.19933888565E-01 0.  0.
         14    1    1    2    0    0  0.89468918314E-03 -0.20373054980E-01 -0.12320021772E-01  0.23825296943E-01  0.00000000000E+00 0. -1.
     999901    1    3    3    0    0 -0.46261680351E-01 -0.18968278126E-01  0.12562900964E+00  0.89032723574E+00  0.88000000000E+00 0. -1.
        -11    1    4    4    0    0  0.19836479160E-01  0.28916188309E-01 -0.54297273487E-01  0.64638122505E-01  0.51100000000E-03 0.  1.
         11    1    4    4    0    0  0.25530512008E-01  0.10425144797E-01 -0.59011714377E-01  0.65139344809E-01  0.51100000000E-03 0. -1.
</event>
<event>
 8    1  0.1204770E+005  0.1043930E+01  0.7957747E-01            NaN
         13   -1    0    0    0    0  0.00000000000E+00  0.00000000000E+00  0.74505805969E-08  0.10566000000E+00  0.10566000000E+00 0.  1.
     999900   -1    0    0    0    0 -0.00000000000E+00 -0.00000000000E+00 -0.74505805969E-08  0.93827000000E+00  0.93827000000E+00 0.  1.
     999902    2    1    2    0    0 -0.16682475179E-01  0.57054785692E-02  0.15708689055E-01  0.10203160131E+01  0.10200427179E+01 0.  0.
     999903    2    3    3    0    0  0.76857656484E-01 -0.30706947920E-01  0.99027388161E-01  0.13069945155E+00  0.20637514809E-01 0.  0.
         14    1    1    2    0    0  0.16682475179E-01 -0.57054785692E-02 -0.15708689055E-01  0.23613986864E-01  0.00000000000E+00 0. -1.
     999901    1    3    3    0    0 -0.93540131663E-01  0.36412426489E-01 -0.83318699106E-01  0.88961656159E+00  0.88000000000E+00 0.  1.
        -11    1    4    4    0    0  0.20403073200E-01 -0.10107757708E-01  0.42380940378E-01  0.48112964887E-01  0.51100000000E-03 0. -1.
         11    1    4    4    0    0  0.56454583284E-01 -0.20599190212E-01  0.56646447784E-01  0.82586486659E-01  0.51100000000E-03 0.  1.
</event>
<event>
 8    1  0.1204770E+005  0.1043930E+01  0.7957747E-01            NaN
         13   -1    0    0    0    0  0.00000000000E+00  0.00000000000E+00  0.74505805969E-08  0.10566000000E+00  0.10566000000E+00 0.  1.
     999900   -1    0    0    0    0 -0.00000000000E+00 -0.00000000000E+00 -0.74505805969E-08  0.93827000000E+00  0.93827000000E+00 0.  1.
     999902    2    1    2    0    0 -0.20098159183E-01 -0.97705777891E-02  0.86760218178E-02  0.10199576504E+01  0.10196758970E+01 0.  0.
     999903    2    3    3    0    0 -0.64871702172E-01 -0.85687725229E-01  0.75755479204E-01  0.13301473391E+00  0.20082400519E-01 0.  0.
         14    1    1    2    0    0  0.20098159183E-01  0.97705777891E-02 -0.86760218178E-02  0.23972349644E-01  0.00000000000E+00 0. -1.
     999901    1    3    3    0    0  0.44773542989E-01  0.75917147440E-01 -0.67079457386E-01  0.88694291644E+00  0.88000000000E+00 0.  1.
        -11    1    4    4    0    0 -0.25457159182E-01 -0.21350738533E-01  0.16641750085E-01  0.37163556832E-01  0.51100000000E-03 0. -1.
         11    1    4    4    0    0 -0.39414542990E-01 -0.64336986696E-01  0.59113729119E-01  0.95851177080E-01  0.51100000000E-03 0.  1.
</event>
<event>
 8    1  0.1204770E+005  0.1043930E+01  0.7957747E-01            NaN
         13   -1    0    0    0    0  0.00000000000E+00  0.00000000000E+00  0.74505805969E-08  0.10566000000E+00  0.10566000000E+00 0. -1.
     999900   -1    0    0    0    0 -0.00000000000E+00 -0.00000000000E+00 -0.74505805969E-08  0.93827000000E+00  0.93827000000E+00 0.  1.
     999902    2    1    2    0    0 -0.16224286599E-01 -0.37803524062E-02 -0.17489286203E-01  0.10197764563E+01  0.10194903762E+01 0.  0.
     999903    2    3    3    0    0  0.58691682580E-01  0.11183566022E+00  0.13118505310E-01  0.12853221275E+00  0.19912459183E-01 0.  0.
         14    1    1    2    0    0  0.16224286599E-01  0.37803524062E-02  0.17489286203E-01  0.24153543671E-01  0.00000000000E+00 0. -1.
     999901    1    3    3    0    0 -0.74915969179E-01 -0.11561601263E+00 -0.30607791512E-01  0.89124424358E+00  0.88000000000E+00 0. -1.
        -11    1    4    4    0    0  0.36565316284E-01  0.50784024807E-01  0.17479448630E-02  0.62604759905E-01  0.51100000000E-03 0.  1.
         11    1    4    4    0    0  0.22126366296E-01  0.61051635417E-01  0.11370560447E-01  0.65927452843E-01  0.51100000000E-03 0. -1.
</event>
<event>
 8    1  0.1204770E+005  0.1043930E+01  0.7957747E-01            NaN
         13   -1    0    0    0    0  0.00000000000E+00  0.00000000000E+00  0.74505805969E-08  0.10566000000E+00  0.10566000000E+00 0.  1.
     999900   -1    0    0    0    0 -0.00000000000E+00 -0.00000000000E+00 -0.74505805969E-08  0.93827000000E+00  0.93827000000E+00 0. -1.
     999902    2    1    2    0    0 -0.66603801423E-02 -0.19713950570E-01 -0.13811023455E-01  0.10189551150E+01  0.10186489982E+01 0.  0.
     999903    2    3    3    0    0 -0.11159413446E+00  0.37301027586E-02 -0.65507751059E-01  0.13090485289E+00  0.19433233096E-01 0.  0.
         14    1    1    2    0    0  0.66603801423E-02  0.19713950570E-01  0.13811023455E-01  0.24974884976E-01  0.00000000000E+00 0.  1.
     999901    1    3    3    0    0  0.10493375432E+00 -0.23444053328E-01  0.51696727604E-01  0.88805026213E+00  0.88000000000E+00 0. -1.
        -11    1    4    4    0    0 -0.29311876034E-01  0.85697528118E-02 -0.22479067344E-01  0.37923559031E-01  0.51100000000E-03 0.  1.
         11    1    4    4    0    0 -0.82282258426E-01 -0.48396500532E-02 -0.43028683715E-01  0.92981293859E-01  0.51100000000E-03 0. -1.
</event>
<event>
 8    1  0.1204770E+005  0.1043930E+01  0.7957747E-01            NaN
         13   -1    0    0    0    0  0.00000000000E+00  0.00000000000E+00  0.74505805969E-08  0.10566000000E+00  0.10566000000E+00 0.  1.
     999900   -1    0    0    0    0 -0.00000000000E+00 -0.00000000000E+00 -0.74505805969E-08  0.93827000000E+00  0.93827000000E+00 0. -1.
     999902    2    1    2    0    0 -0.11352590927E-01  0.19314398603E-01  0.67203317616E-02  0.10205400412E+01  0.10202719664E+01 0.  0.
     999903    2    3    3    0    0  0.80349694639E-01 -0.71877499175E-01 -0.66538214061E-01  0.12807598817E+00  0.18806288813E-01 0.  0.
         14    1    1    2    0    0  0.11352590927E-01 -0.19314398603E-01 -0.67203317616E-02  0.23389958810E-01  0.00000000000E+00 0. -1.
     999901    1    3    3    0    0 -0.91702285566E-01  0.91191897778E-01  0.73258545822E-01  0.89246405302E+00  0.88000000000E+00 0.  1.
        -11    1    4    4    0    0  0.59893960144E-01 -0.63212204071E-01 -0.50432145934E-01  0.10063166336E+00  0.51100000000E-03 0.  1.
         11    1    4    4    0    0  0.20455734495E-01 -0.86652951040E-02 -0.16106068127E-01  0.27444324813E-01  0.51100000000E-03 0. -1.
</event>
<event>
 8    1  0.1204770E+005  0.1043930E+01  0.7957747E-01            NaN
         13   -1    0    0    0    0  0.00000000000E+00  0.00000000000E+00  0.74505805969E-08  0.10566000000E+00  0.10566000000E+00 0.  1.
     999900   -1    0    0    0    0 -0.00000000000E+00 -0.00000000000E+00 -0.74505805969E-08  0.93827000000E+00  0.93827000000E+00 0.  1.
     999902    2    1    2    0    0  0.44127260265E-02 -0.20179825354E-01  0.11789547525E-01  0.10201457419E+01  0.10198684444E+01 0.  0.
     999903    2    3    3    0    0  0.87808215627E-01 -0.62810534019E-01 -0.71782660857E-01  0.13123826696E+00  0.20378576948E-01 0.  0.
         14    1    1    2    0    0 -0.44127260265E-02  0.20179825354E-01 -0.11789547525E-01  0.23784258096E-01  0.00000000000E+00 0. -1.
     999901    1    3    3    0    0 -0.83395489600E-01  0.42630708665E-01  0.83572208382E-01  0.88890747495E+00  0.88000000000E+00 0. -1.
        -11    1    4    4    0    0  0.57360692088E-01 -0.52182011528E-01 -0.48591854771E-01  0.91513063522E-01  0.51100000000E-03 0. -1.
         11    1    4    4    0    0  0.30447523538E-01 -0.10628522491E-01 -0.23190806086E-01  0.39725203434E-01  0.51100000000E-03 0.  1.
</event>
<event>
 8    1  0.1204770E+005  0.1043930E+01  0.7957747E-01            NaN
         13   -1    0    0    0    0  0.00000000000E+00  0.00000000000E+00  0.74505805969E-08  0.10566000000E+00  0.10566000000E+00 0. -1.
     999900   -1    0    0    0    0 -0.00000000000E+00 -0.00000000000E+00 -0.74505805969E-08  0.93827000000E+00  0.93827000000E+00 0.  1.
     999902    2    1    2    0    0  0.29469462849E-03  0.22919896676E-01 -0.61345128893E-02  0.10202015201E+01  0.10199255369E+01 0.  0.
     999903    2    3    3    0    0 -0.33767548314E-01  0.52918039467E-01  0.11096320191E+00  0.13128532623E+00  0.31343874746E-01 0.  0.
         14    1    1    2    0    0 -0.29469462849E-03 -0.22919896676E-01  0.61345128893E-02  0.23728479870E-01  0.00000000000E+00 0. -1.
     999901    1    3    3    0    0  0.34062242942E-01 -0.29998142791E-01 -0.11709771480E+00  0.88891619390E+00  0.88000000000E+00 0.  1.
        -11    1    4    4    0    0 -0.33931200358E-01  0.29555498844E-01  0.86180956808E-01  0.97222797259E-01  0.51100000000E-03 0. -1.
         11    1    4    4    0    0  0.16365204402E-03  0.23362540623E-01  0.24782245107E-01  0.34062528971E-01  0.51100000000E-03 0.  1.
</event>
<event>
 8    1  0.1204770E+005  0.1043930E+01  0.7957747E-01            NaN
         13   -1    0    0    0    0  0.00000000000E+00  0.00000000000E+00  0.74505805969E-08  0.10566000000E+00  0.10566000000E+00 0.  1.
     999900   -1    0    0    0    0 -0.00000000000E+00 -0.00000000000E+00 -0.74505805969E-08  0.93827000000E+00  0.93827000000E+00 0.  1.
     999902    2    1    2    0    0  0.12553466384E-02 -0.21482892546E-01  0.47116639230E-02  0.10219006935E+01  0.10216632210E+01 0.  0.
     999903    2    3    3    0    0 -0.42594017852E-01 -0.62089053686E-01  0.10873242838E+00  0.13376109496E+00  0.19999714976E-01 0.  0.
         14    1    1    2    0    0 -0.12553466384E-02  0.21482892546E-01 -0.47116639230E-02  0.22029306486E-01  0.00000000000E+00 0. -1.
     999901    1    3    3    0    0  0.43849364491E-01  0.40606161140E-01 -0.10402076445E+00  0.88813959856E+00  0.88000000000E+00 0.  1.
        -11    1    4    4    0    0 -0.40130917357E-01 -0.45889626141E-01  0.91745889431E-01  0.11015406331E+00  0.51100000000E-03 0.  1.
         11    1    4    4    0    0 -0.24631004958E-02 -0.16199427545E-01  0.16986538944E-01  0.23607031646E-01  0.51100000000E-03 0. -1.
</event>
<event>
 8    1  0.1204770E+005  0.1043930E+01  0.7957747E-01            NaN
         13   -1    0    0    0    0  0.00000000000E+00  0.00000000000E+00  0.74505805969E-08  0.10566000000E+00  0.10566000000E+00 0. -1.
     999900   -1    0    0    0    0 -0.00000000000E+00 -0.00000000000E+00 -0.74505805969E-08  0.93827000000E+00  0.93827000000E+00 0. -1.
     999902    2    1    2    0    0  0.81390656283E-02  0.13626463705E-01 -0.17659079843E-01  0.10201862007E+01  0.10199098569E+01 0.  0.
     999903    2    3    3    0    0  0.16720866144E-01  0.10904806962E+00 -0.72145250225E-01  0.13331097111E+00  0.19894949969E-01 0.  0.
         14    1    1    2    0    0 -0.81390656283E-02 -0.13626463705E-01  0.17659079843E-01  0.23743799260E-01  0.00000000000E+00 0. -1.
     999901    1    3    3    0    0 -0.85818005160E-02 -0.95421605916E-01  0.54486170383E-01  0.88687522963E+00  0.88000000000E+00 0.  1.
        -11    1    4    4    0    0 -0.43116272855E-02  0.27852259521E-01 -0.16688050011E-01  0.32758061976E-01  0.51100000000E-03 0. -1.
         11    1    4    4    0    0  0.21032493430E-01  0.81195810101E-01 -0.55457200215E-01  0.10055290913E+00  0.51100000000E-03 0.  1.
</event>
<event>
 8    1  0.1204770E+005  0.1043930E+01  0.7957747E-01            NaN
         13   -1    0    0    0    0  0.00000000000E+00  0.00000000000E+00  0.74505805969E-08  0.10566000000E+00  0.10566000000E+00 0.  1.
     999900   -1    0    0    0    0 -0.00000000000E+00 -0.00000000000E+00 -0.74505805969E-08  0.93827000000E+00  0.93827000000E+00 0. -1.
     999902    2    1    2    0    0 -0.13447482737E-01 -0.78580443910E-02  0.17733133329E-01  0.10203281426E+01  0.10200551313E+01 0.  0.
     999903    2    3    3    0    0  0.75367206725E-01 -0.99937574960E-01 -0.30010302923E-01  0.12979677052E+00  0.16698760929E-01 0.  0.
         14    1    1    2    0    0  0.13447482737E-01  0.78580443910E-02 -0.17733133329E-01  0.23601857369E-01  0.00000000000E+00 0.  1.
     999901    1    3    3    0    0 -0.88814689462E-01  0.92079530569E-01  0.47743436252E-01  0.89053137211E+00  0.88000000000E+00 0. -1.
        -11    1    4    4    0    0  0.36822626519E-01 -0.61442070510E-01 -0.13717998319E-01  0.72934754756E-01  0.51100000000E-03 0. -1.
         11    1    4    4    0    0  0.38544580206E-01 -0.38495504450E-01 -0.16292304605E-01  0.56862015761E-01  0.51100000000E-03 0.  1.
</event>
<event>
 8    1  0.1204770E+005  0.1043930E+01  0.7957747E-01            NaN
         13   -1    0    0    0    0  0.00000000000E+00  0.00000000000E+00  0.74505805969E-08  0.10566000000E+00  0.10566000000E+00 0. -1.
     999900   -1    0    0    0    0 -0.00000000000E+00 -0.00000000000E+00 -0.74505805969E-08  0.93827000000E+00  0.93827000000E+00 0. -1.
     999902    2    1    2    0    0 -0.15933785213E-01 -0.11736733571E-01  0.11738407747E-01  0.10209207270E+01  0.10206614053E+01 0.  0.
     999903    2    3    3    0    0  0.31722629658E-01 -0.32128350559E-01 -0.11980800383E+00  0.12963434751E+00  0.20311330104E-01 0.  0.
         14    1    1    2    0    0  0.15933785213E-01  0.11736733571E-01 -0.11738407747E-01  0.23009272969E-01  0.00000000000E+00 0.  1.
     999901    1    3    3    0    0 -0.47656414871E-01  0.20391616988E-01  0.13154641158E+00  0.89128637952E+00  0.88000000000E+00 0.  1.
        -11    1    4    4    0    0  0.24571600163E-01 -0.11808791664E-01 -0.77475300344E-01  0.82133393815E-01  0.51100000000E-03 0. -1.
         11    1    4    4    0    0  0.71510294951E-02 -0.20319558895E-01 -0.42332703485E-01  0.47500953695E-01  0.51100000000E-03 0.  1.
</event>
<event>
 8    1  0.1204770E+005  0.1043930E+01  0.7957747E-01            NaN
         13   -1    0    0    0    0  0.00000000000E+00  0.00000000000E+00  0.74505805969E-08  0.10566000000E+00  0.10566000000E+00 0.  1.
     999900   -1    0    0    0    0 -0.00000000000E+00 -0.00000000000E+00 -0.74505805969E-08  0.93827000000E+00  0.93827000000E+00 0. -1.
     999902    2    1    2    0    0 -0.15615196112E-01 -0.19103075157E-01 -0.10035744801E-01  0.10172939717E+01  0.10169452035E+01 0.  0.
     999903    2    3    3    0    0 -0.21373326541E-01 -0.12284294037E+00 -0.33857370037E-01  0.13086146692E+00  0.20765233728E-01 0.  0.
         14    1    1    2    0    0  0.15615196112E-01  0.19103075157E-01  0.10035744801E-01  0.26636028304E-01  0.00000000000E+00 0. -1.
     999901    1    3    3    0    0  0.57581304286E-02  0.10373986521E+00  0.23821625236E-01  0.88643250478E+00  0.88000000000E+00 0. -1.
        -11    1    4    4    0    0 -0.23878563674E-01 -0.10860381995E+00 -0.25257409352E-01  0.11403145776E+00  0.51100000000E-03 0. -1.
         11    1    4    4    0    0  0.25052371331E-02 -0.14239120420E-01 -0.85999606850E-02  0.16830009157E-01  0.51100000000E-03 0.  1.
</event>
<event>
 8    1  0.1204770E+005  0.1043930E+01  0.7957747E-01            NaN
         13   -1    0    0    0    0  0.00000000000E+00  0.00000000000E+00  0.74505805969E-08  0.10566000000E+00  0.10566000000E+00 0. -1.
     999900   -1    0    0    0    0 -0.00000000000E+00 -0.00000000000E+00 -0.74505805969E-08  0.93827000000E+00  0.93827000000E+00 0. -1.
     999902    2    1    2    0    0 -0.16345589605E-01 -0.11229982187E-01 -0.15396014326E-01  0.10188236650E+01  0.10185142769E+01 0.  0.
     999903    2    3    3    0    0 -0.62068448710E-01 -0.99958387135E-01 -0.56767440523E-01  0.13221501144E+00  0.20349335648E-01 0.  0.
         14    1    1    2    0    0  0.16345589605E-01  0.11229982187E-01  0.15396014326E-01  0.25106334989E-01  0.00000000000E+00 0. -1.
     999901    1    3    3    0    0  0.45722859105E-01  0.88728404948E-01  0.41371426197E-01  0.88660865358E+00  0.88000000000E+00 0.  1.
        -11    1    4    4    0    0 -0.49714703548E-01 -0.63485494155E-01 -0.42454714069E-01  0.91129707475E-01  0.51100000000E-03 0. -1.
         11    1    4    4    0    0 -0.12353745162E-01 -0.36472892981E-01 -0.14312726454E-01  0.41085303960E-01  0.51100000000E-03 0.  1.
</event>
<event>
 8    1  0.1204770E+005  0.1043930E+01  0.7957747E-01            NaN
         13   -1    0    0    0    0  0.00000000000E+00  0.00000000000E+00  0.74505805969E-08  0.10566000000E+00  0.10566000000E+00 0.  1.
     999900   -1    0    0    0    0 -0.00000000000E+00 -0.00000000000E+00 -0.74505805969E-08  0.93827000000E+00  0.93827000000E+00 0. -1.
     999902    2    1    2    0    0 -0.11206651093E-01 -0.18163208155E-01 -0.98224356891E-02  0.10204359284E+01  0.10201654339E+01 0.  0.
     999903    2    3    3    0    0 -0.11921714419E+00  0.46308579464E-01  0.19658635950E-01  0.13100239425E+00  0.20443906920E-01 0.  0.
         14    1    1    2    0    0  0.11206651093E-01  0.18163208155E-01  0.98224356891E-02  0.23494071637E-01  0.00000000000E+00 0.  1.
     999901    1    3    3    0    0  0.10801049310E+00 -0.64471787619E-01 -0.29481071639E-01  0.88943353411E+00  0.88000000000E+00 0.  1.
        -11    1    4    4    0    0 -0.46891330909E-01  0.28278463483E-01  0.12078526072E-01  0.56076914363E-01  0.51100000000E-03 0.  1.
         11    1    4    4    0    0 -0.72325813285E-01  0.18030115981E-01  0.75801098782E-02  0.74925479888E-01  0.51100000000E-03 0. -1.
</event>
<event>
 8    1  0.1204770E+005  0.1043930E+01  0.7957747E-01            NaN
         13   -1    0    0    0    0  0.00000000000E+00  0.00000000000E+00  0.74505805969E-08  0.10566000000E+00  0.10566000000E+00 0. -1.
     999900   -1    0    0    0    0 -0.00000000000E+00 -0.00000000000E+00 -0.74505805969E-08  0.93827000000E+00  0.93827000000E+00 0.  1.
     999902    2    1    2    0    0  0.15125482138E-01 -0.10096727591E-01 -0.84992882299E-02  0.10238560861E+01  0.10236592808E+01 0.  0.
     999903    2    3    3    0    0  0.79811088644E-01  0.80697754756E-01 -0.69460840948E-01  0.13473057382E+00  0.21108803945E-01 0.  0.
         14    1    1    2    0    0 -0.15125482138E-01  0.10096727591E-01  0.84992882299E-02  0.20073913878E-01  0.00000000000E+00 0.  1.
     999901    1    3    3    0    0 -0.64685606507E-01 -0.90794482347E-01  0.60961552718E-01  0.88912551230E+00  0.88000000000E+00 0. -1.
        -11    1    4    4    0    0  0.61826680876E-01  0.48945989514E-01 -0.44956630047E-01  0.90772286871E-01  0.51100000000E-03 0. -1.
         11    1    4    4    0    0  0.17984407768E-01  0.31751765242E-01 -0.24504210901E-01  0.43958286951E-01  0.51100000000E-03 0.  1.
</event>
<event>
 8    1  0.1204770E+005  0.1043930E+01  0.7957747E-01            NaN
         13   -1    0    0    0    0  0.00000000000E+00  0.00000000000E+00  0.74505805969E-08  0.10566000000E+00  0.10566000000E+00 0.  1.
     999900   -1    0    0    0    0 -0.00000000000E+00 -0.00000000000E+00 -0.74505805969E-08  0.93827000000E+00  0.93827000000E+00 0. -1.
     999902    2    1    2    0    0 -0.16457029115E-01 -0.10930574085E-01  0.13816063689E-01  0.10198220164E+01  0.10195370274E+01 0.  0.
     999903    2    3    3    0    0 -0.70758073420E-01 -0.16167430792E-01  0.10948802020E+00  0.13295722889E+00  0.20540383934E-01 0.  0.
         14    1    1    2    0    0  0.16457029115E-01  0.10930574085E-01 -0.13816063689E-01  0.24107983594E-01  0.00000000000E+00 0. -1.
     999901    1    3    3    0    0  0.54301044305E-01  0.52368567079E-02 -0.95671956515E-01  0.88686478752E+00  0.88000000000E+00 0. -1.
        -11    1    4    4    0    0 -0.48023377417E-01 -0.58727995811E-02  0.86030791585E-01  0.98703053525E-01  0.51100000000E-03 0.  1.
         11    1    4    4    0    0 -0.22734696002E-01 -0.10294631211E-01  0.23457228619E-01  0.34254175360E-01  0.51100000000E-03 0. -1.
</event>
<event>
 8    1  0.1204770E+005  0.1043930E+01  0.7957747E-01            NaN
         13   -1    0    0    0    0  0.00000000000E+00  0.00000000000E+00  0.74505805969E-08  0.10566000000E+00  0.10566000000E+00 0. -1.
     999900   -1    0    0    0    0 -0.00000000000E+00 -0.00000000000E+00 -0.74505805969E-08  0.93827000000E+00  0.93827000000E+00 0. -1.
     999902    2    1    2    0    0  0.18079887675E-01  0.15557663995E-01  0.18018611584E-02  0.10200099258E+01  0.10197294145E+01 0.  0.
     999903    2    3    3    0    0 -0.82184571849E-01 -0.75902475732E-01  0.59852982111E-01  0.12771633527E+00  0.14614826590E-01 0.  0.
         14    1    1    2    0    0 -0.18079887675E-01 -0.15557663995E-01 -0.18018611584E-02  0.23920074226E-01  0.00000000000E+00 0.  1.
     999901    1    3    3    0    0  0.10026445952E+00  0.91460139727E-01 -0.58051120952E-01  0.89229359050E+00  0.88000000000E+00 0. -1.
        -11    1    4    4    0    0 -0.49384871072E-01 -0.36917634497E-01  0.36662843131E-01  0.71737036565E-01  0.51100000000E-03 0.  1.
         11    1    4    4    0    0 -0.32799700777E-01 -0.38984841235E-01  0.23190138979E-01  0.55979298710E-01  0.51100000000E-03 0. -1.
</event>
<event>
 8    1  0.1204770E+005  0.1043930E+01  0.7957747E-01            NaN
         13   -1    0    0    0    0  0.00000000000E+00  0.00000000000E+00  0.74505805969E-08  0.10566000000E+00  0.10566000000E+00 0.  1.
     999900   -1    0    0    0    0 -0.00000000000E+00 -0.00000000000E+00 -0.74505805969E-08  0.93827000000E+00  0.93827000000E+00 0. -1.
     999902    2    1    2    0    0  0.93400948941E-02 -0.61714251390E-02  0.20145891708E-01  0.10208826398E+01  0.10206224490E+01 0.  0.
     999903    2    3    3    0    0 -0.10787528954E+00  0.14167991298E-01  0.71724967309E-01  0.13138079084E+00  0.16692249562E-01 0.  0.
         14    1    1    2    0    0 -0.93400948941E-02  0.61714251390E-02 -0.20145891708E-01  0.23047360230E-01  0.00000000000E+00 0. -1.
     999901    1    3    3    0    0  0.11721538443E+00 -0.20339416437E-01 -0.51579075601E-01  0.88950184893E+00  0.88000000000E+00 0. -1.
        -11    1    4    4    0    0 -0.39929596164E-01  0.12971680954E-01  0.30508713195E-01  0.51900673006E-01  0.51100000000E-03 0.  1.
         11    1    4    4    0    0 -0.67945693376E-01  0.11963103439E-02  0.41216254114E-01  0.79480117834E-01  0.51100000000E-03 0. -1.
</event>
<event>
 8    1  0.1204770E+005  0.1043930E+01  0.7957747E-01            NaN
         13   -1    0    0    0    0  0.00000000000E+00  0.00000000000E+00  0.74505805969E-08  0.10566000000E+00  0.10566000000E+00 0.  1.
     999900   -1    0    0    0    0 -0.00000000000E+00 -0.00000000000E+00 -0.74505805969E-08  0.93827000000E+00  0.93827000000E+00 0. -1.
     999902    2    1    2    0    0 -0.65615838088E-02 -0.96001235056E-02  0.19628128486E-01  0.10211159653E+01  0.10208610749E+01 0.  0.
     999903    2    3    3    0    0 -0.98317260227E-01 -0.65469619746E-01 -0.54139522504E-01  0.13151933133E+00  0.20339416112E-01 0.  0.
         14    1    1    2    0    0  0.65615838088E-02  0.96001235056E-02 -0.19628128486E-01  0.22814034743E-01  0.00000000000E+00 0. -1.
     999901    1    3    3    0    0  0.91755676418E-01  0.55869496240E-01  0.73767650990E-01  0.88959663393E+00  0.88000000000E+00 0.  1.
        -11    1    4    4    0    0 -0.39575456574E-01 -0.37874499785E-01 -0.21240877941E-01  0.58754833960E-01  0.51100000000E-03 0.  1.
         11    1    4    4    0    0 -0.58741803654E-01 -0.27595119961E-01 -0.32898644562E-01  0.72764497368E-01  0.51100000000E-03 0. -1.
</event>
<event>
 8    1  0.1204770E+005  0.1043930E+01  0.7957747E-01            NaN
         13   -1    0    0    0    0  0.00000000000E+00  0.00000000000E+00  0.74505805969E-08  0.10566000000E+00  0.10566000000E+00 0. -1.
     999900   -1    0    0    0    0 -0.00000000000E+00 -0.00000000000E+00 -0.74505805969E-08  0.93827000000E+00  0.93827000000E+00 0. -1.
     999902    2    1    2    0    0  0.18125673646E-01  0.15011588705E-01  0.55710431959E-02  0.10197447904E+01  0.10194579507E+01 0.  0.
     999903    2    3    3    0    0 -0.11385065539E-01  0.69497309986E-01  0.10918813072E+00  0.13150153635E+00  0.20275856569E-01 0.  0.
         14    1    1    2    0    0 -0.18125673646E-01 -0.15011588705E-01 -0.55710431959E-02  0.24185209589E-01  0.00000000000E+00 0.  1.
     999901    1    3    3    0    0  0.29510739185E-01 -0.54485721281E-01 -0.10361708753E+00  0.88824325406E+00  0.88000000000E+00 0. -1.
        -11    1    4    4    0    0  0.28017019299E-02  0.42141197582E-01  0.57965765859E-01  0.71721832101E-01  0.51100000000E-03 0.  1.
         11    1    4    4    0    0 -0.14186767469E-01  0.27356112404E-01  0.51222364865E-01  0.59779704252E-01  0.51100000000E-03 0. -1.
</event>
<event>
 8    1  0.1204770E+005  0.1043930E+01  0.7957747E-01            NaN
         13   -1    0    0    0    0  0.00000000000E+00  0.00000000000E+00  0.74505805969E-08  0.10566000000E+00  0.10566000000E+00 0.  1.
     999900   -1    0    0    0    0 -0.00000000000E+00 -0.00000000000E+00 -0.74505805969E-08  0.93827000000E+00  0.93827000000E+00 0. -1.
     999902    2    1    2    0    0 -0.72935463767E-02  0.11982662710E-01 -0.18349961768E-01  0.10208323568E+01  0.10205710164E+01 0.  0.
     999903    2    3    3    0    0 -0.10360820778E+00  0.16570256027E-01 -0.80022964260E-01  0.13341975871E+00  0.19695763566E-01 0.  0.
         14    1    1    2    0    0  0.72935463767E-02 -0.11982662710E-01  0.18349961768E-01  0.23097643197E-01  0.00000000000E+00 0. -1.
     999901    1    3    3    0    0  0.96314661400E-01 -0.45875933162E-02  0.61673002493E-01  0.88741259809E+00  0.88000000000E+00 0. -1.
        -11    1    4    4    0    0 -0.63953020645E-01  0.14865236492E-01 -0.60068798860E-01  0.88991492982E-01  0.51100000000E-03 0. -1.
         11    1    4    4    0    0 -0.39655187131E-01  0.17050195344E-02 -0.19954165400E-01  0.44428265731E-01  0.51100000000E-03 0.  1.
</event>
<event>
 8    1  0.1204770E+005  0.1043930E+01  0.7957747E-01            NaN
         13   -1    0    0    0    0  0.00000000000E+00  0.00000000000E+00  0.74505805969E-08  0.10566000000E+00  0.10566000000E+00 0. -1.
     999900   -1    0    0    0    0 -0.00000000000E+00 -0.00000000000E+00 -0.74505805969E-08  0.93827000000E+00  0.93827000000E+00 0.  1.
     999902    2    1    2    0    0  0.16032904045E-01  0.39536324619E-02 -0.12657306780E-01  0.10231239279E+01  0.10229123517E+01 0.  0.
     999903    2    3    3    0    0 -0.11865851389E+00 -0.25634948378E-01 -0.47297114771E-01  0.13171090438E+00  0.19332660742E-01 0.  0.
         14    1    1    2    0    0 -0.16032904045E-01 -0.39536324619E-02  0.12657306780E-01  0.20806072110E-01  0.00000000000E+00 0. -1.
     999901    1    3    3    0    0  0.13469141793E+00  0.29588580840E-01  0.34639807992E-01  0.89141302351E+00  0.88000000000E+00 0. -1.
        -11    1    4    4    0    0 -0.52686585918E-01 -0.17115091799E-02 -0.18817570055E-01  0.55974705565E-01  0.51100000000E-03 0.  1.
         11    1    4    4    0    0 -0.65971927969E-01 -0.23923439198E-01 -0.28479544716E-01  0.75736198817E-01  0.51100000000E-03 0. -1.
</event>
<event>
 8    1  0.1204770E+005  0.1043930E+01  0.7957747E-01            NaN
         13   -1    0    0    0    0  0.00000000000E+00  0.00000000000E+00  0.74505805969E-08  0.10566000000E+00  0.10566000000E+00 0. -1.
     999900   -1    0    0    0    0 -0.00000000000E+00 -0.00000000000E+00 -0.74505805969E-08  0.93827000000E+00  0.93827000000E+00 0. -1.
     999902    2    1    2    0    0  0.91692742664E-02  0.81745356774E-02 -0.19287982133E-01  0.10210624492E+01  0.10208063481E+01 0.  0.
     999903    2    3    3    0    0 -0.12507839946E+00  0.24102049455E-01  0.16813914298E-01  0.13000719250E+00  0.19840554159E-01 0.  0.
         14    1    1    2    0    0 -0.91692742664E-02 -0.81745356774E-02  0.19287982133E-01  0.22867550784E-01  0.00000000000E+00 0. -1.
     999901    1    3    3    0    0  0.13424767372E+00 -0.15927513778E-01 -0.36101896430E-01  0.89105525672E+00  0.88000000000E+00 0. -1.
        -11    1    4    4    0    0 -0.30571133465E-01  0.75231489325E-02  0.12745745509E-01  0.33969208421E-01  0.51100000000E-03 0.  1.
         11    1    4    4    0    0 -0.94507265991E-01  0.16578900523E-01  0.40681687892E-02  0.96037984079E-01  0.51100000000E-03 0. -1.
</event>
<event>
 8    1  0.1204770E+005  0.1043930E+01  0.7957747E-01            NaN
         13   -1    0    0    0    0  0.00000000000E+00  0.00000000000E+00  0.74505805969E-08  0.10566000000E+00  0.10566000000E+00 0.  1.
     999900   -1    0    0    0    0 -0.00000000000E+00 -0.00000000000E+00 -0.74505805969E-08  0.93827000000E+00  0.93827000000E+00 0. -1.
     999902    2    1    2    0    0 -0.23201034819E-02 -0.22510362737E-01 -0.70804321260E-02  0.10202185717E+01  0.10199429897E+01 0.  0.
     999903    2    3    3    0    0 -0.48957072443E-01  0.93670986609E-01 -0.71343878892E-01  0.12903794842E+00  0.19743211530E-01 0.  0.
         14    1    1    2    0    0  0.23201034819E-02  0.22510362737E-01  0.70804321260E-02  0.23711428254E-01  0.00000000000E+00 0. -1.
     999901    1    3    3    0    0  0.46636968962E-01 -0.11618134935E+00  0.64263446766E-01  0.89118062333E+00  0.88000000000E+00 0.  1.
        -11    1    4    4    0    0 -0.38790398126E-01  0.71794758822E-01 -0.44523133554E-01  0.92961029058E-01  0.51100000000E-03 0. -1.
         11    1    4    4    0    0 -0.10166674318E-01  0.21876227786E-01 -0.26820745338E-01  0.36076919358E-01  0.51100000000E-03 0.  1.
</event>
<event>
 8    1  0.1204770E+005  0.1043930E+01  0.7957747E-01            NaN
         13   -1    0    0    0    0  0.00000000000E+00  0.00000000000E+00  0.74505805969E-08  0.10566000000E+00  0.10566000000E+00 0.  1.
     999900   -1    0    0    0    0 -0.00000000000E+00 -0.00000000000E+00 -0.74505805969E-08  0.93827000000E+00  0.93827000000E+00 0.  1.
     999902    2    1    2    0    0 -0.17897014575E-02 -0.22459386188E-01  0.69856465557E-02  0.10203413096E+01  0.10200686064E+01 0.  0.
     999903    2    3    3    0    0  0.66496876797E-01 -0.80083300244E-01  0.79977823466E-01  0.13281022270E+00  0.20172590443E-01 0.  0.
         14    1    1    2    0    0  0.17897014575E-02  0.22459386188E-01 -0.69856465557E-02  0.23588690448E-01  0.00000000000E+00 0. -1.
     999901    1    3    3    0    0 -0.68286578255E-01  0.57623914056E-01 -0.72992176911E-01  0.88753108685E+00  0.88000000000E+00 0. -1.
        -11    1    4    4    0    0  0.22249293858E-01 -0.42474743063E-01  0.36702845686E-01  0.60386214303E-01  0.51100000000E-03 0. -1.
         11    1    4    4    0    0  0.44247582939E-01 -0.37608557181E-01  0.43274977780E-01  0.72424008396E-01  0.51100000000E-03 0.  1.
</event>
<event>
 8    1  0.1204770E+005  0.1043930E+01  0.7957747E-01            NaN
         13   -1    0    0    0    0  0.00000000000E+00  0.00000000000E+00  0.74505805969E-08  0.10566000000E+00  0.10566000000E+00 0.  1.
     999900   -1    0    0    0    0 -0.00000000000E+00 -0.00000000000E+00 -0.74505805969E-08  0.93827000000E+00  0.93827000000E+00 0.  1.
     999902    2    1    2    0    0  0.37197652787E-02  0.31670878693E-02  0.23125330896E-01  0.10202942637E+01  0.10200204589E+01 0.  0.
     999903    2    3    3    0    0 -0.57455997334E-01 -0.49261018439E-01 -0.10115003163E+00  0.12791791601E+00  0.20095391756E-01 0.  0.
         14    1    1    2    0    0 -0.37197652787E-02 -0.31670878693E-02 -0.23125330896E-01  0.23635736255E-01  0.00000000000E+00 0. -1.
     999901    1    3    3    0    0  0.61175762613E-01  0.52428106308E-01  0.12427536253E+00  0.89237634773E+00  0.88000000000E+00 0. -1.
        -11    1    4    4    0    0 -0.33834520394E-01 -0.41006077200E-01 -0.65528041800E-01  0.84382809391E-01  0.51100000000E-03 0.  1.
         11    1    4    4    0    0 -0.23621476941E-01 -0.82549412391E-02 -0.35621989834E-01  0.43535106620E-01  0.51100000000E-03 0. -1.
</event>
<event>
 8    1  0.1204770E+005  0.1043930E+01  0.7957747E-01            NaN
         13   -1    0    0    0    0  0.00000000000E+00  0.00000000000E+00  0.74505805969E-08  0.10566000000E+00  0.10566000000E+00 0.  1.
     999900   -1    0    0    0    0 -0.00000000000E+00 -0.00000000000E+00 -0.74505805969E-08  0.93827000000E+00  0.93827000000E+00 0.  1.
     999902    2    1    2    0    0  0.12163003608E-01  0.95461248037E-02  0.18855012266E-01  0.10195460167E+01  0.10192543851E+01 0.  0.
     999903    2    3    3    0    0  0.44661766877E-01 -0.97853365525E-01  0.70182845379E-01  0.13093734769E+00  0.25475530786E-01 0.  0.
         14    1    1    2    0    0 -0.12163003608E-01 -0.95461248037E-02 -0.18855012266E-01  0.24383983332E-01  0.00000000000E+00 0. -1.
     999901    1    3    3    0    0 -0.32498763269E-01  0.10739949033E+00 -0.51327833112E-01  0.88860866898E+00  0.88000000000E+00 0. -1.
        -11    1    4    4    0    0  0.11803710336E-01 -0.24811009424E-01  0.32082019000E-01  0.42242523959E-01  0.51100000000E-03 0. -1.
         11    1    4    4    0    0  0.32858056541E-01 -0.73042356100E-01  0.38100826379E-01  0.88694823728E-01  0.51100000000E-03 0.  1.
</event>
<event>
 8    1  0.1204770E+005  0.1043930E+01  0.7957747E-01            NaN
         13   -1    0    0    0    0  0.00000000000E+00  0.00000000000E+00  0.74505805969E-08  0.10566000000E+00  0.10566000000E+00 0. -1.
     999900   -1    0    0    0    0 -0.00000000000E+00 -0.00000000000E+00 -0.74505805969E-08  0.93827000000E+00  0.93827000000E+00 0.  1.
     999902    2    1    2    0    0  0.25921743306E-02  0.13511982169E-01 -0.21267445929E-01  0.10186002293E+01  0.10182852399E+01 0.  0.
     999903    2    3    3    0    0  0.42168152027E-01  0.98998588818E-01  0.68572796425E-01  0.12902421391E+00  0.19134934849E-01 0.  0.
         14    1    1    2    0    0 -0.25921743306E-02 -0.13511982169E-01  0.21267445929E-01  0.25329770749E-01  0.00000000000E+00 0. -1.
     999901    1    3    3    0    0 -0.39575977697E-01 -0.85486606649E-01 -0.89840242354E-01  0.88957601534E+00  0.88000000000E+00 0.  1.
        -11    1    4    4    0    0  0.32532760627E-03  0.24903804852E-03  0.35347834166E-02  0.35949510154E-02  0.51100000000E-03 0.  1.
         11    1    4    4    0    0  0.41842824421E-01  0.98749550769E-01  0.65038013008E-01  0.12542926289E+00  0.51100000000E-03 0. -1.
</event>
<event>
 8    1  0.1204770E+005  0.1043930E+01  0.7957747E-01            NaN
         13   -1    0    0    0    0  0.00000000000E+00  0.00000000000E+00  0.74505805969E-08  0.10566000000E+00  0.10566000000E+00 0. -1.
     999900   -1    0    0    0    0 -0.00000000000E+00 -0.00000000000E+00 -0.74505805969E-08  0.93827000000E+00  0.93827000000E+00 0. -1.
     999902    2    1    2    0    0  0.95545785791E-02 -0.18013745733E-01  0.14757588480E-01  0.10187591553E+01  0.10184481553E+01 0.  0.
     999903    2    3    3    0    0 -0.52368996579E-01 -0.72560333567E-01 -0.90267519479E-01  0.12868043250E+00  0.20072738380E-01 0.  0.
         14    1    1    2    0    0 -0.95545785791E-02  0.18013745733E-01 -0.14757588480E-01  0.25170844740E-01  0.00000000000E+00 0.  1.
     999901    1    3    3    0    0  0.61923575158E-01  0.54546587834E-01  0.10502510796E+00  0.89007872276E+00  0.88000000000E+00 0.  1.
        -11    1    4    4    0    0 -0.10084245309E-01 -0.20797738529E-01 -0.13034455446E-01  0.26540461208E-01  0.51100000000E-03 0.  1.
         11    1    4    4    0    0 -0.42284751271E-01 -0.51762595038E-01 -0.77233064033E-01  0.10213997129E+00  0.51100000000E-03 0. -1.
</event>
<event>
 7    1  0.1204770E+005  0.1043930E+01  0.7957747E-01            NaN
         13   -1    0    0    0    0  0.00000000000E+00  0.00000000000E+00  0.74505805969E-08  0.10566000000E+00  0.10566000000E+00 0. -1.
     999900   -1    0    0    0    0 -0.00000000000E+00 -0.00000000000E+00 -0.74505805969E-08  0.93827000000E+00  0.93827000000E+00 0.  1.
     999902    2    1    2    0    0  0.49871044558E-02  0.18764795004E-01  0.38233229018E-02  0.10241409490E+01  0.10239497433E+01 0.  0.
         14    1    1    2    0    0 -0.49871044558E-02 -0.18764795004E-01 -0.38233229018E-02  0.19789051024E-01  0.00000000000E+00 0.  1.
     999901    1    3    3    0    0 -0.99319275512E-01 -0.50618806220E-01 -0.12641242112E-01  0.88712252989E+00  0.88000000000E+00 0.  1.
        -11    1    3    3    0    0  0.23680146751E-01  0.62818895565E-02  0.24073387955E-01  0.34351137029E-01  0.51100000000E-03 0.  1.
         11    1    3    3    0    0  0.80626233217E-01  0.63101711668E-01 -0.76088229409E-02  0.10266728206E+00  0.51100000000E-03 0. -1.
</event>
<event>
 8    1  0.1204770E+005  0.1043930E+01  0.7957747E-01            NaN
         13   -1    0    0    0    0  0.00000000000E+00  0.00000000000E+00  0.74505805969E-08  0.10566000000E+00  0.10566000000E+00 0.  1.
     999900   -1    0    0    0    0 -0.00000000000E+00 -0.00000000000E+00 -0.74505805969E-08  0.93827000000E+00  0.93827000000E+00 0.  1.
     999902    2    1    2    0    0 -0.11490900602E-01  0.19090864392E-01  0.80247176262E-03  0.10216332321E+01  0.10213898937E+01 0.  0.
     999903    2    3    3    0    0  0.60477326331E-01  0.82960257878E-01  0.81905884148E-01  0.13268076504E+00  0.18860015003E-01 0.  0.
         14    1    1    2    0    0  0.11490900602E-01 -0.19090864392E-01 -0.80247176262E-03  0.22296767946E-01  0.00000000000E+00 0.  1.
     999901    1    3    3    0    0 -0.71968226933E-01 -0.63869393486E-01 -0.81103412386E-01  0.88895246702E+00  0.88000000000E+00 0. -1.
        -11    1    4    4    0    0  0.10957259158E-01  0.28484604809E-01  0.28152459023E-01  0.41524165367E-01  0.51100000000E-03 0.  1.
         11    1    4    4    0    0  0.49520067173E-01  0.54475653070E-01  0.53753425125E-01  0.91156599672E-01  0.51100000000E-03 0. -1.
</event>
<event>
 8    1  0.1204770E+005  0.1043930E+01  0.7957747E-01            NaN
         13   -1    0    0    0    0  0.00000000000E+00  0.00000000000E+00  0.74505805969E-08  0.10566000000E+00  0.10566000000E+00 0. -1.
     999900   -1    0    0    0    0 -0.00000000000E+00 -0.00000000000E+00 -0.74505805969E-08  0.93827000000E+00  0.93827000000E+00 0. -1.
     999902    2    1    2    0    0 -0.16443642433E-01 -0.60992311712E-02  0.13916807288E-01  0.10215409062E+01  0.10212955260E+01 0.  0.
     999903    2    3    3    0    0  0.43540845882E-01  0.48420348290E-01  0.11332387884E+00  0.13224214352E+00  0.20133246621E-01 0.  0.
         14    1    1    2    0    0  0.16443642433E-01  0.60992311712E-02 -0.13916807288E-01  0.22389093828E-01  0.00000000000E+00 0.  1.
     999901    1    3    3    0    0 -0.59984488315E-01 -0.54519579462E-01 -0.99407071548E-01  0.88929876265E+00  0.88000000000E+00 0. -1.
        -11    1    4    4    0    0  0.36452839238E-01  0.48574736917E-01  0.97099212238E-01  0.11452874178E+00  0.51100000000E-03 0.  1.
         11    1    4    4    0    0  0.70880066437E-02 -0.15438862642E-03  0.16224666597E-01  0.17713401741E-01  0.51100000000E-03 0. -1.
</event>
<event>
 8    1  0.1204770E+005  0.1043930E+01  0.7957747E-01            NaN
         13   -1    0    0    0    0  0.00000000000E+00  0.00000000000E+00  0.74505805969E-08  0.10566000000E+00  0.10566000000E+00 0.  1.
     999900   -1    0    0    0    0 -0.00000000000E+00 -0.00000000000E+00 -0.74505805969E-08  0.93827000000E+00  0.93827000000E+00 0. -1.
     999902    2    1    2    0    0 -0.12685874522E-01  0.20517849910E-01 -0.17184929214E-03  0.10198065030E+01  0.10195211427E+01 0.  0.
     999903    2    3    3    0    0 -0.39031795109E-01 -0.73418704774E-01 -0.96817380864E-01  0.12915587414E+00  0.19845587624E-01 0.  0.
         14    1    1    2    0    0  0.12685874522E-01 -0.20517849910E-01  0.17184929214E-03  0.24123497041E-01  0.00000000000E+00 0. -1.
     999901    1    3    3    0    0  0.26345920588E-01  0.93936554684E-01  0.96645531572E-01  0.89065062882E+00  0.88000000000E+00 0.  1.
        -11    1    4    4    0    0 -0.17340050763E-01 -0.50020050711E-01 -0.52638531886E-01  0.74657611760E-01  0.51100000000E-03 0.  1.
         11    1    4    4    0    0 -0.21691744346E-01 -0.23398654063E-01 -0.44178848978E-01  0.54498262383E-01  0.51100000000E-03 0. -1.
</event>
<event>
 8    1  0.1204770E+005  0.1043930E+01  0.7957747E-01            NaN
         13   -1    0    0    0    0  0.00000000000E+00  0.00000000000E+00  0.74505805969E-08  0.10566000000E+00  0.10566000000E+00 0.  1.
     999900   -1    0    0    0    0 -0.00000000000E+00 -0.00000000000E+00 -0.74505805969E-08  0.93827000000E+00  0.93827000000E+00 0.  1.
     999902    2    1    2    0    0  0.20763792608E-01  0.66545415281E-02  0.98058047003E-02  0.10200224319E+01  0.10197422173E+01 0.  0.
     999903    2    3    3    0    0  0.12341077434E+00 -0.27356912897E-01 -0.34116154326E-01  0.13231621903E+00  0.19106279726E-01 0.  0.
         14    1    1    2    0    0 -0.20763792608E-01 -0.66545415281E-02 -0.98058047003E-02  0.23907568095E-01  0.00000000000E+00 0. -1.
     999901    1    3    3    0    0 -0.10264698174E+00  0.34011454425E-01  0.43921959026E-01  0.88770621287E+00  0.88000000000E+00 0. -1.
        -11    1    4    4    0    0  0.65757006003E-01 -0.58938851683E-02 -0.22172015617E-01  0.69646113448E-01  0.51100000000E-03 0. -1.
         11    1    4    4    0    0  0.57653768341E-01 -0.21463027728E-01 -0.11944138709E-01  0.62670105582E-01  0.51100000000E-03 0.  1.
</event>
<event>
 8    1  0.1204770E+005  0.1043930E+01  0.7957747E-01            NaN
         13   -1    0    0    0    0  0.00000000000E+00  0.00000000000E+00  0.74505805969E-08  0.10566000000E+00  0.10566000000E+00 0.  1.
     999900   -1    0    0    0    0 -0.00000000000E+00 -0.00000000000E+00 -0.74505805969E-08  0.93827000000E+00  0.93827000000E+00 0.  1.
     999902    2    1    2    0    0  0.26352114166E-01  0.99715583421E-02 -0.10747664268E-01  0.10137741020E+01  0.10133254915E+01 0.  0.
     999903    2    3    3    0    0  0.12065369773E+00 -0.31744947776E-01 -0.21004533345E-01  0.12769382409E+00  0.17305080321E-01 0.  0.
         14    1    1    2    0    0 -0.26352114166E-01 -0.99715583421E-02  0.10747664268E-01  0.30155897997E-01  0.00000000000E+00 0.  1.
     999901    1    3    3    0    0 -0.94301583561E-01  0.41716506118E-01  0.10256869077E-01  0.88608027791E+00  0.88000000000E+00 0. -1.
        -11    1    4    4    0    0  0.44119831768E-01 -0.78632734040E-02 -0.19397117742E-04  0.44817988812E-01  0.51100000000E-03 0.  1.
         11    1    4    4    0    0  0.76533865959E-01 -0.23881674372E-01 -0.20985136227E-01  0.82875835277E-01  0.51100000000E-03 0. -1.
</event>
<event>
 8    1  0.1204770E+005  0.1043930E+01  0.7957747E-01            NaN
         13   -1    0    0    0    0  0.00000000000E+00  0.00000000000E+00  0.74505805969E-08  0.10566000000E+00  0.10566000000E+00 0. -1.
     999900   -1    0    0    0    0 -0.00000000000E+00 -0.00000000000E+00 -0.74505805969E-08  0.93827000000E+00  0.93827000000E+00 0.  1.
     999902    2    1    2    0    0 -0.14529218768E-01 -0.49996702597E-02  0.19860171694E-01  0.10188198164E+01  0.10185103323E+01 0.  0.
     999903    2    3    3    0    0 -0.43931848842E-01  0.11990640840E+00  0.80851540645E-02  0.12943536962E+00  0.19508743493E-01 0.  0.
         14    1    1    2    0    0  0.14529218768E-01  0.49996702597E-02 -0.19860171694E-01  0.25110183600E-01  0.00000000000E+00 0.  1.
     999901    1    3    3    0    0  0.29402630074E-01 -0.12490607866E+00  0.11775017630E-01  0.88938444678E+00  0.88000000000E+00 0.  1.
        -11    1    4    4    0    0 -0.36315534954E-01  0.78183487174E-01  0.11068180647E-01  0.86915139588E-01  0.51100000000E-03 0. -1.
         11    1    4    4    0    0 -0.76163138884E-02  0.41722921228E-01 -0.29830265826E-02  0.42520230028E-01  0.51100000000E-03 0.  1.
</event>
<event>
 8    1  0.1204770E+005  0.1043930E+01  0.7957747E-01            NaN
         13   -1    0    0    0    0  0.00000000000E+00  0.00000000000E+00  0.74505805969E-08  0.10566000000E+00  0.10566000000E+00 0.  1.
     999900   -1    0    0    0    0 -0.00000000000E+00 -0.00000000000E+00 -0.74505805969E-08  0.93827000000E+00  0.93827000000E+00 0.  1.
     999902    2    1    2    0    0  0.12752164408E-01 -0.88782534238E-02 -0.17878511993E-01  0.10202428247E+01  0.10199678128E+01 0.  0.
     999903    2    3    3    0    0 -0.24936406608E-02  0.65203895937E-01  0.10832512595E+00  0.12802762779E+00  0.19974340474E-01 0.  0.
         14    1    1    2    0    0 -0.12752164408E-01  0.88782534238E-02  0.17878511993E-01  0.23687175265E-01  0.00000000000E+00 0.  1.
     999901    1    3    3    0    0  0.15245805068E-01 -0.74082149361E-01 -0.12620363794E+00  0.89221519694E+00  0.88000000000E+00 0.  1.
        -11    1    4    4    0    0  0.51364297135E-02  0.30697592853E-01  0.36453443535E-01  0.47935788131E-01  0.51100000000E-03 0. -1.
         11    1    4    4    0    0 -0.76300703742E-02  0.34506303083E-01  0.71871682414E-01  0.80091839661E-01  0.51100000000E-03 0.  1.
</event>
<event>
 8    1  0.1204770E+005  0.1043930E+01  0.7957747E-01            NaN
         13   -1    0    0    0    0  0.00000000000E+00  0.00000000000E+00  0.74505805969E-08  0.10566000000E+00  0.10566000000E+00 0. -1.
     999900   -1    0    0    0    0 -0.00000000000E+00 -0.00000000000E+00 -0.74505805969E-08  0.93827000000E+00  0.93827000000E+00 0. -1.
     999902    2    1    2    0    0  0.66033289932E-02  0.12592748898E-01 -0.18809783077E-01  0.10203505764E+01  0.10200780899E+01 0.  0.
     999903    2    3    3    0    0  0.38333261593E-01 -0.11802369783E-01 -0.12523883561E+00  0.13303493150E+00  0.20119447750E-01 0.  0.
         14    1    1    2    0    0 -0.66033289932E-02 -0.12592748898E-01  0.18809783077E-01  0.23579423615E-01  0.00000000000E+00 0. -1.
     999901    1    3    3    0    0 -0.31729932600E-01  0.24395118681E-01  0.10642905253E+00  0.88731564489E+00  0.88000000000E+00 0.  1.
        -11    1    4    4    0    0  0.13519106340E-01 -0.12331169081E-01 -0.35715363790E-01  0.40133182017E-01  0.51100000000E-03 0. -1.
         11    1    4    4    0    0  0.24814155253E-01  0.52879929756E-03 -0.89523471817E-01  0.92901749482E-01  0.51100000000E-03 0.  1.
</event>
<event>
 8    1  0.1204770E+005  0.1043930E+01  0.7957747E-01            NaN
         13   -1    0    0    0    0  0.00000000000E+00  0.00000000000E+00  0.74505805969E-08  0.10566000000E+00  0.10566000000E+00 0. -1.
     999900   -1    0    0    0    0 -0.00000000000E+00 -0.00000000000E+00 -0.74505805969E-08  0.93827000000E+00  0.93827000000E+00 0. -1.
     999902    2    1    2    0    0  0.15371889749E-01  0.15655181630E-01  0.87671641542E-02  0.10203028361E+01  0.10200292322E+01 0.  0.
     999903    2    3    3    0    0  0.10937417370E+00  0.69010090334E-01 -0.23384308128E-01  0.13310675133E+00  0.21106372078E-01 0.  0.
         14    1    1    2    0    0 -0.15371889749E-01 -0.15655181630E-01 -0.87671641542E-02  0.23627163893E-01  0.00000000000E+00 0. -1.
     999901    1    3    3    0    0 -0.94002283954E-01 -0.53354908704E-01  0.32151472282E-01  0.88719608478E+00  0.88000000000E+00 0.  1.
        -11    1    4    4    0    0  0.70556385461E-01  0.39499421041E-01 -0.50843384664E-02  0.81021721843E-01  0.51100000000E-03 0.  1.
         11    1    4    4    0    0  0.38817788242E-01  0.29510669293E-01 -0.18299969662E-01  0.52085029488E-01  0.51100000000E-03 0. -1.
</event>
<event>
 8    1  0.1204770E+005  0.1043930E+01  0.7957747E-01            NaN
         13   -1    0    0    0    0  0.00000000000E+00  0.00000000000E+00  0.74505805969E-08  0.10566000000E+00  0.10566000000E+00 0.  1.
     999900   -1    0    0    0    0 -0.00000000000E+00 -0.00000000000E+00 -0.74505805969E-08  0.93827000000E+00  0.93827000000E+00 0. -1.
     999902    2    1    2    0    0  0.19962842858E-01 -0.53621323363E-02  0.11627217245E-01  0.10202137663E+01  0.10199380713E+01 0.  0.
     999903    2    3    3    0    0  0.60416188307E-01  0.86979675475E-01 -0.73173068386E-01  0.13040784870E+00  0.20888497064E-01 0.  0.
         14    1    1    2    0    0 -0.19962842858E-01  0.53621323363E-02 -0.11627217245E-01  0.23716233660E-01  0.00000000000E+00 0. -1.
     999901    1    3    3    0    0 -0.40453345449E-01 -0.92341807811E-01  0.84800285631E-01  0.88980591764E+00  0.88000000000E+00 0.  1.
        -11    1    4    4    0    0  0.35215874963E-01  0.44594872867E-01 -0.50937119890E-01  0.76313248124E-01  0.51100000000E-03 0. -1.
         11    1    4    4    0    0  0.25200313344E-01  0.42384802608E-01 -0.22235948496E-01  0.54094600574E-01  0.51100000000E-03 0.  1.
</event>
<event>
 8    1  0.1204770E+005  0.1043930E+01  0.7957747E-01            NaN
         13   -1    0    0    0    0  0.00000000000E+00  0.00000000000E+00  0.74505805969E-08  0.10566000000E+00  0.10566000000E+00 0. -1.
     999900   -1    0    0    0    0 -0.00000000000E+00 -0.00000000000E+00 -0.74505805969E-08  0.93827000000E+00  0.93827000000E+00 0.  1.
     999902    2    1    2    0    0 -0.16690173624E-01 -0.11596066606E-01 -0.12554671506E-01  0.10200417093E+01  0.10197619518E+01 0.  0.
     999903    2    3    3    0    0 -0.99297756915E-01  0.53689719838E-02 -0.85904237193E-01  0.13297238611E+00  0.20328480278E-01 0.  0.
         14    1    1    2    0    0  0.16690173624E-01  0.11596066606E-01  0.12554671506E-01  0.23888290708E-01  0.00000000000E+00 0. -1.
     999901    1    3    3    0    0  0.82607583291E-01 -0.16965038590E-01  0.73349565687E-01  0.88706932319E+00  0.88000000000E+00 0. -1.
        -11    1    4    4    0    0 -0.40227737010E-01 -0.61584344655E-02 -0.41917541547E-01  0.58425495721E-01  0.51100000000E-03 0. -1.
         11    1    4    4    0    0 -0.59070019905E-01  0.11527406449E-01 -0.43986695646E-01  0.74546890384E-01  0.51100000000E-03 0.  1.
</event>
<event>
 8    1  0.1204770E+005  0.1043930E+01  0.7957747E-01            NaN
         13   -1    0    0    0    0  0.00000000000E+00  0.00000000000E+00  0.74505805969E-08  0.10566000000E+00  0.10566000000E+00 0. -1.
     999900   -1    0    0    0    0 -0.00000000000E+00 -0.00000000000E+00 -0.74505805969E-08  0.93827000000E+00  0.93827000000E+00 0.  1.
     999902    2    1    2    0    0 -0.33410174993E-02  0.15809928953E-01  0.16607123137E-01  0.10207586213E+01  0.10204955905E+01 0.  0.
     999903    2    3    3    0    0 -0.65029591980E-01  0.96117619319E-01 -0.59085676186E-01  0.13172307353E+00  0.19809250179E-01 0.  0.
         14    1    1    2    0    0  0.33410174993E-02 -0.15809928953E-01 -0.16607123137E-01  0.23171378688E-01  0.00000000000E+00 0. -1.
     999901    1    3    3    0    0  0.61688574481E-01 -0.80307690367E-01  0.75692799323E-01  0.88903554778E+00  0.88000000000E+00 0. -1.
        -11    1    4    4    0    0 -0.36390602914E-01  0.55467080051E-01 -0.22747404360E-01  0.70132577851E-01  0.51100000000E-03 0.  1.
         11    1    4    4    0    0 -0.28638989066E-01  0.40650539268E-01 -0.36338271826E-01  0.61590495678E-01  0.51100000000E-03 0. -1.
</event>
<event>
 8    1  0.1204770E+005  0.1043930E+01  0.7957747E-01            NaN
         13   -1    0    0    0    0  0.00000000000E+00  0.00000000000E+00  0.74505805969E-08  0.10566000000E+00  0.10566000000E+00 0. -1.
     999900   -1    0    0    0    0 -0.00000000000E+00 -0.00000000000E+00 -0.74505805969E-08  0.93827000000E+00  0.93827000000E+00 0. -1.
     999902    2    1    2    0    0  0.13635941164E-01 -0.28809417345E-02 -0.18717543116E-01  0.10205936520E+01  0.10203268189E+01 0.  0.
     999903    2    3    3    0    0  0.30563534292E-01  0.34429836434E-01 -0.12086803836E+00  0.13373776674E+00  0.34017117609E-01 0.  0.
         14    1    1    2    0    0 -0.13635941164E-01  0.28809417345E-02  0.18717543116E-01  0.23336347979E-01  0.00000000000E+00 0. -1.
     999901    1    3    3    0    0 -0.16927593128E-01 -0.37310778168E-01  0.10215049525E+00  0.88685588528E+00  0.88000000000E+00 0.  1.
        -11    1    4    4    0    0  0.28909410709E-01  0.10426842837E-01 -0.86362831529E-01  0.91669367128E-01  0.51100000000E-03 0. -1.
         11    1    4    4    0    0  0.16541235834E-02  0.24002993597E-01 -0.34505206832E-01  0.42068399613E-01  0.51100000000E-03 0.  1.
</event>
<event>
 8    1  0.1204770E+005  0.1043930E+01  0.7957747E-01            NaN
         13   -1    0    0    0    0  0.00000000000E+00  0.00000000000E+00  0.74505805969E-08  0.10566000000E+00  0.10566000000E+00 0.  1.
     999900   -1    0    0    0    0 -0.00000000000E+00 -0.00000000000E+00 -0.74505805969E-08  0.93827000000E+00  0.93827000000E+00 0.  1.
     999902    2    1    2    0    0 -0.13813089571E-01 -0.18577763172E-03  0.19875661305E-01  0.10197250858E+01  0.10194377729E+01 0.  0.
     999903    2    3    3    0    0 -0.53351955490E-01  0.10584232561E+00 -0.49025402838E-01  0.12980787777E+00  0.19939056202E-01 0.  0.
         14    1    1    2    0    0  0.13813089571E-01  0.18577763172E-03 -0.19875661305E-01  0.24204914152E-01  0.00000000000E+00 0. -1.
     999901    1    3    3    0    0  0.39538865920E-01 -0.10602810324E+00  0.68901064143E-01  0.88991720808E+00  0.88000000000E+00 0.  1.
        -11    1    4    4    0    0 -0.55377040625E-02  0.13616806781E-01  0.51026879744E-03  0.14717509587E-01  0.51100000000E-03 0. -1.
         11    1    4    4    0    0 -0.47814251428E-01  0.92225518829E-01 -0.49535671636E-01  0.11509036818E+00  0.51100000000E-03 0.  1.
</event>
<event>
 8    1  0.1204770E+005  0.1043930E+01  0.7957747E-01            NaN
         13   -1    0    0    0    0  0.00000000000E+00  0.00000000000E+00  0.74505805969E-08  0.10566000000E+00  0.10566000000E+00 0.  1.
     999900   -1    0    0    0    0 -0.00000000000E+00 -0.00000000000E+00 -0.74505805969E-08  0.93827000000E+00  0.93827000000E+00 0.  1.
     999902    2    1    2    0    0 -0.43185053218E-02 -0.13903741767E-01  0.19503102342E-01  0.10195920764E+01  0.10193015588E+01 0.  0.
     999903    2    3    3    0    0  0.20501093751E-01  0.31100468248E-01 -0.11989089592E+00  0.12713923275E+00  0.20075447940E-01 0.  0.
         14    1    1    2    0    0  0.43185053218E-02  0.13903741767E-01 -0.19503102342E-01  0.24337923582E-01  0.00000000000E+00 0. -1.
     999901    1    3    3    0    0 -0.24819599072E-01 -0.45004210015E-01  0.13939399826E+00  0.89245284367E+00  0.88000000000E+00 0. -1.
        -11    1    4    4    0    0  0.23310060168E-02  0.19633716365E-01 -0.43549459875E-01  0.47830251764E-01  0.51100000000E-03 0.  1.
         11    1    4    4    0    0  0.18170087734E-01  0.11466751883E-01 -0.76341436044E-01  0.79308980987E-01  0.51100000000E-03 0. -1.
</event>
<event>
 8    1  0.1204770E+005  0.1043930E+01  0.7957747E-01            NaN
         13   -1    0    0    0    0  0.00000000000E+00  0.00000000000E+00  0.74505805969E-08  0.10566000000E+00  0.10566000000E+00 0.  1.
     999900   -1    0    0    0    0 -0.00000000000E+00 -0.00000000000E+00 -0.74505805969E-08  0.93827000000E+00  0.93827000000E+00 0. -1.
     999902    2    1    2    0    0  0.15253980125E-01  0.17873757202E-01 -0.46868187735E-02  0.10199691700E+01  0.10196876906E+01 0.  0.
     999903    2    3    3    0    0 -0.58546710724E-01 -0.74945142892E-01  0.82784388981E-01  0.12771746647E+00  0.20347098160E-01 0.  0.
         14    1    1    2    0    0 -0.15253980125E-01 -0.17873757202E-01  0.46868187735E-02  0.23960830044E-01  0.00000000000E+00 0. -1.
     999901    1    3    3    0    0  0.73800690849E-01  0.92818900093E-01 -0.87471207754E-01  0.89225170348E+00  0.88000000000E+00 0. -1.
        -11    1    4    4    0    0 -0.42589604255E-01 -0.38942916638E-01  0.45591940573E-01  0.73548020457E-01  0.51100000000E-03 0. -1.
         11    1    4    4    0    0 -0.15957106469E-01 -0.36002226254E-01  0.37192448407E-01  0.54169446016E-01  0.51100000000E-03 0.  1.
</event>
<event>
 8    1  0.1204770E+005  0.1043930E+01  0.7957747E-01            NaN
         13   -1    0    0    0    0  0.00000000000E+00  0.00000000000E+00  0.74505805969E-08  0.10566000000E+00  0.10566000000E+00 0.  1.
     999900   -1    0    0    0    0 -0.00000000000E+00 -0.00000000000E+00 -0.74505805969E-08  0.93827000000E+00  0.93827000000E+00 0.  1.
     999902    2    1    2    0    0 -0.59196514640E-02  0.18007304807E-01  0.12176286560E-01  0.10214007467E+01  0.10211522502E+01 0.  0.
     999903    2    3    3    0    0  0.75157002925E-01 -0.16449026410E-01 -0.10245177977E+00  0.12960466225E+00  0.19541129481E-01 0.  0.
         14    1    1    2    0    0  0.59196514640E-02 -0.18007304807E-01 -0.12176286560E-01  0.22529253300E-01  0.00000000000E+00 0. -1.
     999901    1    3    3    0    0 -0.81076654389E-01  0.34456331217E-01  0.11462806633E+00  0.89179608445E+00  0.88000000000E+00 0. -1.
        -11    1    4    4    0    0  0.16300616744E-01 -0.10074417971E-01 -0.16835119100E-01  0.25512474592E-01  0.51100000000E-03 0.  1.
         11    1    4    4    0    0  0.58856386181E-01 -0.63746084394E-02 -0.85616660667E-01  0.10409218766E+00  0.51100000000E-03 0. -1.
</event>
<event>
 8    1  0.1204770E+005  0.1043930E+01  0.7957747E-01            NaN
         13   -1    0    0    0    0  0.00000000000E+00  0.00000000000E+00  0.74505805969E-08  0.10566000000E+00  0.10566000000E+00 0. -1.
     999900   -1    0    0    0    0 -0.00000000000E+00 -0.00000000000E+00 -0.74505805969E-08  0.93827000000E+00  0.93827000000E+00 0.  1.
     999902    2    1    2    0    0  0.42967730841E-03 -0.82866006707E-02 -0.21691084810E-01  0.10207059708E+01  0.10204417295E+01 0.  0.
     999903    2    3    3    0    0 -0.14235837013E-01 -0.21943056061E-01 -0.12994330227E+00  0.13384627574E+00  0.18585127436E-01 0.  0.
         14    1    1    2    0    0 -0.42967730841E-03  0.82866006707E-02  0.21691084810E-01  0.23224029226E-01  0.00000000000E+00 0. -1.
     999901    1    3    3    0    0  0.14665514321E-01  0.13656455390E-01  0.10825221746E+00  0.88685969503E+00  0.88000000000E+00 0. -1.
        -11    1    4    4    0    0 -0.17772950361E-01 -0.14113690170E-01 -0.79647854685E-01  0.82819779592E-01  0.51100000000E-03 0. -1.
         11    1    4    4    0    0  0.35371133488E-02 -0.78293658906E-02 -0.50295447582E-01  0.51026496152E-01  0.51100000000E-03 0.  1.
</event>
<event>
 8    1  0.1204770E+005  0.1043930E+01  0.7957747E-01            NaN
         13   -1    0    0    0    0  0.00000000000E+00  0.00000000000E+00  0.74505805969E-08  0.10566000000E+00  0.10566000000E+00 0.  1.
     999900   -1    0    0    0    0 -0.00000000000E+00 -0.00000000000E+00 -0.74505805969E-08  0.93827000000E+00  0.93827000000E+00 0. -1.
     999902    2    1    2    0    0  0.18499638373E-01  0.11624229579E-01 -0.11004094953E-01  0.10194667737E+01  0.10191732205E+01 0.  0.
     999903    2    3    3    0    0 -0.18318780122E-01 -0.12078417875E+00 -0.34387259968E-01  0.12849294980E+00  0.20088776932E-01 0.  0.
         14    1    1    2    0    0 -0.18499638373E-01 -0.11624229579E-01  0.11004094953E-01  0.24463226259E-01  0.00000000000E+00 0.  1.
     999901    1    3    3    0    0  0.36818418495E-01  0.13240840833E+00  0.23383165016E-01  0.89097382394E+00  0.88000000000E+00 0.  1.
        -11    1    4    4    0    0 -0.11411053563E-01 -0.94285728316E-01 -0.34662657636E-01  0.10110277772E+00  0.51100000000E-03 0.  1.
         11    1    4    4    0    0 -0.69077265589E-02 -0.26498450438E-01  0.27539766779E-03  0.27390172082E-01  0.51100000000E-03 0. -1.
</event>
<event>
 8    1  0.1204770E+005  0.1043930E+01  0.7957747E-01            NaN
         13   -1    0    0    0    0  0.00000000000E+00  0.00000000000E+00  0.74505805969E-08  0.10566000000E+00  0.10566000000E+00 0. -1.
     999900   -1    0    0    0    0 -0.00000000000E+00 -0.00000000000E+00 -0.74505805969E-08  0.93827000000E+00  0.93827000000E+00 0.  1.
     999902    2    1    2    0    0  0.81430792078E-02  0.19107539609E-01 -0.11109848831E-01  0.10203750313E+01  0.10201031163E+01 0.  0.
     999903    2    3    3    0    0  0.75145873913E-01  0.91969046128E-01 -0.57545973876E-01  0.13360872199E+00  0.20845711107E-01 0.  0.
         14    1    1    2    0    0 -0.81430792078E-02 -0.19107539609E-01  0.11109848831E-01  0.23554968689E-01  0.00000000000E+00 0. -1.
     999901    1    3    3    0    0 -0.67002794705E-01 -0.72861506520E-01  0.46436125044E-01  0.88676630932E+00  0.88000000000E+00 0. -1.
        -11    1    4    4    0    0  0.10589698251E-01  0.26558129671E-01 -0.11595907687E-01  0.30857773036E-01  0.51100000000E-03 0.  1.
         11    1    4    4    0    0  0.64556175662E-01  0.65410916457E-01 -0.45950066189E-01  0.10275094896E+00  0.51100000000E-03 0. -1.
</event>
<event>
 8    1  0.1204770E+005  0.1043930E+01  0.7957747E-01            NaN
         13   -1    0    0    0    0  0.00000000000E+00  0.00000000000E+00  0.74505805969E-08  0.10566000000E+00  0.10566000000E+00 0. -1.
     999900   -1    0    0    0    0 -0.00000000000E+00 -0.00000000000E+00 -0.74505805969E-08  0.93827000000E+00  0.93827000000E+00 0. -1.
     999902    2    1    2    0    0 -0.59255698433E-02  0.21433271607E-01  0.85258528681E-02  0.10201142977E+01  0.10198362578E+01 0.  0.
     999903    2    3    3    0    0  0.83089776131E-01 -0.87498425223E-01  0.39020147001E-01  0.12841942365E+00  0.20226002708E-01 0.  0.
         14    1    1    2    0    0  0.59255698433E-02 -0.21433271607E-01 -0.85258528681E-02  0.23815702318E-01  0.00000000000E+00 0.  1.
     999901    1    3    3    0    0 -0.89015345975E-01  0.10893169683E+00 -0.30494294133E-01  0.89169487403E+00  0.88000000000E+00 0. -1.
        -11    1    4    4    0    0  0.22796163613E-01 -0.22392411483E-01  0.19891943319E-01  0.37643534604E-01  0.51100000000E-03 0. -1.
         11    1    4    4    0    0  0.60293612518E-01 -0.65106013741E-01  0.19128203682E-01  0.90775889050E-01  0.51100000000E-03 0.  1.
</event>
<event>
 8    1  0.1204770E+005  0.1043930E+01  0.7957747E-01            NaN
         13   -1    0    0    0    0  0.00000000000E+00  0.00000000000E+00  0.74505805969E-08  0.10566000000E+00  0.10566000000E+00 0.  1.
     999900   -1    0    0    0    0 -0.00000000000E+00 -0.00000000000E+00 -0.74505805969E-08  0.93827000000E+00  0.93827000000E+00 0. -1.
     999902    2    1    2    0    0  0.17876777922E-01  0.14940827300E-01 -0.83005447910E-02  0.10191972979E+01  0.10188971614E+01 0.  0.
     999903    2    3    3    0    0 -0.42799638535E-01 -0.59975639488E-01  0.10157795553E+00  0.12713934612E+00  0.20431492624E-01 0.  0.
         14    1    1    2    0    0 -0.17876777922E-01 -0.14940827300E-01  0.83005447910E-02  0.24732702099E-01  0.00000000000E+00 0.  1.
     999901    1    3    3    0    0  0.60676416457E-01  0.74916466788E-01 -0.10987850032E+00  0.89205795178E+00  0.88000000000E+00 0. -1.
        -11    1    4    4    0    0 -0.12305717007E-01 -0.44225786597E-02  0.17614589992E-01  0.21943672770E-01  0.51100000000E-03 0.  1.
         11    1    4    4    0    0 -0.30493921528E-01 -0.55553060828E-01  0.83963365536E-01  0.10519567335E+00  0.51100000000E-03 0. -1.
</event>
<event>
 8    1  0.1204770E+005  0.1043930E+01  0.7957747E-01            NaN
         13   -1    0    0    0    0  0.00000000000E+00  0.00000000000E+00  0.74505805969E-08  0.10566000000E+00  0.10566000000E+00 0. -1.
     999900   -1    0    0    0    0 -0.00000000000E+00 -0.00000000000E+00 -0.74505805969E-08  0.93827000000E+00  0.93827000000E+00 0. -1.
     999902    2    1    2    0    0  0.20356081758E-01 -0.10505161441E-01 -0.11363878142E-01  0.10183591923E+01  0.10180381026E+01 0.  0.
     999903    2    3    3    0    0 -0.10102613585E+00 -0.72839053039E-01 -0.17073516127E-01  0.12782465798E+00  0.23148012094E-01 0.  0.
         14    1    1    2    0    0 -0.20356081758E-01  0.10505161441E-01  0.11363878142E-01  0.25570807728E-01  0.00000000000E+00 0. -1.
     999901    1    3    3    0    0  0.12138221761E+00  0.62333891598E-01  0.57096379852E-02  0.89053453429E+00  0.88000000000E+00 0.  1.
        -11    1    4    4    0    0 -0.76346890760E-01 -0.66177006378E-01 -0.11860632750E-01  0.10173091778E+00  0.51100000000E-03 0.  1.
         11    1    4    4    0    0 -0.24679245088E-01 -0.66620466612E-02 -0.52128833763E-02  0.26093740205E-01  0.51100000000E-03 0. -1.
</event>
<event>
 8    1  0.1204770E+005  0.1043930E+01  0.7957747E-01            NaN
         13   -1    0    0    0    0  0.00000000000E+00  0.00000000000E+00  0.74505805969E-08  0.10566000000E+00  0.10566000000E+00 0.  1.
     999900   -1    0    0    0    0 -0.00000000000E+00 -0.00000000000E+00 -0.74505805969E-08  0.93827000000E+00  0.93827000000E+00 0. -1.
     999902    2    1    2    0    0 -0.23595128289E-02  0.12992919177E-01  0.20605499344E-01  0.10194561394E+01  0.10191623278E+01 0.  0.
     999903    2    3    3    0    0 -0.40542755705E-01  0.36432331892E-02  0.12462968017E+00  0.13245760115E+00  0.18853931563E-01 0.  0.
         14    1    1    2    0    0  0.23595128289E-02 -0.12992919177E-01 -0.20605499344E-01  0.24473860601E-01  0.00000000000E+00 0. -1.
     999901    1    3    3    0    0  0.38183242876E-01  0.93496859878E-02 -0.10402418082E+00  0.88699853825E+00  0.88000000000E+00 0. -1.
        -11    1    4    4    0    0 -0.23447884848E-01  0.11179668524E-01  0.66404313857E-01  0.71306257173E-01  0.51100000000E-03 0.  1.
         11    1    4    4    0    0 -0.17094870858E-01 -0.75364353350E-02  0.58225366308E-01  0.61151343975E-01  0.51100000000E-03 0. -1.
</event>
<event>
 8    1  0.1204770E+005  0.1043930E+01  0.7957747E-01            NaN
         13   -1    0    0    0    0  0.00000000000E+00  0.00000000000E+00  0.74505805969E-08  0.10566000000E+00  0.10566000000E+00 0.  1.
     999900   -1    0    0    0    0 -0.00000000000E+00 -0.00000000000E+00 -0.74505805969E-08  0.93827000000E+00  0.93827000000E+00 0. -1.
     999902    2    1    2    0    0  0.87789266149E-02  0.19640982946E-01  0.96819034148E-02  0.10203381154E+01  0.10200653375E+01 0.  0.
     999903    2    3    3    0    0 -0.11739435630E+00 -0.28194030145E-01  0.42694208876E-01  0.12944098439E+00  0.18863582388E-01 0.  0.
         14    1    1    2    0    0 -0.87789266149E-02 -0.19640982946E-01 -0.96819034148E-02  0.23591884565E-01  0.00000000000E+00 0. -1.
     999901    1    3    3    0    0  0.12617328291E+00  0.47835013091E-01 -0.33012305461E-01  0.89089713105E+00  0.88000000000E+00 0. -1.
        -11    1    4    4    0    0 -0.63693067131E-01 -0.18150296462E-01  0.13864631823E-01  0.67666307708E-01  0.51100000000E-03 0. -1.
         11    1    4    4    0    0 -0.53701289168E-01 -0.10043733682E-01  0.28829577053E-01  0.61774676678E-01  0.51100000000E-03 0.  1.
</event>
<event>
 8    1  0.1204770E+005  0.1043930E+01  0.7957747E-01            NaN
         13   -1    0    0    0    0  0.00000000000E+00  0.00000000000E+00  0.74505805969E-08  0.10566000000E+00  0.10566000000E+00 0.  1.
     999900   -1    0    0    0    0 -0.00000000000E+00 -0.00000000000E+00 -0.74505805969E-08  0.93827000000E+00  0.93827000000E+00 0.  1.
     999902    2    1    2    0    0  0.24272342279E-02  0.88146930871E-02  0.21191299663E-01  0.10208505403E+01  0.10205896159E+01 0.  0.
     999903    2    3    3    0    0  0.32123588559E-01 -0.43135809716E-01 -0.11478371208E+00  0.12839889899E+00  0.20453696024E-01 0.  0.
         14    1    1    2    0    0 -0.24272342279E-02 -0.88146930871E-02 -0.21191299663E-01  0.23079459734E-01  0.00000000000E+00 0. -1.
     999901    1    3    3    0    0 -0.29696354331E-01  0.51950502803E-01  0.13597501174E+00  0.89245164128E+00  0.88000000000E+00 0. -1.
        -11    1    4    4    0    0  0.22270598055E-01 -0.25285181952E-01 -0.48571861288E-01  0.59116890937E-01  0.51100000000E-03 0. -1.
         11    1    4    4    0    0  0.98529905034E-02 -0.17850627763E-01 -0.66211850791E-01  0.69282008051E-01  0.51100000000E-03 0.  1.
</event>
<event>
 8    1  0.1204770E+005  0.1043930E+01  0.7957747E-01            NaN
         13   -1    0    0    0    0  0.00000000000E+00  0.00000000000E+00  0.74505805969E-08  0.10566000000E+00  0.10566000000E+00 0. -1.
     999900   -1    0    0    0    0 -0.00000000000E+00 -0.00000000000E+00 -0.74505805969E-08  0.93827000000E+00  0.93827000000E+00 0. -1.
     999902    2    1    2    0    0  0.22842637333E-01  0.90502524386E-02 -0.28024528004E-02  0.10192005259E+01  0.10189004687E+01 0.  0.
     999903    2    3    3    0    0  0.12293159919E+00  0.46087180115E-01  0.77215367917E-03  0.13274561324E+00  0.19611103035E-01 0.  0.
         14    1    1    2    0    0 -0.22842637333E-01 -0.90502524386E-02  0.28024528004E-02  0.24729474140E-01  0.00000000000E+00 0.  1.
     999901    1    3    3    0    0 -0.10008896186E+00 -0.37036927676E-01 -0.35746064796E-02  0.88645491262E+00  0.88000000000E+00 0. -1.
        -11    1    4    4    0    0  0.94503411914E-01  0.36797571762E-01 -0.75526670379E-02  0.10169690286E+00  0.51100000000E-03 0. -1.
         11    1    4    4    0    0  0.28428187278E-01  0.92896083524E-02  0.83248207170E-02  0.31048710379E-01  0.51100000000E-03 0.  1.
</event>
<event>
 8    1  0.1204770E+005  0.1043930E+01  0.7957747E-01            NaN
         13   -1    0    0    0    0  0.00000000000E+00  0.00000000000E+00  0.74505805969E-08  0.10566000000E+00  0.10566000000E+00 0. -1.
     999900   -1    0    0    0    0 -0.00000000000E+00 -0.00000000000E+00 -0.74505805969E-08  0.93827000000E+00  0.93827000000E+00 0.  1.
     999902    2    1    2    0    0 -0.12297109825E-01  0.18276661532E-01  0.88372489494E-02  0.10201949576E+01  0.10199188200E+01 0.  0.
     999903    2    3    3    0    0  0.11362857701E+00 -0.55354039374E-01  0.40845425918E-02  0.12817402350E+00  0.20889557758E-01 0.  0.
         14    1    1    2    0    0  0.12297109825E-01 -0.18276661532E-01 -0.88372489494E-02  0.23735042359E-01  0.00000000000E+00 0.  1.
     999901    1    3    3    0    0 -0.12592568684E+00  0.73630700907E-01  0.47527063576E-02  0.89202093414E+00  0.88000000000E+00 0. -1.
        -11    1    4    4    0    0  0.45294870240E-01 -0.33450900014E-01  0.33574084140E-02  0.56410294220E-01  0.51100000000E-03 0. -1.
         11    1    4    4    0    0  0.68333706775E-01 -0.21903139361E-01  0.72713417783E-03  0.71763729283E-01  0.51100000000E-03 0.  1.
</event>
<event>
 8    1  0.1204770E+005  0.1043930E+01  0.7957747E-01            NaN
         13   -1    0    0    0    0  0.00000000000E+00  0.00000000000E+00  0.74505805969E-08  0.10566000000E+00  0.10566000000E+00 0. -1.
     999900   -1    0    0    0    0 -0.00000000000E+00 -0.00000000000E+00 -0.74505805969E-08  0.93827000000E+00  0.93827000000E+00 0. -1.
     999902    2    1    2    0    0  0.22104694151E-01 -0.23620973610E-02 -0.84770271335E-02  0.10201380477E+01  0.10198605685E+01 0.  0.
     999903    2    3    3    0    0  0.12810171223E+00  0.25252636531E-01 -0.17190181974E-01  0.13330443280E+00  0.20659746347E-01 0.  0.
         14    1    1    2    0    0 -0.22104694151E-01  0.23620973610E-02  0.84770271335E-02  0.23791952347E-01  0.00000000000E+00 0. -1.
     999901    1    3    3    0    0 -0.10599701808E+00 -0.27614733892E-01  0.87131548401E-02  0.88683361486E+00  0.88000000000E+00 0. -1.
        -11    1    4    4    0    0  0.67717764416E-01  0.16925040283E-01  0.59519349373E-03  0.69805214578E-01  0.51100000000E-03 0. -1.
         11    1    4    4    0    0  0.60383947815E-01  0.83275962485E-02 -0.17785375467E-01  0.63499218219E-01  0.51100000000E-03 0.  1.
</event>
<event>
 8    1  0.1204770E+005  0.1043930E+01  0.7957747E-01            NaN
         13   -1    0    0    0    0  0.00000000000E+00  0.00000000000E+00  0.74505805969E-08  0.10566000000E+00  0.10566000000E+00 0. -1.
     999900   -1    0    0    0    0 -0.00000000000E+00 -0.00000000000E+00 -0.74505805969E-08  0.93827000000E+00  0.93827000000E+00 0.  1.
     999902    2    1    2    0    0  0.19616850694E-01  0.16049618678E-03 -0.23989497386E-02  0.10241663579E+01  0.10239756477E+01 0.  0.
     999903    2    3    3    0    0 -0.67140926359E-01  0.53769457196E-01  0.98801179803E-01  0.13251491320E+00  0.19986759851E-01 0.  0.
         14    1    1    2    0    0 -0.19616850694E-01 -0.16049618678E-03  0.23989497386E-02  0.19763642125E-01  0.00000000000E+00 0. -1.
     999901    1    3    3    0    0  0.86757777053E-01 -0.53608961009E-01 -0.10120012954E+00  0.89165144468E+00  0.88000000000E+00 0. -1.
        -11    1    4    4    0    0 -0.16976749380E-01  0.68060777510E-02  0.30882598969E-01  0.35896082710E-01  0.51100000000E-03 0.  1.
         11    1    4    4    0    0 -0.50164176979E-01  0.46963379445E-01  0.67918580834E-01  0.96618830486E-01  0.51100000000E-03 0. -1.
</event>
<event>
 8    1  0.1204770E+005  0.1043930E+01  0.7957747E-01            NaN
         13   -1    0    0    0    0  0.00000000000E+00  0.00000000000E+00  0.74505805969E-08  0.10566000000E+00  0.10566000000E+00 0. -1.
     999900   -1    0    0    0    0 -0.00000000000E+00 -0.00000000000E+00 -0.74505805969E-08  0.93827000000E+00  0.93827000000E+00 0.  1.
     999902    2    1    2    0    0  0.64590008059E-02 -0.24396707126E-01  0.23001825253E-01  0.10097832289E+01  0.10092057112E+01 0.  0.
     999903    2    3    3    0    0 -0.11086320228E+00 -0.38234278758E-01 -0.20213569920E-01  0.12083804045E+00  0.20993663808E-01 0.  0.
         14    1    1    2    0    0 -0.64590008059E-02  0.24396707126E-01 -0.23001825253E-01  0.34146771077E-01  0.00000000000E+00 0.  1.
     999901    1    3    3    0    0  0.11732220308E+00  0.13837571632E-01  0.43215395173E-01  0.88894518847E+00  0.88000000000E+00 0. -1.
        -11    1    4    4    0    0 -0.23679367827E-01  0.45622063757E-04 -0.70612619058E-02  0.24715118506E-01  0.51100000000E-03 0. -1.
         11    1    4    4    0    0 -0.87183834451E-01 -0.38279900822E-01 -0.13152308014E-01  0.96122921946E-01  0.51100000000E-03 0.  1.
</event>
<event>
 8    1  0.1204770E+005  0.1043930E+01  0.7957747E-01            NaN
         13   -1    0    0    0    0  0.00000000000E+00  0.00000000000E+00  0.74505805969E-08  0.10566000000E+00  0.10566000000E+00 0.  1.
     999900   -1    0    0    0    0 -0.00000000000E+00 -0.00000000000E+00 -0.74505805969E-08  0.93827000000E+00  0.93827000000E+00 0. -1.
     999902    2    1    2    0    0  0.14020833502E-01 -0.13823552030E-02  0.16618715568E-01  0.10221429308E+01  0.10219107077E+01 0.  0.
     999903    2    3    3    0    0  0.13191577812E-01  0.14215249704E-01 -0.12741377612E+00  0.13029690617E+00  0.19155217645E-01 0.  0.
         14    1    1    2    0    0 -0.14020833502E-01  0.13823552030E-02 -0.16618715568E-01  0.21787069219E-01  0.00000000000E+00 0. -1.
     999901    1    3    3    0    0  0.82925569058E-03 -0.15597604907E-01  0.14403249169E+00  0.89184602461E+00  0.88000000000E+00 0.  1.
        -11    1    4    4    0    0  0.26841993669E-02  0.38227515601E-02 -0.89170878575E-01  0.89294597051E-01  0.51100000000E-03 0. -1.
         11    1    4    4    0    0  0.10507378445E-01  0.10392498144E-01 -0.38242897550E-01  0.41002309123E-01  0.51100000000E-03 0.  1.
</event>
<event>
 8    1  0.1204770E+005  0.1043930E+01  0.7957747E-01            NaN
         13   -1    0    0    0    0  0.00000000000E+00  0.00000000000E+00  0.74505805969E-08  0.10566000000E+00  0.10566000000E+00 0. -1.
     999900   -1    0    0    0    0 -0.00000000000E+00 -0.00000000000E+00 -0.74505805969E-08  0.93827000000E+00  0.93827000000E+00 0. -1.
     999902    2    1    2    0    0 -0.34253131239E-02 -0.18194555755E-01  0.18659807763E-01  0.10176438239E+01  0.10173042756E+01 0.  0.
     999903    2    3    3    0    0  0.11894480829E+00 -0.65859667678E-02 -0.39443984773E-01  0.12720277774E+00  0.20820094892E-01 0.  0.
         14    1    1    2    0    0  0.34253131239E-02  0.18194555755E-01 -0.18659807763E-01  0.26286176117E-01  0.00000000000E+00 0.  1.
     999901    1    3    3    0    0 -0.12237012142E+00 -0.11608588988E-01  0.58103792536E-01  0.89044104615E+00  0.88000000000E+00 0.  1.
        -11    1    4    4    0    0  0.82037138920E-01  0.41230944073E-02 -0.22275213167E-01  0.85108979035E-01  0.51100000000E-03 0.  1.
         11    1    4    4    0    0  0.36907669372E-01 -0.10709061175E-01 -0.17168771606E-01  0.42093798702E-01  0.51100000000E-03 0. -1.
</event>
<event>
 8    1  0.1204770E+005  0.1043930E+01  0.7957747E-01            NaN
         13   -1    0    0    0    0  0.00000000000E+00  0.00000000000E+00  0.74505805969E-08  0.10566000000E+00  0.10566000000E+00 0.  1.
     999900   -1    0    0    0    0 -0.00000000000E+00 -0.00000000000E+00 -0.74505805969E-08  0.93827000000E+00  0.93827000000E+00 0.  1.
     999902    2    1    2    0    0 -0.23191512622E-01  0.19516400743E-02  0.43863393138E-02  0.10202467754E+01  0.10199718562E+01 0.  0.
     999903    2    3    3    0    0 -0.55329580008E-01 -0.43775557571E-01  0.11010317743E+00  0.13215900839E+00  0.19121505053E-01 0.  0.
         14    1    1    2    0    0  0.23191512622E-01 -0.19516400743E-02 -0.43863393138E-02  0.23683224638E-01  0.00000000000E+00 0. -1.
     999901    1    3    3    0    0  0.32138067386E-01  0.45727197646E-01 -0.10571683811E+00  0.88808776697E+00  0.88000000000E+00 0.  1.
        -11    1    4    4    0    0 -0.23405510737E-01 -0.15059635217E-01  0.27879161335E-01  0.39396945357E-01  0.51100000000E-03 0.  1.
         11    1    4    4    0    0 -0.31924069271E-01 -0.28715922354E-01  0.82224016091E-01  0.92762063036E-01  0.51100000000E-03 0. -1.
</event>
<event>
 8    1  0.1204770E+005  0.1043930E+01  0.7957747E-01            NaN
         13   -1    0    0    0    0  0.00000000000E+00  0.00000000000E+00  0.74505805969E-08  0.10566000000E+00  0.10566000000E+00 0.  1.
     999900   -1    0    0    0    0 -0.00000000000E+00 -0.00000000000E+00 -0.74505805969E-08  0.93827000000E+00  0.93827000000E+00 0.  1.
     999902    2    1    2    0    0  0.19907069549E-01  0.11384527796E-01  0.40525237029E-02  0.10206421955E+01  0.10203764841E+01 0.  0.
     999903    2    3    3    0    0 -0.60424756852E-01 -0.32385030941E-01 -0.10732681162E+00  0.12891671477E+00  0.20013330192E-01 0.  0.
         14    1    1    2    0    0 -0.19907069549E-01 -0.11384527796E-01 -0.40525237029E-02  0.23287804524E-01  0.00000000000E+00 0. -1.
     999901    1    3    3    0    0  0.80331826401E-01  0.43769558738E-01  0.11137933532E+00  0.89172548071E+00  0.88000000000E+00 0. -1.
        -11    1    4    4    0    0 -0.32324772745E-01 -0.60931103242E-02 -0.47481555328E-01  0.57764834838E-01  0.51100000000E-03 0.  1.
         11    1    4    4    0    0 -0.28099984107E-01 -0.26291920617E-01 -0.59845256289E-01  0.71151879932E-01  0.51100000000E-03 0. -1.
</event>
<event>
 8    1  0.1204770E+005  0.1043930E+01  0.7957747E-01            NaN
         13   -1    0    0    0    0  0.00000000000E+00  0.00000000000E+00  0.74505805969E-08  0.10566000000E+00  0.10566000000E+00 0. -1.
     999900   -1    0    0    0    0 -0.00000000000E+00 -0.00000000000E+00 -0.74505805969E-08  0.93827000000E+00  0.93827000000E+00 0. -1.
     999902    2    1    2    0    0  0.87819930367E-02  0.62462088483E-02 -0.26030747935E-01  0.10157566373E+01  0.10153658493E+01 0.  0.
     999903    2    3    3    0    0 -0.11795428931E+00 -0.38316463082E-01 -0.52631445010E-02  0.12531898630E+00  0.17198311774E-01 0.  0.
         14    1    1    2    0    0 -0.87819930367E-02 -0.62462088483E-02  0.26030747935E-01  0.28173362680E-01  0.00000000000E+00 0. -1.
     999901    1    3    3    0    0  0.12673628235E+00  0.44562671930E-01 -0.20767603434E-01  0.89043765102E+00  0.88000000000E+00 0. -1.
        -11    1    4    4    0    0 -0.64560407776E-01 -0.18780802411E-01  0.54560657694E-02  0.67459577274E-01  0.51100000000E-03 0. -1.
         11    1    4    4    0    0 -0.53393881537E-01 -0.19535660671E-01 -0.10719210270E-01  0.57859409030E-01  0.51100000000E-03 0.  1.
</event>
<event>
 8    1  0.1204770E+005  0.1043930E+01  0.7957747E-01            NaN
         13   -1    0    0    0    0  0.00000000000E+00  0.00000000000E+00  0.74505805969E-08  0.10566000000E+00  0.10566000000E+00 0. -1.
     999900   -1    0    0    0    0 -0.00000000000E+00 -0.00000000000E+00 -0.74505805969E-08  0.93827000000E+00  0.93827000000E+00 0.  1.
     999902    2    1    2    0    0 -0.29222895628E-02 -0.23405612524E-01  0.23989484591E-02  0.10202209843E+01  0.10199454590E+01 0.  0.
     999903    2    3    3    0    0  0.82654138845E-01 -0.83354585887E-02 -0.98578724940E-01  0.13019462219E+00  0.18212306254E-01 0.  0.
         14    1    1    2    0    0  0.29222895628E-02  0.23405612524E-01 -0.23989484591E-02  0.23709015746E-01  0.00000000000E+00 0.  1.
     999901    1    3    3    0    0 -0.85576428407E-01 -0.15070153936E-01  0.10097767340E+00  0.89002636206E+00  0.88000000000E+00 0. -1.
        -11    1    4    4    0    0  0.63536547582E-01 -0.12898888261E-01 -0.69036385871E-01  0.94707749905E-01  0.51100000000E-03 0.  1.
         11    1    4    4    0    0  0.19117591263E-01  0.45634296727E-02 -0.29542339070E-01  0.35486872288E-01  0.51100000000E-03 0. -1.
</event>
<event>
 8    1  0.1204770E+005  0.1043930E+01  0.7957747E-01            NaN
         13   -1    0    0    0    0  0.00000000000E+00  0.00000000000E+00  0.74505805969E-08  0.10566000000E+00  0.10566000000E+00 0.  1.
     999900   -1    0    0    0    0 -0.00000000000E+00 -0.00000000000E+00 -0.74505805969E-08  0.93827000000E+00  0.93827000000E+00 0.  1.
     999902    2    1    2    0    0  0.22730600815E-01  0.33767713035E-02 -0.37470016184E-02  0.10206464689E+01  0.10203808562E+01 0.  0.
     999903    2    3    3    0    0  0.98188661651E-01  0.80754317779E-01 -0.37789086578E-01  0.13338096910E+00  0.14149018935E-01 0.  0.
         14    1    1    2    0    0 -0.22730600815E-01 -0.33767713035E-02  0.37470016184E-02  0.23283531068E-01  0.00000000000E+00 0.  1.
     999901    1    3    3    0    0 -0.75458060836E-01 -0.77377546476E-01  0.34042084960E-01  0.88726549983E+00  0.88000000000E+00 0. -1.
        -11    1    4    4    0    0  0.55104964209E-01  0.36759691056E-01 -0.17028131059E-01  0.68396274280E-01  0.51100000000E-03 0. -1.
         11    1    4    4    0    0  0.43083697443E-01  0.43994626723E-01 -0.20760955520E-01  0.64984694821E-01  0.51100000000E-03 0.  1.
</event>
<event>
 8    1  0.1204770E+005  0.1043930E+01  0.7957747E-01            NaN
         13   -1    0    0    0    0  0.00000000000E+00  0.00000000000E+00  0.74505805969E-08  0.10566000000E+00  0.10566000000E+00 0.  1.
     999900   -1    0    0    0    0 -0.00000000000E+00 -0.00000000000E+00 -0.74505805969E-08  0.93827000000E+00  0.93827000000E+00 0. -1.
     999902    2    1    2    0    0 -0.66732943265E-03 -0.20444463239E-01 -0.11392431311E-01  0.10205161388E+01  0.10202475095E+01 0.  0.
     999903    2    3    3    0    0  0.12282574905E+00  0.14389263913E-01  0.35379447574E-01  0.12998172753E+00  0.18717068038E-01 0.  0.
         14    1    1    2    0    0  0.66732943265E-03  0.20444463239E-01  0.11392431311E-01  0.23413861212E-01  0.00000000000E+00 0.  1.
     999901    1    3    3    0    0 -0.12349307848E+00 -0.34833727152E-01 -0.46771878885E-01  0.89053441126E+00  0.88000000000E+00 0. -1.
        -11    1    4    4    0    0  0.98887201232E-02 -0.31927252347E-02  0.58267461000E-02  0.11924444273E-01  0.51100000000E-03 0. -1.
         11    1    4    4    0    0  0.11293702892E+00  0.17581989148E-01  0.29552701474E-01  0.11805728326E+00  0.51100000000E-03 0.  1.
</event>
<event>
 8    1  0.1204770E+005  0.1043930E+01  0.7957747E-01            NaN
         13   -1    0    0    0    0  0.00000000000E+00  0.00000000000E+00  0.74505805969E-08  0.10566000000E+00  0.10566000000E+00 0. -1.
     999900   -1    0    0    0    0 -0.00000000000E+00 -0.00000000000E+00 -0.74505805969E-08  0.93827000000E+00  0.93827000000E+00 0.  1.
     999902    2    1    2    0    0 -0.56487663668E-02  0.77751929507E-02 -0.21942037308E-01  0.10199755602E+01  0.10196942327E+01 0.  0.
     999903    2    3    3    0    0  0.86675294853E-01  0.90410796091E-01  0.28077015420E-01  0.12988888976E+00  0.19901911982E-01 0.  0.
         14    1    1    2    0    0  0.56487663668E-02 -0.77751929507E-02  0.21942037308E-01  0.23954439841E-01  0.00000000000E+00 0. -1.
     999901    1    3    3    0    0 -0.92324061219E-01 -0.82635603140E-01 -0.50019052727E-01  0.89008667040E+00  0.88000000000E+00 0.  1.
        -11    1    4    4    0    0  0.36668603502E-02  0.25330632947E-02 -0.25830391832E-02  0.51764357336E-02  0.51100000000E-03 0.  1.
         11    1    4    4    0    0  0.83008434502E-01  0.87877732796E-01  0.30660054603E-01  0.12471245403E+00  0.51100000000E-03 0. -1.
</event>
<event>
 8    1  0.1204770E+005  0.1043930E+01  0.7957747E-01            NaN
         13   -1    0    0    0    0  0.00000000000E+00  0.00000000000E+00  0.74505805969E-08  0.10566000000E+00  0.10566000000E+00 0.  1.
     999900   -1    0    0    0    0 -0.00000000000E+00 -0.00000000000E+00 -0.74505805969E-08  0.93827000000E+00  0.93827000000E+00 0.  1.
     999902    2    1    2    0    0 -0.17045347343E-01 -0.16875229583E-01  0.13447765564E-01  0.10164316430E+01  0.10160596071E+01 0.  0.
     999903    2    3    3    0    0  0.56024243718E-01  0.53990382116E-01  0.97769866151E-01  0.12656012603E+00  0.20120674126E-01 0.  0.
         14    1    1    2    0    0  0.17045347343E-01  0.16875229583E-01 -0.13447765564E-01  0.27498357009E-01  0.00000000000E+00 0. -1.
     999901    1    3    3    0    0 -0.73069591061E-01 -0.70865611699E-01 -0.84322100587E-01  0.88987151697E+00  0.88000000000E+00 0.  1.
        -11    1    4    4    0    0  0.10656702370E-01  0.21342620238E-01  0.36672842746E-01  0.43751928645E-01  0.51100000000E-03 0. -1.
         11    1    4    4    0    0  0.45367541348E-01  0.32647761878E-01  0.61097023404E-01  0.82808197381E-01  0.51100000000E-03 0.  1.
</event>
<event>
 8    1  0.1204770E+005  0.1043930E+01  0.7957747E-01            NaN
         13   -1    0    0    0    0  0.00000000000E+00  0.00000000000E+00  0.74505805969E-08  0.10566000000E+00  0.10566000000E+00 0.  1.
     999900   -1    0    0    0    0 -0.00000000000E+00 -0.00000000000E+00 -0.74505805969E-08  0.93827000000E+00  0.93827000000E+00 0.  1.
     999902    2    1    2    0    0  0.45316418585E-02 -0.19357391342E-01 -0.53960179886E-02  0.10233299663E+01  0.10231226019E+01 0.  0.
     999903    2    3    3    0    0 -0.10659819271E-01  0.92130866531E-01 -0.91687906387E-01  0.13197891194E+00  0.20249264320E-01 0.  0.
         14    1    1    2    0    0 -0.45316418585E-02  0.19357391342E-01  0.53960179886E-02  0.20600033680E-01  0.00000000000E+00 0.  1.
     999901    1    3    3    0    0  0.15191461129E-01 -0.11148825787E+00  0.86291888398E-01  0.89135105438E+00  0.88000000000E+00 0. -1.
        -11    1    4    4    0    0 -0.74914576846E-02  0.47689617938E-01 -0.33820612061E-01  0.58945029633E-01  0.51100000000E-03 0.  1.
         11    1    4    4    0    0 -0.31683615860E-02  0.44441248593E-01 -0.57867294326E-01  0.73033882310E-01  0.51100000000E-03 0. -1.
</event>
<event>
 8    1  0.1204770E+005  0.1043930E+01  0.7957747E-01            NaN
         13   -1    0    0    0    0  0.00000000000E+00  0.00000000000E+00  0.74505805969E-08  0.10566000000E+00  0.10566000000E+00 0. -1.
     999900   -1    0    0    0    0 -0.00000000000E+00 -0.00000000000E+00 -0.74505805969E-08  0.93827000000E+00  0.93827000000E+00 0. -1.
     999902    2    1    2    0    0  0.51795398638E-02 -0.22904240131E-01  0.34338034529E-02  0.10201976833E+01  0.10199216098E+01 0.  0.
     999903    2    3    3    0    0 -0.59894589062E-01  0.91288644920E-01  0.64229848440E-01  0.12836203907E+00  0.20745147724E-01 0.  0.
         14    1    1    2    0    0 -0.51795398638E-02  0.22904240131E-01 -0.34338034529E-02  0.23732316687E-01  0.00000000000E+00 0.  1.
     999901    1    3    3    0    0  0.65074128926E-01 -0.11419288505E+00 -0.60796044987E-01  0.89183564424E+00  0.88000000000E+00 0. -1.
        -11    1    4    4    0    0 -0.14899307670E-01  0.14541203910E-01  0.20526453192E-01  0.29240936747E-01  0.51100000000E-03 0. -1.
         11    1    4    4    0    0 -0.44995281393E-01  0.76747441009E-01  0.43703395248E-01  0.99121102326E-01  0.51100000000E-03 0.  1.
</event>
<event>
 8    1  0.1204770E+005  0.1043930E+01  0.7957747E-01            NaN
         13   -1    0    0    0    0  0.00000000000E+00  0.00000000000E+00  0.74505805969E-08  0.10566000000E+00  0.10566000000E+00 0.  1.
     999900   -1    0    0    0    0 -0.00000000000E+00 -0.00000000000E+00 -0.74505805969E-08  0.93827000000E+00  0.93827000000E+00 0. -1.
     999902    2    1    2    0    0 -0.36337883347E-02 -0.13719424039E-01  0.19036538467E-01  0.10201851730E+01  0.10199088049E+01 0.  0.
     999903    2    3    3    0    0 -0.12413595357E+00  0.29154200429E-01  0.21307545602E-01  0.13093600825E+00  0.20749081547E-01 0.  0.
         14    1    1    2    0    0  0.36337883347E-02  0.13719424039E-01 -0.19036538467E-01  0.23744827024E-01  0.00000000000E+00 0. -1.
     999901    1    3    3    0    0  0.12050216523E+00 -0.42873624468E-01 -0.22710071356E-02  0.88924916473E+00  0.88000000000E+00 0.  1.
        -11    1    4    4    0    0 -0.58268154282E-01  0.13555680353E-01  0.20495203058E-01  0.63239613713E-01  0.51100000000E-03 0.  1.
         11    1    4    4    0    0 -0.65867799285E-01  0.15598520076E-01  0.81234254437E-03  0.67696394532E-01  0.51100000000E-03 0. -1.
</event>
<event>
 8    1  0.1204770E+005  0.1043930E+01  0.7957747E-01            NaN
         13   -1    0    0    0    0  0.00000000000E+00  0.00000000000E+00  0.74505805969E-08  0.10566000000E+00  0.10566000000E+00 0.  1.
     999900   -1    0    0    0    0 -0.00000000000E+00 -0.00000000000E+00 -0.74505805969E-08  0.93827000000E+00  0.93827000000E+00 0. -1.
     999902    2    1    2    0    0  0.12252824470E-01  0.10099597295E-02  0.19670827633E-01  0.10207331643E+01  0.10204695486E+01 0.  0.
     999903    2    3    3    0    0  0.31101750540E-01  0.54829451821E-01  0.11597074205E+00  0.13364495378E+00  0.20932581935E-01 0.  0.
         14    1    1    2    0    0 -0.12252824470E-01 -0.10099597295E-02 -0.19670827633E-01  0.23196835688E-01  0.00000000000E+00 0. -1.
     999901    1    3    3    0    0 -0.18848926071E-01 -0.53819492091E-01 -0.96299914417E-01  0.88708821053E+00  0.88000000000E+00 0. -1.
        -11    1    4    4    0    0  0.14573652166E-01  0.40669607769E-01  0.63165390456E-01  0.76528007984E-01  0.51100000000E-03 0.  1.
         11    1    4    4    0    0  0.16528098374E-01  0.14159844051E-01  0.52805351594E-01  0.57116945799E-01  0.51100000000E-03 0. -1.
</event>
<event>
 7    1  0.1204770E+005  0.1043930E+01  0.7957747E-01            NaN
         13   -1    0    0    0    0  0.00000000000E+00  0.00000000000E+00  0.74505805969E-08  0.10566000000E+00  0.10566000000E+00 0.  1.
     999900   -1    0    0    0    0 -0.00000000000E+00 -0.00000000000E+00 -0.74505805969E-08  0.93827000000E+00  0.93827000000E+00 0.  1.
     999903    2    1    2    0    0 -0.16516100139E-01 -0.47497948742E-01  0.10353101667E+00  0.11675075618E+00  0.19576285617E-01 0.  0.
         14    1    1    2    0    0 -0.19791314655E-02  0.33704422035E-01  0.18435353954E-01  0.38467743649E-01  0.00000000000E+00 0.  1.
     999901    1    1    2    0    0  0.18495231604E-01  0.13793526707E-01 -0.12196637062E+00  0.88871150017E+00  0.88000000000E+00 0.  1.
        -11    1    3    3    0    0 -0.60305826143E-02 -0.41364632815E-01  0.80068426767E-01  0.90325051124E-01  0.51100000000E-03 0.  1.
         11    1    3    3    0    0 -0.10485517524E-01 -0.61333159262E-02  0.23462589899E-01  0.26425705057E-01  0.51100000000E-03 0. -1.
</event>
<event>
 8    1  0.1204770E+005  0.1043930E+01  0.7957747E-01            NaN
         13   -1    0    0    0    0  0.00000000000E+00  0.00000000000E+00  0.74505805969E-08  0.10566000000E+00  0.10566000000E+00 0. -1.
     999900   -1    0    0    0    0 -0.00000000000E+00 -0.00000000000E+00 -0.74505805969E-08  0.93827000000E+00  0.93827000000E+00 0.  1.
     999902    2    1    2    0    0  0.11009041704E-01 -0.21070905736E-01  0.16886141876E-02  0.10200965469E+01  0.10198180875E+01 0.  0.
     999903    2    3    3    0    0 -0.87685248844E-02  0.23543068490E-01  0.12598709795E+00  0.13002257702E+00  0.20048904741E-01 0.  0.
         14    1    1    2    0    0 -0.11009041704E-01  0.21070905736E-01 -0.16886141876E-02  0.23833453079E-01  0.00000000000E+00 0.  1.
     999901    1    3    3    0    0  0.19777566589E-01 -0.44613974226E-01 -0.12429848376E+00  0.89007396990E+00  0.88000000000E+00 0.  1.
        -11    1    4    4    0    0 -0.75134068560E-02  0.22354746401E-01  0.67417449493E-01  0.71425202740E-01  0.51100000000E-03 0.  1.
         11    1    4    4    0    0 -0.12551180283E-02  0.11883220886E-02  0.58569648458E-01  0.58597374276E-01  0.51100000000E-03 0. -1.
</event>
<event>
 8    1  0.1204770E+005  0.1043930E+01  0.7957747E-01            NaN
         13   -1    0    0    0    0  0.00000000000E+00  0.00000000000E+00  0.74505805969E-08  0.10566000000E+00  0.10566000000E+00 0. -1.
     999900   -1    0    0    0    0 -0.00000000000E+00 -0.00000000000E+00 -0.74505805969E-08  0.93827000000E+00  0.93827000000E+00 0.  1.
     999902    2    1    2    0    0 -0.88090022857E-02  0.84579178970E-02 -0.19464459912E-01  0.10209517473E+01  0.10206931323E+01 0.  0.
     999903    2    3    3    0    0  0.96642535498E-01  0.78623142450E-01 -0.38578450945E-01  0.13167758813E+00  0.18146959577E-01 0.  0.
         14    1    1    2    0    0  0.88090022857E-02 -0.84579178970E-02  0.19464459912E-01  0.22978252677E-01  0.00000000000E+00 0. -1.
     999901    1    3    3    0    0 -0.10545153778E+00 -0.70165224553E-01  0.19113991033E-01  0.88927415919E+00  0.88000000000E+00 0. -1.
        -11    1    4    4    0    0  0.45601202832E-01  0.41399931679E-01 -0.10241076976E-01  0.62438488301E-01  0.51100000000E-03 0.  1.
         11    1    4    4    0    0  0.51041332666E-01  0.37223210771E-01 -0.28337373969E-01  0.69239099827E-01  0.51100000000E-03 0. -1.
</event>
<event>
 8    1  0.1204770E+005  0.1043930E+01  0.7957747E-01            NaN
         13   -1    0    0    0    0  0.00000000000E+00  0.00000000000E+00  0.74505805969E-08  0.10566000000E+00  0.10566000000E+00 0. -1.
     999900   -1    0    0    0    0 -0.00000000000E+00 -0.00000000000E+00 -0.74505805969E-08  0.93827000000E+00  0.93827000000E+00 0.  1.
     999902    2    1    2    0    0 -0.15158986742E-01  0.15112686920E-01 -0.10853766018E-01  0.10199301579E+01  0.10196477502E+01 0.  0.
     999903    2    3    3    0    0 -0.15328743431E-02  0.56746269092E-01  0.11614459404E+00  0.12973489303E+00  0.10912698396E-01 0.  0.
         14    1    1    2    0    0  0.15158986742E-01 -0.15112686920E-01  0.10853766018E-01  0.23999842119E-01  0.00000000000E+00 0. -1.
     999901    1    3    3    0    0 -0.13626112398E-01 -0.41633582172E-01 -0.12699836006E+00  0.89019526485E+00  0.88000000000E+00 0.  1.
        -11    1    4    4    0    0  0.12374506346E-02  0.22227106847E-01  0.34674443470E-01  0.41208660665E-01  0.51100000000E-03 0. -1.
         11    1    4    4    0    0 -0.27703249777E-02  0.34519162245E-01  0.81470150567E-01  0.88526232366E-01  0.51100000000E-03 0.  1.
</event>
<event>
 8    1  0.1204770E+005  0.1043930E+01  0.7957747E-01            NaN
         13   -1    0    0    0    0  0.00000000000E+00  0.00000000000E+00  0.74505805969E-08  0.10566000000E+00  0.10566000000E+00 0. -1.
     999900   -1    0    0    0    0 -0.00000000000E+00 -0.00000000000E+00 -0.74505805969E-08  0.93827000000E+00  0.93827000000E+00 0.  1.
     999902    2    1    2    0    0 -0.36555484854E-02 -0.80617460774E-02  0.21623848311E-01  0.10205645212E+01  0.10202970138E+01 0.  0.
     999903    2    3    3    0    0  0.71400632678E-01 -0.95289698244E-01  0.49719690404E-01  0.13262785547E+00  0.30658171754E-01 0.  0.
         14    1    1    2    0    0  0.36555484854E-02  0.80617460774E-02 -0.21623848311E-01  0.23365478816E-01  0.00000000000E+00 0.  1.
     999901    1    3    3    0    0 -0.75056181164E-01  0.87227952166E-01 -0.28095842093E-01  0.88793666571E+00  0.88000000000E+00 0.  1.
        -11    1    4    4    0    0  0.24508300215E-01 -0.42545737789E-01  0.56608784639E-02  0.49427757883E-01  0.51100000000E-03 0.  1.
         11    1    4    4    0    0  0.46892332464E-01 -0.52743960455E-01  0.44058811940E-01  0.83200097590E-01  0.51100000000E-03 0. -1.
</event>
<event>
 8    1  0.1204770E+005  0.1043930E+01  0.7957747E-01            NaN
         13   -1    0    0    0    0  0.00000000000E+00  0.00000000000E+00  0.74505805969E-08  0.10566000000E+00  0.10566000000E+00 0.  1.
     999900   -1    0    0    0    0 -0.00000000000E+00 -0.00000000000E+00 -0.74505805969E-08  0.93827000000E+00  0.93827000000E+00 0.  1.
     999902    2    1    2    0    0 -0.17624687651E-01 -0.14740232346E-01  0.53620018621E-02  0.10203364600E+01  0.10200636434E+01 0.  0.
     999903    2    3    3    0    0  0.70590587942E-01  0.89236921317E-01  0.58758370425E-01  0.12823536962E+00  0.67457167674E-02 0.  0.
         14    1    1    2    0    0  0.17624687651E-01  0.14740232346E-01 -0.53620018621E-02  0.23593539971E-01  0.00000000000E+00 0. -1.
     999901    1    3    3    0    0 -0.88215275592E-01 -0.10397715366E+00 -0.53396368563E-01  0.89210109041E+00  0.88000000000E+00 0. -1.
        -11    1    4    4    0    0  0.55633471997E-01  0.74424719550E-01  0.47512061517E-01  0.10436368716E+00  0.51100000000E-03 0.  1.
         11    1    4    4    0    0  0.14957115945E-01  0.14812201767E-01  0.11246308908E-01  0.23871682463E-01  0.51100000000E-03 0. -1.
</event>
<event>
 8    1  0.1204770E+005  0.1043930E+01  0.7957747E-01            NaN
         13   -1    0    0    0    0  0.00000000000E+00  0.00000000000E+00  0.74505805969E-08  0.10566000000E+00  0.10566000000E+00 0.  1.
     999900   -1    0    0    0    0 -0.00000000000E+00 -0.00000000000E+00 -0.74505805969E-08  0.93827000000E+00  0.93827000000E+00 0. -1.
     999902    2    1    2    0    0 -0.45833958358E-02 -0.17592900349E-01 -0.18490128865E-01  0.10179992745E+01  0.10176689640E+01 0.  0.
     999903    2    3    3    0    0 -0.46053761685E-01 -0.71417579686E-01  0.93795513474E-01  0.12826619495E+00  0.20813427535E-01 0.  0.
         14    1    1    2    0    0  0.45833958358E-02  0.17592900349E-01  0.18490128865E-01  0.25930725511E-01  0.00000000000E+00 0.  1.
     999901    1    3    3    0    0  0.41470365850E-01  0.53824679336E-01 -0.11228564234E+00  0.88973307954E+00  0.88000000000E+00 0. -1.
        -11    1    4    4    0    0 -0.13971120937E-01 -0.39061124456E-01  0.51097335065E-01  0.65819164654E-01  0.51100000000E-03 0.  1.
         11    1    4    4    0    0 -0.32082640748E-01 -0.32356455230E-01  0.42698178408E-01  0.62447030296E-01  0.51100000000E-03 0. -1.
</event>
<event>
 8    1  0.1204770E+005  0.1043930E+01  0.7957747E-01            NaN
         13   -1    0    0    0    0  0.00000000000E+00  0.00000000000E+00  0.74505805969E-08  0.10566000000E+00  0.10566000000E+00 0.  1.
     999900   -1    0    0    0    0 -0.00000000000E+00 -0.00000000000E+00 -0.74505805969E-08  0.93827000000E+00  0.93827000000E+00 0.  1.
     999902    2    1    2    0    0  0.15437890021E-01  0.63482583642E-03  0.20128014249E-01  0.10185554377E+01  0.10182393193E+01 0.  0.
     999903    2    3    3    0    0  0.14224317825E-02 -0.51886256691E-02 -0.12506611124E+00  0.12652871184E+00  0.18412973414E-01 0.  0.
         14    1    1    2    0    0 -0.15437890021E-01 -0.63482583642E-03 -0.20128014249E-01  0.25374562257E-01  0.00000000000E+00 0.  1.
     999901    1    3    3    0    0  0.14015458238E-01  0.58234515055E-02  0.14519412549E+00  0.89202672591E+00  0.88000000000E+00 0. -1.
        -11    1    4    4    0    0 -0.59789321740E-02 -0.38031842315E-02 -0.20606434451E-01  0.21796745216E-01  0.51100000000E-03 0. -1.
         11    1    4    4    0    0  0.74013639566E-02 -0.13854414376E-02 -0.10445967679E+00  0.10473196662E+00  0.51100000000E-03 0.  1.
</event>
<event>
 8    1  0.1204770E+005  0.1043930E+01  0.7957747E-01            NaN
         13   -1    0    0    0    0  0.00000000000E+00  0.00000000000E+00  0.74505805969E-08  0.10566000000E+00  0.10566000000E+00 0.  1.
     999900   -1    0    0    0    0 -0.00000000000E+00 -0.00000000000E+00 -0.74505805969E-08  0.93827000000E+00  0.93827000000E+00 0.  1.
     999902    2    1    2    0    0  0.86907506221E-02  0.19430592637E-01  0.42777464434E-02  0.10222188003E+01  0.10219882091E+01 0.  0.
     999903    2    3    3    0    0  0.62417868353E-01 -0.63935593016E-02 -0.11465165181E+00  0.13222009709E+00  0.20007121722E-01 0.  0.
         14    1    1    2    0    0 -0.86907506221E-02 -0.19430592637E-01 -0.42777464434E-02  0.21711199673E-01  0.00000000000E+00 0. -1.
     999901    1    3    3    0    0 -0.53727117731E-01  0.25824151939E-01  0.11892939826E+00  0.88999870324E+00  0.88000000000E+00 0. -1.
        -11    1    4    4    0    0  0.58409360292E-01 -0.48961526380E-02 -0.91460851732E-01  0.10863228894E+00  0.51100000000E-03 0.  1.
         11    1    4    4    0    0  0.40085080610E-02 -0.14974066636E-02 -0.23190800081E-01  0.23587808143E-01  0.51100000000E-03 0. -1.
</event>
<event>
 8    1  0.1204770E+005  0.1043930E+01  0.7957747E-01            NaN
         13   -1    0    0    0    0  0.00000000000E+00  0.00000000000E+00  0.74505805969E-08  0.10566000000E+00  0.10566000000E+00 0. -1.
     999900   -1    0    0    0    0 -0.00000000000E+00 -0.00000000000E+00 -0.74505805969E-08  0.93827000000E+00  0.93827000000E+00 0.  1.
     999902    2    1    2    0    0 -0.20724125143E-01  0.10445174990E-01 -0.40713325448E-02  0.10203680223E+01  0.10200959436E+01 0.  0.
     999903    2    3    3    0    0  0.68037219638E-01  0.10924488583E+00 -0.67591894161E-02  0.13039769486E+00  0.19858596305E-01 0.  0.
         14    1    1    2    0    0  0.20724125143E-01 -0.10445174990E-01  0.40713325448E-02  0.23561977680E-01  0.00000000000E+00 0. -1.
     999901    1    3    3    0    0 -0.88761344780E-01 -0.98799710838E-01  0.26878568713E-02  0.88997032746E+00  0.88000000000E+00 0.  1.
        -11    1    4    4    0    0  0.23840541645E-01  0.37620171897E-01  0.70876498558E-02  0.45101492891E-01  0.51100000000E-03 0. -1.
         11    1    4    4    0    0  0.44196677993E-01  0.71624713930E-01 -0.13846839272E-01  0.85296201967E-01  0.51100000000E-03 0.  1.
</event>
<event>
 8    1  0.1204770E+005  0.1043930E+01  0.7957747E-01            NaN
         13   -1    0    0    0    0  0.00000000000E+00  0.00000000000E+00  0.74505805969E-08  0.10566000000E+00  0.10566000000E+00 0. -1.
     999900   -1    0    0    0    0 -0.00000000000E+00 -0.00000000000E+00 -0.74505805969E-08  0.93827000000E+00  0.93827000000E+00 0. -1.
     999902    2    1    2    0    0 -0.14903225273E-01  0.40546795398E-02 -0.11184618991E-01  0.10248605938E+01  0.10246831679E+01 0.  0.
     999903    2    3    3    0    0  0.76681337775E-01 -0.83203319507E-01 -0.70268215364E-01  0.13385410567E+00  0.13284561486E-01 0.  0.
         14    1    1    2    0    0  0.14903225273E-01 -0.40546795398E-02  0.11184618991E-01  0.19069406170E-01  0.00000000000E+00 0. -1.
     999901    1    3    3    0    0 -0.91584563047E-01  0.87257999047E-01  0.59083596373E-01  0.89100648816E+00  0.88000000000E+00 0.  1.
        -11    1    4    4    0    0  0.66612240290E-02 -0.63506475133E-02 -0.10334790275E-01  0.13848163792E-01  0.51100000000E-03 0.  1.
         11    1    4    4    0    0  0.70020113746E-01 -0.76852671994E-01 -0.59933425089E-01  0.12000594188E+00  0.51100000000E-03 0. -1.
</event>
<event>
 8    1  0.1204770E+005  0.1043930E+01  0.7957747E-01            NaN
         13   -1    0    0    0    0  0.00000000000E+00  0.00000000000E+00  0.74505805969E-08  0.10566000000E+00  0.10566000000E+00 0. -1.
     999900   -1    0    0    0    0 -0.00000000000E+00 -0.00000000000E+00 -0.74505805969E-08  0.93827000000E+00  0.93827000000E+00 0.  1.
     999902    2    1    2    0    0  0.39080862133E-02  0.22779208198E-01 -0.31177128761E-02  0.10206086450E+01  0.10203421586E+01 0.  0.
     999903    2    3    3    0    0 -0.40598594728E-01  0.87490461812E-01 -0.89263455181E-01  0.13292092972E+00  0.19929433646E-01 0.  0.
         14    1    1    2    0    0 -0.39080862133E-02 -0.22779208198E-01  0.31177128761E-02  0.23321354969E-01  0.00000000000E+00 0.  1.
     999901    1    3    3    0    0  0.44506680942E-01 -0.64711253613E-01  0.86145742305E-01  0.88768771531E+00  0.88000000000E+00 0. -1.
        -11    1    4    4    0    0 -0.26141431926E-01  0.71376615620E-01 -0.61928515044E-01  0.98047936322E-01  0.51100000000E-03 0. -1.
         11    1    4    4    0    0 -0.14457162802E-01  0.16113846192E-01 -0.27334940137E-01  0.34872993400E-01  0.51100000000E-03 0.  1.
</event>
<event>
 8    1  0.1204770E+005  0.1043930E+01  0.7957747E-01            NaN
         13   -1    0    0    0    0  0.00000000000E+00  0.00000000000E+00  0.74505805969E-08  0.10566000000E+00  0.10566000000E+00 0.  1.
     999900   -1    0    0    0    0 -0.00000000000E+00 -0.00000000000E+00 -0.74505805969E-08  0.93827000000E+00  0.93827000000E+00 0.  1.
     999902    2    1    2    0    0 -0.23155525891E-02 -0.12212876811E-01  0.18595169546E-01  0.10215626918E+01  0.10213177943E+01 0.  0.
     999903    2    3    3    0    0 -0.61461060745E-01  0.66754249834E-01 -0.90113269347E-01  0.12940153885E+00  0.19767778956E-01 0.  0.
         14    1    1    2    0    0  0.23155525891E-02  0.12212876811E-01 -0.18595169546E-01  0.22367308158E-01  0.00000000000E+00 0. -1.
     999901    1    3    3    0    0  0.59145508156E-01 -0.78967126645E-01  0.10870843889E+00  0.89216115299E+00  0.88000000000E+00 0. -1.
        -11    1    4    4    0    0 -0.38343458973E-01  0.53919879738E-01 -0.59935123647E-01  0.89275161409E-01  0.51100000000E-03 0. -1.
         11    1    4    4    0    0 -0.23117601772E-01  0.12834370095E-01 -0.30178145700E-01  0.40126377438E-01  0.51100000000E-03 0.  1.
</event>
<event>
 8    1  0.1204770E+005  0.1043930E+01  0.7957747E-01            NaN
         13   -1    0    0    0    0  0.00000000000E+00  0.00000000000E+00  0.74505805969E-08  0.10566000000E+00  0.10566000000E+00 0. -1.
     999900   -1    0    0    0    0 -0.00000000000E+00 -0.00000000000E+00 -0.74505805969E-08  0.93827000000E+00  0.93827000000E+00 0.  1.
     999902    2    1    2    0    0  0.77182753522E-02  0.23265484051E-01 -0.12536420721E-02  0.10193856291E+01  0.10190901014E+01 0.  0.
     999903    2    3    3    0    0 -0.11219103169E+00  0.57894190667E-01  0.24787867928E-01  0.13019748848E+00  0.19959526710E-01 0.  0.
         14    1    1    2    0    0 -0.77182753522E-02 -0.23265484051E-01  0.12536420721E-02  0.24544370861E-01  0.00000000000E+00 0. -1.
     999901    1    3    3    0    0  0.11990930704E+00 -0.34628706616E-01 -0.26041510000E-01  0.88918814065E+00  0.88000000000E+00 0.  1.
        -11    1    4    4    0    0 -0.90490301344E-01  0.53530211291E-01  0.15879777973E-01  0.10633158810E+00  0.51100000000E-03 0. -1.
         11    1    4    4    0    0 -0.21700730347E-01  0.43639793758E-02  0.89080899542E-02  0.23865900386E-01  0.51100000000E-03 0.  1.
</event>
<event>
 8    1  0.1204770E+005  0.1043930E+01  0.7957747E-01            NaN
         13   -1    0    0    0    0  0.00000000000E+00  0.00000000000E+00  0.74505805969E-08  0.10566000000E+00  0.10566000000E+00 0. -1.
     999900   -1    0    0    0    0 -0.00000000000E+00 -0.00000000000E+00 -0.74505805969E-08  0.93827000000E+00  0.93827000000E+00 0.  1.
     999902    2    1    2    0    0  0.18686239340E-01  0.35667205118E-02  0.82564619311E-02  0.10231919625E+01  0.10229817818E+01 0.  0.
     999903    2    3    3    0    0 -0.50361343066E-01 -0.26729639907E-01 -0.11645885485E+00  0.13120578080E+00  0.20038800331E-01 0.  0.
         14    1    1    2    0    0 -0.18686239340E-01 -0.35667205118E-02 -0.82564619311E-02  0.20738037504E-01  0.00000000000E+00 0.  1.
     999901    1    3    3    0    0  0.69047582406E-01  0.30296360419E-01  0.12471531678E+00  0.89198618169E+00  0.88000000000E+00 0. -1.
        -11    1    4    4    0    0 -0.34047267845E-01 -0.23553286876E-01 -0.64447477274E-01  0.76600993587E-01  0.51100000000E-03 0.  1.
         11    1    4    4    0    0 -0.16314075221E-01 -0.31763530312E-02 -0.52011377574E-01  0.54604787217E-01  0.51100000000E-03 0. -1.
</event>
<event>
 8    1  0.1204770E+005  0.1043930E+01  0.7957747E-01            NaN
         13   -1    0    0    0    0  0.00000000000E+00  0.00000000000E+00  0.74505805969E-08  0.10566000000E+00  0.10566000000E+00 0. -1.
     999900   -1    0    0    0    0 -0.00000000000E+00 -0.00000000000E+00 -0.74505805969E-08  0.93827000000E+00  0.93827000000E+00 0.  1.
     999902    2    1    2    0    0  0.14878493065E-02 -0.20398641741E-01 -0.11416195638E-01  0.10205067679E+01  0.10202379210E+01 0.  0.
     999903    2    3    3    0    0  0.45777545788E-01 -0.76317400413E-01  0.94421493055E-01  0.13129919867E+00  0.20103032498E-01 0.  0.
         14    1    1    2    0    0 -0.14878493065E-02  0.20398641741E-01  0.11416195638E-01  0.23423232127E-01  0.00000000000E+00 0. -1.
     999901    1    3    3    0    0 -0.44289696481E-01  0.55918758672E-01 -0.10583768869E+00  0.88920756921E+00  0.88000000000E+00 0.  1.
        -11    1    4    4    0    0  0.23180684601E-01 -0.23922630530E-01  0.26360742400E-01  0.42482775933E-01  0.51100000000E-03 0. -1.
         11    1    4    4    0    0  0.22596861187E-01 -0.52394769883E-01  0.68060750654E-01  0.88816422734E-01  0.51100000000E-03 0.  1.
</event>
<event>
 8    1  0.1204770E+005  0.1043930E+01  0.7957747E-01            NaN
         13   -1    0    0    0    0  0.00000000000E+00  0.00000000000E+00  0.74505805969E-08  0.10566000000E+00  0.10566000000E+00 0. -1.
     999900   -1    0    0    0    0 -0.00000000000E+00 -0.00000000000E+00 -0.74505805969E-08  0.93827000000E+00  0.93827000000E+00 0. -1.
     999902    2    1    2    0    0  0.22920069808E-02  0.21896806844E-01 -0.92878927643E-02  0.10200346365E+01  0.10197547113E+01 0.  0.
     999903    2    3    3    0    0  0.98712141634E-01 -0.12919121680E-02  0.81813966968E-01  0.12979078904E+00  0.20158566038E-01 0.  0.
         14    1    1    2    0    0 -0.22920069808E-02 -0.21896806844E-01  0.92878927643E-02  0.23895363525E-01  0.00000000000E+00 0.  1.
     999901    1    3    3    0    0 -0.96420134653E-01  0.23188719012E-01 -0.91101859732E-01  0.89024384744E+00  0.88000000000E+00 0. -1.
        -11    1    4    4    0    0  0.50386808009E-01  0.26712979061E-02  0.53926396232E-01  0.73853121704E-01  0.51100000000E-03 0. -1.
         11    1    4    4    0    0  0.48325333626E-01 -0.39632100741E-02  0.27887570735E-01  0.55937667333E-01  0.51100000000E-03 0.  1.
</event>
<event>
 7    1  0.1204770E+005  0.1043930E+01  0.7957747E-01            NaN
         13   -1    0    0    0    0  0.00000000000E+00  0.00000000000E+00  0.74505805969E-08  0.10566000000E+00  0.10566000000E+00 0.  1.
     999900   -1    0    0    0    0 -0.00000000000E+00 -0.00000000000E+00 -0.74505805969E-08  0.93827000000E+00  0.93827000000E+00 0. -1.
     999903    2    1    2    0    0  0.28956013605E-01 -0.50752860630E-02  0.46414618421E-01  0.58399218161E-01  0.19797540909E-01 0.  0.
         14    1    1    2    0    0  0.39171390289E-01 -0.69995462348E-01 -0.59079969221E-01  0.99620305810E-01  0.00000000000E+00 0. -1.
     999901    1    1    2    0    0 -0.68127403894E-01  0.75070748411E-01  0.12665350800E-01  0.88591047603E+00  0.88000000000E+00 0.  1.
        -11    1    3    3    0    0  0.11894805616E-01  0.52272085826E-02  0.29556258815E-01  0.32289993285E-01  0.51100000000E-03 0. -1.
         11    1    3    3    0    0  0.17061207990E-01 -0.10302494646E-01  0.16858359607E-01  0.26109224876E-01  0.51100000000E-03 0.  1.
</event>
<event>
 8    1  0.1204770E+005  0.1043930E+01  0.7957747E-01            NaN
         13   -1    0    0    0    0  0.00000000000E+00  0.00000000000E+00  0.74505805969E-08  0.10566000000E+00  0.10566000000E+00 0.  1.
     999900   -1    0    0    0    0 -0.00000000000E+00 -0.00000000000E+00 -0.74505805969E-08  0.93827000000E+00  0.93827000000E+00 0. -1.
     999902    2    1    2    0    0  0.20703931880E-01 -0.59975561496E-02  0.88057003357E-02  0.10206455882E+01  0.10203799551E+01 0.  0.
     999903    2    3    3    0    0  0.71138476695E-01  0.78548878900E-01  0.76995712822E-01  0.13253432219E+00  0.20159303613E-01 0.  0.
         14    1    1    2    0    0 -0.20703931880E-01  0.59975561496E-02 -0.88057003357E-02  0.23284411813E-01  0.00000000000E+00 0. -1.
     999901    1    3    3    0    0 -0.50434544815E-01 -0.84546435049E-01 -0.68190012487E-01  0.88811126600E+00  0.88000000000E+00 0. -1.
        -11    1    4    4    0    0  0.57124790096E-01  0.52036444042E-01  0.48960105649E-01  0.91478884002E-01  0.51100000000E-03 0. -1.
         11    1    4    4    0    0  0.14013686600E-01  0.26512434857E-01  0.28035607173E-01  0.41055438187E-01  0.51100000000E-03 0.  1.
</event>
<event>
 8    1  0.1204770E+005  0.1043930E+01  0.7957747E-01            NaN
         13   -1    0    0    0    0  0.00000000000E+00  0.00000000000E+00  0.74505805969E-08  0.10566000000E+00  0.10566000000E+00 0. -1.
     999900   -1    0    0    0    0 -0.00000000000E+00 -0.00000000000E+00 -0.74505805969E-08  0.93827000000E+00  0.93827000000E+00 0.  1.
     999902    2    1    2    0    0 -0.23042697180E-01 -0.65752920916E-02  0.39300120579E-02  0.10196473858E+01  0.10193582030E+01 0.  0.
     999903    2    3    3    0    0  0.15829136837E-01 -0.37984846221E-01 -0.12100288178E+00  0.12941943319E+00  0.20353922834E-01 0.  0.
         14    1    1    2    0    0  0.23042697180E-01  0.65752920916E-02 -0.39300120579E-02  0.24282614238E-01  0.00000000000E+00 0.  1.
     999901    1    3    3    0    0 -0.38871834018E-01  0.31409554129E-01  0.12493289383E+00  0.89022795257E+00  0.88000000000E+00 0. -1.
        -11    1    4    4    0    0  0.29021846065E-03 -0.20005087575E-01 -0.36380989347E-01  0.41522587377E-01  0.51100000000E-03 0.  1.
         11    1    4    4    0    0  0.15538918376E-01 -0.17979758646E-01 -0.84621892430E-01  0.87896845818E-01  0.51100000000E-03 0. -1.
</event>
<event>
 8    1  0.1204770E+005  0.1043930E+01  0.7957747E-01            NaN
         13   -1    0    0    0    0  0.00000000000E+00  0.00000000000E+00  0.74505805969E-08  0.10566000000E+00  0.10566000000E+00 0. -1.
     999900   -1    0    0    0    0 -0.00000000000E+00 -0.00000000000E+00 -0.74505805969E-08  0.93827000000E+00  0.93827000000E+00 0. -1.
     999902    2    1    2    0    0 -0.12984932509E-01  0.12161443267E-01  0.16799129373E-01  0.10194612460E+01  0.10191675584E+01 0.  0.
     999903    2    3    3    0    0  0.10173173721E+00 -0.74011179162E-01  0.98603897333E-02  0.12781457760E+00  0.20306106584E-01 0.  0.
         14    1    1    2    0    0  0.12984932509E-01 -0.12161443267E-01 -0.16799129373E-01  0.24468754000E-01  0.00000000000E+00 0.  1.
     999901    1    3    3    0    0 -0.11471666972E+00  0.86172622429E-01  0.69387396401E-02  0.89164666840E+00  0.88000000000E+00 0. -1.
        -11    1    4    4    0    0  0.46763237966E-01 -0.45813509479E-01  0.85178351413E-02  0.66018881483E-01  0.51100000000E-03 0.  1.
         11    1    4    4    0    0  0.54968499241E-01 -0.28197669683E-01  0.13425545920E-02  0.61795696114E-01  0.51100000000E-03 0. -1.
</event>
<event>
 8    1  0.1204770E+005  0.1043930E+01  0.7957747E-01            NaN
         13   -1    0    0    0    0  0.00000000000E+00  0.00000000000E+00  0.74505805969E-08  0.10566000000E+00  0.10566000000E+00 0.  1.
     999900   -1    0    0    0    0 -0.00000000000E+00 -0.00000000000E+00 -0.74505805969E-08  0.93827000000E+00  0.93827000000E+00 0.  1.
     999902    2    1    2    0    0 -0.89131780363E-02  0.20587897058E-01  0.82670222346E-02  0.10200207987E+01  0.10197405454E+01 0.  0.
     999903    2    3    3    0    0  0.89300186589E-01 -0.67498569669E-01 -0.57684824825E-01  0.12774576450E+00  0.21467675699E-01 0.  0.
         14    1    1    2    0    0  0.89131780363E-02 -0.20587897058E-01 -0.82670222346E-02  0.23909201254E-01  0.00000000000E+00 0.  1.
     999901    1    3    3    0    0 -0.98213364626E-01  0.88086466727E-01  0.65951847059E-01  0.89227503425E+00  0.88000000000E+00 0.  1.
        -11    1    4    4    0    0  0.59365310731E-01 -0.35404212595E-01 -0.43267069839E-01  0.81547525046E-01  0.51100000000E-03 0.  1.
         11    1    4    4    0    0  0.29934875859E-01 -0.32094357075E-01 -0.14417754985E-01  0.46198239453E-01  0.51100000000E-03 0. -1.
</event>
<event>
 8    1  0.1204770E+005  0.1043930E+01  0.7957747E-01            NaN
         13   -1    0    0    0    0  0.00000000000E+00  0.00000000000E+00  0.74505805969E-08  0.10566000000E+00  0.10566000000E+00 0. -1.
     999900   -1    0    0    0    0 -0.00000000000E+00 -0.00000000000E+00 -0.74505805969E-08  0.93827000000E+00  0.93827000000E+00 0.  1.
     999902    2    1    2    0    0 -0.14737794337E-02 -0.41723685191E-02  0.16459539215E-01  0.10268860241E+01  0.10267445687E+01 0.  0.
     999903    2    3    3    0    0 -0.12898104713E-01  0.13741366908E-01 -0.13130799969E+00  0.13431296672E+00  0.21047469641E-01 0.  0.
         14    1    1    2    0    0  0.14737794337E-02  0.41723685191E-02 -0.16459539215E-01  0.17043975946E-01  0.00000000000E+00 0.  1.
     999901    1    3    3    0    0  0.11424325280E-01 -0.17913735427E-01  0.14776753890E+00  0.89257305733E+00  0.88000000000E+00 0. -1.
        -11    1    4    4    0    0 -0.70411972310E-02  0.16520863946E-01 -0.11940778294E+00  0.12075179978E+00  0.51100000000E-03 0.  1.
         11    1    4    4    0    0 -0.58569074825E-02 -0.27794970388E-02 -0.11900216748E-01  0.13561166937E-01  0.51100000000E-03 0. -1.
</event>
<event>
 8    1  0.1204770E+005  0.1043930E+01  0.7957747E-01            NaN
         13   -1    0    0    0    0  0.00000000000E+00  0.00000000000E+00  0.74505805969E-08  0.10566000000E+00  0.10566000000E+00 0.  1.
     999900   -1    0    0    0    0 -0.00000000000E+00 -0.00000000000E+00 -0.74505805969E-08  0.93827000000E+00  0.93827000000E+00 0. -1.
     999902    2    1    2    0    0  0.73117002163E-02 -0.25572253458E-01  0.22436270864E-01  0.10091336301E+01  0.10085335374E+01 0.  0.
     999903    2    3    3    0    0 -0.72151841957E-01 -0.96121936120E-01  0.15191398198E-01  0.12271149567E+00  0.19545272784E-01 0.  0.
         14    1    1    2    0    0 -0.73117002163E-02  0.25572253458E-01 -0.22436270864E-01  0.34796369886E-01  0.00000000000E+00 0. -1.
     999901    1    3    3    0    0  0.79463542173E-01  0.70549682662E-01  0.72448726659E-02  0.88642213445E+00  0.88000000000E+00 0.  1.
        -11    1    4    4    0    0 -0.37325749549E-01 -0.60795808909E-01  0.15924202739E-01  0.73097081434E-01  0.51100000000E-03 0. -1.
         11    1    4    4    0    0 -0.34826092408E-01 -0.35326127211E-01 -0.73280454037E-03  0.49614414232E-01  0.51100000000E-03 0.  1.
</event>
<event>
 8    1  0.1204770E+005  0.1043930E+01  0.7957747E-01            NaN
         13   -1    0    0    0    0  0.00000000000E+00  0.00000000000E+00  0.74505805969E-08  0.10566000000E+00  0.10566000000E+00 0. -1.
     999900   -1    0    0    0    0 -0.00000000000E+00 -0.00000000000E+00 -0.74505805969E-08  0.93827000000E+00  0.93827000000E+00 0.  1.
     999902    2    1    2    0    0 -0.36288623622E-02 -0.46510500343E-02  0.22900650353E-01  0.10202817296E+01  0.10200076308E+01 0.  0.
     999903    2    3    3    0    0 -0.36619295469E-01 -0.47315055827E-01  0.11780110918E+00  0.13353786397E+00  0.19379692513E-01 0.  0.
         14    1    1    2    0    0  0.36288623622E-02  0.46510500343E-02 -0.22900650353E-01  0.23648270446E-01  0.00000000000E+00 0.  1.
     999901    1    3    3    0    0  0.32990433107E-01  0.42664005793E-01 -0.94900458823E-01  0.88674386558E+00  0.88000000000E+00 0.  1.
        -11    1    4    4    0    0 -0.24291689943E-01 -0.31360985391E-01  0.56750729793E-01  0.69242357398E-01  0.51100000000E-03 0.  1.
         11    1    4    4    0    0 -0.12327605526E-01 -0.15954070436E-01  0.61050379384E-01  0.64295506572E-01  0.51100000000E-03 0. -1.
</event>
<event>
 8    1  0.1204770E+005  0.1043930E+01  0.7957747E-01            NaN
         13   -1    0    0    0    0  0.00000000000E+00  0.00000000000E+00  0.74505805969E-08  0.10566000000E+00  0.10566000000E+00 0.  1.
     999900   -1    0    0    0    0 -0.00000000000E+00 -0.00000000000E+00 -0.74505805969E-08  0.93827000000E+00  0.93827000000E+00 0.  1.
     999902    2    1    2    0    0  0.15005086208E-01 -0.17368080190E-02  0.17217687077E-01  0.10210254620E+01  0.10207685223E+01 0.  0.
     999903    2    3    3    0    0 -0.26492255072E-01  0.49258756721E-01 -0.11435062857E+00  0.12881876022E+00  0.19746950083E-01 0.  0.
         14    1    1    2    0    0 -0.15005086208E-01  0.17368080190E-02 -0.17217687077E-01  0.22904538032E-01  0.00000000000E+00 0. -1.
     999901    1    3    3    0    0  0.41497341280E-01 -0.50995564740E-01  0.13156831565E+00  0.89220670175E+00  0.88000000000E+00 0. -1.
        -11    1    4    4    0    0 -0.16270135222E-01  0.36681242193E-01 -0.60663422557E-01  0.72736117482E-01  0.51100000000E-03 0. -1.
         11    1    4    4    0    0 -0.10222119850E-01  0.12577514528E-01 -0.53687206017E-01  0.56082642741E-01  0.51100000000E-03 0.  1.
</event>
<event>
 8    1  0.1204770E+005  0.1043930E+01  0.7957747E-01            NaN
         13   -1    0    0    0    0  0.00000000000E+00  0.00000000000E+00  0.74505805969E-08  0.10566000000E+00  0.10566000000E+00 0. -1.
     999900   -1    0    0    0    0 -0.00000000000E+00 -0.00000000000E+00 -0.74505805969E-08  0.93827000000E+00  0.93827000000E+00 0. -1.
     999902    2    1    2    0    0 -0.17602623707E-02 -0.31218978927E-02  0.23365940629E-01  0.10202907963E+01  0.10200169102E+01 0.  0.
     999903    2    3    3    0    0 -0.82260060810E-01 -0.85146244785E-01 -0.48948322750E-01  0.12987653107E+00  0.21339503703E-01 0.  0.
         14    1    1    2    0    0  0.17602623707E-02  0.31218978927E-02 -0.23365940629E-01  0.23639203699E-01  0.00000000000E+00 0.  1.
     999901    1    3    3    0    0  0.80499798439E-01  0.82024346893E-01  0.72314263378E-01  0.89041426523E+00  0.88000000000E+00 0.  1.
        -11    1    4    4    0    0 -0.36409449333E-01 -0.24405832549E-01 -0.22759601714E-01  0.49391833883E-01  0.51100000000E-03 0.  1.
         11    1    4    4    0    0 -0.45850611477E-01 -0.60740412236E-01 -0.26188721036E-01  0.80484697191E-01  0.51100000000E-03 0. -1.
</event>
<event>
 8    1  0.1204770E+005  0.1043930E+01  0.7957747E-01            NaN
         13   -1    0    0    0    0  0.00000000000E+00  0.00000000000E+00  0.74505805969E-08  0.10566000000E+00  0.10566000000E+00 0.  1.
     999900   -1    0    0    0    0 -0.00000000000E+00 -0.00000000000E+00 -0.74505805969E-08  0.93827000000E+00  0.93827000000E+00 0. -1.
     999902    2    1    2    0    0 -0.11589565301E-01 -0.19652091025E-02  0.20058594182E-01  0.10206807576E+01  0.10204159356E+01 0.  0.
     999903    2    3    3    0    0 -0.53856940982E-01 -0.99276932749E-01 -0.62244310972E-01  0.13049545623E+00  0.19955710499E-01 0.  0.
         14    1    1    2    0    0  0.11589565301E-01  0.19652091025E-02 -0.20058594182E-01  0.23249242380E-01  0.00000000000E+00 0. -1.
     999901    1    3    3    0    0  0.42267375681E-01  0.97311723646E-01  0.82302905154E-01  0.89018530139E+00  0.88000000000E+00 0.  1.
        -11    1    4    4    0    0 -0.43166965092E-01 -0.65736856225E-01 -0.35513707340E-01  0.86291399755E-01  0.51100000000E-03 0.  1.
         11    1    4    4    0    0 -0.10689975890E-01 -0.33540076523E-01 -0.26730603632E-01  0.44204056479E-01  0.51100000000E-03 0. -1.
</event>
<event>
 8    1  0.1204770E+005  0.1043930E+01  0.7957747E-01            NaN
         13   -1    0    0    0    0  0.00000000000E+00  0.00000000000E+00  0.74505805969E-08  0.10566000000E+00  0.10566000000E+00 0. -1.
     999900   -1    0    0    0    0 -0.00000000000E+00 -0.00000000000E+00 -0.74505805969E-08  0.93827000000E+00  0.93827000000E+00 0.  1.
     999902    2    1    2    0    0  0.14225697532E-01 -0.16423832515E-01  0.98651067637E-02  0.10200672031E+01  0.10197880494E+01 0.  0.
     999903    2    3    3    0    0 -0.47191636600E-02  0.10357731639E+00 -0.72406267444E-01  0.12791936640E+00  0.19239692284E-01 0.  0.
         14    1    1    2    0    0 -0.14225697532E-01  0.16423832515E-01 -0.98651067637E-02  0.23862796907E-01  0.00000000000E+00 0.  1.
     999901    1    3    3    0    0  0.18944861192E-01 -0.12000114890E+00  0.82271374208E-01  0.89214783669E+00  0.88000000000E+00 0. -1.
        -11    1    4    4    0    0  0.46885066803E-02  0.32117479935E-01 -0.30510170371E-01  0.44549368451E-01  0.51100000000E-03 0. -1.
         11    1    4    4    0    0 -0.94076703403E-02  0.71459836453E-01 -0.41896097073E-01  0.83369997949E-01  0.51100000000E-03 0.  1.
</event>
<event>
 8    1  0.1204770E+005  0.1043930E+01  0.7957747E-01            NaN
         13   -1    0    0    0    0  0.00000000000E+00  0.00000000000E+00  0.74505805969E-08  0.10566000000E+00  0.10566000000E+00 0.  1.
     999900   -1    0    0    0    0 -0.00000000000E+00 -0.00000000000E+00 -0.74505805969E-08  0.93827000000E+00  0.93827000000E+00 0.  1.
     999902    2    1    2    0    0 -0.47119423223E-02 -0.19120451860E-01  0.98300943946E-02  0.10219203468E+01  0.10216833023E+01 0.  0.
     999903    2    3    3    0    0 -0.85702279710E-01  0.21722989884E-01  0.97182800866E-01  0.13295571484E+00  0.20395006438E-01 0.  0.
         14    1    1    2    0    0  0.47119423223E-02  0.19120451860E-01 -0.98300943946E-02  0.22009653236E-01  0.00000000000E+00 0. -1.
     999901    1    3    3    0    0  0.80990337387E-01 -0.40843441744E-01 -0.87352706471E-01  0.88896463192E+00  0.88000000000E+00 0.  1.
        -11    1    4    4    0    0 -0.51091016015E-01  0.13954607332E-01  0.43147085351E-01  0.68315116033E-01  0.51100000000E-03 0. -1.
         11    1    4    4    0    0 -0.34611263694E-01  0.77683825524E-02  0.54035715515E-01  0.64640598808E-01  0.51100000000E-03 0.  1.
</event>
<event>
 8    1  0.1204770E+005  0.1043930E+01  0.7957747E-01            NaN
         13   -1    0    0    0    0  0.00000000000E+00  0.00000000000E+00  0.74505805969E-08  0.10566000000E+00  0.10566000000E+00 0. -1.
     999900   -1    0    0    0    0 -0.00000000000E+00 -0.00000000000E+00 -0.74505805969E-08  0.93827000000E+00  0.93827000000E+00 0.  1.
     999902    2    1    2    0    0  0.22482173007E-01 -0.69800270576E-02 -0.28918352609E-02  0.10202122515E+01  0.10199365209E+01 0.  0.
     999903    2    3    3    0    0  0.10488129553E+00  0.76963693293E-01 -0.14438013428E-01  0.13231052398E+00  0.19342240960E-01 0.  0.
         14    1    1    2    0    0 -0.22482173007E-01  0.69800270576E-02  0.28918352609E-02  0.23717748460E-01  0.00000000000E+00 0. -1.
     999901    1    3    3    0    0 -0.82399122527E-01 -0.83943720351E-01  0.11546178167E-01  0.88790172756E+00  0.88000000000E+00 0. -1.
        -11    1    4    4    0    0  0.52180993740E-01  0.35740734208E-01 -0.16509161660E-01  0.65368721336E-01  0.51100000000E-03 0.  1.
         11    1    4    4    0    0  0.52700301793E-01  0.41222959085E-01  0.20711482317E-02  0.66941802641E-01  0.51100000000E-03 0. -1.
</event>
<event>
 8    1  0.1204770E+005  0.1043930E+01  0.7957747E-01            NaN
         13   -1    0    0    0    0  0.00000000000E+00  0.00000000000E+00  0.74505805969E-08  0.10566000000E+00  0.10566000000E+00 0.  1.
     999900   -1    0    0    0    0 -0.00000000000E+00 -0.00000000000E+00 -0.74505805969E-08  0.93827000000E+00  0.93827000000E+00 0.  1.
     999902    2    1    2    0    0  0.22235710365E-01 -0.51812131446E-02 -0.35884205269E-02  0.10208183461E+01  0.10205566849E+01 0.  0.
     999903    2    3    3    0    0  0.14079580714E-01  0.79251427327E-01 -0.10176003794E+00  0.13130552453E+00  0.20174541526E-01 0.  0.
         14    1    1    2    0    0 -0.22235710365E-01  0.51812131446E-02  0.35884205269E-02  0.23111653921E-01  0.00000000000E+00 0. -1.
     999901    1    3    3    0    0  0.81561296506E-02 -0.84432640472E-01  0.98171617410E-01  0.88951282154E+00  0.88000000000E+00 0. -1.
        -11    1    4    4    0    0  0.82312810527E-03  0.13949077385E-01 -0.31538916986E-01  0.34499546452E-01  0.51100000000E-03 0.  1.
         11    1    4    4    0    0  0.13256452609E-01  0.65302349942E-01 -0.70221120951E-01  0.96805978082E-01  0.51100000000E-03 0. -1.
</event>
<event>
 8    1  0.1204770E+005  0.1043930E+01  0.7957747E-01            NaN
         13   -1    0    0    0    0  0.00000000000E+00  0.00000000000E+00  0.74505805969E-08  0.10566000000E+00  0.10566000000E+00 0.  1.
     999900   -1    0    0    0    0 -0.00000000000E+00 -0.00000000000E+00 -0.74505805969E-08  0.93827000000E+00  0.93827000000E+00 0. -1.
     999902    2    1    2    0    0 -0.23783551144E-02 -0.15914320410E-01  0.16933363774E-01  0.10205706127E+01  0.10203032463E+01 0.  0.
     999903    2    3    3    0    0  0.82231546567E-01  0.70708778004E-01 -0.65459798916E-01  0.12846578145E+00  0.21370849136E-01 0.  0.
         14    1    1    2    0    0  0.23783551144E-02  0.15914320410E-01 -0.16933363774E-01  0.23359387318E-01  0.00000000000E+00 0. -1.
     999901    1    3    3    0    0 -0.84609901682E-01 -0.86623098414E-01  0.82393162690E-01  0.89210483123E+00  0.88000000000E+00 0.  1.
        -11    1    4    4    0    0  0.20299321369E-01  0.23897334654E-01 -0.95063192586E-02  0.32768525729E-01  0.51100000000E-03 0.  1.
         11    1    4    4    0    0  0.61932225198E-01  0.46811443350E-01 -0.55953479657E-01  0.95697255725E-01  0.51100000000E-03 0. -1.
</event>
<event>
 8    1  0.1204770E+005  0.1043930E+01  0.7957747E-01            NaN
         13   -1    0    0    0    0  0.00000000000E+00  0.00000000000E+00  0.74505805969E-08  0.10566000000E+00  0.10566000000E+00 0.  1.
     999900   -1    0    0    0    0 -0.00000000000E+00 -0.00000000000E+00 -0.74505805969E-08  0.93827000000E+00  0.93827000000E+00 0.  1.
     999902    2    1    2    0    0  0.96741575235E-02 -0.23288613272E-01 -0.21571346235E-02  0.10186198822E+01  0.10183053876E+01 0.  0.
     999903    2    3    3    0    0 -0.10550512790E+00  0.66682728968E-01 -0.81831451677E-02  0.12654509667E+00  0.19203626502E-01 0.  0.
         14    1    1    2    0    0 -0.96741575235E-02  0.23288613272E-01  0.21571346235E-02  0.25310117773E-01  0.00000000000E+00 0.  1.
     999901    1    3    3    0    0  0.11517928543E+00 -0.89971342240E-01  0.60260105441E-02  0.89207478555E+00  0.88000000000E+00 0.  1.
        -11    1    4    4    0    0 -0.25171021494E-01  0.75412624153E-02  0.14649708102E-02  0.26322200181E-01  0.51100000000E-03 0. -1.
         11    1    4    4    0    0 -0.80334106410E-01  0.59141466552E-01 -0.96481159779E-02  0.10022289649E+00  0.51100000000E-03 0.  1.
</event>
<event>
 8    1  0.1204770E+005  0.1043930E+01  0.7957747E-01            NaN
         13   -1    0    0    0    0  0.00000000000E+00  0.00000000000E+00  0.74505805969E-08  0.10566000000E+00  0.10566000000E+00 0.  1.
     999900   -1    0    0    0    0 -0.00000000000E+00 -0.00000000000E+00 -0.74505805969E-08  0.93827000000E+00  0.93827000000E+00 0.  1.
     999902    2    1    2    0    0  0.14183293663E-01  0.17173534616E-01  0.10048334321E-01  0.10194950837E+01  0.10192022177E+01 0.  0.
     999903    2    3    3    0    0  0.64675210723E-01 -0.92384281458E-01  0.61030499806E-01  0.12980326633E+00  0.20160052119E-01 0.  0.
         14    1    1    2    0    0 -0.14183293663E-01 -0.17173534616E-01 -0.10048334321E-01  0.24434916267E-01  0.00000000000E+00 0. -1.
     999901    1    3    3    0    0 -0.50491917059E-01  0.10955781607E+00 -0.50982165485E-01  0.88969181740E+00  0.88000000000E+00 0. -1.
        -11    1    4    4    0    0  0.32891234904E-01 -0.41299072806E-01  0.17812782989E-01  0.55722554742E-01  0.51100000000E-03 0. -1.
         11    1    4    4    0    0  0.31783975818E-01 -0.51085208652E-01  0.43217716817E-01  0.74080711590E-01  0.51100000000E-03 0.  1.
</event>
<event>
 8    1  0.1204770E+005  0.1043930E+01  0.7957747E-01            NaN
         13   -1    0    0    0    0  0.00000000000E+00  0.00000000000E+00  0.74505805969E-08  0.10566000000E+00  0.10566000000E+00 0.  1.
     999900   -1    0    0    0    0 -0.00000000000E+00 -0.00000000000E+00 -0.74505805969E-08  0.93827000000E+00  0.93827000000E+00 0.  1.
     999902    2    1    2    0    0 -0.17439676950E-01  0.12786105519E-01 -0.11652997046E-01  0.10193654083E+01  0.10190693874E+01 0.  0.
     999903    2    3    3    0    0 -0.88367240795E-01  0.37514627531E-01 -0.89170470229E-01  0.13277013547E+00  0.21457390031E-01 0.  0.
         14    1    1    2    0    0  0.17439676950E-01 -0.12786105519E-01  0.11652997046E-01  0.24564591725E-01  0.00000000000E+00 0.  1.
     999901    1    3    3    0    0  0.70927563845E-01 -0.24728522012E-01  0.77517473183E-01  0.88659527281E+00  0.88000000000E+00 0.  1.
        -11    1    4    4    0    0 -0.21836708059E-01  0.91604655314E-02 -0.10503309564E-01  0.25910163651E-01  0.51100000000E-03 0.  1.
         11    1    4    4    0    0 -0.66530532736E-01  0.28354161999E-01 -0.78667160664E-01  0.10685997182E+00  0.51100000000E-03 0. -1.
</event>
<event>
 8    1  0.1204770E+005  0.1043930E+01  0.7957747E-01            NaN
         13   -1    0    0    0    0  0.00000000000E+00  0.00000000000E+00  0.74505805969E-08  0.10566000000E+00  0.10566000000E+00 0.  1.
     999900   -1    0    0    0    0 -0.00000000000E+00 -0.00000000000E+00 -0.74505805969E-08  0.93827000000E+00  0.93827000000E+00 0.  1.
     999902    2    1    2    0    0 -0.23232157247E-01  0.44260860713E-02 -0.30666296702E-02  0.10200819899E+01  0.10198031862E+01 0.  0.
     999903    2    3    3    0    0 -0.46558784137E-01  0.99695339566E-01 -0.69999188989E-01  0.13210657938E+00  0.21104045721E-01 0.  0.
         14    1    1    2    0    0  0.23232157247E-01 -0.44260860713E-02  0.30666296702E-02  0.23848010101E-01  0.00000000000E+00 0. -1.
     999901    1    3    3    0    0  0.23326626891E-01 -0.95269253495E-01  0.66932559318E-01  0.88797541052E+00  0.88000000000E+00 0. -1.
        -11    1    4    4    0    0 -0.17969561344E-01  0.59725438586E-01 -0.45424731868E-01  0.77160226383E-01  0.51100000000E-03 0.  1.
         11    1    4    4    0    0 -0.28589222794E-01  0.39969900980E-01 -0.24574457121E-01  0.54946353001E-01  0.51100000000E-03 0. -1.
</event>
<event>
 8    1  0.1204770E+005  0.1043930E+01  0.7957747E-01            NaN
         13   -1    0    0    0    0  0.00000000000E+00  0.00000000000E+00  0.74505805969E-08  0.10566000000E+00  0.10566000000E+00 0. -1.
     999900   -1    0    0    0    0 -0.00000000000E+00 -0.00000000000E+00 -0.74505805969E-08  0.93827000000E+00  0.93827000000E+00 0.  1.
     999902    2    1    2    0    0 -0.12823380788E-01 -0.19450876934E-01  0.27872971208E-02  0.10204663103E+01  0.10201965231E+01 0.  0.
     999903    2    3    3    0    0  0.48421734533E-01 -0.11190159106E-01  0.11918850847E+00  0.13065259632E+00  0.19857400064E-01 0.  0.
         14    1    1    2    0    0  0.12823380788E-01  0.19450876934E-01 -0.27872971208E-02  0.23463689684E-01  0.00000000000E+00 0.  1.
     999901    1    3    3    0    0 -0.61245115321E-01 -0.82607178277E-02 -0.11640121135E+00  0.88981371400E+00  0.88000000000E+00 0.  1.
        -11    1    4    4    0    0  0.16723341915E-01  0.55308531080E-02  0.42102692963E-01  0.45641629864E-01  0.51100000000E-03 0. -1.
         11    1    4    4    0    0  0.31698392618E-01 -0.16721012215E-01  0.77085815510E-01  0.85010966457E-01  0.51100000000E-03 0.  1.
</event>
<event>
 8    1  0.1204770E+005  0.1043930E+01  0.7957747E-01            NaN
         13   -1    0    0    0    0  0.00000000000E+00  0.00000000000E+00  0.74505805969E-08  0.10566000000E+00  0.10566000000E+00 0.  1.
     999900   -1    0    0    0    0 -0.00000000000E+00 -0.00000000000E+00 -0.74505805969E-08  0.93827000000E+00  0.93827000000E+00 0. -1.
     999902    2    1    2    0    0 -0.21092264244E-01  0.14008784921E-01 -0.66603324633E-02  0.10177481419E+01  0.10174113183E+01 0.  0.
     999903    2    3    3    0    0 -0.11153085432E+00  0.63501470260E-01  0.19550815410E-01  0.13134209004E+00  0.19923404378E-01 0.  0.
         14    1    1    2    0    0  0.21092264244E-01 -0.14008784921E-01  0.66603324633E-02  0.26181858116E-01  0.00000000000E+00 0.  1.
     999901    1    3    3    0    0  0.90438590075E-01 -0.49492685339E-01 -0.26211147874E-01  0.88640605185E+00  0.88000000000E+00 0. -1.
        -11    1    4    4    0    0 -0.57001864209E-01  0.42728352598E-01  0.64206754852E-02  0.71529090822E-01  0.51100000000E-03 0.  1.
         11    1    4    4    0    0 -0.54528990110E-01  0.20773117661E-01  0.13130139925E-01  0.59812999216E-01  0.51100000000E-03 0. -1.
</event>
<event>
 8    1  0.1204770E+005  0.1043930E+01  0.7957747E-01            NaN
         13   -1    0    0    0    0  0.00000000000E+00  0.00000000000E+00  0.74505805969E-08  0.10566000000E+00  0.10566000000E+00 0.  1.
     999900   -1    0    0    0    0 -0.00000000000E+00 -0.00000000000E+00 -0.74505805969E-08  0.93827000000E+00  0.93827000000E+00 0. -1.
     999902    2    1    2    0    0 -0.13040774785E-01  0.19380871461E-01 -0.31585705828E-02  0.10203576316E+01  0.10200853100E+01 0.  0.
     999903    2    3    3    0    0  0.36993440623E-01  0.11959277133E+00  0.37593002510E-01  0.13232241926E+00  0.20616575766E-01 0.  0.
         14    1    1    2    0    0  0.13040774785E-01 -0.19380871461E-01  0.31585705828E-02  0.23572368437E-01  0.00000000000E+00 0. -1.
     999901    1    3    3    0    0 -0.50034215409E-01 -0.10021189987E+00 -0.40751573092E-01  0.88803521231E+00  0.88000000000E+00 0. -1.
        -11    1    4    4    0    0  0.22465358614E-01  0.41636556844E-01  0.99976648641E-02  0.48358139203E-01  0.51100000000E-03 0. -1.
         11    1    4    4    0    0  0.14528082009E-01  0.77956214487E-01  0.27595337646E-01  0.83964280053E-01  0.51100000000E-03 0.  1.
</event>
<event>
 8    1  0.1204770E+005  0.1043930E+01  0.7957747E-01            NaN
         13   -1    0    0    0    0  0.00000000000E+00  0.00000000000E+00  0.74505805969E-08  0.10566000000E+00  0.10566000000E+00 0.  1.
     999900   -1    0    0    0    0 -0.00000000000E+00 -0.00000000000E+00 -0.74505805969E-08  0.93827000000E+00  0.93827000000E+00 0. -1.
     999902    2    1    2    0    0  0.12409696726E-01 -0.19214155054E-01  0.51360430254E-02  0.10204872343E+01  0.10202179336E+01 0.  0.
     999903    2    3    3    0    0  0.80414707287E-01 -0.96255965537E-01 -0.40759460513E-01  0.13331953914E+00  0.19519985834E-01 0.  0.
         14    1    1    2    0    0 -0.12409696726E-01  0.19214155054E-01 -0.51360430254E-02  0.23442765733E-01  0.00000000000E+00 0. -1.
     999901    1    3    3    0    0 -0.68005010561E-01  0.77041810482E-01  0.45895503539E-01  0.88716769512E+00  0.88000000000E+00 0.  1.
        -11    1    4    4    0    0  0.19853690283E-01 -0.25868607615E-01 -0.19255797807E-02  0.32669907503E-01  0.51100000000E-03 0.  1.
         11    1    4    4    0    0  0.60561017003E-01 -0.70387357922E-01 -0.38833880733E-01  0.10064963164E+00  0.51100000000E-03 0. -1.
</event>
<event>
 8    1  0.1204770E+005  0.1043930E+01  0.7957747E-01            NaN
         13   -1    0    0    0    0  0.00000000000E+00  0.00000000000E+00  0.74505805969E-08  0.10566000000E+00  0.10566000000E+00 0. -1.
     999900   -1    0    0    0    0 -0.00000000000E+00 -0.00000000000E+00 -0.74505805969E-08  0.93827000000E+00  0.93827000000E+00 0. -1.
     999902    2    1    2    0    0  0.21243647857E-01  0.86895465316E-02 -0.12871921100E-02  0.10209417931E+01  0.10206829514E+01 0.  0.
     999903    2    3    3    0    0 -0.76122092312E-02  0.13027138694E+00  0.28490974272E-02  0.13210439891E+00  0.20368477411E-01 0.  0.
         14    1    1    2    0    0 -0.21243647857E-01 -0.86895465316E-02  0.12871921100E-02  0.22988206906E-01  0.00000000000E+00 0. -1.
     999901    1    3    3    0    0  0.28855857088E-01 -0.12158184041E+00 -0.41362895371E-02  0.88883739418E+00  0.88000000000E+00 0.  1.
        -11    1    4    4    0    0 -0.10207528514E-02  0.90449624097E-01  0.10348500759E-01  0.91046850712E-01  0.51100000000E-03 0. -1.
         11    1    4    4    0    0 -0.65914563797E-02  0.39821762840E-01 -0.74994033314E-02  0.41057548201E-01  0.51100000000E-03 0.  1.
</event>
<event>
 8    1  0.1204770E+005  0.1043930E+01  0.7957747E-01            NaN
         13   -1    0    0    0    0  0.00000000000E+00  0.00000000000E+00  0.74505805969E-08  0.10566000000E+00  0.10566000000E+00 0.  1.
     999900   -1    0    0    0    0 -0.00000000000E+00 -0.00000000000E+00 -0.74505805969E-08  0.93827000000E+00  0.93827000000E+00 0. -1.
     999902    2    1    2    0    0 -0.70667020094E-02 -0.41545632678E-02  0.22692010074E-01  0.10198027127E+01  0.10195172616E+01 0.  0.
     999903    2    3    3    0    0 -0.42033666687E-01 -0.74398981548E-01 -0.94107679589E-01  0.12862420393E+00  0.19644156585E-01 0.  0.
         14    1    1    2    0    0  0.70667020094E-02  0.41545632678E-02 -0.22692010074E-01  0.24127287341E-01  0.00000000000E+00 0. -1.
     999901    1    3    3    0    0  0.34966964678E-01  0.70244418280E-01  0.11679968966E+00  0.89117850873E+00  0.88000000000E+00 0.  1.
        -11    1    4    4    0    0 -0.33527473724E-01 -0.70889264301E-01 -0.82904803981E-01  0.11411768895E+00  0.51100000000E-03 0. -1.
         11    1    4    4    0    0 -0.85061929636E-02 -0.35097172470E-02 -0.11202875608E-01  0.14506514977E-01  0.51100000000E-03 0.  1.
</event>
<event>
 8    1  0.1204770E+005  0.1043930E+01  0.7957747E-01            NaN
         13   -1    0    0    0    0  0.00000000000E+00  0.00000000000E+00  0.74505805969E-08  0.10566000000E+00  0.10566000000E+00 0. -1.
     999900   -1    0    0    0    0 -0.00000000000E+00 -0.00000000000E+00 -0.74505805969E-08  0.93827000000E+00  0.93827000000E+00 0.  1.
     999902    2    1    2    0    0 -0.91385652237E-02 -0.16934582228E-01  0.14001095044E-01  0.10201324347E+01  0.10198548232E+01 0.  0.
     999903    2    3    3    0    0  0.89202310710E-01  0.15899134805E-01 -0.88461562606E-01  0.12814164047E+00  0.19621346569E-01 0.  0.
         14    1    1    2    0    0  0.91385652237E-02  0.16934582228E-01 -0.14001095044E-01  0.23797565254E-01  0.00000000000E+00 0.  1.
     999901    1    3    3    0    0 -0.98340875934E-01 -0.32833717033E-01  0.10246265765E+00  0.89199079427E+00  0.88000000000E+00 0. -1.
        -11    1    4    4    0    0  0.24248358250E-01  0.10428161879E-02 -0.35587394220E-01  0.43078928629E-01  0.51100000000E-03 0. -1.
         11    1    4    4    0    0  0.64953952460E-01  0.14856318617E-01 -0.52874168386E-01  0.85062711846E-01  0.51100000000E-03 0.  1.
</event>
<event>
 8    1  0.1204770E+005  0.1043930E+01  0.7957747E-01            NaN
         13   -1    0    0    0    0  0.00000000000E+00  0.00000000000E+00  0.74505805969E-08  0.10566000000E+00  0.10566000000E+00 0. -1.
     999900   -1    0    0    0    0 -0.00000000000E+00 -0.00000000000E+00 -0.74505805969E-08  0.93827000000E+00  0.93827000000E+00 0.  1.
     999902    2    1    2    0    0  0.10733128187E-01 -0.37201292738E-02  0.20779716556E-01  0.10202480233E+01  0.10199731334E+01 0.  0.
     999903    2    3    3    0    0  0.86417390397E-01 -0.58592575261E-01 -0.75062801213E-01  0.13012169453E+00  0.19904170978E-01 0.  0.
         14    1    1    2    0    0 -0.10733128187E-01  0.37201292738E-02 -0.20779716556E-01  0.23681976747E-01  0.00000000000E+00 0.  1.
     999901    1    3    3    0    0 -0.75684262210E-01  0.54872445987E-01  0.95842517770E-01  0.89012632872E+00  0.88000000000E+00 0. -1.
        -11    1    4    4    0    0  0.46084076454E-01 -0.19704668380E-01 -0.38736996030E-01  0.63346918165E-01  0.51100000000E-03 0.  1.
         11    1    4    4    0    0  0.40333313943E-01 -0.38887906881E-01 -0.36325805183E-01  0.66774776364E-01  0.51100000000E-03 0. -1.
</event>
<event>
 8    1  0.1204770E+005  0.1043930E+01  0.7957747E-01            NaN
         13   -1    0    0    0    0  0.00000000000E+00  0.00000000000E+00  0.74505805969E-08  0.10566000000E+00  0.10566000000E+00 0.  1.
     999900   -1    0    0    0    0 -0.00000000000E+00 -0.00000000000E+00 -0.74505805969E-08  0.93827000000E+00  0.93827000000E+00 0. -1.
     999902    2    1    2    0    0 -0.20297572654E-02  0.10377804923E-02 -0.22748057688E-01  0.10210680003E+01  0.10208120249E+01 0.  0.
     999903    2    3    3    0    0 -0.18280286471E-02 -0.11984102442E+00  0.46469761759E-01  0.13011186628E+00  0.20110847008E-01 0.  0.
         14    1    1    2    0    0  0.20297572654E-02 -0.10377804923E-02  0.22748057688E-01  0.22861999726E-01  0.00000000000E+00 0.  1.
     999901    1    3    3    0    0 -0.20172861828E-03  0.12087880491E+00 -0.69217819447E-01  0.89095613399E+00  0.88000000000E+00 0. -1.
        -11    1    4    4    0    0 -0.17802726440E-03 -0.87782954185E-01  0.24264815543E-01  0.91076457625E-01  0.51100000000E-03 0. -1.
         11    1    4    4    0    0 -0.16500013827E-02 -0.32058070231E-01  0.22204946216E-01  0.39035408656E-01  0.51100000000E-03 0.  1.
</event>
<event>
 8    1  0.1204770E+005  0.1043930E+01  0.7957747E-01            NaN
         13   -1    0    0    0    0  0.00000000000E+00  0.00000000000E+00  0.74505805969E-08  0.10566000000E+00  0.10566000000E+00 0.  1.
     999900   -1    0    0    0    0 -0.00000000000E+00 -0.00000000000E+00 -0.74505805969E-08  0.93827000000E+00  0.93827000000E+00 0. -1.
     999902    2    1    2    0    0 -0.45572449944E-02 -0.21094635495E-01  0.85562167647E-02  0.10207144670E+01  0.10204504212E+01 0.  0.
     999903    2    3    3    0    0  0.11325651172E+00  0.23968129172E-01  0.56725000843E-01  0.13041622155E+00  0.19727048984E-01 0.  0.
         14    1    1    2    0    0  0.45572449944E-02  0.21094635495E-01 -0.85562167647E-02  0.23215533032E-01  0.00000000000E+00 0.  1.
     999901    1    3    3    0    0 -0.11781375671E+00 -0.45062764668E-01 -0.48168784078E-01  0.89029824542E+00  0.88000000000E+00 0.  1.
        -11    1    4    4    0    0  0.66888749851E-01  0.77350315079E-02  0.40975018042E-01  0.78823529442E-01  0.51100000000E-03 0. -1.
         11    1    4    4    0    0  0.46367761865E-01  0.16233097664E-01  0.15749982801E-01  0.51592692112E-01  0.51100000000E-03 0.  1.
</event>
<event>
 8    1  0.1204770E+005  0.1043930E+01  0.7957747E-01            NaN
         13   -1    0    0    0    0  0.00000000000E+00  0.00000000000E+00  0.74505805969E-08  0.10566000000E+00  0.10566000000E+00 0.  1.
     999900   -1    0    0    0    0 -0.00000000000E+00 -0.00000000000E+00 -0.74505805969E-08  0.93827000000E+00  0.93827000000E+00 0.  1.
     999902    2    1    2    0    0 -0.67075215623E-02 -0.98915459542E-02  0.21213574952E-01  0.10195815034E+01  0.10192907302E+01 0.  0.
     999903    2    3    3    0    0  0.10031465524E+00 -0.74965521422E-01 -0.25216532664E-01  0.12950053877E+00  0.21252213151E-01 0.  0.
         14    1    1    2    0    0  0.67075215623E-02  0.98915459542E-02 -0.21213574952E-01  0.24348496650E-01  0.00000000000E+00 0. -1.
     999901    1    3    3    0    0 -0.10702217681E+00  0.65073975468E-01  0.46430107616E-01  0.89008096458E+00  0.88000000000E+00 0. -1.
        -11    1    4    4    0    0  0.89501742940E-01 -0.71044477326E-01 -0.17411559902E-01  0.11559110384E+00  0.51100000000E-03 0.  1.
         11    1    4    4    0    0  0.10812912304E-01 -0.39210440961E-02 -0.78049727619E-02  0.13909434931E-01  0.51100000000E-03 0. -1.
</event>
<event>
 8    1  0.1204770E+005  0.1043930E+01  0.7957747E-01            NaN
         13   -1    0    0    0    0  0.00000000000E+00  0.00000000000E+00  0.74505805969E-08  0.10566000000E+00  0.10566000000E+00 0.  1.
     999900   -1    0    0    0    0 -0.00000000000E+00 -0.00000000000E+00 -0.74505805969E-08  0.93827000000E+00  0.93827000000E+00 0.  1.
     999902    2    1    2    0    0  0.47976909745E-02  0.38994818473E-02  0.22970667286E-01  0.10201418653E+01  0.10198644763E+01 0.  0.
     999903    2    3    3    0    0 -0.10624575632E+00  0.20812091724E-01  0.72135017295E-01  0.13164098354E+00  0.20114271810E-01 0.  0.
         14    1    1    2    0    0 -0.47976909745E-02 -0.38994818473E-02 -0.22970667286E-01  0.23788134709E-01  0.00000000000E+00 0. -1.
     999901    1    3    3    0    0  0.11104344729E+00 -0.16912609876E-01 -0.49164350009E-01  0.88850088175E+00  0.88000000000E+00 0.  1.
        -11    1    4    4    0    0 -0.58132126636E-01  0.18096823862E-01  0.49144999627E-01  0.78245327595E-01  0.51100000000E-03 0.  1.
         11    1    4    4    0    0 -0.48113629679E-01  0.27152678615E-02  0.22990017668E-01  0.53395655946E-01  0.51100000000E-03 0. -1.
</event>
<event>
 8    1  0.1204770E+005  0.1043930E+01  0.7957747E-01            NaN
         13   -1    0    0    0    0  0.00000000000E+00  0.00000000000E+00  0.74505805969E-08  0.10566000000E+00  0.10566000000E+00 0.  1.
     999900   -1    0    0    0    0 -0.00000000000E+00 -0.00000000000E+00 -0.74505805969E-08  0.93827000000E+00  0.93827000000E+00 0.  1.
     999902    2    1    2    0    0  0.13575436447E-01  0.18999843600E-01  0.47168669133E-02  0.10201069992E+01  0.10198287869E+01 0.  0.
     999903    2    3    3    0    0 -0.20634764909E-01 -0.10412271663E+00  0.69565118116E-01  0.12851583823E+00  0.20240587344E-01 0.  0.
         14    1    1    2    0    0 -0.13575436447E-01 -0.18999843600E-01 -0.47168669133E-02  0.23823000756E-01  0.00000000000E+00 0. -1.
     999901    1    3    3    0    0  0.34210201356E-01  0.12312256023E+00 -0.64848251202E-01  0.89159116101E+00  0.88000000000E+00 0.  1.
        -11    1    4    4    0    0 -0.16066686063E-01 -0.96929786602E-01  0.68797245624E-01  0.11994517105E+00  0.51100000000E-03 0. -1.
         11    1    4    4    0    0 -0.45680788460E-02 -0.71929300283E-02  0.76787249144E-03  0.85706671793E-02  0.51100000000E-03 0.  1.
</event>
<event>
 8    1  0.1204770E+005  0.1043930E+01  0.7957747E-01            NaN
         13   -1    0    0    0    0  0.00000000000E+00  0.00000000000E+00  0.74505805969E-08  0.10566000000E+00  0.10566000000E+00 0. -1.
     999900   -1    0    0    0    0 -0.00000000000E+00 -0.00000000000E+00 -0.74505805969E-08  0.93827000000E+00  0.93827000000E+00 0. -1.
     999902    2    1    2    0    0  0.15129023447E-01  0.12684335949E-01 -0.13100897875E-01  0.10202358392E+01  0.10199606632E+01 0.  0.
     999903    2    3    3    0    0 -0.42647696515E-01  0.84381982855E-01 -0.89931507574E-01  0.13210204047E+00  0.20594367971E-01 0.  0.
         14    1    1    2    0    0 -0.15129023447E-01 -0.12684335949E-01  0.13100897875E-01  0.23694160759E-01  0.00000000000E+00 0. -1.
     999901    1    3    3    0    0  0.57776719962E-01 -0.71697646906E-01  0.76830609699E-01  0.88813379878E+00  0.88000000000E+00 0.  1.
        -11    1    4    4    0    0 -0.13131105022E-01  0.10355672885E-01 -0.19993226638E-01  0.26070215043E-01  0.51100000000E-03 0. -1.
         11    1    4    4    0    0 -0.29516591493E-01  0.74026309970E-01 -0.69938280936E-01  0.10603182542E+00  0.51100000000E-03 0.  1.
</event>
<event>
 8    1  0.1204770E+005  0.1043930E+01  0.7957747E-01            NaN
         13   -1    0    0    0    0  0.00000000000E+00  0.00000000000E+00  0.74505805969E-08  0.10566000000E+00  0.10566000000E+00 0. -1.
     999900   -1    0    0    0    0 -0.00000000000E+00 -0.00000000000E+00 -0.74505805969E-08  0.93827000000E+00  0.93827000000E+00 0.  1.
     999902    2    1    2    0    0  0.11468553091E-01  0.81270245618E-02 -0.19079973361E-01  0.10202314426E+01  0.10199561632E+01 0.  0.
     999903    2    3    3    0    0 -0.12150982060E+00 -0.14255539077E-01  0.31866664545E-01  0.12850290381E+00  0.23014236493E-01 0.  0.
         14    1    1    2    0    0 -0.11468553091E-01 -0.81270245618E-02  0.19079973361E-01  0.23698557376E-01  0.00000000000E+00 0.  1.
     999901    1    3    3    0    0  0.13297837369E+00  0.22382563639E-01 -0.50946637906E-01  0.89172853882E+00  0.88000000000E+00 0. -1.
        -11    1    4    4    0    0 -0.48491911450E-01  0.49692693089E-02  0.16347109230E-01  0.51416419699E-01  0.51100000000E-03 0.  1.
         11    1    4    4    0    0 -0.73017909150E-01 -0.19224808386E-01  0.15519555315E-01  0.77086484109E-01  0.51100000000E-03 0. -1.
</event>
<event>
 8    1  0.1204770E+005  0.1043930E+01  0.7957747E-01            NaN
         13   -1    0    0    0    0  0.00000000000E+00  0.00000000000E+00  0.74505805969E-08  0.10566000000E+00  0.10566000000E+00 0. -1.
     999900   -1    0    0    0    0 -0.00000000000E+00 -0.00000000000E+00 -0.74505805969E-08  0.93827000000E+00  0.93827000000E+00 0. -1.
     999902    2    1    2    0    0 -0.22051648069E-01 -0.58564664314E-02 -0.76675979942E-02  0.10198599888E+01  0.10195759075E+01 0.  0.
     999903    2    3    3    0    0  0.10517397372E+00 -0.24371204725E-01  0.65065894631E-01  0.12754876766E+00  0.19483252249E-01 0.  0.
         14    1    1    2    0    0  0.22051648069E-01  0.58564664314E-02  0.76675979942E-02  0.24070011230E-01  0.00000000000E+00 0. -1.
     999901    1    3    3    0    0 -0.12722562179E+00  0.18514738294E-01 -0.72733492626E-01  0.89231122111E+00  0.88000000000E+00 0. -1.
        -11    1    4    4    0    0  0.55544118633E-01 -0.29071613540E-02  0.33729757827E-01  0.65050429560E-01  0.51100000000E-03 0.  1.
         11    1    4    4    0    0  0.49629855090E-01 -0.21464043371E-01  0.31336136805E-01  0.62498338097E-01  0.51100000000E-03 0. -1.
</event>
<event>
 8    1  0.1204770E+005  0.1043930E+01  0.7957747E-01            NaN
         13   -1    0    0    0    0  0.00000000000E+00  0.00000000000E+00  0.74505805969E-08  0.10566000000E+00  0.10566000000E+00 0.  1.
     999900   -1    0    0    0    0 -0.00000000000E+00 -0.00000000000E+00 -0.74505805969E-08  0.93827000000E+00  0.93827000000E+00 0. -1.
     999902    2    1    2    0    0 -0.16362182419E-01 -0.59530138204E-02  0.19231077828E-01  0.10179878771E+01  0.10176572724E+01 0.  0.
     999903    2    3    3    0    0  0.25843987593E-01  0.11633774859E+00 -0.38413455048E-01  0.12666342239E+00  0.19121861875E-01 0.  0.
         14    1    1    2    0    0  0.16362182419E-01  0.59530138204E-02 -0.19231077828E-01  0.25942122918E-01  0.00000000000E+00 0. -1.
     999901    1    3    3    0    0 -0.42206170012E-01 -0.12229076241E+00  0.57644532876E-01  0.89132445469E+00  0.88000000000E+00 0.  1.
        -11    1    4    4    0    0  0.47718629590E-02  0.65136363542E-01 -0.21777206061E-01  0.68847834799E-01  0.51100000000E-03 0.  1.
         11    1    4    4    0    0  0.21072124634E-01  0.51201385048E-01 -0.16636248986E-01  0.57815587593E-01  0.51100000000E-03 0. -1.
</event>
<event>
 8    1  0.1204770E+005  0.1043930E+01  0.7957747E-01            NaN
         13   -1    0    0    0    0  0.00000000000E+00  0.00000000000E+00  0.74505805969E-08  0.10566000000E+00  0.10566000000E+00 0.  1.
     999900   -1    0    0    0    0 -0.00000000000E+00 -0.00000000000E+00 -0.74505805969E-08  0.93827000000E+00  0.93827000000E+00 0.  1.
     999902    2    1    2    0    0  0.11867171411E-01 -0.20383372521E-01 -0.12625233796E-02  0.10203099746E+01  0.10200365380E+01 0.  0.
     999903    2    3    3    0    0 -0.38979241298E-01  0.97632057595E-01 -0.70703526554E-01  0.12827014798E+00  0.20070931047E-01 0.  0.
         14    1    1    2    0    0 -0.11867171411E-01  0.20383372521E-01  0.12625233796E-02  0.23620025358E-01  0.00000000000E+00 0.  1.
     999901    1    3    3    0    0  0.50846412709E-01 -0.11801543012E+00  0.69441003175E-01  0.89203982666E+00  0.88000000000E+00 0.  1.
        -11    1    4    4    0    0 -0.35909704780E-01  0.66129961766E-01 -0.52469887763E-01  0.91738917497E-01  0.51100000000E-03 0.  1.
         11    1    4    4    0    0 -0.30695365184E-02  0.31502095828E-01 -0.18233638791E-01  0.36531230482E-01  0.51100000000E-03 0. -1.
</event>
<event>
 8    1  0.1204770E+005  0.1043930E+01  0.7957747E-01            NaN
         13   -1    0    0    0    0  0.00000000000E+00  0.00000000000E+00  0.74505805969E-08  0.10566000000E+00  0.10566000000E+00 0. -1.
     999900   -1    0    0    0    0 -0.00000000000E+00 -0.00000000000E+00 -0.74505805969E-08  0.93827000000E+00  0.93827000000E+00 0.  1.
     999902    2    1    2    0    0  0.15976035974E-01 -0.27551434322E-03 -0.16686837431E-01  0.10208267496E+01  0.10205652809E+01 0.  0.
     999903    2    3    3    0    0  0.87070246243E-01  0.95284751655E-01 -0.24181249974E-01  0.13277139248E+00  0.19572892767E-01 0.  0.
         14    1    1    2    0    0 -0.15976035974E-01  0.27551434322E-03  0.16686837431E-01  0.23103250357E-01  0.00000000000E+00 0. -1.
     999901    1    3    3    0    0 -0.71094210268E-01 -0.95560265998E-01  0.74944125431E-02  0.88805535717E+00  0.88000000000E+00 0.  1.
        -11    1    4    4    0    0  0.30219472847E-01  0.26448034528E-01  0.42252855175E-03  0.40164097412E-01  0.51100000000E-03 0.  1.
         11    1    4    4    0    0  0.56850773396E-01  0.68836717127E-01 -0.24603778526E-01  0.92607295065E-01  0.51100000000E-03 0. -1.
</event>
<event>
 8    1  0.1204770E+005  0.1043930E+01  0.7957747E-01            NaN
         13   -1    0    0    0    0  0.00000000000E+00  0.00000000000E+00  0.74505805969E-08  0.10566000000E+00  0.10566000000E+00 0. -1.
     999900   -1    0    0    0    0 -0.00000000000E+00 -0.00000000000E+00 -0.74505805969E-08  0.93827000000E+00  0.93827000000E+00 0.  1.
     999902    2    1    2    0    0  0.58239914860E-02  0.22664087326E-01 -0.23066004274E-02  0.10204161714E+01  0.10201452165E+01 0.  0.
     999903    2    3    3    0    0  0.27069092071E-01 -0.12317291679E+00 -0.10805030030E-01  0.12812025108E+00  0.19843056394E-01 0.  0.
         14    1    1    2    0    0 -0.58239914860E-02 -0.22664087326E-01  0.23066004274E-02  0.23513828626E-01  0.00000000000E+00 0.  1.
     999901    1    3    3    0    0 -0.21245100585E-01  0.14583700411E+00  0.84984296029E-02  0.89229592029E+00  0.88000000000E+00 0.  1.
        -11    1    4    4    0    0  0.20556606583E-01 -0.75893817030E-01 -0.15562522134E-01  0.80155466151E-01  0.51100000000E-03 0. -1.
         11    1    4    4    0    0  0.65124854882E-02 -0.47279099758E-01  0.47574921041E-02  0.47964784929E-01  0.51100000000E-03 0.  1.
</event>
<event>
 8    1  0.1204770E+005  0.1043930E+01  0.7957747E-01            NaN
         13   -1    0    0    0    0  0.00000000000E+00  0.00000000000E+00  0.74505805969E-08  0.10566000000E+00  0.10566000000E+00 0. -1.
     999900   -1    0    0    0    0 -0.00000000000E+00 -0.00000000000E+00 -0.74505805969E-08  0.93827000000E+00  0.93827000000E+00 0.  1.
     999902    2    1    2    0    0  0.14550408674E-01  0.13543707795E-01 -0.14008934507E-01  0.10196113516E+01  0.10193212995E+01 0.  0.
     999903    2    3    3    0    0  0.10518884312E+00 -0.74485974975E-01 -0.14503640090E-02  0.13049815941E+00  0.20366955328E-01 0.  0.
         14    1    1    2    0    0 -0.14550408674E-01 -0.13543707795E-01  0.14008934507E-01  0.24318648389E-01  0.00000000000E+00 0. -1.
     999901    1    3    3    0    0 -0.90638434448E-01  0.88029682770E-01 -0.12558570498E-01  0.88911319220E+00  0.88000000000E+00 0. -1.
        -11    1    4    4    0    0  0.42813569126E-01 -0.42160033164E-01 -0.37320065782E-02  0.60205141739E-01  0.51100000000E-03 0. -1.
         11    1    4    4    0    0  0.62375273995E-01 -0.32325941810E-01  0.22816425691E-02  0.70293017674E-01  0.51100000000E-03 0.  1.
</event>
<event>
 8    1  0.1204770E+005  0.1043930E+01  0.7957747E-01            NaN
         13   -1    0    0    0    0  0.00000000000E+00  0.00000000000E+00  0.74505805969E-08  0.10566000000E+00  0.10566000000E+00 0.  1.
     999900   -1    0    0    0    0 -0.00000000000E+00 -0.00000000000E+00 -0.74505805969E-08  0.93827000000E+00  0.93827000000E+00 0.  1.
     999902    2    1    2    0    0  0.23284488341E-01 -0.19432859696E-02  0.70156370519E-02  0.10195340388E+01  0.10192421172E+01 0.  0.
     999903    2    3    3    0    0  0.12151471225E+00  0.47311592055E-01  0.15768785321E-01  0.13265646132E+00  0.18570678635E-01 0.  0.
         14    1    1    2    0    0 -0.23284488341E-01  0.19432859696E-02 -0.70156370519E-02  0.24395961160E-01  0.00000000000E+00 0.  1.
     999901    1    3    3    0    0 -0.98230223906E-01 -0.49254878025E-01 -0.87531482688E-02  0.88687757752E+00  0.88000000000E+00 0. -1.
        -11    1    4    4    0    0  0.71000456385E-01  0.37161244960E-01  0.78081384943E-02  0.80518638101E-01  0.51100000000E-03 0.  1.
         11    1    4    4    0    0  0.50514255863E-01  0.10150347095E-01  0.79606468264E-02  0.52137823223E-01  0.51100000000E-03 0. -1.
</event>
<event>
 8    1  0.1204770E+005  0.1043930E+01  0.7957747E-01            NaN
         13   -1    0    0    0    0  0.00000000000E+00  0.00000000000E+00  0.74505805969E-08  0.10566000000E+00  0.10566000000E+00 0.  1.
     999900   -1    0    0    0    0 -0.00000000000E+00 -0.00000000000E+00 -0.74505805969E-08  0.93827000000E+00  0.93827000000E+00 0. -1.
     999902    2    1    2    0    0  0.10944080205E-01  0.14053634498E-01 -0.39398516182E-02  0.10256871942E+01  0.10255249486E+01 0.  0.
     999903    2    3    3    0    0 -0.81273475991E-01  0.22513820272E-01 -0.10384029227E+00  0.13520656525E+00  0.19640748128E-01 0.  0.
         14    1    1    2    0    0 -0.10944080205E-01 -0.14053634498E-01  0.39398516182E-02  0.18242805840E-01  0.00000000000E+00 0.  1.
     999901    1    3    3    0    0  0.92217556195E-01 -0.84601857732E-02  0.99900440649E-01  0.89048062891E+00  0.88000000000E+00 0.  1.
        -11    1    4    4    0    0 -0.33958447117E-01  0.16737449331E-01 -0.35637733375E-01  0.51996418163E-01  0.51100000000E-03 0.  1.
         11    1    4    4    0    0 -0.47315028874E-01  0.57763709409E-02 -0.68202558892E-01  0.83210147092E-01  0.51100000000E-03 0. -1.
</event>
<event>
 8    1  0.1204770E+005  0.1043930E+01  0.7957747E-01            NaN
         13   -1    0    0    0    0  0.00000000000E+00  0.00000000000E+00  0.74505805969E-08  0.10566000000E+00  0.10566000000E+00 0. -1.
     999900   -1    0    0    0    0 -0.00000000000E+00 -0.00000000000E+00 -0.74505805969E-08  0.93827000000E+00  0.93827000000E+00 0. -1.
     999902    2    1    2    0    0 -0.16031950714E-01 -0.77436393621E-02 -0.11262841630E-01  0.10228625133E+01  0.10226455310E+01 0.  0.
     999903    2    3    3    0    0 -0.90069766852E-01 -0.70726146733E-01 -0.70346218503E-01  0.13554112853E+00  0.17551533615E-01 0.  0.
         14    1    1    2    0    0  0.16031950714E-01  0.77436393621E-02  0.11262841630E-01  0.21067486700E-01  0.00000000000E+00 0. -1.
     999901    1    3    3    0    0  0.74037816138E-01  0.62982507371E-01  0.59083376873E-01  0.88732138477E+00  0.88000000000E+00 0.  1.
        -11    1    4    4    0    0 -0.40051220456E-01 -0.22404025239E-01 -0.33612616341E-01  0.56886814862E-01  0.51100000000E-03 0. -1.
         11    1    4    4    0    0 -0.50018546396E-01 -0.48322121494E-01 -0.36733602162E-01  0.78654313665E-01  0.51100000000E-03 0.  1.
</event>
<event>
 8    1  0.1204770E+005  0.1043930E+01  0.7957747E-01            NaN
         13   -1    0    0    0    0  0.00000000000E+00  0.00000000000E+00  0.74505805969E-08  0.10566000000E+00  0.10566000000E+00 0.  1.
     999900   -1    0    0    0    0 -0.00000000000E+00 -0.00000000000E+00 -0.74505805969E-08  0.93827000000E+00  0.93827000000E+00 0.  1.
     999902    2    1    2    0    0 -0.60275602576E-04 -0.13534520615E-01 -0.18552473546E-01  0.10209652192E+01  0.10207069108E+01 0.  0.
     999903    2    3    3    0    0  0.96541953188E-01 -0.42824978550E-01 -0.78807311247E-01  0.13314735108E+00  0.19060358864E-01 0.  0.
         14    1    1    2    0    0  0.60275602576E-04  0.13534520615E-01  0.18552473546E-01  0.22964780776E-01  0.00000000000E+00 0.  1.
     999901    1    3    3    0    0 -0.96602228790E-01  0.29290457935E-01  0.60254837701E-01  0.88781786815E+00  0.88000000000E+00 0. -1.
        -11    1    4    4    0    0  0.87772167569E-01 -0.36598013610E-01 -0.63190756551E-01  0.11417837288E+00  0.51100000000E-03 0.  1.
         11    1    4    4    0    0  0.87697856188E-02 -0.62269649402E-02 -0.15616554695E-01  0.18968978194E-01  0.51100000000E-03 0. -1.
</event>
<event>
 8    1  0.1204770E+005  0.1043930E+01  0.7957747E-01            NaN
         13   -1    0    0    0    0  0.00000000000E+00  0.00000000000E+00  0.74505805969E-08  0.10566000000E+00  0.10566000000E+00 0.  1.
     999900   -1    0    0    0    0 -0.00000000000E+00 -0.00000000000E+00 -0.74505805969E-08  0.93827000000E+00  0.93827000000E+00 0.  1.
     999902    2    1    2    0    0  0.14950151914E-01  0.99036800673E-02 -0.28782928351E-02  0.10257675527E+01  0.10256067461E+01 0.  0.
     999903    2    3    3    0    0  0.67230884348E-01 -0.11140285359E+00 -0.31888427646E-01  0.13543607625E+00  0.19886461079E-01 0.  0.
         14    1    1    2    0    0 -0.14950151914E-01 -0.99036800673E-02  0.28782928351E-02  0.18162447269E-01  0.00000000000E+00 0. -1.
     999901    1    3    3    0    0 -0.52280732433E-01  0.12130653366E+00  0.29010134811E-01  0.89033147648E+00  0.88000000000E+00 0.  1.
        -11    1    4    4    0    0  0.35936781414E-01 -0.46689375894E-01 -0.21909304905E-01  0.62861982487E-01  0.51100000000E-03 0. -1.
         11    1    4    4    0    0  0.31294102934E-01 -0.64713477695E-01 -0.99791227418E-02  0.72574093763E-01  0.51100000000E-03 0.  1.
</event>
<event>
 8    1  0.1204770E+005  0.1043930E+01  0.7957747E-01            NaN
         13   -1    0    0    0    0  0.00000000000E+00  0.00000000000E+00  0.74505805969E-08  0.10566000000E+00  0.10566000000E+00 0.  1.
     999900   -1    0    0    0    0 -0.00000000000E+00 -0.00000000000E+00 -0.74505805969E-08  0.93827000000E+00  0.93827000000E+00 0.  1.
     999902    2    1    2    0    0 -0.12096021119E-01  0.18012627508E-01  0.89359911689E-02  0.10204646976E+01  0.10201948729E+01 0.  0.
     999903    2    3    3    0    0 -0.34976459630E-01 -0.10674810773E-01  0.12523043082E+00  0.13205551248E+00  0.20461995478E-01 0.  0.
         14    1    1    2    0    0  0.12096021119E-01 -0.18012627508E-01 -0.89359911689E-02  0.23465302360E-01  0.00000000000E+00 0. -1.
     999901    1    3    3    0    0  0.22880438511E-01  0.28687438281E-01 -0.11629443965E+00  0.88840918516E+00  0.88000000000E+00 0.  1.
        -11    1    4    4    0    0 -0.64139182964E-02 -0.45065515594E-02  0.60815238293E-01  0.61320483400E-01  0.51100000000E-03 0.  1.
         11    1    4    4    0    0 -0.28562541334E-01 -0.61682592135E-02  0.64415192531E-01  0.70735029080E-01  0.51100000000E-03 0. -1.
</event>
<event>
 8    1  0.1204770E+005  0.1043930E+01  0.7957747E-01            NaN
         13   -1    0    0    0    0  0.00000000000E+00  0.00000000000E+00  0.74505805969E-08  0.10566000000E+00  0.10566000000E+00 0. -1.
     999900   -1    0    0    0    0 -0.00000000000E+00 -0.00000000000E+00 -0.74505805969E-08  0.93827000000E+00  0.93827000000E+00 0.  1.
     999902    2    1    2    0    0 -0.11942602824E-01  0.18367115916E-01  0.19237961609E-02  0.10219373262E+01  0.10217006514E+01 0.  0.
     999903    2    3    3    0    0 -0.68409649533E-03  0.10868251834E+00 -0.75218460321E-01  0.13388634027E+00  0.21339577248E-01 0.  0.
         14    1    1    2    0    0  0.11942602824E-01 -0.18367115916E-01 -0.19237961609E-02  0.21992673802E-01  0.00000000000E+00 0. -1.
     999901    1    3    3    0    0 -0.11258506329E-01 -0.90315402420E-01  0.77142256482E-01  0.88805098593E+00  0.88000000000E+00 0. -1.
        -11    1    4    4    0    0 -0.16839417507E-02  0.33273828061E-01 -0.11797333915E-01  0.35347156918E-01  0.51100000000E-03 0. -1.
         11    1    4    4    0    0  0.99984525541E-03  0.75408690275E-01 -0.63421126406E-01  0.98539183349E-01  0.51100000000E-03 0.  1.
</event>
<event>
 8    1  0.1204770E+005  0.1043930E+01  0.7957747E-01            NaN
         13   -1    0    0    0    0  0.00000000000E+00  0.00000000000E+00  0.74505805969E-08  0.10566000000E+00  0.10566000000E+00 0.  1.
     999900   -1    0    0    0    0 -0.00000000000E+00 -0.00000000000E+00 -0.74505805969E-08  0.93827000000E+00  0.93827000000E+00 0.  1.
     999902    2    1    2    0    0 -0.11182703905E-01 -0.14737834221E-01  0.14764989585E-01  0.10202601554E+01  0.10199855505E+01 0.  0.
     999903    2    3    3    0    0  0.30861191942E-01 -0.12633482823E+00  0.12231451380E-01  0.13221286105E+00  0.20438449891E-01 0.  0.
         14    1    1    2    0    0  0.11182703905E-01  0.14737834221E-01 -0.14764989585E-01  0.23669844562E-01  0.00000000000E+00 0. -1.
     999901    1    3    3    0    0 -0.42043895848E-01  0.11159699400E+00  0.25335382051E-02  0.88804729439E+00  0.88000000000E+00 0.  1.
        -11    1    4    4    0    0  0.97192438644E-02 -0.47343849510E-01  0.14328528376E-01  0.50413010564E-01  0.51100000000E-03 0.  1.
         11    1    4    4    0    0  0.21141948078E-01 -0.78990978716E-01 -0.20970769962E-02  0.81799850488E-01  0.51100000000E-03 0. -1.
</event>
<event>
 8    1  0.1204770E+005  0.1043930E+01  0.7957747E-01            NaN
         13   -1    0    0    0    0  0.00000000000E+00  0.00000000000E+00  0.74505805969E-08  0.10566000000E+00  0.10566000000E+00 0.  1.
     999900   -1    0    0    0    0 -0.00000000000E+00 -0.00000000000E+00 -0.74505805969E-08  0.93827000000E+00  0.93827000000E+00 0.  1.
     999902    2    1    2    0    0  0.12969828622E-02  0.13629375552E-01  0.18980433339E-01  0.10205270324E+01  0.10202586559E+01 0.  0.
     999903    2    3    3    0    0 -0.75019787138E-01 -0.41605022061E-01 -0.94459056545E-01  0.12825823550E+00  0.12989044921E-01 0.  0.
         14    1    1    2    0    0 -0.12969828622E-02 -0.13629375552E-01 -0.18980433339E-01  0.23402967594E-01  0.00000000000E+00 0. -1.
     999901    1    3    3    0    0  0.76316770000E-01  0.55234397613E-01  0.11343948988E+00  0.89226879690E+00  0.88000000000E+00 0.  1.
        -11    1    4    4    0    0 -0.26829597206E-01 -0.80405694793E-02 -0.29237252879E-01  0.40491432683E-01  0.51100000000E-03 0. -1.
         11    1    4    4    0    0 -0.48190189931E-01 -0.33564452581E-01 -0.65221803665E-01  0.87766802819E-01  0.51100000000E-03 0.  1.
</event>
<event>
 8    1  0.1204770E+005  0.1043930E+01  0.7957747E-01            NaN
         13   -1    0    0    0    0  0.00000000000E+00  0.00000000000E+00  0.74505805969E-08  0.10566000000E+00  0.10566000000E+00 0. -1.
     999900   -1    0    0    0    0 -0.00000000000E+00 -0.00000000000E+00 -0.74505805969E-08  0.93827000000E+00  0.93827000000E+00 0.  1.
     999902    2    1    2    0    0 -0.80747721417E-02 -0.21627290953E-01  0.30294124740E-02  0.10206465510E+01  0.10203809401E+01 0.  0.
     999903    2    3    3    0    0  0.12196418577E-01 -0.12040225699E+00  0.52553391845E-01  0.13350505175E+00  0.20403032476E-01 0.  0.
         14    1    1    2    0    0  0.80747721417E-02  0.21627290953E-01 -0.30294124740E-02  0.23283449037E-01  0.00000000000E+00 0. -1.
     999901    1    3    3    0    0 -0.20271190719E-01  0.98774966038E-01 -0.49523979371E-01  0.88714149921E+00  0.88000000000E+00 0.  1.
        -11    1    4    4    0    0  0.65764910315E-02 -0.47080969362E-01  0.31438223569E-01  0.56995534322E-01  0.51100000000E-03 0. -1.
         11    1    4    4    0    0  0.56199275459E-02 -0.73321287629E-01  0.21115168276E-01  0.76509517431E-01  0.51100000000E-03 0.  1.
</event>
<event>
 8    1  0.1204770E+005  0.1043930E+01  0.7957747E-01            NaN
         13   -1    0    0    0    0  0.00000000000E+00  0.00000000000E+00  0.74505805969E-08  0.10566000000E+00  0.10566000000E+00 0.  1.
     999900   -1    0    0    0    0 -0.00000000000E+00 -0.00000000000E+00 -0.74505805969E-08  0.93827000000E+00  0.93827000000E+00 0. -1.
     999902    2    1    2    0    0  0.14700096150E-01 -0.75798771086E-02 -0.19452615717E-02  0.10272767299E+01  0.10271417372E+01 0.  0.
     999903    2    3    3    0    0  0.93525276928E-01 -0.96720515129E-01  0.29218826072E-01  0.13872135014E+00  0.16971673934E-01 0.  0.
         14    1    1    2    0    0 -0.14700096150E-01  0.75798771086E-02  0.19452615717E-02  0.16653270141E-01  0.00000000000E+00 0. -1.
     999901    1    3    3    0    0 -0.78825180778E-01  0.89140638020E-01 -0.31164087644E-01  0.88855537972E+00  0.88000000000E+00 0. -1.
        -11    1    4    4    0    0  0.18642841173E-01 -0.16363383173E-01 -0.89763598248E-03  0.24827055952E-01  0.51100000000E-03 0. -1.
         11    1    4    4    0    0  0.74882435755E-01 -0.80357131955E-01  0.30116462055E-01  0.11389429419E+00  0.51100000000E-03 0.  1.
</event>
<event>
 8    1  0.1204770E+005  0.1043930E+01  0.7957747E-01            NaN
         13   -1    0    0    0    0  0.00000000000E+00  0.00000000000E+00  0.74505805969E-08  0.10566000000E+00  0.10566000000E+00 0.  1.
     999900   -1    0    0    0    0 -0.00000000000E+00 -0.00000000000E+00 -0.74505805969E-08  0.93827000000E+00  0.93827000000E+00 0.  1.
     999902    2    1    2    0    0 -0.16757496488E-01  0.70431570801E-02 -0.15160102559E-01  0.10202604318E+01  0.10199858333E+01 0.  0.
     999903    2    3    3    0    0  0.62583669512E-01 -0.33687715641E-01 -0.10806216778E+00  0.13088715900E+00  0.20060867608E-01 0.  0.
         14    1    1    2    0    0  0.16757496488E-01 -0.70431570801E-02  0.15160102559E-01  0.23669568222E-01  0.00000000000E+00 0.  1.
     999901    1    3    3    0    0 -0.79341166000E-01  0.40730872721E-01  0.92902065225E-01  0.88937327278E+00  0.88000000000E+00 0. -1.
        -11    1    4    4    0    0  0.34754942156E-01 -0.12721017952E-01 -0.70660831481E-01  0.79768067098E-01  0.51100000000E-03 0. -1.
         11    1    4    4    0    0  0.27828727355E-01 -0.20966697689E-01 -0.37401336304E-01  0.51119091898E-01  0.51100000000E-03 0.  1.
</event>
<event>
 8    1  0.1204770E+005  0.1043930E+01  0.7957747E-01            NaN
         13   -1    0    0    0    0  0.00000000000E+00  0.00000000000E+00  0.74505805969E-08  0.10566000000E+00  0.10566000000E+00 0. -1.
     999900   -1    0    0    0    0 -0.00000000000E+00 -0.00000000000E+00 -0.74505805969E-08  0.93827000000E+00  0.93827000000E+00 0.  1.
     999902    2    1    2    0    0 -0.18416157100E-01  0.64821766275E-02  0.18445997348E-01  0.10170705831E+01  0.10167158614E+01 0.  0.
     999903    2    3    3    0    0 -0.37596754247E-01 -0.11329507081E+00  0.42219117385E-01  0.12843137314E+00  0.21514523744E-01 0.  0.
         14    1    1    2    0    0  0.18416157100E-01 -0.64821766275E-02 -0.18445997348E-01  0.26859416865E-01  0.00000000000E+00 0.  1.
     999901    1    3    3    0    0  0.19180597146E-01  0.11977724744E+00 -0.23773120037E-01  0.88863921000E+00  0.88000000000E+00 0. -1.
        -11    1    4    4    0    0 -0.31645130134E-01 -0.67903489779E-01  0.32315405912E-01  0.81589489309E-01  0.51100000000E-03 0.  1.
         11    1    4    4    0    0 -0.59516241122E-02 -0.45391581036E-01  0.99037114722E-02  0.46841883827E-01  0.51100000000E-03 0. -1.
</event>
<event>
 8    1  0.1204770E+005  0.1043930E+01  0.7957747E-01            NaN
         13   -1    0    0    0    0  0.00000000000E+00  0.00000000000E+00  0.74505805969E-08  0.10566000000E+00  0.10566000000E+00 0. -1.
     999900   -1    0    0    0    0 -0.00000000000E+00 -0.00000000000E+00 -0.74505805969E-08  0.93827000000E+00  0.93827000000E+00 0.  1.
     999902    2    1    2    0    0  0.10204727362E-01  0.53094213249E-02  0.20547985541E-01  0.10203811969E+01  0.10201094260E+01 0.  0.
     999903    2    3    3    0    0 -0.19637173479E-01 -0.12150766934E+00  0.37819666156E-01  0.13062200229E+00  0.21955592526E-01 0.  0.
         14    1    1    2    0    0 -0.10204727362E-01 -0.53094213249E-02 -0.20547985541E-01  0.23548803050E-01  0.00000000000E+00 0.  1.
     999901    1    3    3    0    0  0.29841900840E-01  0.12681709067E+00 -0.17271680615E-01  0.88975919466E+00  0.88000000000E+00 0.  1.
        -11    1    4    4    0    0 -0.57789116653E-02 -0.10119041308E-01 -0.13353524670E-02  0.11740319597E-01  0.51100000000E-03 0.  1.
         11    1    4    4    0    0 -0.13858261813E-01 -0.11138862803E+00  0.39155018623E-01  0.11888168269E+00  0.51100000000E-03 0. -1.
</event>
<event>
 8    1  0.1204770E+005  0.1043930E+01  0.7957747E-01            NaN
         13   -1    0    0    0    0  0.00000000000E+00  0.00000000000E+00  0.74505805969E-08  0.10566000000E+00  0.10566000000E+00 0.  1.
     999900   -1    0    0    0    0 -0.00000000000E+00 -0.00000000000E+00 -0.74505805969E-08  0.93827000000E+00  0.93827000000E+00 0. -1.
     999902    2    1    2    0    0 -0.13886000073E-01 -0.17963019494E-01  0.85946102787E-02  0.10196532953E+01  0.10193642549E+01 0.  0.
     999903    2    3    3    0    0 -0.62901299606E-01 -0.11330512202E+00 -0.20057302350E-01  0.13268455387E+00  0.20205724197E-01 0.  0.
         14    1    1    2    0    0  0.13886000073E-01  0.17963019494E-01 -0.85946102787E-02  0.24276704744E-01  0.00000000000E+00 0. -1.
     999901    1    3    3    0    0  0.49015299533E-01  0.95342102523E-01  0.28651912629E-01  0.88696874139E+00  0.88000000000E+00 0.  1.
        -11    1    4    4    0    0 -0.39800209538E-01 -0.75913586274E-01 -0.37361095457E-02  0.85797138040E-01  0.51100000000E-03 0. -1.
         11    1    4    4    0    0 -0.23101090069E-01 -0.37391535742E-01 -0.16321192804E-01  0.46887415829E-01  0.51100000000E-03 0.  1.
</event>
<event>
 8    1  0.1204770E+005  0.1043930E+01  0.7957747E-01            NaN
         13   -1    0    0    0    0  0.00000000000E+00  0.00000000000E+00  0.74505805969E-08  0.10566000000E+00  0.10566000000E+00 0.  1.
     999900   -1    0    0    0    0 -0.00000000000E+00 -0.00000000000E+00 -0.74505805969E-08  0.93827000000E+00  0.93827000000E+00 0. -1.
     999902    2    1    2    0    0 -0.19518586581E-01 -0.10689942300E-01 -0.84157781686E-02  0.10201376607E+01  0.10198601724E+01 0.  0.
     999903    2    3    3    0    0 -0.63011987367E-01  0.73654830167E-01 -0.86753026531E-01  0.13157565325E+00  0.19761587913E-01 0.  0.
         14    1    1    2    0    0  0.19518586581E-01  0.10689942300E-01  0.84157781686E-02  0.23792339327E-01  0.00000000000E+00 0.  1.
     999901    1    3    3    0    0  0.43493400786E-01 -0.84344772468E-01  0.78337248362E-01  0.88856200742E+00  0.88000000000E+00 0.  1.
        -11    1    4    4    0    0 -0.20624784978E-01  0.26771998717E-01 -0.18417500814E-01  0.38491390309E-01  0.51100000000E-03 0.  1.
         11    1    4    4    0    0 -0.42387202389E-01  0.46882831450E-01 -0.68335525717E-01  0.93084262940E-01  0.51100000000E-03 0. -1.
</event>
<event>
 8    1  0.1204770E+005  0.1043930E+01  0.7957747E-01            NaN
         13   -1    0    0    0    0  0.00000000000E+00  0.00000000000E+00  0.74505805969E-08  0.10566000000E+00  0.10566000000E+00 0.  1.
     999900   -1    0    0    0    0 -0.00000000000E+00 -0.00000000000E+00 -0.74505805969E-08  0.93827000000E+00  0.93827000000E+00 0.  1.
     999902    2    1    2    0    0 -0.13316851466E-01  0.94956243384E-03  0.16600505982E-01  0.10226270190E+01  0.10224051071E+01 0.  0.
     999903    2    3    3    0    0  0.23305101108E-01  0.67465754655E-01  0.11198587313E+00  0.13422174011E+00  0.19490611827E-01 0.  0.
         14    1    1    2    0    0  0.13316851466E-01 -0.94956243384E-03 -0.16600505982E-01  0.21302981027E-01  0.00000000000E+00 0.  1.
     999901    1    3    3    0    0 -0.36621952574E-01 -0.66516192221E-01 -0.95385367150E-01  0.88840527886E+00  0.88000000000E+00 0.  1.
        -11    1    4    4    0    0  0.16781605773E-01  0.61874360968E-01  0.89081001258E-01  0.10975310813E+00  0.51100000000E-03 0. -1.
         11    1    4    4    0    0  0.65234953350E-02  0.55913936871E-02  0.22904871874E-01  0.24468631987E-01  0.51100000000E-03 0.  1.
</event>
<event>
 8    1  0.1204770E+005  0.1043930E+01  0.7957747E-01            NaN
         13   -1    0    0    0    0  0.00000000000E+00  0.00000000000E+00  0.74505805969E-08  0.10566000000E+00  0.10566000000E+00 0. -1.
     999900   -1    0    0    0    0 -0.00000000000E+00 -0.00000000000E+00 -0.74505805969E-08  0.93827000000E+00  0.93827000000E+00 0.  1.
     999902    2    1    2    0    0  0.98171976862E-03 -0.39479073697E-02 -0.22959233470E-01  0.10206131360E+01  0.10203467534E+01 0.  0.
     999903    2    3    3    0    0  0.11893946491E+00 -0.43539647937E-01 -0.29842770121E-01  0.13183368154E+00  0.21147846335E-01 0.  0.
         14    1    1    2    0    0 -0.98171976862E-03  0.39479073697E-02  0.22959233470E-01  0.23316864022E-01  0.00000000000E+00 0. -1.
     999901    1    3    3    0    0 -0.11795774514E+00  0.39591740567E-01  0.68835366515E-02  0.88877945444E+00  0.88000000000E+00 0.  1.
        -11    1    4    4    0    0  0.53069536676E-01 -0.84656056347E-02 -0.14136744166E-01  0.55571133319E-01  0.51100000000E-03 0.  1.
         11    1    4    4    0    0  0.65869928230E-01 -0.35074042302E-01 -0.15706025955E-01  0.76262548218E-01  0.51100000000E-03 0. -1.
</event>
<event>
 8    1  0.1204770E+005  0.1043930E+01  0.7957747E-01            NaN
         13   -1    0    0    0    0  0.00000000000E+00  0.00000000000E+00  0.74505805969E-08  0.10566000000E+00  0.10566000000E+00 0. -1.
     999900   -1    0    0    0    0 -0.00000000000E+00 -0.00000000000E+00 -0.74505805969E-08  0.93827000000E+00  0.93827000000E+00 0. -1.
     999902    2    1    2    0    0 -0.28292053543E-01 -0.49248877121E-02  0.56072959888E-02  0.10146701883E+01  0.10142482213E+01 0.  0.
     999903    2    3    3    0    0  0.94280863725E-01 -0.69331330373E-01 -0.31987787096E-01  0.12305048227E+00  0.20554513551E-01 0.  0.
         14    1    1    2    0    0  0.28292053543E-01  0.49248877121E-02 -0.56072959888E-02  0.29259811704E-01  0.00000000000E+00 0.  1.
     999901    1    3    3    0    0 -0.12257291727E+00  0.64406442661E-01  0.37595083084E-01  0.89161970603E+00  0.88000000000E+00 0. -1.
        -11    1    4    4    0    0  0.88996547834E-01 -0.57920522583E-01 -0.27501543519E-01  0.10968941827E+00  0.51100000000E-03 0. -1.
         11    1    4    4    0    0  0.52843158907E-02 -0.11410807789E-01 -0.44862435769E-02  0.13361064002E-01  0.51100000000E-03 0.  1.
</event>
<event>
 8    1  0.1204770E+005  0.1043930E+01  0.7957747E-01            NaN
         13   -1    0    0    0    0  0.00000000000E+00  0.00000000000E+00  0.74505805969E-08  0.10566000000E+00  0.10566000000E+00 0. -1.
     999900   -1    0    0    0    0 -0.00000000000E+00 -0.00000000000E+00 -0.74505805969E-08  0.93827000000E+00  0.93827000000E+00 0. -1.
     999902    2    1    2    0    0 -0.19456066119E-01 -0.46157717058E-02  0.13233584408E-01  0.10199514343E+01  0.10196695331E+01 0.  0.
     999903    2    3    3    0    0 -0.55170334174E-03 -0.79420830693E-01  0.10357517186E+00  0.13196789041E+00  0.19486794171E-01 0.  0.
         14    1    1    2    0    0  0.19456066119E-01  0.46157717058E-02 -0.13233584408E-01  0.23978565711E-01  0.00000000000E+00 0.  1.
     999901    1    3    3    0    0 -0.18904362777E-01  0.74805058987E-01 -0.90341587456E-01  0.88798354388E+00  0.88000000000E+00 0. -1.
        -11    1    4    4    0    0 -0.99381569170E-02 -0.35925163372E-01  0.46967895689E-01  0.59963561207E-01  0.51100000000E-03 0.  1.
         11    1    4    4    0    0  0.93864535753E-02 -0.43495667321E-01  0.56607276175E-01  0.72004329199E-01  0.51100000000E-03 0. -1.
</event>
<event>
 8    1  0.1204770E+005  0.1043930E+01  0.7957747E-01            NaN
         13   -1    0    0    0    0  0.00000000000E+00  0.00000000000E+00  0.74505805969E-08  0.10566000000E+00  0.10566000000E+00 0.  1.
     999900   -1    0    0    0    0 -0.00000000000E+00 -0.00000000000E+00 -0.74505805969E-08  0.93827000000E+00  0.93827000000E+00 0. -1.
     999902    2    1    2    0    0 -0.16384853352E-01  0.16580219673E-01 -0.45770834576E-02  0.10201746470E+01  0.10198980310E+01 0.  0.
     999903    2    3    3    0    0  0.86361535580E-02 -0.33157114277E-01  0.12307495882E+00  0.12922296644E+00  0.19420406548E-01 0.  0.
         14    1    1    2    0    0  0.16384853352E-01 -0.16580219673E-01  0.45770834576E-02  0.23755353012E-01  0.00000000000E+00 0. -1.
     999901    1    3    3    0    0 -0.25021006910E-01  0.49737333951E-01 -0.12765204228E+00  0.89095168055E+00  0.88000000000E+00 0. -1.
        -11    1    4    4    0    0  0.30599751238E-02 -0.21927464876E-01  0.45090068632E-01  0.50234973613E-01  0.51100000000E-03 0. -1.
         11    1    4    4    0    0  0.55761784342E-02 -0.11229649402E-01  0.77984890190E-01  0.78987992825E-01  0.51100000000E-03 0.  1.
</event>
<event>
 8    1  0.1204770E+005  0.1043930E+01  0.7957747E-01            NaN
         13   -1    0    0    0    0  0.00000000000E+00  0.00000000000E+00  0.74505805969E-08  0.10566000000E+00  0.10566000000E+00 0.  1.
     999900   -1    0    0    0    0 -0.00000000000E+00 -0.00000000000E+00 -0.74505805969E-08  0.93827000000E+00  0.93827000000E+00 0.  1.
     999902    2    1    2    0    0 -0.19059513809E-01  0.54235910862E-02  0.13571899689E-01  0.10199117389E+01  0.10196288924E+01 0.  0.
     999903    2    3    3    0    0 -0.99634891208E-01  0.71908094939E-01 -0.42433489914E-01  0.13196512765E+00  0.22722415937E-01 0.  0.
         14    1    1    2    0    0  0.19059513809E-01 -0.54235910862E-02 -0.13571899689E-01  0.24018261138E-01  0.00000000000E+00 0. -1.
     999901    1    3    3    0    0  0.80575377399E-01 -0.66484503852E-01  0.56005389603E-01  0.88794661121E+00  0.88000000000E+00 0. -1.
        -11    1    4    4    0    0 -0.60719020606E-01  0.47463404541E-01 -0.15237395342E-01  0.78562163742E-01  0.51100000000E-03 0.  1.
         11    1    4    4    0    0 -0.38915870602E-01  0.24444690397E-01 -0.27196094572E-01  0.53402963909E-01  0.51100000000E-03 0. -1.
</event>
<event>
 8    1  0.1204770E+005  0.1043930E+01  0.7957747E-01            NaN
         13   -1    0    0    0    0  0.00000000000E+00  0.00000000000E+00  0.74505805969E-08  0.10566000000E+00  0.10566000000E+00 0.  1.
     999900   -1    0    0    0    0 -0.00000000000E+00 -0.00000000000E+00 -0.74505805969E-08  0.93827000000E+00  0.93827000000E+00 0. -1.
     999902    2    1    2    0    0  0.99361028332E-02 -0.21588402361E-01 -0.16276165505E-02  0.10201091186E+01  0.10198309563E+01 0.  0.
     999903    2    3    3    0    0 -0.11998689901E+00 -0.42404127406E-01 -0.18453282510E-01  0.13016733180E+00  0.20200115797E-01 0.  0.
         14    1    1    2    0    0 -0.99361028332E-02  0.21588402361E-01  0.16276165505E-02  0.23820881420E-01  0.00000000000E+00 0.  1.
     999901    1    3    3    0    0  0.12992300184E+00  0.20815725046E-01  0.16825665960E-01  0.88994178678E+00  0.88000000000E+00 0.  1.
        -11    1    4    4    0    0 -0.66027563879E-01 -0.19292159083E-01 -0.19341964696E-01  0.71457674978E-01  0.51100000000E-03 0.  1.
         11    1    4    4    0    0 -0.53959335130E-01 -0.23111968323E-01  0.88868218592E-03  0.58709656825E-01  0.51100000000E-03 0. -1.
</event>
<event>
 8    1  0.1204770E+005  0.1043930E+01  0.7957747E-01            NaN
         13   -1    0    0    0    0  0.00000000000E+00  0.00000000000E+00  0.74505805969E-08  0.10566000000E+00  0.10566000000E+00 0.  1.
     999900   -1    0    0    0    0 -0.00000000000E+00 -0.00000000000E+00 -0.74505805969E-08  0.93827000000E+00  0.93827000000E+00 0.  1.
     999902    2    1    2    0    0  0.15239719457E-01 -0.10050422290E-01 -0.13857845995E-01  0.10210105774E+01  0.10207532999E+01 0.  0.
     999903    2    3    3    0    0  0.52654118504E-01 -0.10320090310E+00 -0.64040834690E-01  0.13388308842E+00  0.20014251412E-01 0.  0.
         14    1    1    2    0    0 -0.15239719457E-01  0.10050422290E-01  0.13857845995E-01  0.22919422614E-01  0.00000000000E+00 0.  1.
     999901    1    3    3    0    0 -0.37414399047E-01  0.93150480811E-01  0.50182988695E-01  0.88712748897E+00  0.88000000000E+00 0. -1.
        -11    1    4    4    0    0  0.40814229726E-01 -0.70865629455E-01 -0.35491089211E-01  0.89149410096E-01  0.51100000000E-03 0.  1.
         11    1    4    4    0    0  0.11839888778E-01 -0.32335273646E-01 -0.28549745479E-01  0.44733678320E-01  0.51100000000E-03 0. -1.
</event>
<event>
 8    1  0.1204770E+005  0.1043930E+01  0.7957747E-01            NaN
         13   -1    0    0    0    0  0.00000000000E+00  0.00000000000E+00  0.74505805969E-08  0.10566000000E+00  0.10566000000E+00 0. -1.
     999900   -1    0    0    0    0 -0.00000000000E+00 -0.00000000000E+00 -0.74505805969E-08  0.93827000000E+00  0.93827000000E+00 0. -1.
     999902    2    1    2    0    0 -0.31670596279E-02  0.20812806716E-01 -0.10196911204E-01  0.10205381170E+01  0.10202699977E+01 0.  0.
     999903    2    3    3    0    0 -0.11804945470E+00 -0.32946106566E-01  0.38917152701E-01  0.13008869303E+00  0.19682570648E-01 0.  0.
         14    1    1    2    0    0  0.31670596279E-02 -0.20812806716E-01  0.10196911204E-01  0.23391882955E-01  0.00000000000E+00 0. -1.
     999901    1    3    3    0    0  0.11488239507E+00  0.53758913282E-01 -0.49114063905E-01  0.89044942401E+00  0.88000000000E+00 0. -1.
        -11    1    4    4    0    0 -0.37465498921E-01 -0.16704589500E-01  0.56697310877E-02  0.41413933542E-01  0.51100000000E-03 0.  1.
         11    1    4    4    0    0 -0.80583955778E-01 -0.16241517066E-01  0.33247421613E-01  0.88674759489E-01  0.51100000000E-03 0. -1.
</event>
<event>
 8    1  0.1204770E+005  0.1043930E+01  0.7957747E-01            NaN
         13   -1    0    0    0    0  0.00000000000E+00  0.00000000000E+00  0.74505805969E-08  0.10566000000E+00  0.10566000000E+00 0. -1.
     999900   -1    0    0    0    0 -0.00000000000E+00 -0.00000000000E+00 -0.74505805969E-08  0.93827000000E+00  0.93827000000E+00 0.  1.
     999902    2    1    2    0    0 -0.52388273158E-02 -0.81062164780E-02  0.21626090627E-01  0.10202478579E+01  0.10199729642E+01 0.  0.
     999903    2    3    3    0    0 -0.52150663322E-01 -0.88926211189E-01 -0.76508196187E-01  0.12987550315E+00  0.19661625415E-01 0.  0.
         14    1    1    2    0    0  0.52388273158E-02  0.81062164780E-02 -0.21626090627E-01  0.23682142071E-01  0.00000000000E+00 0.  1.
     999901    1    3    3    0    0  0.46911836006E-01  0.80819994711E-01  0.98134286815E-01  0.89037235478E+00  0.88000000000E+00 0. -1.
        -11    1    4    4    0    0 -0.21023346464E-01 -0.51846367745E-01 -0.34163907020E-01  0.65555019707E-01  0.51100000000E-03 0. -1.
         11    1    4    4    0    0 -0.31127316858E-01 -0.37079843444E-01 -0.42344289168E-01  0.64320483446E-01  0.51100000000E-03 0.  1.
</event>
<event>
 8    1  0.1204770E+005  0.1043930E+01  0.7957747E-01            NaN
         13   -1    0    0    0    0  0.00000000000E+00  0.00000000000E+00  0.74505805969E-08  0.10566000000E+00  0.10566000000E+00 0. -1.
     999900   -1    0    0    0    0 -0.00000000000E+00 -0.00000000000E+00 -0.74505805969E-08  0.93827000000E+00  0.93827000000E+00 0. -1.
     999902    2    1    2    0    0 -0.80021013661E-02  0.15809010464E-01  0.19817781060E-01  0.10173461161E+01  0.10169987301E+01 0.  0.
     999903    2    3    3    0    0  0.26233135241E-01 -0.82729449111E-01  0.92327535335E-01  0.12822320899E+00  0.19608120990E-01 0.  0.
         14    1    1    2    0    0  0.80021013661E-02 -0.15809010464E-01 -0.19817781060E-01  0.26583883920E-01  0.00000000000E+00 0.  1.
     999901    1    3    3    0    0 -0.34235236607E-01  0.98538459575E-01 -0.72509754275E-01  0.88912290709E+00  0.88000000000E+00 0.  1.
        -11    1    4    4    0    0  0.56402404895E-02 -0.49454304675E-01  0.49271739484E-01  0.70039317504E-01  0.51100000000E-03 0.  1.
         11    1    4    4    0    0  0.20592894751E-01 -0.33275144436E-01  0.43055795851E-01  0.58183891489E-01  0.51100000000E-03 0. -1.
</event>
<event>
 8    1  0.1204770E+005  0.1043930E+01  0.7957747E-01            NaN
         13   -1    0    0    0    0  0.00000000000E+00  0.00000000000E+00  0.74505805969E-08  0.10566000000E+00  0.10566000000E+00 0. -1.
     999900   -1    0    0    0    0 -0.00000000000E+00 -0.00000000000E+00 -0.74505805969E-08  0.93827000000E+00  0.93827000000E+00 0.  1.
     999902    2    1    2    0    0  0.21418144418E-01 -0.48057081747E-02  0.58022687738E-02  0.10212254175E+01  0.10209729944E+01 0.  0.
     999903    2    3    3    0    0  0.39095739142E-02  0.38897460930E-01  0.12457612653E+00  0.13199892991E+00  0.19396106842E-01 0.  0.
         14    1    1    2    0    0 -0.21418144418E-01  0.48057081747E-02 -0.58022687738E-02  0.22704582451E-01  0.00000000000E+00 0. -1.
     999901    1    3    3    0    0  0.17508570504E-01 -0.43703169105E-01 -0.11877385776E+00  0.88922648764E+00  0.88000000000E+00 0.  1.
        -11    1    4    4    0    0  0.11518434952E-01  0.18259502584E-01  0.64663496275E-01  0.68174134757E-01  0.51100000000E-03 0. -1.
         11    1    4    4    0    0 -0.76088610379E-02  0.20637958346E-01  0.59912630257E-01  0.63824795153E-01  0.51100000000E-03 0.  1.
</event>
<event>
 8    1  0.1204770E+005  0.1043930E+01  0.7957747E-01            NaN
         13   -1    0    0    0    0  0.00000000000E+00  0.00000000000E+00  0.74505805969E-08  0.10566000000E+00  0.10566000000E+00 0. -1.
     999900   -1    0    0    0    0 -0.00000000000E+00 -0.00000000000E+00 -0.74505805969E-08  0.93827000000E+00  0.93827000000E+00 0. -1.
     999902    2    1    2    0    0  0.14747858102E-02  0.24222708157E-02  0.20984151817E-01  0.10227550852E+01  0.10225358611E+01 0.  0.
     999903    2    3    3    0    0 -0.40932809766E-02  0.13185855342E+00  0.19868048573E-02  0.13306657015E+00  0.17301203446E-01 0.  0.
         14    1    1    2    0    0 -0.14747858102E-02 -0.24222708157E-02 -0.20984151817E-01  0.21174914794E-01  0.00000000000E+00 0.  1.
     999901    1    3    3    0    0  0.55680667867E-02 -0.12943628260E+00  0.18997346959E-01  0.88968851505E+00  0.88000000000E+00 0.  1.
        -11    1    4    4    0    0 -0.80686484129E-02  0.39174206905E-01 -0.33670174139E-02  0.40141244389E-01  0.51100000000E-03 0.  1.
         11    1    4    4    0    0  0.39753674364E-02  0.92684346513E-01  0.53538222713E-02  0.92925325766E-01  0.51100000000E-03 0. -1.
</event>
<event>
 8    1  0.1204770E+005  0.1043930E+01  0.7957747E-01            NaN
         13   -1    0    0    0    0  0.00000000000E+00  0.00000000000E+00  0.74505805969E-08  0.10566000000E+00  0.10566000000E+00 0. -1.
     999900   -1    0    0    0    0 -0.00000000000E+00 -0.00000000000E+00 -0.74505805969E-08  0.93827000000E+00  0.93827000000E+00 0. -1.
     999902    2    1    2    0    0 -0.10814409036E-01  0.19795972057E-01  0.42307638170E-02  0.10209793722E+01  0.10207213857E+01 0.  0.
     999903    2    3    3    0    0 -0.13985675995E-01  0.96510966988E-01 -0.88022731604E-01  0.13283188741E+00  0.19655613741E-01 0.  0.
         14    1    1    2    0    0  0.10814409036E-01 -0.19795972057E-01 -0.42307638170E-02  0.22950627768E-01  0.00000000000E+00 0.  1.
     999901    1    3    3    0    0  0.31712669593E-02 -0.76714994931E-01  0.92253495421E-01  0.88814748482E+00  0.88000000000E+00 0.  1.
        -11    1    4    4    0    0 -0.23433658576E-02  0.46091550589E-01 -0.29812753176E-01  0.54945279799E-01  0.51100000000E-03 0.  1.
         11    1    4    4    0    0 -0.11642310138E-01  0.50419416398E-01 -0.58209978428E-01  0.77886607609E-01  0.51100000000E-03 0. -1.
</event>
<event>
 8    1  0.1204770E+005  0.1043930E+01  0.7957747E-01            NaN
         13   -1    0    0    0    0  0.00000000000E+00  0.00000000000E+00  0.74505805969E-08  0.10566000000E+00  0.10566000000E+00 0.  1.
     999900   -1    0    0    0    0 -0.00000000000E+00 -0.00000000000E+00 -0.74505805969E-08  0.93827000000E+00  0.93827000000E+00 0. -1.
     999902    2    1    2    0    0  0.92547989075E-02  0.14630036768E-01 -0.14869685129E-01  0.10211090269E+01  0.10208539797E+01 0.  0.
     999903    2    3    3    0    0 -0.97113952833E-01  0.69487114316E-01  0.49124358116E-01  0.13070527134E+00  0.20275268279E-01 0.  0.
         14    1    1    2    0    0 -0.92547989075E-02 -0.14630036768E-01  0.14869685129E-01  0.22820973127E-01  0.00000000000E+00 0. -1.
     999901    1    3    3    0    0  0.10636875174E+00 -0.54857077548E-01 -0.63994043245E-01  0.89040375554E+00  0.88000000000E+00 0. -1.
        -11    1    4    4    0    0 -0.29477369682E-01  0.14793847622E-01  0.56651418548E-02  0.33468316421E-01  0.51100000000E-03 0. -1.
         11    1    4    4    0    0 -0.67636583151E-01  0.54693266694E-01  0.43459216261E-01  0.97236954915E-01  0.51100000000E-03 0.  1.
</event>
<event>
 8    1  0.1204770E+005  0.1043930E+01  0.7957747E-01            NaN
         13   -1    0    0    0    0  0.00000000000E+00  0.00000000000E+00  0.74505805969E-08  0.10566000000E+00  0.10566000000E+00 0.  1.
     999900   -1    0    0    0    0 -0.00000000000E+00 -0.00000000000E+00 -0.74505805969E-08  0.93827000000E+00  0.93827000000E+00 0. -1.
     999902    2    1    2    0    0 -0.22350367543E-02  0.22477928792E-01  0.71030327655E-02  0.10202507739E+01  0.10199759487E+01 0.  0.
     999903    2    3    3    0    0  0.43197684508E-01 -0.59419368291E-01  0.10520270639E+00  0.12986049694E+00  0.19985944023E-01 0.  0.
         14    1    1    2    0    0  0.22350367543E-02 -0.22477928792E-01 -0.71030327655E-02  0.23679226054E-01  0.00000000000E+00 0.  1.
     999901    1    3    3    0    0 -0.45432721263E-01  0.81897297083E-01 -0.98099673620E-01  0.89039027701E+00  0.88000000000E+00 0. -1.
        -11    1    4    4    0    0  0.28388504194E-01 -0.22450774884E-01  0.46644985103E-01  0.59042020795E-01  0.51100000000E-03 0.  1.
         11    1    4    4    0    0  0.14809180314E-01 -0.36968593407E-01  0.58557721282E-01  0.70818476140E-01  0.51100000000E-03 0. -1.
</event>
<event>
 8    1  0.1204770E+005  0.1043930E+01  0.7957747E-01            NaN
         13   -1    0    0    0    0  0.00000000000E+00  0.00000000000E+00  0.74505805969E-08  0.10566000000E+00  0.10566000000E+00 0.  1.
     999900   -1    0    0    0    0 -0.00000000000E+00 -0.00000000000E+00 -0.74505805969E-08  0.93827000000E+00  0.93827000000E+00 0.  1.
     999902    2    1    2    0    0 -0.17275950266E-01  0.16248132529E-02 -0.15146045658E-01  0.10208973889E+01  0.10206375348E+01 0.  0.
     999903    2    3    3    0    0  0.97080148276E-01  0.64298936694E-01 -0.55241428643E-01  0.13038461370E+00  0.19738885559E-01 0.  0.
         14    1    1    2    0    0  0.17275950266E-01 -0.16248132529E-02  0.15146045658E-01  0.23032611115E-01  0.00000000000E+00 0.  1.
     999901    1    3    3    0    0 -0.11435609854E+00 -0.62674123441E-01  0.40095382985E-01  0.89051277518E+00  0.88000000000E+00 0. -1.
        -11    1    4    4    0    0  0.69392770140E-01  0.35240134030E-01 -0.39361650015E-01  0.87217109600E-01  0.51100000000E-03 0. -1.
         11    1    4    4    0    0  0.27687378137E-01  0.29058802664E-01 -0.15879778628E-01  0.43167504105E-01  0.51100000000E-03 0.  1.
</event>
<event>
 8    1  0.1204770E+005  0.1043930E+01  0.7957747E-01            NaN
         13   -1    0    0    0    0  0.00000000000E+00  0.00000000000E+00  0.74505805969E-08  0.10566000000E+00  0.10566000000E+00 0. -1.
     999900   -1    0    0    0    0 -0.00000000000E+00 -0.00000000000E+00 -0.74505805969E-08  0.93827000000E+00  0.93827000000E+00 0.  1.
     999902    2    1    2    0    0  0.16139475144E-02 -0.20644455389E-01  0.10642963938E-01  0.10206475807E+01  0.10203819937E+01 0.  0.
     999903    2    3    3    0    0 -0.67738371607E-01  0.90057989699E-01  0.60830079952E-01  0.12959005055E+00  0.19858350302E-01 0.  0.
         14    1    1    2    0    0 -0.16139475144E-02  0.20644455389E-01 -0.10642963938E-01  0.23282419253E-01  0.00000000000E+00 0.  1.
     999901    1    3    3    0    0  0.69352319121E-01 -0.11070244509E+00 -0.50187116014E-01  0.89105753020E+00  0.88000000000E+00 0. -1.
        -11    1    4    4    0    0 -0.37937397106E-01  0.39867864640E-01  0.20920198415E-01  0.58877912267E-01  0.51100000000E-03 0. -1.
         11    1    4    4    0    0 -0.29800974501E-01  0.50190125059E-01  0.39909881536E-01  0.70712138278E-01  0.51100000000E-03 0.  1.
</event>
<event>
 8    1  0.1204770E+005  0.1043930E+01  0.7957747E-01            NaN
         13   -1    0    0    0    0  0.00000000000E+00  0.00000000000E+00  0.74505805969E-08  0.10566000000E+00  0.10566000000E+00 0.  1.
     999900   -1    0    0    0    0 -0.00000000000E+00 -0.00000000000E+00 -0.74505805969E-08  0.93827000000E+00  0.93827000000E+00 0.  1.
     999902    2    1    2    0    0  0.91216321814E-02 -0.20895248572E-01 -0.30695647182E-02  0.10209248307E+01  0.10206656025E+01 0.  0.
     999903    2    3    3    0    0  0.46990013070E-01 -0.11304069889E+00  0.49836220432E-01  0.13372484176E+00  0.20308212688E-01 0.  0.
         14    1    1    2    0    0 -0.91216321814E-02  0.20895248572E-01  0.30695647182E-02  0.23005169291E-01  0.00000000000E+00 0. -1.
     999901    1    3    3    0    0 -0.37868380889E-01  0.92145450321E-01 -0.52905785150E-01  0.88719998895E+00  0.88000000000E+00 0.  1.
        -11    1    4    4    0    0  0.12472410673E-01 -0.27926021576E-01  0.22241383802E-01  0.37820153140E-01  0.51100000000E-03 0.  1.
         11    1    4    4    0    0  0.34517602397E-01 -0.85114677317E-01  0.27594836630E-01  0.95904688622E-01  0.51100000000E-03 0. -1.
</event>
<event>
 8    1  0.1204770E+005  0.1043930E+01  0.7957747E-01            NaN
         13   -1    0    0    0    0  0.00000000000E+00  0.00000000000E+00  0.74505805969E-08  0.10566000000E+00  0.10566000000E+00 0.  1.
     999900   -1    0    0    0    0 -0.00000000000E+00 -0.00000000000E+00 -0.74505805969E-08  0.93827000000E+00  0.93827000000E+00 0.  1.
     999902    2    1    2    0    0  0.51808984842E-02 -0.22578202134E-01  0.89209265281E-02  0.10191066269E+01  0.10188042585E+01 0.  0.
     999903    2    3    3    0    0 -0.78664244603E-01 -0.49184900658E-01  0.89194359180E-01  0.13108537244E+00  0.24910305631E-01 0.  0.
         14    1    1    2    0    0 -0.51808984842E-02  0.22578202134E-01 -0.89209265281E-02  0.24823373075E-01  0.00000000000E+00 0.  1.
     999901    1    3    3    0    0  0.83845143088E-01  0.26606698524E-01 -0.80273432652E-01  0.88802125448E+00  0.88000000000E+00 0.  1.
        -11    1    4    4    0    0 -0.27617273559E-01 -0.30147895896E-01  0.46088101805E-01  0.61611554718E-01  0.51100000000E-03 0.  1.
         11    1    4    4    0    0 -0.51046971044E-01 -0.19037004762E-01  0.43106257375E-01  0.69473817723E-01  0.51100000000E-03 0. -1.
</event>
<event>
 8    1  0.1204770E+005  0.1043930E+01  0.7957747E-01            NaN
         13   -1    0    0    0    0  0.00000000000E+00  0.00000000000E+00  0.74505805969E-08  0.10566000000E+00  0.10566000000E+00 0.  1.
     999900   -1    0    0    0    0 -0.00000000000E+00 -0.00000000000E+00 -0.74505805969E-08  0.93827000000E+00  0.93827000000E+00 0. -1.
     999902    2    1    2    0    0  0.13909805170E-01  0.21376422963E-02  0.18597435145E-01  0.10206079763E+01  0.10203414745E+01 0.  0.
     999903    2    3    3    0    0  0.11014134420E-01 -0.12774700573E+00  0.17150127096E-01  0.13106848793E+00  0.21076362096E-01 0.  0.
         14    1    1    2    0    0 -0.13909805170E-01 -0.21376422963E-02 -0.18597435145E-01  0.23322023678E-01  0.00000000000E+00 0. -1.
     999901    1    3    3    0    0  0.28956707503E-02  0.12988464803E+00  0.14473080485E-02  0.88953948839E+00  0.88000000000E+00 0.  1.
        -11    1    4    4    0    0  0.70013031753E-02 -0.64692366136E-01 -0.18210663168E-02  0.65097602766E-01  0.51100000000E-03 0.  1.
         11    1    4    4    0    0  0.40128312447E-02 -0.63054639597E-01  0.18971193413E-01  0.65970885167E-01  0.51100000000E-03 0. -1.
</event>
<event>
 8    1  0.1204770E+005  0.1043930E+01  0.7957747E-01            NaN
         13   -1    0    0    0    0  0.00000000000E+00  0.00000000000E+00  0.74505805969E-08  0.10566000000E+00  0.10566000000E+00 0. -1.
     999900   -1    0    0    0    0 -0.00000000000E+00 -0.00000000000E+00 -0.74505805969E-08  0.93827000000E+00  0.93827000000E+00 0. -1.
     999902    2    1    2    0    0 -0.93008418992E-02 -0.20439516567E-01  0.69513045276E-02  0.10204225516E+01  0.10201517454E+01 0.  0.
     999903    2    3    3    0    0  0.45939247227E-01 -0.57886909034E-01 -0.10590808401E+00  0.13070854345E+00  0.20171573994E-01 0.  0.
         14    1    1    2    0    0  0.93008418992E-02  0.20439516567E-01 -0.69513045276E-02  0.23507448440E-01  0.00000000000E+00 0. -1.
     999901    1    3    3    0    0 -0.55240089126E-01  0.37447392468E-01  0.11285938854E+00  0.88971400811E+00  0.88000000000E+00 0.  1.
        -11    1    4    4    0    0  0.19974787050E-01 -0.34367407277E-01 -0.70246821802E-01  0.80715474941E-01  0.51100000000E-03 0. -1.
         11    1    4    4    0    0  0.25964460177E-01 -0.23519501758E-01 -0.35661262212E-01  0.49993068507E-01  0.51100000000E-03 0.  1.
</event>
<event>
 8    1  0.1204770E+005  0.1043930E+01  0.7957747E-01            NaN
         13   -1    0    0    0    0  0.00000000000E+00  0.00000000000E+00  0.74505805969E-08  0.10566000000E+00  0.10566000000E+00 0. -1.
     999900   -1    0    0    0    0 -0.00000000000E+00 -0.00000000000E+00 -0.74505805969E-08  0.93827000000E+00  0.93827000000E+00 0. -1.
     999902    2    1    2    0    0  0.13914181878E-01 -0.18257298813E-01 -0.32647509654E-02  0.10207439694E+01  0.10204806020E+01 0.  0.
     999903    2    3    3    0    0 -0.93787123244E-01  0.11464332941E-01  0.85664861725E-01  0.12923321648E+00  0.20863851291E-01 0.  0.
         14    1    1    2    0    0 -0.13914181878E-01  0.18257298813E-01  0.32647509654E-02  0.23186030625E-01  0.00000000000E+00 0.  1.
     999901    1    3    3    0    0  0.10770130512E+00 -0.29721631754E-01 -0.88929612690E-01  0.89151075290E+00  0.88000000000E+00 0.  1.
        -11    1    4    4    0    0 -0.83620149052E-01  0.36231251302E-02  0.77035019428E-01  0.11375461179E+00  0.51100000000E-03 0. -1.
         11    1    4    4    0    0 -0.10166974192E-01  0.78412078106E-02  0.86298422970E-02  0.15478604692E-01  0.51100000000E-03 0.  1.
</event>
<event>
 8    1  0.1204770E+005  0.1043930E+01  0.7957747E-01            NaN
         13   -1    0    0    0    0  0.00000000000E+00  0.00000000000E+00  0.74505805969E-08  0.10566000000E+00  0.10566000000E+00 0.  1.
     999900   -1    0    0    0    0 -0.00000000000E+00 -0.00000000000E+00 -0.74505805969E-08  0.93827000000E+00  0.93827000000E+00 0.  1.
     999902    2    1    2    0    0 -0.16557462229E-01  0.12494056351E-01 -0.93484287735E-02  0.10211782062E+01  0.10209247204E+01 0.  0.
     999903    2    3    3    0    0  0.76828408613E-01 -0.10102430290E+00 -0.61482901534E-03  0.12894302729E+00  0.22746694803E-01 0.  0.
         14    1    1    2    0    0  0.16557462229E-01 -0.12494056351E-01  0.93484287735E-02  0.22751793778E-01  0.00000000000E+00 0.  1.
     999901    1    3    3    0    0 -0.93385870842E-01  0.11351835926E+00 -0.87335997582E-02  0.89223517893E+00  0.88000000000E+00 0. -1.
        -11    1    4    4    0    0  0.25057705976E-01 -0.47260666788E-01  0.68488195918E-02  0.53931685537E-01  0.51100000000E-03 0. -1.
         11    1    4    4    0    0  0.51770702637E-01 -0.53763636117E-01 -0.74636486071E-02  0.75011341753E-01  0.51100000000E-03 0.  1.
</event>
<event>
 8    1  0.1204770E+005  0.1043930E+01  0.7957747E-01            NaN
         13   -1    0    0    0    0  0.00000000000E+00  0.00000000000E+00  0.74505805969E-08  0.10566000000E+00  0.10566000000E+00 0.  1.
     999900   -1    0    0    0    0 -0.00000000000E+00 -0.00000000000E+00 -0.74505805969E-08  0.93827000000E+00  0.93827000000E+00 0.  1.
     999902    2    1    2    0    0  0.11615969783E-02  0.17354223317E-01  0.15224318891E-01  0.10208151074E+01  0.10205533721E+01 0.  0.
     999903    2    3    3    0    0 -0.11676342467E+00  0.56994706242E-01 -0.90730412528E-02  0.13173241139E+00  0.19723444257E-01 0.  0.
         14    1    1    2    0    0 -0.11615969783E-02 -0.17354223317E-01 -0.15224318891E-01  0.23114892606E-01  0.00000000000E+00 0.  1.
     999901    1    3    3    0    0  0.11792502165E+00 -0.39640482925E-01  0.24297360144E-01  0.88908269600E+00  0.88000000000E+00 0. -1.
        -11    1    4    4    0    0 -0.45871526648E-02  0.48230189247E-02 -0.42673400576E-02  0.79230545426E-02  0.51100000000E-03 0.  1.
         11    1    4    4    0    0 -0.11217627201E+00  0.52171687318E-01 -0.48057011952E-02  0.12380935685E+00  0.51100000000E-03 0. -1.
</event>
<event>
 8    1  0.1204770E+005  0.1043930E+01  0.7957747E-01            NaN
         13   -1    0    0    0    0  0.00000000000E+00  0.00000000000E+00  0.74505805969E-08  0.10566000000E+00  0.10566000000E+00 0.  1.
     999900   -1    0    0    0    0 -0.00000000000E+00 -0.00000000000E+00 -0.74505805969E-08  0.93827000000E+00  0.93827000000E+00 0.  1.
     999902    2    1    2    0    0 -0.12251946673E-01  0.18611397459E-01  0.11906300097E-02  0.10216160601E+01  0.10213723427E+01 0.  0.
     999903    2    3    3    0    0 -0.71398398596E-01 -0.25770591926E-01  0.10519393992E+00  0.13241149861E+00  0.26555324084E-01 0.  0.
         14    1    1    2    0    0  0.12251946673E-01 -0.18611397459E-01 -0.11906300097E-02  0.22313939869E-01  0.00000000000E+00 0. -1.
     999901    1    3    3    0    0  0.59146451923E-01  0.44381989385E-01 -0.10400330991E+00  0.88920456152E+00  0.88000000000E+00 0.  1.
        -11    1    4    4    0    0 -0.33879203959E-01 -0.26039608772E-01  0.60177314217E-01  0.73806720245E-01  0.51100000000E-03 0.  1.
         11    1    4    4    0    0 -0.37519194637E-01  0.26901684548E-03  0.45016625707E-01  0.58604778366E-01  0.51100000000E-03 0. -1.
</event>
<event>
 8    1  0.1204770E+005  0.1043930E+01  0.7957747E-01            NaN
         13   -1    0    0    0    0  0.00000000000E+00  0.00000000000E+00  0.74505805969E-08  0.10566000000E+00  0.10566000000E+00 0. -1.
     999900   -1    0    0    0    0 -0.00000000000E+00 -0.00000000000E+00 -0.74505805969E-08  0.93827000000E+00  0.93827000000E+00 0. -1.
     999902    2    1    2    0    0  0.91850404545E-02 -0.18634457036E-01  0.10048547658E-01  0.10208522777E+01  0.10205913931E+01 0.  0.
     999903    2    3    3    0    0  0.80982853273E-01  0.33430023541E-01 -0.94292022520E-01  0.13026113095E+00  0.20029671161E-01 0.  0.
         14    1    1    2    0    0 -0.91850404545E-02  0.18634457036E-01 -0.10048547658E-01  0.23077722314E-01  0.00000000000E+00 0. -1.
     999901    1    3    3    0    0 -0.71797812818E-01 -0.52064480577E-01  0.10434057018E+00  0.89059114674E+00  0.88000000000E+00 0.  1.
        -11    1    4    4    0    0  0.60351435647E-01  0.16394871725E-01 -0.72520720324E-01  0.95763268536E-01  0.51100000000E-03 0. -1.
         11    1    4    4    0    0  0.20631417626E-01  0.17035151816E-01 -0.21771302196E-01  0.34497862412E-01  0.51100000000E-03 0.  1.
</event>
<event>
 8    1  0.1204770E+005  0.1043930E+01  0.7957747E-01            NaN
         13   -1    0    0    0    0  0.00000000000E+00  0.00000000000E+00  0.74505805969E-08  0.10566000000E+00  0.10566000000E+00 0.  1.
     999900   -1    0    0    0    0 -0.00000000000E+00 -0.00000000000E+00 -0.74505805969E-08  0.93827000000E+00  0.93827000000E+00 0. -1.
     999902    2    1    2    0    0  0.15867957225E-01 -0.73811565871E-02 -0.14950228379E-01  0.10209129874E+01  0.10206534892E+01 0.  0.
     999903    2    3    3    0    0 -0.66594705970E-01  0.48320527000E-01 -0.10022694664E+00  0.13120804361E+00  0.20009539821E-01 0.  0.
         14    1    1    2    0    0 -0.15867957225E-01  0.73811565871E-02  0.14950228379E-01  0.23017012569E-01  0.00000000000E+00 0.  1.
     999901    1    3    3    0    0  0.82462663195E-01 -0.55701683587E-01  0.85276718259E-01  0.88970494382E+00  0.88000000000E+00 0.  1.
        -11    1    4    4    0    0 -0.27980947274E-01  0.28907583455E-01 -0.59458526729E-01  0.71792473933E-01  0.51100000000E-03 0.  1.
         11    1    4    4    0    0 -0.38613758695E-01  0.19412943545E-01 -0.40768419909E-01  0.59415569681E-01  0.51100000000E-03 0. -1.
</event>
<event>
 8    1  0.1204770E+005  0.1043930E+01  0.7957747E-01            NaN
         13   -1    0    0    0    0  0.00000000000E+00  0.00000000000E+00  0.74505805969E-08  0.10566000000E+00  0.10566000000E+00 0.  1.
     999900   -1    0    0    0    0 -0.00000000000E+00 -0.00000000000E+00 -0.74505805969E-08  0.93827000000E+00  0.93827000000E+00 0. -1.
     999902    2    1    2    0    0  0.12367143081E-01 -0.17948511794E-01  0.99115497026E-02  0.10199856036E+01  0.10197045147E+01 0.  0.
     999903    2    3    3    0    0 -0.11016472421E+00  0.45343789263E-01 -0.41612371990E-01  0.12775542676E+00  0.19938251639E-01 0.  0.
         14    1    1    2    0    0 -0.12367143081E-01  0.17948511794E-01 -0.99115497026E-02  0.23944396445E-01  0.00000000000E+00 0. -1.
     999901    1    3    3    0    0  0.12253186729E+00 -0.63292301057E-01  0.51523921693E-01  0.89223017679E+00  0.88000000000E+00 0.  1.
        -11    1    4    4    0    0 -0.63265254649E-01  0.36451370713E-01 -0.26638743569E-01  0.77724376181E-01  0.51100000000E-03 0. -1.
         11    1    4    4    0    0 -0.46899469564E-01  0.88924185498E-02 -0.14973628421E-01  0.50031050580E-01  0.51100000000E-03 0.  1.
</event>
<event>
 8    1  0.1204770E+005  0.1043930E+01  0.7957747E-01            NaN
         13   -1    0    0    0    0  0.00000000000E+00  0.00000000000E+00  0.74505805969E-08  0.10566000000E+00  0.10566000000E+00 0. -1.
     999900   -1    0    0    0    0 -0.00000000000E+00 -0.00000000000E+00 -0.74505805969E-08  0.93827000000E+00  0.93827000000E+00 0. -1.
     999902    2    1    2    0    0 -0.12341022218E-01  0.16949700300E-01  0.95552702465E-02  0.10208888117E+01  0.10206287618E+01 0.  0.
     999903    2    3    3    0    0  0.28520602456E-01  0.11709468039E+00  0.53049215523E-01  0.13320057098E+00  0.20089397735E-01 0.  0.
         14    1    1    2    0    0  0.12341022218E-01 -0.16949700300E-01 -0.95552702465E-02  0.23041188319E-01  0.00000000000E+00 0.  1.
     999901    1    3    3    0    0 -0.40861624674E-01 -0.10014498009E+00 -0.43493945277E-01  0.88768824070E+00  0.88000000000E+00 0.  1.
        -11    1    4    4    0    0  0.28089799990E-03  0.23299324088E-01  0.39874729113E-02  0.23645263117E-01  0.51100000000E-03 0. -1.
         11    1    4    4    0    0  0.28239704457E-01  0.93795356300E-01  0.49061742612E-01  0.10955530786E+00  0.51100000000E-03 0.  1.
</event>
<event>
 8    1  0.1204770E+005  0.1043930E+01  0.7957747E-01            NaN
         13   -1    0    0    0    0  0.00000000000E+00  0.00000000000E+00  0.74505805969E-08  0.10566000000E+00  0.10566000000E+00 0. -1.
     999900   -1    0    0    0    0 -0.00000000000E+00 -0.00000000000E+00 -0.74505805969E-08  0.93827000000E+00  0.93827000000E+00 0.  1.
     999902    2    1    2    0    0 -0.75213336731E-02  0.20174594533E-01 -0.94953291129E-02  0.10203981917E+01  0.10201268175E+01 0.  0.
     999903    2    3    3    0    0 -0.71130510040E-01  0.55326642154E-01 -0.95963916761E-01  0.13317859637E+00  0.20171227528E-01 0.  0.
         14    1    1    2    0    0  0.75213336731E-02 -0.20174594533E-01  0.94953291129E-02  0.23531808255E-01  0.00000000000E+00 0. -1.
     999901    1    3    3    0    0  0.63609176367E-01 -0.35152047621E-01  0.86468587648E-01  0.88721959538E+00  0.88000000000E+00 0. -1.
        -11    1    4    4    0    0 -0.16991903603E-01  0.65710089021E-02 -0.11142520616E-01  0.21361643961E-01  0.51100000000E-03 0.  1.
         11    1    4    4    0    0 -0.54138606438E-01  0.48755633252E-01 -0.84821396145E-01  0.11181695241E+00  0.51100000000E-03 0. -1.
</event>
<event>
 8    1  0.1204770E+005  0.1043930E+01  0.7957747E-01            NaN
         13   -1    0    0    0    0  0.00000000000E+00  0.00000000000E+00  0.74505805969E-08  0.10566000000E+00  0.10566000000E+00 0. -1.
     999900   -1    0    0    0    0 -0.00000000000E+00 -0.00000000000E+00 -0.74505805969E-08  0.93827000000E+00  0.93827000000E+00 0.  1.
     999902    2    1    2    0    0 -0.36421723405E-02  0.14289628999E-01 -0.18401883969E-01  0.10203484765E+01  0.10200759409E+01 0.  0.
     999903    2    3    3    0    0  0.98728404070E-01 -0.69796573201E-01 -0.43788927082E-01  0.13007058379E+00  0.19545516927E-01 0.  0.
         14    1    1    2    0    0  0.36421723405E-02 -0.14289628999E-01  0.18401883969E-01  0.23581523485E-01  0.00000000000E+00 0. -1.
     999901    1    3    3    0    0 -0.10237057641E+00  0.84086202199E-01  0.25387043113E-01  0.89027789272E+00  0.88000000000E+00 0. -1.
        -11    1    4    4    0    0  0.63808885896E-01 -0.42952512699E-01 -0.37504127903E-01  0.85576357700E-01  0.51100000000E-03 0. -1.
         11    1    4    4    0    0  0.34919518174E-01 -0.26844060501E-01 -0.62847991793E-02  0.44494226090E-01  0.51100000000E-03 0.  1.
</event>
<event>
 8    1  0.1204770E+005  0.1043930E+01  0.7957747E-01            NaN
         13   -1    0    0    0    0  0.00000000000E+00  0.00000000000E+00  0.74505805969E-08  0.10566000000E+00  0.10566000000E+00 0. -1.
     999900   -1    0    0    0    0 -0.00000000000E+00 -0.00000000000E+00 -0.74505805969E-08  0.93827000000E+00  0.93827000000E+00 0. -1.
     999902    2    1    2    0    0 -0.24387586081E-01 -0.38727913961E-02  0.24248474321E-01  0.10093215996E+01  0.10087280853E+01 0.  0.
     999903    2    3    3    0    0 -0.11810417114E+00  0.27805760640E-01 -0.73716780305E-02  0.12321429068E+00  0.20141107839E-01 0.  0.
         14    1    1    2    0    0  0.24387586081E-01  0.38727913961E-02 -0.24248474321E-01  0.34608400352E-01  0.00000000000E+00 0.  1.
     999901    1    3    3    0    0  0.93716585059E-01 -0.31678552036E-01  0.31620152351E-01  0.88610730897E+00  0.88000000000E+00 0.  1.
        -11    1    4    4    0    0 -0.67709870080E-01  0.80068624652E-02 -0.10453139455E-01  0.68980182649E-01  0.51100000000E-03 0. -1.
         11    1    4    4    0    0 -0.50394301060E-01  0.19798898175E-01  0.30814614247E-02  0.54234108029E-01  0.51100000000E-03 0.  1.
</event>
<event>
 8    1  0.1204770E+005  0.1043930E+01  0.7957747E-01            NaN
         13   -1    0    0    0    0  0.00000000000E+00  0.00000000000E+00  0.74505805969E-08  0.10566000000E+00  0.10566000000E+00 0.  1.
     999900   -1    0    0    0    0 -0.00000000000E+00 -0.00000000000E+00 -0.74505805969E-08  0.93827000000E+00  0.93827000000E+00 0. -1.
     999902    2    1    2    0    0  0.23241598675E-01  0.50532059372E-02 -0.83227864642E-02  0.10187312783E+01  0.10184195805E+01 0.  0.
     999903    2    3    3    0    0 -0.86445580411E-01  0.38085688043E-01 -0.84505496978E-01  0.12804265288E+00  0.18176466387E-01 0.  0.
         14    1    1    2    0    0 -0.23241598675E-01 -0.50532059372E-02  0.83227864642E-02  0.25198721669E-01  0.00000000000E+00 0.  1.
     999901    1    3    3    0    0  0.10968717909E+00 -0.33032482106E-01  0.76182710514E-01  0.89068862545E+00  0.88000000000E+00 0.  1.
        -11    1    4    4    0    0 -0.71008350497E-01  0.37280260259E-01 -0.75486584784E-01  0.11013850030E+00  0.51100000000E-03 0.  1.
         11    1    4    4    0    0 -0.15437229914E-01  0.80542778414E-03 -0.90189121936E-02  0.17904152577E-01  0.51100000000E-03 0. -1.
</event>
<event>
 8    1  0.1204770E+005  0.1043930E+01  0.7957747E-01            NaN
         13   -1    0    0    0    0  0.00000000000E+00  0.00000000000E+00  0.74505805969E-08  0.10566000000E+00  0.10566000000E+00 0. -1.
     999900   -1    0    0    0    0 -0.00000000000E+00 -0.00000000000E+00 -0.74505805969E-08  0.93827000000E+00  0.93827000000E+00 0. -1.
     999902    2    1    2    0    0  0.47867999187E-02 -0.14153799942E-01  0.19450381005E-01  0.10194032630E+01  0.10191081649E+01 0.  0.
     999903    2    3    3    0    0 -0.17406437360E-01  0.12526252103E+00  0.32722184486E-02  0.12800482051E+00  0.19515210078E-01 0.  0.
         14    1    1    2    0    0 -0.47867999187E-02  0.14153799942E-01 -0.19450381005E-01  0.24526736993E-01  0.00000000000E+00 0.  1.
     999901    1    3    3    0    0  0.22193237278E-01 -0.13941632097E+00  0.16178162557E-01  0.89139844249E+00  0.88000000000E+00 0. -1.
        -11    1    4    4    0    0 -0.19898434183E-01  0.90548036647E-01 -0.23838569494E-02  0.92740705833E-01  0.51100000000E-03 0.  1.
         11    1    4    4    0    0  0.24919968231E-02  0.34714484385E-01  0.56560753980E-02  0.35264114681E-01  0.51100000000E-03 0. -1.
</event>
<event>
 8    1  0.1204770E+005  0.1043930E+01  0.7957747E-01            NaN
         13   -1    0    0    0    0  0.00000000000E+00  0.00000000000E+00  0.74505805969E-08  0.10566000000E+00  0.10566000000E+00 0.  1.
     999900   -1    0    0    0    0 -0.00000000000E+00 -0.00000000000E+00 -0.74505805969E-08  0.93827000000E+00  0.93827000000E+00 0.  1.
     999902    2    1    2    0    0 -0.17359206441E-01 -0.79245412310E-03 -0.13865580623E-01  0.10216988426E+01  0.10214569500E+01 0.  0.
     999903    2    3    3    0    0 -0.64158021517E-02 -0.12026369181E+00  0.48542100782E-01  0.13136864915E+00  0.19921554805E-01 0.  0.
         14    1    1    2    0    0  0.17359206441E-01  0.79245412310E-03  0.13865580623E-01  0.22231157366E-01  0.00000000000E+00 0.  1.
     999901    1    3    3    0    0 -0.10943404290E-01  0.11947123769E+00 -0.62407681405E-01  0.89033019348E+00  0.88000000000E+00 0. -1.
        -11    1    4    4    0    0 -0.72108823395E-02 -0.10281717677E+00  0.33690765495E-01  0.10843752793E+00  0.51100000000E-03 0. -1.
         11    1    4    4    0    0  0.79508018778E-03 -0.17446515042E-01  0.14851335286E-01  0.22931121220E-01  0.51100000000E-03 0.  1.
</event>
<event>
 8    1  0.1204770E+005  0.1043930E+01  0.7957747E-01            NaN
         13   -1    0    0    0    0  0.00000000000E+00  0.00000000000E+00  0.74505805969E-08  0.10566000000E+00  0.10566000000E+00 0.  1.
     999900   -1    0    0    0    0 -0.00000000000E+00 -0.00000000000E+00 -0.74505805969E-08  0.93827000000E+00  0.93827000000E+00 0. -1.
     999902    2    1    2    0    0  0.21455426276E-01 -0.10630552613E-01 -0.63830076288E-02  0.10191492262E+01  0.10188479074E+01 0.  0.
     999903    2    3    3    0    0  0.82084857460E-01  0.34005719051E-04 -0.10024787255E+00  0.13201886731E+00  0.25326278729E-01 0.  0.
         14    1    1    2    0    0 -0.21455426276E-01  0.10630552613E-01  0.63830076288E-02  0.24780773836E-01  0.00000000000E+00 0.  1.
     999901    1    3    3    0    0 -0.60629431184E-01 -0.10664558332E-01  0.93864864924E-01  0.88713035885E+00  0.88000000000E+00 0.  1.
        -11    1    4    4    0    0  0.35515155817E-01 -0.12408608099E-01 -0.41251102791E-01  0.55832019936E-01  0.51100000000E-03 0.  1.
         11    1    4    4    0    0  0.46569701643E-01  0.12442613818E-01 -0.58996769762E-01  0.76186847376E-01  0.51100000000E-03 0. -1.
</event>
<event>
 8    1  0.1204770E+005  0.1043930E+01  0.7957747E-01            NaN
         13   -1    0    0    0    0  0.00000000000E+00  0.00000000000E+00  0.74505805969E-08  0.10566000000E+00  0.10566000000E+00 0.  1.
     999900   -1    0    0    0    0 -0.00000000000E+00 -0.00000000000E+00 -0.74505805969E-08  0.93827000000E+00  0.93827000000E+00 0. -1.
     999902    2    1    2    0    0  0.18369547674E-01 -0.13705132651E-01 -0.10032071157E-01  0.10189117388E+01  0.10186045445E+01 0.  0.
     999903    2    3    3    0    0  0.10535755086E+00  0.34807204722E-02  0.73653499521E-01  0.13050555860E+00  0.22238118070E-01 0.  0.
         14    1    1    2    0    0 -0.18369547674E-01  0.13705132651E-01  0.10032071157E-01  0.25018261219E-01  0.00000000000E+00 0.  1.
     999901    1    3    3    0    0 -0.86988003186E-01 -0.17185853124E-01 -0.83685570678E-01  0.88840618018E+00  0.88000000000E+00 0. -1.
        -11    1    4    4    0    0  0.81522399159E-01  0.26043849050E-02  0.67485846516E-01  0.10586446517E+00  0.51100000000E-03 0. -1.
         11    1    4    4    0    0  0.23835151701E-01  0.87633556719E-03  0.61676530053E-02  0.24641093426E-01  0.51100000000E-03 0.  1.
</event>
<event>
 8    1  0.1204770E+005  0.1043930E+01  0.7957747E-01            NaN
         13   -1    0    0    0    0  0.00000000000E+00  0.00000000000E+00  0.74505805969E-08  0.10566000000E+00  0.10566000000E+00 0. -1.
     999900   -1    0    0    0    0 -0.00000000000E+00 -0.00000000000E+00 -0.74505805969E-08  0.93827000000E+00  0.93827000000E+00 0.  1.
     999902    2    1    2    0    0 -0.21018851026E-01  0.71844031670E-02 -0.76500457890E-02  0.10204367893E+01  0.10201663149E+01 0.  0.
     999903    2    3    3    0    0  0.79915385984E-01  0.97916513726E-01  0.20808385651E-01  0.12957769923E+00  0.19577503575E-01 0.  0.
         14    1    1    2    0    0  0.21018851026E-01 -0.71844031670E-02  0.76500457890E-02  0.23493210677E-01  0.00000000000E+00 0. -1.
     999901    1    3    3    0    0 -0.10093423701E+00 -0.90732110559E-01 -0.28458431440E-01  0.89085909010E+00  0.88000000000E+00 0.  1.
        -11    1    4    4    0    0  0.49158273029E-01  0.71645444773E-01  0.85566184592E-02  0.87310265171E-01  0.51100000000E-03 0.  1.
         11    1    4    4    0    0  0.30757112955E-01  0.26271068953E-01  0.12251767191E-01  0.42267434055E-01  0.51100000000E-03 0. -1.
</event>
<event>
 8    1  0.1204770E+005  0.1043930E+01  0.7957747E-01            NaN
         13   -1    0    0    0    0  0.00000000000E+00  0.00000000000E+00  0.74505805969E-08  0.10566000000E+00  0.10566000000E+00 0. -1.
     999900   -1    0    0    0    0 -0.00000000000E+00 -0.00000000000E+00 -0.74505805969E-08  0.93827000000E+00  0.93827000000E+00 0. -1.
     999902    2    1    2    0    0 -0.17098804896E-01 -0.84228068107E-02  0.12696416573E-01  0.10210277775E+01  0.10207708903E+01 0.  0.
     999903    2    3    3    0    0 -0.55682108658E-01 -0.64966166755E-01  0.10128807122E+00  0.13393460076E+00  0.18923632365E-01 0.  0.
         14    1    1    2    0    0  0.17098804896E-01  0.84228068107E-02 -0.12696416573E-01  0.22902222539E-01  0.00000000000E+00 0.  1.
     999901    1    3    3    0    0  0.38583303762E-01  0.56543359944E-01 -0.88591654643E-01  0.88709317670E+00  0.88000000000E+00 0. -1.
        -11    1    4    4    0    0 -0.29262666148E-01 -0.28089126807E-01  0.61024330598E-01  0.73277095471E-01  0.51100000000E-03 0. -1.
         11    1    4    4    0    0 -0.26419442510E-01 -0.36877039948E-01  0.40263740617E-01  0.60657505285E-01  0.51100000000E-03 0.  1.
</event>
<event>
 8    1  0.1204770E+005  0.1043930E+01  0.7957747E-01            NaN
         13   -1    0    0    0    0  0.00000000000E+00  0.00000000000E+00  0.74505805969E-08  0.10566000000E+00  0.10566000000E+00 0.  1.
     999900   -1    0    0    0    0 -0.00000000000E+00 -0.00000000000E+00 -0.74505805969E-08  0.93827000000E+00  0.93827000000E+00 0. -1.
     999902    2    1    2    0    0 -0.80328345394E-02 -0.23347300185E-01  0.12356154522E-02  0.10192085599E+01  0.10189087000E+01 0.  0.
     999903    2    3    3    0    0 -0.45753201297E-02 -0.77113567306E-01  0.10435803302E+00  0.13155040557E+00  0.21153589117E-01 0.  0.
         14    1    1    2    0    0  0.80328345394E-02  0.23347300185E-01 -0.12356154522E-02  0.24721440133E-01  0.00000000000E+00 0. -1.
     999901    1    3    3    0    0 -0.34575144096E-02  0.53766267121E-01 -0.10312241757E+00  0.88765815430E+00  0.88000000000E+00 0. -1.
        -11    1    4    4    0    0 -0.45306184219E-02 -0.28113534290E-01  0.55342310692E-01  0.62240901241E-01  0.51100000000E-03 0. -1.
         11    1    4    4    0    0 -0.44701707803E-04 -0.49000033016E-01  0.49015722329E-01  0.69309504329E-01  0.51100000000E-03 0.  1.
</event>
<event>
 8    1  0.1204770E+005  0.1043930E+01  0.7957747E-01            NaN
         13   -1    0    0    0    0  0.00000000000E+00  0.00000000000E+00  0.74505805969E-08  0.10566000000E+00  0.10566000000E+00 0.  1.
     999900   -1    0    0    0    0 -0.00000000000E+00 -0.00000000000E+00 -0.74505805969E-08  0.93827000000E+00  0.93827000000E+00 0. -1.
     999902    2    1    2    0    0 -0.24280144164E-01  0.45812341790E-02  0.45579090868E-02  0.10188045618E+01  0.10184946969E+01 0.  0.
     999903    2    3    3    0    0  0.49763758305E-01 -0.74475163378E-01  0.89669261923E-01  0.12808779661E+00  0.18518247924E-01 0.  0.
         14    1    1    2    0    0  0.24280144164E-01 -0.45812341790E-02 -0.45579090868E-02  0.25125438154E-01  0.00000000000E+00 0. -1.
     999901    1    3    3    0    0 -0.74043902468E-01  0.79056397557E-01 -0.85111352836E-01  0.89071676523E+00  0.88000000000E+00 0. -1.
        -11    1    4    4    0    0  0.14685172004E-01 -0.37250179902E-01  0.44289440460E-01  0.59708004796E-01  0.51100000000E-03 0.  1.
         11    1    4    4    0    0  0.35078586300E-01 -0.37224983476E-01  0.45379821463E-01  0.68379791815E-01  0.51100000000E-03 0. -1.
</event>
<event>
 8    1  0.1204770E+005  0.1043930E+01  0.7957747E-01            NaN
         13   -1    0    0    0    0  0.00000000000E+00  0.00000000000E+00  0.74505805969E-08  0.10566000000E+00  0.10566000000E+00 0. -1.
     999900   -1    0    0    0    0 -0.00000000000E+00 -0.00000000000E+00 -0.74505805969E-08  0.93827000000E+00  0.93827000000E+00 0. -1.
     999902    2    1    2    0    0  0.22680535766E-01  0.67959846531E-02  0.43440934987E-02  0.10198579569E+01  0.10195738272E+01 0.  0.
     999903    2    3    3    0    0 -0.24710039054E-01 -0.24072064742E-01 -0.12287744029E+00  0.12891237961E+00  0.18151747931E-01 0.  0.
         14    1    1    2    0    0 -0.22680535766E-01 -0.67959846531E-02 -0.43440934987E-02  0.24072043086E-01  0.00000000000E+00 0. -1.
     999901    1    3    3    0    0  0.47390574819E-01  0.30868049395E-01  0.12722153379E+00  0.89094557730E+00  0.88000000000E+00 0.  1.
        -11    1    4    4    0    0 -0.21842372570E-01 -0.97163347799E-02 -0.66698191426E-01  0.70854825253E-01  0.51100000000E-03 0.  1.
         11    1    4    4    0    0 -0.28676664836E-02 -0.14355729962E-01 -0.56179248867E-01  0.58057554358E-01  0.51100000000E-03 0. -1.
</event>
<event>
 8    1  0.1204770E+005  0.1043930E+01  0.7957747E-01            NaN
         13   -1    0    0    0    0  0.00000000000E+00  0.00000000000E+00  0.74505805969E-08  0.10566000000E+00  0.10566000000E+00 0.  1.
     999900   -1    0    0    0    0 -0.00000000000E+00 -0.00000000000E+00 -0.74505805969E-08  0.93827000000E+00  0.93827000000E+00 0.  1.
     999902    2    1    2    0    0 -0.21689066114E-01  0.82804569918E-02  0.24327858403E-02  0.10205869067E+01  0.10203199176E+01 0.  0.
     999903    2    3    3    0    0 -0.12117192393E+00 -0.49307527650E-01 -0.12499557086E-01  0.13298553795E+00  0.20372700958E-01 0.  0.
         14    1    1    2    0    0  0.21689066114E-01 -0.82804569918E-02 -0.24327858403E-02  0.23343093279E-01  0.00000000000E+00 0. -1.
     999901    1    3    3    0    0  0.99482857819E-01  0.57587984641E-01  0.14932342926E-01  0.88760136877E+00  0.88000000000E+00 0. -1.
        -11    1    4    4    0    0 -0.88517957183E-01 -0.45434165008E-01 -0.10149212099E-01  0.10001479751E+00  0.51100000000E-03 0. -1.
         11    1    4    4    0    0 -0.32653966751E-01 -0.38733626418E-02 -0.23503449873E-02  0.32970740442E-01  0.51100000000E-03 0.  1.
</event>
<event>
 8    1  0.1204770E+005  0.1043930E+01  0.7957747E-01            NaN
         13   -1    0    0    0    0  0.00000000000E+00  0.00000000000E+00  0.74505805969E-08  0.10566000000E+00  0.10566000000E+00 0.  1.
     999900   -1    0    0    0    0 -0.00000000000E+00 -0.00000000000E+00 -0.74505805969E-08  0.93827000000E+00  0.93827000000E+00 0. -1.
     999902    2    1    2    0    0  0.22801510447E-01 -0.12645489366E-01 -0.27826871201E-03  0.10178552092E+01  0.10175211704E+01 0.  0.
     999903    2    3    3    0    0  0.33614415474E-01 -0.11736126432E+00 -0.42284409684E-01  0.13058589932E+00  0.19002907889E-01 0.  0.
         14    1    1    2    0    0 -0.22801510447E-01  0.12645489366E-01  0.27826871201E-03  0.26074790766E-01  0.00000000000E+00 0.  1.
     999901    1    3    3    0    0 -0.10812905027E-01  0.10471577495E+00  0.42006140972E-01  0.88726930992E+00  0.88000000000E+00 0.  1.
        -11    1    4    4    0    0  0.23954261205E-01 -0.59165975384E-01 -0.14915804171E-01  0.65552739135E-01  0.51100000000E-03 0.  1.
         11    1    4    4    0    0  0.96601542691E-02 -0.58195288935E-01 -0.27368605513E-01  0.65033160184E-01  0.51100000000E-03 0. -1.
</event>
<event>
 8    1  0.1204770E+005  0.1043930E+01  0.7957747E-01            NaN
         13   -1    0    0    0    0  0.00000000000E+00  0.00000000000E+00  0.74505805969E-08  0.10566000000E+00  0.10566000000E+00 0. -1.
     999900   -1    0    0    0    0 -0.00000000000E+00 -0.00000000000E+00 -0.74505805969E-08  0.93827000000E+00  0.93827000000E+00 0.  1.
     999902    2    1    2    0    0 -0.15488045631E-01  0.70802620726E-03 -0.22508011418E-01  0.10165988559E+01  0.10162313922E+01 0.  0.
     999903    2    3    3    0    0  0.41999988239E-02  0.12561285745E+00 -0.28453795103E-02  0.12734329364E+00  0.20297495020E-01 0.  0.
         14    1    1    2    0    0  0.15488045631E-01 -0.70802620726E-03  0.22508011418E-01  0.27331144077E-01  0.00000000000E+00 0. -1.
     999901    1    3    3    0    0 -0.19688044455E-01 -0.12490483124E+00 -0.19662631908E-01  0.88925556228E+00  0.88000000000E+00 0.  1.
        -11    1    4    4    0    0  0.41805791788E-02  0.37682652894E-01  0.79794754532E-02  0.38747809240E-01  0.51100000000E-03 0.  1.
         11    1    4    4    0    0  0.19419645151E-04  0.87930204552E-01 -0.10824854964E-01  0.88595484397E-01  0.51100000000E-03 0. -1.
</event>
<event>
 8    1  0.1204770E+005  0.1043930E+01  0.7957747E-01            NaN
         13   -1    0    0    0    0  0.00000000000E+00  0.00000000000E+00  0.74505805969E-08  0.10566000000E+00  0.10566000000E+00 0.  1.
     999900   -1    0    0    0    0 -0.00000000000E+00 -0.00000000000E+00 -0.74505805969E-08  0.93827000000E+00  0.93827000000E+00 0. -1.
     999902    2    1    2    0    0  0.49966294647E-02 -0.13781140185E-02 -0.26647908898E-01  0.10167826879E+01  0.10164202172E+01 0.  0.
     999903    2    3    3    0    0 -0.95379439637E-01  0.82910753651E-01 -0.77396479107E-02  0.12687398991E+00  0.81041094755E-02 0.  0.
         14    1    1    2    0    0 -0.49966294647E-02  0.13781140185E-02  0.26647908898E-01  0.27147312075E-01  0.00000000000E+00 0.  1.
     999901    1    3    3    0    0  0.10037606910E+00 -0.84288867670E-01 -0.18908260988E-01  0.88990869801E+00  0.88000000000E+00 0.  1.
        -11    1    4    4    0    0 -0.93827563649E-01  0.80417160740E-01 -0.82470539693E-02  0.12384993525E+00  0.51100000000E-03 0. -1.
         11    1    4    4    0    0 -0.15518759885E-02  0.24935929114E-02  0.50740605864E-03  0.30240546622E-02  0.51100000000E-03 0.  1.
</event>
<event>
 8    1  0.1204770E+005  0.1043930E+01  0.7957747E-01            NaN
         13   -1    0    0    0    0  0.00000000000E+00  0.00000000000E+00  0.74505805969E-08  0.10566000000E+00  0.10566000000E+00 0.  1.
     999900   -1    0    0    0    0 -0.00000000000E+00 -0.00000000000E+00 -0.74505805969E-08  0.93827000000E+00  0.93827000000E+00 0. -1.
     999902    2    1    2    0    0  0.14319987913E-01  0.30900267495E-01  0.35739661321E-02  0.10096858499E+01  0.10091049765E+01 0.  0.
     999903    2    3    3    0    0  0.28466126875E-01 -0.18347119729E-01 -0.11381135522E+00  0.12041382620E+00  0.19988191040E-01 0.  0.
         14    1    1    2    0    0 -0.14319987913E-01 -0.30900267495E-01 -0.35739661321E-02  0.34244150143E-01  0.00000000000E+00 0.  1.
     999901    1    3    3    0    0 -0.14146138961E-01  0.49247387224E-01  0.11738532135E+00  0.88927202366E+00  0.88000000000E+00 0.  1.
        -11    1    4    4    0    0  0.81172586436E-02 -0.14998024995E-01 -0.69065713131E-01  0.71141861748E-01  0.51100000000E-03 0. -1.
         11    1    4    4    0    0  0.20348868231E-01 -0.33490947340E-02 -0.44745642088E-01  0.49271964449E-01  0.51100000000E-03 0.  1.
</event>
<event>
 8    1  0.1204770E+005  0.1043930E+01  0.7957747E-01            NaN
         13   -1    0    0    0    0  0.00000000000E+00  0.00000000000E+00  0.74505805969E-08  0.10566000000E+00  0.10566000000E+00 0. -1.
     999900   -1    0    0    0    0 -0.00000000000E+00 -0.00000000000E+00 -0.74505805969E-08  0.93827000000E+00  0.93827000000E+00 0. -1.
     999902    2    1    2    0    0  0.17524860666E-02  0.15154359497E-01  0.18178082352E-01  0.10201988286E+01  0.10199227820E+01 0.  0.
     999903    2    3    3    0    0 -0.19518926688E-01  0.11506430410E+00  0.61102814064E-01  0.13325068882E+00  0.20035209158E-01 0.  0.
         14    1    1    2    0    0 -0.17524860666E-02 -0.15154359497E-01 -0.18178082352E-01  0.23731171424E-01  0.00000000000E+00 0.  1.
     999901    1    3    3    0    0  0.21271412755E-01 -0.99909944604E-01 -0.42924731712E-01  0.88694813976E+00  0.88000000000E+00 0. -1.
        -11    1    4    4    0    0  0.12684570488E-02  0.49781212988E-01  0.28439472034E-01  0.57348433636E-01  0.51100000000E-03 0.  1.
         11    1    4    4    0    0 -0.20787383737E-01  0.65283091113E-01  0.32663342029E-01  0.75902255180E-01  0.51100000000E-03 0. -1.
</event>
<event>
 8    1  0.1204770E+005  0.1043930E+01  0.7957747E-01            NaN
         13   -1    0    0    0    0  0.00000000000E+00  0.00000000000E+00  0.74505805969E-08  0.10566000000E+00  0.10566000000E+00 0.  1.
     999900   -1    0    0    0    0 -0.00000000000E+00 -0.00000000000E+00 -0.74505805969E-08  0.93827000000E+00  0.93827000000E+00 0. -1.
     999902    2    1    2    0    0  0.22978200899E-02  0.34192994878E-02 -0.23892013059E-01  0.10196854156E+01  0.10193971487E+01 0.  0.
     999903    2    3    3    0    0  0.48236583654E-01  0.49397012924E-01  0.10518278741E+00  0.12789809550E+00  0.22971094364E-01 0.  0.
         14    1    1    2    0    0 -0.22978200899E-02 -0.34192994878E-02  0.23892013059E-01  0.24244584430E-01  0.00000000000E+00 0.  1.
     999901    1    3    3    0    0 -0.45938763564E-01 -0.45977713437E-01 -0.12907480047E+00  0.89178732007E+00  0.88000000000E+00 0. -1.
        -11    1    4    4    0    0  0.41796120393E-01  0.45491906830E-01  0.10288243473E+00  0.12000619053E+00  0.51100000000E-03 0. -1.
         11    1    4    4    0    0  0.64404632604E-02  0.39051060939E-02  0.23003526727E-02  0.78919049685E-02  0.51100000000E-03 0.  1.
</event>
<event>
 8    1  0.1204770E+005  0.1043930E+01  0.7957747E-01            NaN
         13   -1    0    0    0    0  0.00000000000E+00  0.00000000000E+00  0.74505805969E-08  0.10566000000E+00  0.10566000000E+00 0. -1.
     999900   -1    0    0    0    0 -0.00000000000E+00 -0.00000000000E+00 -0.74505805969E-08  0.93827000000E+00  0.93827000000E+00 0. -1.
     999902    2    1    2    0    0  0.14027199667E-01  0.14661670031E-01 -0.13365598506E-01  0.10196325491E+01  0.10193430085E+01 0.  0.
     999903    2    3    3    0    0  0.42600761429E-01  0.11849856783E+00  0.33455492086E-01  0.13183146532E+00  0.20088052310E-01 0.  0.
         14    1    1    2    0    0 -0.14027199667E-01 -0.14661670031E-01  0.13365598506E-01  0.24297450937E-01  0.00000000000E+00 0. -1.
     999901    1    3    3    0    0 -0.28573561762E-01 -0.10383689780E+00 -0.46821090592E-01  0.88780108375E+00  0.88000000000E+00 0. -1.
        -11    1    4    4    0    0  0.32973329198E-01  0.70487062942E-01  0.27332369973E-01  0.82480216112E-01  0.51100000000E-03 0.  1.
         11    1    4    4    0    0  0.96274322306E-02  0.48011504885E-01  0.61231221137E-02  0.49351249205E-01  0.51100000000E-03 0. -1.
</event>
<event>
 8    1  0.1204770E+005  0.1043930E+01  0.7957747E-01            NaN
         13   -1    0    0    0    0  0.00000000000E+00  0.00000000000E+00  0.74505805969E-08  0.10566000000E+00  0.10566000000E+00 0.  1.
     999900   -1    0    0    0    0 -0.00000000000E+00 -0.00000000000E+00 -0.74505805969E-08  0.93827000000E+00  0.93827000000E+00 0.  1.
     999902    2    1    2    0    0 -0.17787657819E-01  0.17907076189E-01 -0.91574863119E-02  0.10170799776E+01  0.10167255073E+01 0.  0.
     999903    2    3    3    0    0 -0.96265980593E-01 -0.13942320109E-01  0.80712626802E-01  0.12845752208E+00  0.22918977815E-01 0.  0.
         14    1    1    2    0    0  0.17787657819E-01 -0.17907076189E-01  0.91574863119E-02  0.26850022419E-01  0.00000000000E+00 0. -1.
     999901    1    3    3    0    0  0.78478322774E-01  0.31849396298E-01 -0.89870113114E-01  0.88862245550E+00  0.88000000000E+00 0. -1.
        -11    1    4    4    0    0 -0.90553894491E-01 -0.15359597768E-01  0.67499897196E-01  0.11398430723E+00  0.51100000000E-03 0.  1.
         11    1    4    4    0    0 -0.57120861020E-02  0.14172776589E-02  0.13212729606E-01  0.14473214855E-01  0.51100000000E-03 0. -1.
</event>
<event>
 8    1  0.1204770E+005  0.1043930E+01  0.7957747E-01            NaN
         13   -1    0    0    0    0  0.00000000000E+00  0.00000000000E+00  0.74505805969E-08  0.10566000000E+00  0.10566000000E+00 0.  1.
     999900   -1    0    0    0    0 -0.00000000000E+00 -0.00000000000E+00 -0.74505805969E-08  0.93827000000E+00  0.93827000000E+00 0. -1.
     999902    2    1    2    0    0  0.22582803251E-01 -0.43091765747E-02 -0.63849706638E-02  0.10200695755E+01  0.10197904780E+01 0.  0.
     999903    2    3    3    0    0  0.79411090294E-01  0.34451670746E-01 -0.98721921827E-01  0.13256860649E+00  0.18313347577E-01 0.  0.
         14    1    1    2    0    0 -0.22582803251E-01  0.43091765747E-02  0.63849706638E-02  0.23860424468E-01  0.00000000000E+00 0. -1.
     999901    1    3    3    0    0 -0.56828287043E-01 -0.38760847321E-01  0.92336951164E-01  0.88750096904E+00  0.88000000000E+00 0.  1.
        -11    1    4    4    0    0  0.56510859901E-01  0.25067892672E-01 -0.57187096858E-01  0.84216991741E-01  0.51100000000E-03 0. -1.
         11    1    4    4    0    0  0.22900230393E-01  0.93837780747E-02 -0.41534824969E-01  0.48351614753E-01  0.51100000000E-03 0.  1.
</event>
<event>
 8    1  0.1204770E+005  0.1043930E+01  0.7957747E-01            NaN
         13   -1    0    0    0    0  0.00000000000E+00  0.00000000000E+00  0.74505805969E-08  0.10566000000E+00  0.10566000000E+00 0. -1.
     999900   -1    0    0    0    0 -0.00000000000E+00 -0.00000000000E+00 -0.74505805969E-08  0.93827000000E+00  0.93827000000E+00 0.  1.
     999902    2    1    2    0    0 -0.13697654764E-01 -0.16745083841E-01  0.15275868233E-02  0.10222422823E+01  0.10220121949E+01 0.  0.
     999903    2    3    3    0    0 -0.13044006490E+00 -0.24774279392E-01  0.73315897169E-02  0.13447714173E+00  0.20049288994E-01 0.  0.
         14    1    1    2    0    0  0.13697654764E-01  0.16745083841E-01 -0.15275868233E-02  0.21687717731E-01  0.00000000000E+00 0. -1.
     999901    1    3    3    0    0  0.11674241014E+00  0.80291955516E-02 -0.58040028936E-02  0.88776514054E+00  0.88000000000E+00 0.  1.
        -11    1    4    4    0    0 -0.58151698977E-01 -0.10020072176E-02  0.21473163255E-02  0.58202200996E-01  0.51100000000E-03 0. -1.
         11    1    4    4    0    0 -0.72288365925E-01 -0.23772272175E-01  0.51842733914E-02  0.76274940734E-01  0.51100000000E-03 0.  1.
</event>
<event>
 8    1  0.1204770E+005  0.1043930E+01  0.7957747E-01            NaN
         13   -1    0    0    0    0  0.00000000000E+00  0.00000000000E+00  0.74505805969E-08  0.10566000000E+00  0.10566000000E+00 0.  1.
     999900   -1    0    0    0    0 -0.00000000000E+00 -0.00000000000E+00 -0.74505805969E-08  0.93827000000E+00  0.93827000000E+00 0.  1.
     999902    2    1    2    0    0  0.31269315778E-02  0.23351031921E-01  0.66114998581E-03  0.10203612599E+01  0.10200890231E+01 0.  0.
     999903    2    3    3    0    0  0.46936841418E-01  0.76246232030E-01  0.95602757284E-01  0.13259376822E+00  0.20607406208E-01 0.  0.
         14    1    1    2    0    0 -0.31269315778E-02 -0.23351031921E-01 -0.66114998581E-03  0.23568740148E-01  0.00000000000E+00 0. -1.
     999901    1    3    3    0    0 -0.43809909840E-01 -0.52895200109E-01 -0.94941607298E-01  0.88776749163E+00  0.88000000000E+00 0. -1.
        -11    1    4    4    0    0  0.15494360145E-01  0.12252926028E-01  0.28509009534E-01  0.34687665505E-01  0.51100000000E-03 0.  1.
         11    1    4    4    0    0  0.31442481273E-01  0.63993306002E-01  0.67093747750E-01  0.97906102720E-01  0.51100000000E-03 0. -1.
</event>
<event>
 8    1  0.1204770E+005  0.1043930E+01  0.7957747E-01            NaN
         13   -1    0    0    0    0  0.00000000000E+00  0.00000000000E+00  0.74505805969E-08  0.10566000000E+00  0.10566000000E+00 0. -1.
     999900   -1    0    0    0    0 -0.00000000000E+00 -0.00000000000E+00 -0.74505805969E-08  0.93827000000E+00  0.93827000000E+00 0.  1.
     999902    2    1    2    0    0  0.56998186308E-02  0.22046826094E-01 -0.91034920488E-02  0.10194060517E+01  0.10191110215E+01 0.  0.
     999903    2    3    3    0    0 -0.66246025456E-01 -0.10505004373E+00 -0.19421988203E-01  0.12730948171E+00  0.20160429871E-01 0.  0.
         14    1    1    2    0    0 -0.56998186308E-02 -0.22046826094E-01  0.91034920488E-02  0.24523948311E-01  0.00000000000E+00 0. -1.
     999901    1    3    3    0    0  0.71945844087E-01  0.12709686982E+00  0.10318496154E-01  0.89209656998E+00  0.88000000000E+00 0.  1.
        -11    1    4    4    0    0 -0.34585425910E-01 -0.69627559062E-01 -0.17864076716E-01  0.79771768341E-01  0.51100000000E-03 0. -1.
         11    1    4    4    0    0 -0.31660599547E-01 -0.35422484665E-01 -0.15579114865E-02  0.47537713373E-01  0.51100000000E-03 0.  1.
</event>
<event>
 8    1  0.1204770E+005  0.1043930E+01  0.7957747E-01            NaN
         13   -1    0    0    0    0  0.00000000000E+00  0.00000000000E+00  0.74505805969E-08  0.10566000000E+00  0.10566000000E+00 0. -1.
     999900   -1    0    0    0    0 -0.00000000000E+00 -0.00000000000E+00 -0.74505805969E-08  0.93827000000E+00  0.93827000000E+00 0.  1.
     999902    2    1    2    0    0 -0.13840768280E-01  0.17906266798E-01  0.43276777051E-02  0.10208880806E+01  0.10206280140E+01 0.  0.
     999903    2    3    3    0    0 -0.20558343244E-01 -0.75730778824E-01  0.10230962340E+00  0.13048733718E+00  0.20047188970E-01 0.  0.
         14    1    1    2    0    0  0.13840768280E-01 -0.17906266798E-01 -0.43276777051E-02  0.23041919441E-01  0.00000000000E+00 0.  1.
     999901    1    3    3    0    0  0.67175749644E-02  0.93637045621E-01 -0.97981945698E-01  0.89040074338E+00  0.88000000000E+00 0.  1.
        -11    1    4    4    0    0 -0.11844737182E-01 -0.33209663935E-01  0.30726774101E-01  0.46771522802E-01  0.51100000000E-03 0. -1.
         11    1    4    4    0    0 -0.87136060624E-02 -0.42521114889E-01  0.71582849301E-01  0.83715814379E-01  0.51100000000E-03 0.  1.
</event>
<event>
 8    1  0.1204770E+005  0.1043930E+01  0.7957747E-01            NaN
         13   -1    0    0    0    0  0.00000000000E+00  0.00000000000E+00  0.74505805969E-08  0.10566000000E+00  0.10566000000E+00 0. -1.
     999900   -1    0    0    0    0 -0.00000000000E+00 -0.00000000000E+00 -0.74505805969E-08  0.93827000000E+00  0.93827000000E+00 0.  1.
     999902    2    1    2    0    0  0.17457311378E-01 -0.46126124397E-02  0.15581662193E-01  0.10200800082E+01  0.10198011575E+01 0.  0.
     999903    2    3    3    0    0  0.67125643109E-01 -0.81477124354E-01 -0.74398796793E-01  0.13077039989E+00  0.20526635536E-01 0.  0.
         14    1    1    2    0    0 -0.17457311378E-01  0.46126124397E-02 -0.15581662193E-01  0.23849991840E-01  0.00000000000E+00 0. -1.
     999901    1    3    3    0    0 -0.49668331731E-01  0.76864511914E-01  0.89980458986E-01  0.88930960827E+00  0.88000000000E+00 0.  1.
        -11    1    4    4    0    0  0.27217578836E-01 -0.20227039047E-01 -0.17708232708E-01  0.38259277737E-01  0.51100000000E-03 0. -1.
         11    1    4    4    0    0  0.39908064273E-01 -0.61250085307E-01 -0.56690564085E-01  0.92511122149E-01  0.51100000000E-03 0.  1.
</event>
<event>
 8    1  0.1204770E+005  0.1043930E+01  0.7957747E-01            NaN
         13   -1    0    0    0    0  0.00000000000E+00  0.00000000000E+00  0.74505805969E-08  0.10566000000E+00  0.10566000000E+00 0.  1.
     999900   -1    0    0    0    0 -0.00000000000E+00 -0.00000000000E+00 -0.74505805969E-08  0.93827000000E+00  0.93827000000E+00 0. -1.
     999902    2    1    2    0    0 -0.25380130659E-02  0.38083149356E-02  0.24839675527E-01  0.10186722437E+01  0.10183590653E+01 0.  0.
     999903    2    3    3    0    0  0.52836490770E-01  0.10731068622E+00 -0.42410999129E-01  0.12833425744E+00  0.19071199518E-01 0.  0.
         14    1    1    2    0    0  0.25380130659E-02 -0.38083149356E-02 -0.24839675527E-01  0.25257756299E-01  0.00000000000E+00 0. -1.
     999901    1    3    3    0    0 -0.55374503836E-01 -0.10350237129E+00  0.67250674656E-01  0.89033798626E+00  0.88000000000E+00 0. -1.
        -11    1    4    4    0    0  0.21266690341E-01  0.24226220712E-01 -0.10976149443E-01  0.34057581617E-01  0.51100000000E-03 0.  1.
         11    1    4    4    0    0  0.31569800430E-01  0.83084465511E-01 -0.31434849686E-01  0.94276675823E-01  0.51100000000E-03 0. -1.
</event>
<event>
 8    1  0.1204770E+005  0.1043930E+01  0.7957747E-01            NaN
         13   -1    0    0    0    0  0.00000000000E+00  0.00000000000E+00  0.74505805969E-08  0.10566000000E+00  0.10566000000E+00 0.  1.
     999900   -1    0    0    0    0 -0.00000000000E+00 -0.00000000000E+00 -0.74505805969E-08  0.93827000000E+00  0.93827000000E+00 0. -1.
     999902    2    1    2    0    0 -0.23971871428E-01 -0.10013410843E-02 -0.21061317649E-02  0.10198449612E+01  0.10195605209E+01 0.  0.
     999903    2    3    3    0    0  0.62216970634E-03 -0.12854684550E+00 -0.47036361409E-02  0.13030605277E+00  0.20805398641E-01 0.  0.
         14    1    1    2    0    0  0.23971871428E-01  0.10013410843E-02  0.21061317649E-02  0.24085038815E-01  0.00000000000E+00 0. -1.
     999901    1    3    3    0    0 -0.24594041134E-01  0.12754550441E+00  0.25975043759E-02  0.88953890842E+00  0.88000000000E+00 0. -1.
        -11    1    4    4    0    0  0.58488105821E-02 -0.10900018096E+00  0.13958694795E-02  0.10916710863E+00  0.51100000000E-03 0.  1.
         11    1    4    4    0    0 -0.52266408757E-02 -0.19546664542E-01 -0.60995056204E-02  0.21138944141E-01  0.51100000000E-03 0. -1.
</event>
<event>
 8    1  0.1204770E+005  0.1043930E+01  0.7957747E-01            NaN
         13   -1    0    0    0    0  0.00000000000E+00  0.00000000000E+00  0.74505805969E-08  0.10566000000E+00  0.10566000000E+00 0. -1.
     999900   -1    0    0    0    0 -0.00000000000E+00 -0.00000000000E+00 -0.74505805969E-08  0.93827000000E+00  0.93827000000E+00 0.  1.
     999902    2    1    2    0    0  0.11768689980E-01 -0.13469813079E-01  0.13738484758E-01  0.10213759784E+01  0.10211269291E+01 0.  0.
     999903    2    3    3    0    0 -0.11022112386E+00  0.61715083614E-01  0.19999917370E-01  0.12976312017E+00  0.21932235870E-01 0.  0.
         14    1    1    2    0    0 -0.11768689980E-01  0.13469813079E-01 -0.13738484758E-01  0.22554021630E-01  0.00000000000E+00 0.  1.
     999901    1    3    3    0    0  0.12198981384E+00 -0.75184896693E-01 -0.62614326119E-02  0.89161285820E+00  0.88000000000E+00 0.  1.
        -11    1    4    4    0    0 -0.72567663464E-01  0.28470571698E-01  0.10880120720E-01  0.78710084368E-01  0.51100000000E-03 0. -1.
         11    1    4    4    0    0 -0.37653460399E-01  0.33244511916E-01  0.91197966504E-02  0.51053035801E-01  0.51100000000E-03 0.  1.
</event>
<event>
 8    1  0.1204770E+005  0.1043930E+01  0.7957747E-01            NaN
         13   -1    0    0    0    0  0.00000000000E+00  0.00000000000E+00  0.74505805969E-08  0.10566000000E+00  0.10566000000E+00 0.  1.
     999900   -1    0    0    0    0 -0.00000000000E+00 -0.00000000000E+00 -0.74505805969E-08  0.93827000000E+00  0.93827000000E+00 0.  1.
     999902    2    1    2    0    0  0.16937651369E-01  0.15578557115E-01 -0.78023830567E-02  0.10196307684E+01  0.10193411849E+01 0.  0.
     999903    2    3    3    0    0 -0.93741464255E-01 -0.66470130292E-01  0.50092073702E-01  0.12703140593E+00  0.20543171668E-01 0.  0.
         14    1    1    2    0    0 -0.16937651369E-01 -0.15578557115E-01  0.78023830567E-02  0.24299231614E-01  0.00000000000E+00 0.  1.
     999901    1    3    3    0    0  0.11067911562E+00  0.82048687406E-01 -0.57894456758E-01  0.89259936246E+00  0.88000000000E+00 0. -1.
        -11    1    4    4    0    0 -0.73865420497E-01 -0.48210784863E-01  0.29264276175E-01  0.92935671856E-01  0.51100000000E-03 0.  1.
         11    1    4    4    0    0 -0.19876043758E-01 -0.18259345429E-01  0.20827797527E-01  0.34095734070E-01  0.51100000000E-03 0. -1.
</event>
<event>
 8    1  0.1204770E+005  0.1043930E+01  0.7957747E-01            NaN
         13   -1    0    0    0    0  0.00000000000E+00  0.00000000000E+00  0.74505805969E-08  0.10566000000E+00  0.10566000000E+00 0. -1.
     999900   -1    0    0    0    0 -0.00000000000E+00 -0.00000000000E+00 -0.74505805969E-08  0.93827000000E+00  0.93827000000E+00 0. -1.
     999902    2    1    2    0    0  0.56841373300E-02  0.88815553612E-02 -0.20435947475E-01  0.10209339266E+01  0.10206749057E+01 0.  0.
     999903    2    3    3    0    0 -0.12044066341E+00  0.41538599941E-01  0.19915519257E-01  0.13042722320E+00  0.19576106787E-01 0.  0.
         14    1    1    2    0    0 -0.56841373300E-02 -0.88815553612E-02  0.20435947475E-01  0.22996073404E-01  0.00000000000E+00 0. -1.
     999901    1    3    3    0    0  0.12612480074E+00 -0.32657044580E-01 -0.40351466732E-01  0.89050670339E+00  0.88000000000E+00 0.  1.
        -11    1    4    4    0    0 -0.50448183597E-01  0.16260075480E-01 -0.13693450503E-02  0.53024008805E-01  0.51100000000E-03 0.  1.
         11    1    4    4    0    0 -0.69992479814E-01  0.25278524460E-01  0.21284864308E-01  0.77403214397E-01  0.51100000000E-03 0. -1.
</event>
<event>
 8    1  0.1204770E+005  0.1043930E+01  0.7957747E-01            NaN
         13   -1    0    0    0    0  0.00000000000E+00  0.00000000000E+00  0.74505805969E-08  0.10566000000E+00  0.10566000000E+00 0.  1.
     999900   -1    0    0    0    0 -0.00000000000E+00 -0.00000000000E+00 -0.74505805969E-08  0.93827000000E+00  0.93827000000E+00 0. -1.
     999902    2    1    2    0    0 -0.20586761752E-01 -0.20808261310E-02 -0.15911438568E-01  0.10178279220E+01  0.10174931746E+01 0.  0.
     999903    2    3    3    0    0  0.71464084630E-01  0.82678142576E-01  0.59217717904E-01  0.12580671643E+00  0.19437107118E-01 0.  0.
         14    1    1    2    0    0  0.20586761752E-01  0.20808261310E-02  0.15911438568E-01  0.26102077966E-01  0.00000000000E+00 0.  1.
     999901    1    3    3    0    0 -0.92050846382E-01 -0.84758968707E-01 -0.75129156473E-01  0.89202120560E+00  0.88000000000E+00 0. -1.
        -11    1    4    4    0    0  0.20910670190E-01  0.12641247194E-01  0.16089928688E-01  0.29260966911E-01  0.51100000000E-03 0. -1.
         11    1    4    4    0    0  0.50553414441E-01  0.70036895382E-01  0.43127789217E-01  0.96545749518E-01  0.51100000000E-03 0.  1.
</event>
<event>
 8    1  0.1204770E+005  0.1043930E+01  0.7957747E-01            NaN
         13   -1    0    0    0    0  0.00000000000E+00  0.00000000000E+00  0.74505805969E-08  0.10566000000E+00  0.10566000000E+00 0. -1.
     999900   -1    0    0    0    0 -0.00000000000E+00 -0.00000000000E+00 -0.74505805969E-08  0.93827000000E+00  0.93827000000E+00 0.  1.
     999902    2    1    2    0    0  0.97075205349E-02 -0.13925730472E-01 -0.14321845439E-01  0.10217201558E+01  0.10214787318E+01 0.  0.
     999903    2    3    3    0    0 -0.15469777159E-01  0.97653261492E-01  0.80884951447E-01  0.12922472052E+00  0.19523819726E-01 0.  0.
         14    1    1    2    0    0 -0.97075205349E-02  0.13925730472E-01  0.14321845439E-01  0.22209844234E-01  0.00000000000E+00 0. -1.
     999901    1    3    3    0    0  0.25177297694E-01 -0.11157899196E+00 -0.95206796886E-01  0.89249543525E+00  0.88000000000E+00 0.  1.
        -11    1    4    4    0    0  0.17711048000E-02  0.14824574334E-01  0.20117940681E-01  0.25057882485E-01  0.51100000000E-03 0. -1.
         11    1    4    4    0    0 -0.17240881959E-01  0.82828687158E-01  0.60767010765E-01  0.10416683803E+00  0.51100000000E-03 0.  1.
</event>
<event>
 8    1  0.1204770E+005  0.1043930E+01  0.7957747E-01            NaN
         13   -1    0    0    0    0  0.00000000000E+00  0.00000000000E+00  0.74505805969E-08  0.10566000000E+00  0.10566000000E+00 0.  1.
     999900   -1    0    0    0    0 -0.00000000000E+00 -0.00000000000E+00 -0.74505805969E-08  0.93827000000E+00  0.93827000000E+00 0. -1.
     999902    2    1    2    0    0 -0.92073703757E-02 -0.18878502653E-01  0.93689984822E-02  0.10209310508E+01  0.10206719644E+01 0.  0.
     999903    2    3    3    0    0  0.95097443058E-01 -0.76918255286E-01 -0.43315538387E-01  0.13131103787E+00  0.20159641049E-01 0.  0.
         14    1    1    2    0    0  0.92073703757E-02  0.18878502653E-01 -0.93689984822E-02  0.22998949198E-01  0.00000000000E+00 0. -1.
     999901    1    3    3    0    0 -0.10430481343E+00  0.58039752633E-01  0.52684536869E-01  0.88962001294E+00  0.88000000000E+00 0.  1.
        -11    1    4    4    0    0  0.63092931602E-01 -0.58070223870E-01 -0.22176356775E-01  0.88571557733E-01  0.51100000000E-03 0.  1.
         11    1    4    4    0    0  0.32004511456E-01 -0.18848031416E-01 -0.21139181611E-01  0.42739480132E-01  0.51100000000E-03 0. -1.
</event>
<event>
 8    1  0.1204770E+005  0.1043930E+01  0.7957747E-01            NaN
         13   -1    0    0    0    0  0.00000000000E+00  0.00000000000E+00  0.74505805969E-08  0.10566000000E+00  0.10566000000E+00 0. -1.
     999900   -1    0    0    0    0 -0.00000000000E+00 -0.00000000000E+00 -0.74505805969E-08  0.93827000000E+00  0.93827000000E+00 0. -1.
     999902    2    1    2    0    0  0.11658135534E-01 -0.56584115746E-02 -0.19735553848E-01  0.10203202175E+01  0.10200470206E+01 0.  0.
     999903    2    3    3    0    0  0.11117846486E+00  0.28072190710E-01  0.58936039099E-01  0.13058358845E+00  0.20734462322E-01 0.  0.
         14    1    1    2    0    0 -0.11658135534E-01  0.56584115746E-02  0.19735553848E-01  0.23609782535E-01  0.00000000000E+00 0. -1.
     999901    1    3    3    0    0 -0.99520329324E-01 -0.33730602285E-01 -0.78671592947E-01  0.88973662902E+00  0.88000000000E+00 0. -1.
        -11    1    4    4    0    0  0.29019533495E-01  0.15620040109E-01  0.22118192945E-01  0.39693759679E-01  0.51100000000E-03 0. -1.
         11    1    4    4    0    0  0.82158931362E-01  0.12452150602E-01  0.36817846154E-01  0.90889828768E-01  0.51100000000E-03 0.  1.
</event>
<event>
 8    1  0.1204770E+005  0.1043930E+01  0.7957747E-01            NaN
         13   -1    0    0    0    0  0.00000000000E+00  0.00000000000E+00  0.74505805969E-08  0.10566000000E+00  0.10566000000E+00 0.  1.
     999900   -1    0    0    0    0 -0.00000000000E+00 -0.00000000000E+00 -0.74505805969E-08  0.93827000000E+00  0.93827000000E+00 0.  1.
     999902    2    1    2    0    0  0.39642520983E-02  0.19952090555E-01  0.12383212062E-01  0.10201151905E+01  0.10198371716E+01 0.  0.
     999903    2    3    3    0    0 -0.48975828855E-01 -0.11264872854E+00  0.31421314971E-01  0.12840443088E+00  0.20298546300E-01 0.  0.
         14    1    1    2    0    0 -0.39642520983E-02 -0.19952090555E-01 -0.12383212062E-01  0.23814809535E-01  0.00000000000E+00 0. -1.
     999901    1    3    3    0    0  0.52940080953E-01  0.13260081909E+00 -0.19038102909E-01  0.89171075958E+00  0.88000000000E+00 0.  1.
        -11    1    4    4    0    0 -0.44051267514E-02 -0.31555142511E-01  0.58253916457E-02  0.32393339893E-01  0.51100000000E-03 0. -1.
         11    1    4    4    0    0 -0.44570702104E-01 -0.81093586028E-01  0.25595923325E-01  0.96011090988E-01  0.51100000000E-03 0.  1.
</event>
<event>
 8    1  0.1204770E+005  0.1043930E+01  0.7957747E-01            NaN
         13   -1    0    0    0    0  0.00000000000E+00  0.00000000000E+00  0.74505805969E-08  0.10566000000E+00  0.10566000000E+00 0. -1.
     999900   -1    0    0    0    0 -0.00000000000E+00 -0.00000000000E+00 -0.74505805969E-08  0.93827000000E+00  0.93827000000E+00 0.  1.
     999902    2    1    2    0    0  0.23350975346E-01  0.22269302375E-02  0.27559230057E-02  0.10203117363E+01  0.10200383409E+01 0.  0.
     999903    2    3    3    0    0 -0.10641405572E+00 -0.17103694638E-01 -0.66045162409E-01  0.12792940474E+00  0.19684549645E-01 0.  0.
         14    1    1    2    0    0 -0.23350975346E-01 -0.22269302375E-02 -0.27559230057E-02  0.23618263685E-01  0.00000000000E+00 0. -1.
     999901    1    3    3    0    0  0.12976503107E+00  0.19330624875E-01  0.68801085415E-01  0.89238233157E+00  0.88000000000E+00 0. -1.
        -11    1    4    4    0    0 -0.81707654992E-01 -0.15188119812E-01 -0.40921249619E-01  0.92637085766E-01  0.51100000000E-03 0. -1.
         11    1    4    4    0    0 -0.24706400731E-01 -0.19155748261E-02 -0.25123912790E-01  0.35292318978E-01  0.51100000000E-03 0.  1.
</event>
<event>
 8    1  0.1204770E+005  0.1043930E+01  0.7957747E-01            NaN
         13   -1    0    0    0    0  0.00000000000E+00  0.00000000000E+00  0.74505805969E-08  0.10566000000E+00  0.10566000000E+00 0.  1.
     999900   -1    0    0    0    0 -0.00000000000E+00 -0.00000000000E+00 -0.74505805969E-08  0.93827000000E+00  0.93827000000E+00 0. -1.
     999902    2    1    2    0    0 -0.35137565438E-02  0.93426970063E-02  0.25960103931E-01  0.10161170629E+01  0.10157363467E+01 0.  0.
     999903    2    3    3    0    0  0.57769272553E-02 -0.92883097201E-01 -0.79398604696E-01  0.12390806987E+00  0.19708595029E-01 0.  0.
         14    1    1    2    0    0  0.35137565438E-02 -0.93426970063E-02 -0.25960103931E-01  0.27812937070E-01  0.00000000000E+00 0. -1.
     999901    1    3    3    0    0 -0.92906837992E-02  0.10222579421E+00  0.10535870863E+00  0.89220899306E+00  0.88000000000E+00 0.  1.
        -11    1    4    4    0    0  0.12428545591E-01 -0.72254464975E-01 -0.58514176498E-01  0.93804831574E-01  0.51100000000E-03 0.  1.
         11    1    4    4    0    0 -0.66516183355E-02 -0.20628632225E-01 -0.20884428198E-01  0.30103238300E-01  0.51100000000E-03 0. -1.
</event>
<event>
 8    1  0.1204770E+005  0.1043930E+01  0.7957747E-01            NaN
         13   -1    0    0    0    0  0.00000000000E+00  0.00000000000E+00  0.74505805969E-08  0.10566000000E+00  0.10566000000E+00 0. -1.
     999900   -1    0    0    0    0 -0.00000000000E+00 -0.00000000000E+00 -0.74505805969E-08  0.93827000000E+00  0.93827000000E+00 0. -1.
     999902    2    1    2    0    0 -0.19617933458E-01  0.99370522532E-02 -0.85072618731E-02  0.10203507331E+01  0.10200782503E+01 0.  0.
     999903    2    3    3    0    0 -0.12195348414E+00 -0.18360380756E-01 -0.46551926737E-01  0.13315249928E+00  0.18781648169E-01 0.  0.
         14    1    1    2    0    0  0.19617933458E-01 -0.99370522532E-02  0.85072618731E-02  0.23579266851E-01  0.00000000000E+00 0. -1.
     999901    1    3    3    0    0  0.10233555068E+00  0.28297433009E-01  0.38044664864E-01  0.88719823386E+00  0.88000000000E+00 0. -1.
        -11    1    4    4    0    0 -0.25510193994E-01 -0.97984067682E-02 -0.15760002257E-01  0.31550238746E-01  0.51100000000E-03 0. -1.
         11    1    4    4    0    0 -0.96443290143E-01 -0.85619739876E-02 -0.30791924480E-01  0.10160226054E+00  0.51100000000E-03 0.  1.
</event>
<event>
 8    1  0.1204770E+005  0.1043930E+01  0.7957747E-01            NaN
         13   -1    0    0    0    0  0.00000000000E+00  0.00000000000E+00  0.74505805969E-08  0.10566000000E+00  0.10566000000E+00 0.  1.
     999900   -1    0    0    0    0 -0.00000000000E+00 -0.00000000000E+00 -0.74505805969E-08  0.93827000000E+00  0.93827000000E+00 0.  1.
     999902    2    1    2    0    0  0.18126022009E-02  0.10367254129E-01  0.20509911180E-01  0.10208774092E+01  0.10206170990E+01 0.  0.
     999903    2    3    3    0    0 -0.64391274172E-02  0.86152490847E-01 -0.95194852608E-01  0.13003562444E+00  0.19582891009E-01 0.  0.
         14    1    1    2    0    0 -0.18126022009E-02 -0.10367254129E-01 -0.20509911180E-01  0.23052590776E-01  0.00000000000E+00 0. -1.
     999901    1    3    3    0    0  0.82517296182E-02 -0.75785236719E-01  0.11570476379E+00  0.89084178478E+00  0.88000000000E+00 0. -1.
        -11    1    4    4    0    0 -0.27639492312E-02  0.41601400352E-01 -0.31684111474E-01  0.52368501674E-01  0.51100000000E-03 0. -1.
         11    1    4    4    0    0 -0.36751781861E-02  0.44551090495E-01 -0.63510741134E-01  0.77667122770E-01  0.51100000000E-03 0.  1.
</event>
<event>
 8    1  0.1204770E+005  0.1043930E+01  0.7957747E-01            NaN
         13   -1    0    0    0    0  0.00000000000E+00  0.00000000000E+00  0.74505805969E-08  0.10566000000E+00  0.10566000000E+00 0. -1.
     999900   -1    0    0    0    0 -0.00000000000E+00 -0.00000000000E+00 -0.74505805969E-08  0.93827000000E+00  0.93827000000E+00 0.  1.
     999902    2    1    2    0    0 -0.10373452944E-01  0.37415854860E-02 -0.20066585988E-01  0.10210329290E+01  0.10207761587E+01 0.  0.
     999903    2    3    3    0    0  0.21746261124E-01  0.11785859335E+00  0.47380176454E-01  0.13052552684E+00  0.20699858338E-01 0.  0.
         14    1    1    2    0    0  0.10373452944E-01 -0.37415854860E-02  0.20066585988E-01  0.22897071017E-01  0.00000000000E+00 0. -1.
     999901    1    3    3    0    0 -0.32119714068E-01 -0.11411700786E+00 -0.67446762443E-01  0.89050740215E+00  0.88000000000E+00 0. -1.
        -11    1    4    4    0    0  0.34088307974E-02  0.63324609364E-01  0.31649049864E-01  0.70877004429E-01  0.51100000000E-03 0. -1.
         11    1    4    4    0    0  0.18337430326E-01  0.54533983987E-01  0.15731126591E-01  0.59648522407E-01  0.51100000000E-03 0.  1.
</event>
<event>
 8    1  0.1204770E+005  0.1043930E+01  0.7957747E-01            NaN
         13   -1    0    0    0    0  0.00000000000E+00  0.00000000000E+00  0.74505805969E-08  0.10566000000E+00  0.10566000000E+00 0. -1.
     999900   -1    0    0    0    0 -0.00000000000E+00 -0.00000000000E+00 -0.74505805969E-08  0.93827000000E+00  0.93827000000E+00 0. -1.
     999902    2    1    2    0    0 -0.93958664994E-02 -0.17530958025E-01 -0.12750257766E-01  0.10203040425E+01  0.10200304668E+01 0.  0.
     999903    2    3    3    0    0 -0.10621874146E+00 -0.45509010709E-01  0.59315151999E-01  0.13162476182E+00  0.21290833141E-01 0.  0.
         14    1    1    2    0    0  0.93958664994E-02  0.17530958025E-01  0.12750257766E-01  0.23625957540E-01  0.00000000000E+00 0. -1.
     999901    1    3    3    0    0  0.96822874959E-01  0.27978052684E-01 -0.72065409765E-01  0.88867928064E+00  0.88000000000E+00 0. -1.
        -11    1    4    4    0    0 -0.59011103036E-01 -0.33132707115E-01  0.25846194401E-01  0.72445658589E-01  0.51100000000E-03 0. -1.
         11    1    4    4    0    0 -0.47207638423E-01 -0.12376303594E-01  0.33468957598E-01  0.59179103236E-01  0.51100000000E-03 0.  1.
</event>
<event>
 8    1  0.1204770E+005  0.1043930E+01  0.7957747E-01            NaN
         13   -1    0    0    0    0  0.00000000000E+00  0.00000000000E+00  0.74505805969E-08  0.10566000000E+00  0.10566000000E+00 0. -1.
     999900   -1    0    0    0    0 -0.00000000000E+00 -0.00000000000E+00 -0.74505805969E-08  0.93827000000E+00  0.93827000000E+00 0. -1.
     999902    2    1    2    0    0 -0.30605853887E-02  0.21273570361E-01 -0.10079433514E-01  0.10201912772E+01  0.10199150529E+01 0.  0.
     999903    2    3    3    0    0 -0.39789269656E-01  0.23522843962E-01 -0.12228826599E+00  0.13230340280E+00  0.20328802822E-01 0.  0.
         14    1    1    2    0    0  0.30605853887E-02 -0.21273570361E-01  0.10079433514E-01  0.23738722770E-01  0.00000000000E+00 0. -1.
     999901    1    3    3    0    0  0.36728684267E-01 -0.22492736012E-02  0.11220883248E+00  0.88788787443E+00  0.88000000000E+00 0.  1.
        -11    1    4    4    0    0 -0.13465783914E-01  0.19364607836E-01 -0.50909692451E-01  0.56110366953E-01  0.51100000000E-03 0.  1.
         11    1    4    4    0    0 -0.26323485742E-01  0.41582361253E-02 -0.71378573541E-01  0.76193035843E-01  0.51100000000E-03 0. -1.
</event>
<event>
 8    1  0.1204770E+005  0.1043930E+01  0.7957747E-01            NaN
         13   -1    0    0    0    0  0.00000000000E+00  0.00000000000E+00  0.74505805969E-08  0.10566000000E+00  0.10566000000E+00 0.  1.
     999900   -1    0    0    0    0 -0.00000000000E+00 -0.00000000000E+00 -0.74505805969E-08  0.93827000000E+00  0.93827000000E+00 0. -1.
     999902    2    1    2    0    0  0.20405609042E-01  0.13989110434E-01 -0.54325550387E-03  0.10191837030E+01  0.10188832323E+01 0.  0.
     999903    2    3    3    0    0  0.72233690824E-01 -0.10223821699E+00  0.27072480728E-01  0.12960089591E+00  0.19827100225E-01 0.  0.
         14    1    1    2    0    0 -0.20405609042E-01 -0.13989110434E-01  0.54325550387E-03  0.24746297049E-01  0.00000000000E+00 0.  1.
     999901    1    3    3    0    0 -0.51828081782E-01  0.11622732743E+00 -0.27615736232E-01  0.88958280704E+00  0.88000000000E+00 0.  1.
        -11    1    4    4    0    0  0.64243975929E-01 -0.90630507125E-01  0.30269717066E-01  0.11514206076E+00  0.51100000000E-03 0. -1.
         11    1    4    4    0    0  0.79897148943E-02 -0.11607709867E-01 -0.31972363383E-02  0.14458835142E-01  0.51100000000E-03 0.  1.
</event>
<event>
 8    1  0.1204770E+005  0.1043930E+01  0.7957747E-01            NaN
         13   -1    0    0    0    0  0.00000000000E+00  0.00000000000E+00  0.74505805969E-08  0.10566000000E+00  0.10566000000E+00 0.  1.
     999900   -1    0    0    0    0 -0.00000000000E+00 -0.00000000000E+00 -0.74505805969E-08  0.93827000000E+00  0.93827000000E+00 0. -1.
     999902    2    1    2    0    0  0.45616204161E-02 -0.19478333016E-01 -0.11773664411E-01  0.10207172231E+01  0.10204532407E+01 0.  0.
     999903    2    3    3    0    0  0.85125130245E-01  0.88804888552E-02  0.95742228402E-01  0.13006893724E+00  0.20644690683E-01 0.  0.
         14    1    1    2    0    0 -0.45616204161E-02  0.19478333016E-01  0.11773664411E-01  0.23212776904E-01  0.00000000000E+00 0.  1.
     999901    1    3    3    0    0 -0.80563509829E-01 -0.28358821872E-01 -0.10751589281E+00  0.89064828586E+00  0.88000000000E+00 0. -1.
        -11    1    4    4    0    0  0.56935125470E-01  0.90050062955E-02  0.49863013351E-01  0.76218632053E-01  0.51100000000E-03 0.  1.
         11    1    4    4    0    0  0.28190004775E-01 -0.12451744027E-03  0.45879215051E-01  0.53850305185E-01  0.51100000000E-03 0. -1.
</event>
<event>
 8    1  0.1204770E+005  0.1043930E+01  0.7957747E-01            NaN
         13   -1    0    0    0    0  0.00000000000E+00  0.00000000000E+00  0.74505805969E-08  0.10566000000E+00  0.10566000000E+00 0.  1.
     999900   -1    0    0    0    0 -0.00000000000E+00 -0.00000000000E+00 -0.74505805969E-08  0.93827000000E+00  0.93827000000E+00 0.  1.
     999902    2    1    2    0    0  0.70438113367E-02 -0.19659581313E-01 -0.50238561098E-02  0.10224508579E+01  0.10222252214E+01 0.  0.
     999903    2    3    3    0    0 -0.23712744954E-01 -0.90716821671E-01  0.93051280883E-01  0.13362363640E+00  0.20122110331E-01 0.  0.
         14    1    1    2    0    0 -0.70438113367E-02  0.19659581313E-01  0.50238561098E-02  0.21479142109E-01  0.00000000000E+00 0.  1.
     999901    1    3    3    0    0  0.30756556290E-01  0.71057240359E-01 -0.98075136992E-01  0.88882722149E+00  0.88000000000E+00 0.  1.
        -11    1    4    4    0    0 -0.20645334471E-03 -0.19982102766E-01  0.29693466144E-01  0.35795112886E-01  0.51100000000E-03 0.  1.
         11    1    4    4    0    0 -0.23506291609E-01 -0.70734718905E-01  0.63357814739E-01  0.97828523516E-01  0.51100000000E-03 0. -1.
</event>
<event>
 8    1  0.1204770E+005  0.1043930E+01  0.7957747E-01            NaN
         13   -1    0    0    0    0  0.00000000000E+00  0.00000000000E+00  0.74505805969E-08  0.10566000000E+00  0.10566000000E+00 0. -1.
     999900   -1    0    0    0    0 -0.00000000000E+00 -0.00000000000E+00 -0.74505805969E-08  0.93827000000E+00  0.93827000000E+00 0.  1.
     999902    2    1    2    0    0 -0.16724234937E-01  0.44857589513E-02  0.17198376043E-01  0.10195249553E+01  0.10192328136E+01 0.  0.
     999903    2    3    3    0    0  0.15604617311E-01 -0.12211774559E+00  0.35849559543E-01  0.12968144733E+00  0.19386567349E-01 0.  0.
         14    1    1    2    0    0  0.16724234937E-01 -0.44857589513E-02 -0.17198376043E-01  0.24405044686E-01  0.00000000000E+00 0.  1.
     999901    1    3    3    0    0 -0.32328852248E-01  0.12660350454E+00 -0.18651183499E-01  0.88984350798E+00  0.88000000000E+00 0.  1.
        -11    1    4    4    0    0  0.70868194687E-02 -0.10178091305E+00  0.24732603154E-01  0.10498352276E+00  0.51100000000E-03 0.  1.
         11    1    4    4    0    0  0.85177978425E-02 -0.20336832542E-01  0.11116956388E-01  0.24697924574E-01  0.51100000000E-03 0. -1.
</event>
<event>
 8    1  0.1204770E+005  0.1043930E+01  0.7957747E-01            NaN
         13   -1    0    0    0    0  0.00000000000E+00  0.00000000000E+00  0.74505805969E-08  0.10566000000E+00  0.10566000000E+00 0.  1.
     999900   -1    0    0    0    0 -0.00000000000E+00 -0.00000000000E+00 -0.74505805969E-08  0.93827000000E+00  0.93827000000E+00 0. -1.
     999902    2    1    2    0    0 -0.62626599866E-02  0.22242777745E-01  0.60112454323E-02  0.10200532929E+01  0.10197738098E+01 0.  0.
     999903    2    3    3    0    0  0.84001064979E-01  0.86630328660E-01 -0.48651381842E-01  0.13141315221E+00  0.18478821889E-01 0.  0.
         14    1    1    2    0    0  0.62626599866E-02 -0.22242777745E-01 -0.60112454323E-02  0.23876707134E-01  0.00000000000E+00 0.  1.
     999901    1    3    3    0    0 -0.90263724966E-01 -0.64387550915E-01  0.54662627275E-01  0.88864014065E+00  0.88000000000E+00 0. -1.
        -11    1    4    4    0    0  0.70157754073E-01  0.79300675838E-01 -0.38137406405E-01  0.11254079497E+00  0.51100000000E-03 0. -1.
         11    1    4    4    0    0  0.13843310906E-01  0.73296528211E-02 -0.10513975437E-01  0.18872357240E-01  0.51100000000E-03 0.  1.
</event>
<event>
 8    1  0.1204770E+005  0.1043930E+01  0.7957747E-01            NaN
         13   -1    0    0    0    0  0.00000000000E+00  0.00000000000E+00  0.74505805969E-08  0.10566000000E+00  0.10566000000E+00 0.  1.
     999900   -1    0    0    0    0 -0.00000000000E+00 -0.00000000000E+00 -0.74505805969E-08  0.93827000000E+00  0.93827000000E+00 0.  1.
     999902    2    1    2    0    0  0.13269193393E-01 -0.95480103954E-02 -0.18050985867E-01  0.10195768875E+01  0.10192860028E+01 0.  0.
     999903    2    3    3    0    0  0.53986093063E-01  0.11558818966E+00 -0.10305314527E-01  0.12975840610E+00  0.21352203917E-01 0.  0.
         14    1    1    2    0    0 -0.13269193393E-01  0.95480103954E-02  0.18050985867E-01  0.24353112461E-01  0.00000000000E+00 0.  1.
     999901    1    3    3    0    0 -0.40716899670E-01 -0.12513620006E+00 -0.77456713393E-02  0.88981848144E+00  0.88000000000E+00 0. -1.
        -11    1    4    4    0    0  0.19602863194E-01  0.65827997233E-01 -0.88551293888E-02  0.69255121851E-01  0.51100000000E-03 0.  1.
         11    1    4    4    0    0  0.34383229869E-01  0.49760192432E-01 -0.14501851385E-02  0.60503284250E-01  0.51100000000E-03 0. -1.
</event>
<event>
 8    1  0.1204770E+005  0.1043930E+01  0.7957747E-01            NaN
         13   -1    0    0    0    0  0.00000000000E+00  0.00000000000E+00  0.74505805969E-08  0.10566000000E+00  0.10566000000E+00 0.  1.
     999900   -1    0    0    0    0 -0.00000000000E+00 -0.00000000000E+00 -0.74505805969E-08  0.93827000000E+00  0.93827000000E+00 0.  1.
     999902    2    1    2    0    0  0.65598227374E-02  0.47656169331E-02 -0.15248867803E-01  0.10266594948E+01  0.10265142220E+01 0.  0.
     999903    2    3    3    0    0  0.99203308795E-01 -0.28021250343E-01 -0.89651757605E-01  0.13806870928E+00  0.19976083054E-01 0.  0.
         14    1    1    2    0    0 -0.65598227374E-02 -0.47656169331E-02  0.15248867803E-01  0.17270505157E-01  0.00000000000E+00 0.  1.
     999901    1    3    3    0    0 -0.92643486058E-01  0.32786867277E-01  0.74402889801E-01  0.88859078556E+00  0.88000000000E+00 0. -1.
        -11    1    4    4    0    0  0.63499565868E-01 -0.27580097512E-01 -0.56916058614E-01  0.89624525066E-01  0.51100000000E-03 0. -1.
         11    1    4    4    0    0  0.35703742927E-01 -0.44115283161E-03 -0.32735698991E-01  0.48444184214E-01  0.51100000000E-03 0.  1.
</event>
<event>
 8    1  0.1204770E+005  0.1043930E+01  0.7957747E-01            NaN
         13   -1    0    0    0    0  0.00000000000E+00  0.00000000000E+00  0.74505805969E-08  0.10566000000E+00  0.10566000000E+00 0.  1.
     999900   -1    0    0    0    0 -0.00000000000E+00 -0.00000000000E+00 -0.74505805969E-08  0.93827000000E+00  0.93827000000E+00 0. -1.
     999902    2    1    2    0    0  0.75887381489E-02  0.10889675101E-02  0.22341876740E-01  0.10203093681E+01  0.10200359172E+01 0.  0.
     999903    2    3    3    0    0 -0.52744819326E-01  0.71939601822E-01  0.95881594853E-01  0.13235213898E+00  0.19143828890E-01 0.  0.
         14    1    1    2    0    0 -0.75887381489E-02 -0.10889675101E-02 -0.22341876740E-01  0.23620631939E-01  0.00000000000E+00 0. -1.
     999901    1    3    3    0    0  0.60333557475E-01 -0.70850634312E-01 -0.73539718113E-01  0.88795722908E+00  0.88000000000E+00 0.  1.
        -11    1    4    4    0    0 -0.44447293662E-01  0.47046499532E-01  0.63519811072E-01  0.90686065919E-01  0.51100000000E-03 0.  1.
         11    1    4    4    0    0 -0.82975256635E-02  0.24893102290E-01  0.32361783781E-01  0.41666073060E-01  0.51100000000E-03 0. -1.
</event>
<event>
 8    1  0.1204770E+005  0.1043930E+01  0.7957747E-01            NaN
         13   -1    0    0    0    0  0.00000000000E+00  0.00000000000E+00  0.74505805969E-08  0.10566000000E+00  0.10566000000E+00 0. -1.
     999900   -1    0    0    0    0 -0.00000000000E+00 -0.00000000000E+00 -0.74505805969E-08  0.93827000000E+00  0.93827000000E+00 0.  1.
     999902    2    1    2    0    0  0.19612334916E-01 -0.64064517556E-02  0.11856455865E-01  0.10201337429E+01  0.10198561622E+01 0.  0.
     999903    2    3    3    0    0 -0.12225493871E+00 -0.51611613870E-02 -0.30904733831E-01  0.12774571442E+00  0.19772641568E-01 0.  0.
         14    1    1    2    0    0 -0.19612334916E-01  0.64064517556E-02 -0.11856455865E-01  0.23796257072E-01  0.00000000000E+00 0. -1.
     999901    1    3    3    0    0  0.14186727363E+00 -0.12452903686E-02  0.42761189697E-01  0.89238802850E+00  0.88000000000E+00 0. -1.
        -11    1    4    4    0    0 -0.93980403914E-01  0.19479121933E-02 -0.17348193401E-01  0.95589390714E-01  0.51100000000E-03 0.  1.
         11    1    4    4    0    0 -0.28274534796E-01 -0.71090735803E-02 -0.13556540430E-01  0.32156323710E-01  0.51100000000E-03 0. -1.
</event>
<event>
 8    1  0.1204770E+005  0.1043930E+01  0.7957747E-01            NaN
         13   -1    0    0    0    0  0.00000000000E+00  0.00000000000E+00  0.74505805969E-08  0.10566000000E+00  0.10566000000E+00 0. -1.
     999900   -1    0    0    0    0 -0.00000000000E+00 -0.00000000000E+00 -0.74505805969E-08  0.93827000000E+00  0.93827000000E+00 0. -1.
     999902    2    1    2    0    0  0.91137171606E-02  0.14617573519E-01  0.16748901323E-01  0.10199037853E+01  0.10196207493E+01 0.  0.
     999903    2    3    3    0    0  0.17747635519E-01  0.12795772196E+00  0.21909898676E-01  0.13257793216E+00  0.20216509615E-01 0.  0.
         14    1    1    2    0    0 -0.91137171606E-02 -0.14617573519E-01 -0.16748901323E-01  0.24026214675E-01  0.00000000000E+00 0.  1.
     999901    1    3    3    0    0 -0.86339183581E-02 -0.11334014844E+00 -0.51609973527E-02  0.88732585316E+00  0.88000000000E+00 0.  1.
        -11    1    4    4    0    0 -0.59140197655E-03  0.64583236067E-01  0.14415089329E-01  0.66177035734E-01  0.51100000000E-03 0. -1.
         11    1    4    4    0    0  0.18339037495E-01  0.63374485894E-01  0.74948093465E-02  0.66400896430E-01  0.51100000000E-03 0.  1.
</event>
<event>
 8    1  0.1204770E+005  0.1043930E+01  0.7957747E-01            NaN
         13   -1    0    0    0    0  0.00000000000E+00  0.00000000000E+00  0.74505805969E-08  0.10566000000E+00  0.10566000000E+00 0. -1.
     999900   -1    0    0    0    0 -0.00000000000E+00 -0.00000000000E+00 -0.74505805969E-08  0.93827000000E+00  0.93827000000E+00 0.  1.
     999902    2    1    2    0    0 -0.64169846775E-02  0.21432873572E-01 -0.36371464777E-02  0.10212634035E+01  0.10210118338E+01 0.  0.
     999903    2    3    3    0    0 -0.30607434697E-01 -0.82249257527E-02 -0.12645122988E+00  0.13191079514E+00  0.20151423658E-01 0.  0.
         14    1    1    2    0    0  0.64169846775E-02 -0.21432873572E-01  0.36371464777E-02  0.22666596489E-01  0.00000000000E+00 0.  1.
     999901    1    3    3    0    0  0.24190450020E-01  0.29657799325E-01  0.12281408340E+00  0.88935260837E+00  0.88000000000E+00 0. -1.
        -11    1    4    4    0    0 -0.32597274132E-01 -0.43064031492E-02 -0.10587897545E+00  0.11086814670E+00  0.51100000000E-03 0.  1.
         11    1    4    4    0    0  0.19898394347E-02 -0.39185226035E-02 -0.20572254425E-01  0.21042648443E-01  0.51100000000E-03 0. -1.
</event>
<event>
 8    1  0.1204770E+005  0.1043930E+01  0.7957747E-01            NaN
         13   -1    0    0    0    0  0.00000000000E+00  0.00000000000E+00  0.74505805969E-08  0.10566000000E+00  0.10566000000E+00 0. -1.
     999900   -1    0    0    0    0 -0.00000000000E+00 -0.00000000000E+00 -0.74505805969E-08  0.93827000000E+00  0.93827000000E+00 0. -1.
     999902    2    1    2    0    0  0.77898368005E-02  0.17025733627E-01 -0.15598714825E-01  0.10195604069E+01  0.10192691236E+01 0.  0.
     999903    2    3    3    0    0 -0.11899088503E+00  0.47059853158E-01  0.14544517123E-02  0.12980414240E+00  0.21760961696E-01 0.  0.
         14    1    1    2    0    0 -0.77898368005E-02 -0.17025733627E-01  0.15598714825E-01  0.24369593085E-01  0.00000000000E+00 0.  1.
     999901    1    3    3    0    0  0.12678072183E+00 -0.30034119531E-01 -0.17053166537E-01  0.88975626452E+00  0.88000000000E+00 0. -1.
        -11    1    4    4    0    0 -0.82905678700E-01  0.29940975290E-01  0.10728313481E-01  0.88798487561E-01  0.51100000000E-03 0. -1.
         11    1    4    4    0    0 -0.36085206329E-01  0.17118877868E-01 -0.92738617682E-02  0.41005654834E-01  0.51100000000E-03 0.  1.
</event>
<event>
 8    1  0.1204770E+005  0.1043930E+01  0.7957747E-01            NaN
         13   -1    0    0    0    0  0.00000000000E+00  0.00000000000E+00  0.74505805969E-08  0.10566000000E+00  0.10566000000E+00 0.  1.
     999900   -1    0    0    0    0 -0.00000000000E+00 -0.00000000000E+00 -0.74505805969E-08  0.93827000000E+00  0.93827000000E+00 0.  1.
     999902    2    1    2    0    0 -0.19141049585E-01  0.12312229033E-01  0.46691907070E-02  0.10206970040E+01  0.10204325562E+01 0.  0.
     999903    2    3    3    0    0 -0.24364613426E-01 -0.10569458923E+00  0.69556944268E-01  0.13043675250E+00  0.20263201316E-01 0.  0.
         14    1    1    2    0    0  0.19141049585E-01 -0.12312229033E-01 -0.46691907070E-02  0.23232996036E-01  0.00000000000E+00 0. -1.
     999901    1    3    3    0    0  0.52235638411E-02  0.11800681826E+00 -0.64887753560E-01  0.89026025146E+00  0.88000000000E+00 0.  1.
        -11    1    4    4    0    0 -0.19951638110E-01 -0.45262162305E-01  0.35902892333E-01  0.61122908951E-01  0.51100000000E-03 0.  1.
         11    1    4    4    0    0 -0.44129753153E-02 -0.60432426922E-01  0.33654051934E-01  0.69313843548E-01  0.51100000000E-03 0. -1.
</event>
<event>
 8    1  0.1372006E+005  0.1043930E+01  0.7957747E-01            NaN
         13   -1    0    0    0    0  0.00000000000E+00  0.00000000000E+00  0.74505805969E-08  0.10566000000E+00  0.10566000000E+00 0. -1.
     999900   -1    0    0    0    0 -0.00000000000E+00 -0.00000000000E+00 -0.74505805969E-08  0.93827000000E+00  0.93827000000E+00 0.  1.
     999902    2    1    2    0    0 -0.26967258663E-02 -0.15660338168E-01  0.17548153234E-01  0.10202560438E+01  0.10199813423E+01 0.  0.
     999903    2    3    3    0    0 -0.29976198234E-02 -0.59333023980E-01 -0.11331639913E+00  0.12950752421E+00  0.20054901032E-01 0.  0.
         14    1    1    2    0    0  0.26967258663E-02  0.15660338168E-01 -0.17548153234E-01  0.23673956236E-01  0.00000000000E+00 0.  1.
     999901    1    3    3    0    0  0.30089395716E-03  0.43672685812E-01  0.13086455237E+00  0.89074851955E+00  0.88000000000E+00 0. -1.
        -11    1    4    4    0    0  0.49410205621E-02 -0.36114850943E-01 -0.52407032804E-01  0.63839285327E-01  0.51100000000E-03 0. -1.
         11    1    4    4    0    0 -0.79386403856E-02 -0.23218173037E-01 -0.60909366328E-01  0.65668238882E-01  0.51100000000E-03 0.  1.
</event>
<event>
 8    1  0.1204770E+005  0.1043930E+01  0.7957747E-01            NaN
         13   -1    0    0    0    0  0.00000000000E+00  0.00000000000E+00  0.74505805969E-08  0.10566000000E+00  0.10566000000E+00 0.  1.
     999900   -1    0    0    0    0 -0.00000000000E+00 -0.00000000000E+00 -0.74505805969E-08  0.93827000000E+00  0.93827000000E+00 0. -1.
     999902    2    1    2    0    0 -0.15445046996E-01 -0.12516492085E-01  0.12399470608E-01  0.10205001276E+01  0.10202311265E+01 0.  0.
     999903    2    3    3    0    0  0.27845337091E-01 -0.68841886631E-01  0.10868550934E+00  0.13240238031E+00  0.14257707381E-01 0.  0.
         14    1    1    2    0    0  0.15445046996E-01  0.12516492085E-01 -0.12399470608E-01  0.23429872432E-01  0.00000000000E+00 0. -1.
     999901    1    3    3    0    0 -0.43290384087E-01  0.56325394547E-01 -0.96286038730E-01  0.88809774726E+00  0.88000000000E+00 0. -1.
        -11    1    4    4    0    0  0.27640648715E-03 -0.12693842508E-02  0.75833410274E-02  0.77107664379E-02  0.51100000000E-03 0.  1.
         11    1    4    4    0    0  0.27568930604E-01 -0.67572502381E-01  0.10110216831E+00  0.12469161388E+00  0.51100000000E-03 0. -1.
</event>
<event>
 8    1  0.1204770E+005  0.1043930E+01  0.7957747E-01            NaN
         13   -1    0    0    0    0  0.00000000000E+00  0.00000000000E+00  0.74505805969E-08  0.10566000000E+00  0.10566000000E+00 0. -1.
     999900   -1    0    0    0    0 -0.00000000000E+00 -0.00000000000E+00 -0.74505805969E-08  0.93827000000E+00  0.93827000000E+00 0.  1.
     999902    2    1    2    0    0 -0.68533577741E-02  0.20009198881E-01  0.10986989830E-01  0.10200961900E+01  0.10198177221E+01 0.  0.
     999903    2    3    3    0    0  0.28233256661E-01  0.11416827537E+00  0.60821665522E-01  0.13297697757E+00  0.12332464652E-01 0.  0.
         14    1    1    2    0    0  0.68533577741E-02 -0.20009198881E-01 -0.10986989830E-01  0.23833809980E-01  0.00000000000E+00 0.  1.
     999901    1    3    3    0    0 -0.35086614435E-01 -0.94159076488E-01 -0.49834675692E-01  0.88711921245E+00  0.88000000000E+00 0. -1.
        -11    1    4    4    0    0  0.36437595556E-02  0.34819671865E-01  0.21285136047E-01  0.40975659483E-01  0.51100000000E-03 0.  1.
         11    1    4    4    0    0  0.24589497105E-01  0.79348603503E-01  0.39536529474E-01  0.92001318087E-01  0.51100000000E-03 0. -1.
</event>
<event>
 8    1  0.1204770E+005  0.1043930E+01  0.7957747E-01            NaN
         13   -1    0    0    0    0  0.00000000000E+00  0.00000000000E+00  0.74505805969E-08  0.10566000000E+00  0.10566000000E+00 0. -1.
     999900   -1    0    0    0    0 -0.00000000000E+00 -0.00000000000E+00 -0.74505805969E-08  0.93827000000E+00  0.93827000000E+00 0. -1.
     999902    2    1    2    0    0  0.84982520263E-02 -0.22040551616E-01  0.18253490401E-02  0.10202374252E+01  0.10199622864E+01 0.  0.
     999903    2    3    3    0    0 -0.35073023895E-01 -0.12637184466E+00  0.68802795753E-02  0.13298941750E+00  0.20949625064E-01 0.  0.
         14    1    1    2    0    0 -0.84982520263E-02  0.22040551616E-01 -0.18253490401E-02  0.23692574831E-01  0.00000000000E+00 0. -1.
     999901    1    3    3    0    0  0.43571275922E-01  0.10433129305E+00 -0.50549305352E-02  0.88724800767E+00  0.88000000000E+00 0. -1.
        -11    1    4    4    0    0 -0.14700455016E-01 -0.38197968239E-01  0.11042180595E-01  0.42395507174E-01  0.51100000000E-03 0.  1.
         11    1    4    4    0    0 -0.20372568879E-01 -0.88173876425E-01 -0.41619010197E-02  0.90593910323E-01  0.51100000000E-03 0. -1.
</event>
<event>
 8    1  0.1204770E+005  0.1043930E+01  0.7957747E-01            NaN
         13   -1    0    0    0    0  0.00000000000E+00  0.00000000000E+00  0.74505805969E-08  0.10566000000E+00  0.10566000000E+00 0.  1.
     999900   -1    0    0    0    0 -0.00000000000E+00 -0.00000000000E+00 -0.74505805969E-08  0.93827000000E+00  0.93827000000E+00 0. -1.
     999902    2    1    2    0    0  0.21358363367E-01  0.36058040648E-02 -0.87102881495E-02  0.10205836806E+01  0.10203166168E+01 0.  0.
     999903    2    3    3    0    0  0.13056699981E+00 -0.63192977175E-02 -0.19612123781E-01  0.13371058715E+00  0.20154670725E-01 0.  0.
         14    1    1    2    0    0 -0.21358363367E-01 -0.36058040648E-02  0.87102881495E-02  0.23346319374E-01  0.00000000000E+00 0.  1.
     999901    1    3    3    0    0 -0.10920863645E+00  0.99251017822E-02  0.10901835632E-01  0.88687309348E+00  0.88000000000E+00 0.  1.
        -11    1    4    4    0    0  0.46426882064E-01 -0.11787290208E-01 -0.54735064085E-02  0.48214271560E-01  0.51100000000E-03 0.  1.
         11    1    4    4    0    0  0.84140117748E-01  0.54679924906E-02 -0.14138617373E-01  0.85496315586E-01  0.51100000000E-03 0. -1.
</event>
<event>
 8    1  0.1204770E+005  0.1043930E+01  0.7957747E-01            NaN
         13   -1    0    0    0    0  0.00000000000E+00  0.00000000000E+00  0.74505805969E-08  0.10566000000E+00  0.10566000000E+00 0.  1.
     999900   -1    0    0    0    0 -0.00000000000E+00 -0.00000000000E+00 -0.74505805969E-08  0.93827000000E+00  0.93827000000E+00 0.  1.
     999902    2    1    2    0    0  0.16903984783E-01  0.10487521759E-01  0.13675569267E-01  0.10197897016E+01  0.10195039389E+01 0.  0.
     999903    2    3    3    0    0 -0.16951305549E-01  0.10046633870E+00  0.81156000990E-01  0.13198568216E+00  0.21285953766E-01 0.  0.
         14    1    1    2    0    0 -0.16903984783E-01 -0.10487521759E-01 -0.13675569267E-01  0.24140298444E-01  0.00000000000E+00 0. -1.
     999901    1    3    3    0    0  0.33855290332E-01 -0.89978816943E-01 -0.67480431723E-01  0.88780401939E+00  0.88000000000E+00 0.  1.
        -11    1    4    4    0    0 -0.19828732338E-01  0.97988398112E-01  0.76110380023E-01  0.12565013275E+00  0.51100000000E-03 0.  1.
         11    1    4    4    0    0  0.28774267894E-02  0.24779405897E-02  0.50456209670E-02  0.63355494187E-02  0.51100000000E-03 0. -1.
</event>
<event>
 8    1  0.1204770E+005  0.1043930E+01  0.7957747E-01            NaN
         13   -1    0    0    0    0  0.00000000000E+00  0.00000000000E+00  0.74505805969E-08  0.10566000000E+00  0.10566000000E+00 0.  1.
     999900   -1    0    0    0    0 -0.00000000000E+00 -0.00000000000E+00 -0.74505805969E-08  0.93827000000E+00  0.93827000000E+00 0.  1.
     999902    2    1    2    0    0 -0.12408108059E-01  0.16854441719E-01 -0.98380838476E-02  0.10208037974E+01  0.10205418030E+01 0.  0.
     999903    2    3    3    0    0  0.31413951848E-01 -0.12019741478E+00  0.26812037453E-01  0.12836510727E+00  0.18012787724E-01 0.  0.
         14    1    1    2    0    0  0.12408108059E-01 -0.16854441719E-01  0.98380838476E-02  0.23126202565E-01  0.00000000000E+00 0. -1.
     999901    1    3    3    0    0 -0.43822059907E-01  0.13705185650E+00 -0.36650121301E-01  0.89243869016E+00  0.88000000000E+00 0. -1.
        -11    1    4    4    0    0  0.67054957335E-02 -0.53528718481E-01  0.60133177315E-02  0.54283593160E-01  0.51100000000E-03 0.  1.
         11    1    4    4    0    0  0.24708456114E-01 -0.66668696303E-01  0.20798719722E-01  0.74081514114E-01  0.51100000000E-03 0. -1.
</event>
<event>
 8    1  0.1204770E+005  0.1043930E+01  0.7957747E-01            NaN
         13   -1    0    0    0    0  0.00000000000E+00  0.00000000000E+00  0.74505805969E-08  0.10566000000E+00  0.10566000000E+00 0. -1.
     999900   -1    0    0    0    0 -0.00000000000E+00 -0.00000000000E+00 -0.74505805969E-08  0.93827000000E+00  0.93827000000E+00 0. -1.
     999902    2    1    2    0    0 -0.14920831586E-01  0.11050698606E-01  0.18822283862E-01  0.10174908713E+01  0.10171473078E+01 0.  0.
     999903    2    3    3    0    0  0.10965130383E+00 -0.16271003936E-01 -0.54866553705E-01  0.12524945942E+00  0.19721419019E-01 0.  0.
         14    1    1    2    0    0  0.14920831586E-01 -0.11050698606E-01 -0.18822283862E-01  0.26439128668E-01  0.00000000000E+00 0.  1.
     999901    1    3    3    0    0 -0.12457213542E+00  0.27321702542E-01  0.73688837567E-01  0.89224141191E+00  0.88000000000E+00 0.  1.
        -11    1    4    4    0    0  0.49727584579E-01 -0.20918287179E-02 -0.33797930673E-01  0.60164521558E-01  0.51100000000E-03 0. -1.
         11    1    4    4    0    0  0.59923719252E-01 -0.14179175218E-01 -0.21068623031E-01  0.65084937860E-01  0.51100000000E-03 0.  1.
</event>
<event>
 8    1  0.1204770E+005  0.1043930E+01  0.7957747E-01            NaN
         13   -1    0    0    0    0  0.00000000000E+00  0.00000000000E+00  0.74505805969E-08  0.10566000000E+00  0.10566000000E+00 0.  1.
     999900   -1    0    0    0    0 -0.00000000000E+00 -0.00000000000E+00 -0.74505805969E-08  0.93827000000E+00  0.93827000000E+00 0. -1.
     999902    2    1    2    0    0 -0.10295452751E-01 -0.98678092388E-02 -0.99301768288E-02  0.10265524738E+01  0.10264053794E+01 0.  0.
     999903    2    3    3    0    0 -0.66497617727E-01 -0.38015501202E-01  0.11063070915E+00  0.13611106460E+00  0.20492842750E-01 0.  0.
         14    1    1    2    0    0  0.10295452751E-01  0.98678092388E-02  0.99301768288E-02  0.17377526244E-01  0.00000000000E+00 0.  1.
     999901    1    3    3    0    0  0.56202164976E-01  0.28147691963E-01 -0.12056088598E+00  0.89044140916E+00  0.88000000000E+00 0. -1.
        -11    1    4    4    0    0 -0.29317481362E-01 -0.27234769170E-01  0.48165565762E-01  0.62621323935E-01  0.51100000000E-03 0.  1.
         11    1    4    4    0    0 -0.37180136365E-01 -0.10780732032E-01  0.62465143390E-01  0.73489740665E-01  0.51100000000E-03 0. -1.
</event>
<event>
 8    1  0.1204770E+005  0.1043930E+01  0.7957747E-01            NaN
         13   -1    0    0    0    0  0.00000000000E+00  0.00000000000E+00  0.74505805969E-08  0.10566000000E+00  0.10566000000E+00 0. -1.
     999900   -1    0    0    0    0 -0.00000000000E+00 -0.00000000000E+00 -0.74505805969E-08  0.93827000000E+00  0.93827000000E+00 0.  1.
     999902    2    1    2    0    0 -0.93038503855E-02 -0.99579785881E-02  0.19180132449E-01  0.10204012846E+01  0.10201299824E+01 0.  0.
     999903    2    3    3    0    0  0.25090736041E-01  0.39260321203E-01 -0.11765876543E+00  0.12780377583E+00  0.17869028451E-01 0.  0.
         14    1    1    2    0    0  0.93038503855E-02  0.99579785881E-02 -0.19180132449E-01  0.23528715442E-01  0.00000000000E+00 0. -1.
     999901    1    3    3    0    0 -0.34394586426E-01 -0.49218299791E-01  0.13683889788E+00  0.89259750873E+00  0.88000000000E+00 0.  1.
        -11    1    4    4    0    0  0.19512687938E-01  0.21019863253E-01 -0.51518005917E-01  0.58965631484E-01  0.51100000000E-03 0. -1.
         11    1    4    4    0    0  0.55780481023E-02  0.18240457950E-01 -0.66140759517E-01  0.68838144348E-01  0.51100000000E-03 0.  1.
</event>
<event>
 8    1  0.1204770E+005  0.1043930E+01  0.7957747E-01            NaN
         13   -1    0    0    0    0  0.00000000000E+00  0.00000000000E+00  0.74505805969E-08  0.10566000000E+00  0.10566000000E+00 0. -1.
     999900   -1    0    0    0    0 -0.00000000000E+00 -0.00000000000E+00 -0.74505805969E-08  0.93827000000E+00  0.93827000000E+00 0.  1.
     999902    2    1    2    0    0 -0.13978787041E-01 -0.80035783770E-02  0.17183942285E-01  0.10203768340E+01  0.10201049612E+01 0.  0.
     999903    2    3    3    0    0  0.51573909048E-01 -0.14791260666E-02 -0.11554809824E+00  0.12798817487E+00  0.19171697672E-01 0.  0.
         14    1    1    2    0    0  0.13978787041E-01  0.80035783770E-02 -0.17183942285E-01  0.23553165953E-01  0.00000000000E+00 0.  1.
     999901    1    3    3    0    0 -0.65552696089E-01 -0.65244523104E-02  0.13273204052E+00  0.89238865918E+00  0.88000000000E+00 0. -1.
        -11    1    4    4    0    0  0.24255903970E-01  0.88563758069E-02 -0.53625471387E-01  0.59520891898E-01  0.51100000000E-03 0.  1.
         11    1    4    4    0    0  0.27318005078E-01 -0.10335501873E-01 -0.61922626853E-01  0.68467282974E-01  0.51100000000E-03 0. -1.
</event>
<event>
 8    1  0.1204770E+005  0.1043930E+01  0.7957747E-01            NaN
         13   -1    0    0    0    0  0.00000000000E+00  0.00000000000E+00  0.74505805969E-08  0.10566000000E+00  0.10566000000E+00 0. -1.
     999900   -1    0    0    0    0 -0.00000000000E+00 -0.00000000000E+00 -0.74505805969E-08  0.93827000000E+00  0.93827000000E+00 0. -1.
     999902    2    1    2    0    0  0.19854908709E-01  0.86173914066E-02 -0.91628649618E-02  0.10204260657E+01  0.10201553414E+01 0.  0.
     999903    2    3    3    0    0  0.75876279667E-01  0.72346638792E-01 -0.78615629846E-01  0.13362084606E+00  0.26131729493E-01 0.  0.
         14    1    1    2    0    0 -0.19854908709E-01 -0.86173914066E-02  0.91628649618E-02  0.23503934326E-01  0.00000000000E+00 0. -1.
     999901    1    3    3    0    0 -0.56021370958E-01 -0.63729247386E-01  0.69452764884E-01  0.88680521961E+00  0.88000000000E+00 0.  1.
        -11    1    4    4    0    0  0.60858751278E-01  0.54286705038E-01 -0.73027159685E-01  0.10947173664E+00  0.51100000000E-03 0. -1.
         11    1    4    4    0    0  0.15017528389E-01  0.18059933754E-01 -0.55884701614E-02  0.24149109421E-01  0.51100000000E-03 0.  1.
</event>
<event>
 8    1  0.1204770E+005  0.1043930E+01  0.7957747E-01            NaN
         13   -1    0    0    0    0  0.00000000000E+00  0.00000000000E+00  0.74505805969E-08  0.10566000000E+00  0.10566000000E+00 0. -1.
     999900   -1    0    0    0    0 -0.00000000000E+00 -0.00000000000E+00 -0.74505805969E-08  0.93827000000E+00  0.93827000000E+00 0.  1.
     999902    2    1    2    0    0  0.36291806150E-04 -0.21673444761E-01  0.61132369308E-02  0.10214108706E+01  0.10211625998E+01 0.  0.
     999903    2    3    3    0    0  0.26183606570E-01 -0.12550348891E+00  0.35027924001E-01  0.13444953022E+00  0.20322739324E-01 0.  0.
         14    1    1    2    0    0 -0.36291806150E-04  0.21673444761E-01 -0.61132369308E-02  0.22519129439E-01  0.00000000000E+00 0.  1.
     999901    1    3    3    0    0 -0.26147314764E-01  0.10383004415E+00 -0.28914687070E-01  0.88696134034E+00  0.88000000000E+00 0.  1.
        -11    1    4    4    0    0  0.11399348304E-01 -0.65608287211E-01  0.28411637534E-01  0.72400792543E-01  0.51100000000E-03 0. -1.
         11    1    4    4    0    0  0.14784258266E-01 -0.59895201701E-01  0.66162864669E-02  0.62048737673E-01  0.51100000000E-03 0.  1.
</event>
<event>
 8    1  0.1204770E+005  0.1043930E+01  0.7957747E-01            NaN
         13   -1    0    0    0    0  0.00000000000E+00  0.00000000000E+00  0.74505805969E-08  0.10566000000E+00  0.10566000000E+00 0.  1.
     999900   -1    0    0    0    0 -0.00000000000E+00 -0.00000000000E+00 -0.74505805969E-08  0.93827000000E+00  0.93827000000E+00 0. -1.
     999902    2    1    2    0    0  0.15417853714E-01  0.62144790676E-02  0.16605816901E-01  0.10204335509E+01  0.10201630011E+01 0.  0.
     999903    2    3    3    0    0 -0.38136780256E-01 -0.21229267450E-01 -0.11852974810E+00  0.12808671312E+00  0.21255801320E-01 0.  0.
         14    1    1    2    0    0 -0.15417853714E-01 -0.62144790676E-02 -0.16605816901E-01  0.23496449055E-01  0.00000000000E+00 0. -1.
     999901    1    3    3    0    0  0.53554633970E-01  0.27443746517E-01  0.13513556500E+00  0.89234683782E+00  0.88000000000E+00 0.  1.
        -11    1    4    4    0    0 -0.14083718143E-01 -0.77280353333E-03 -0.19010714703E-01  0.23677346485E-01  0.51100000000E-03 0. -1.
         11    1    4    4    0    0 -0.24053062113E-01 -0.20456463917E-01 -0.99519033395E-01  0.10440936664E+00  0.51100000000E-03 0.  1.
</event>
<event>
 8    1  0.1204770E+005  0.1043930E+01  0.7957747E-01            NaN
         13   -1    0    0    0    0  0.00000000000E+00  0.00000000000E+00  0.74505805969E-08  0.10566000000E+00  0.10566000000E+00 0. -1.
     999900   -1    0    0    0    0 -0.00000000000E+00 -0.00000000000E+00 -0.74505805969E-08  0.93827000000E+00  0.93827000000E+00 0.  1.
     999902    2    1    2    0    0  0.18315824410E-01 -0.15673561534E-01 -0.68935531229E-03  0.10198135084E+01  0.10195283158E+01 0.  0.
     999903    2    3    3    0    0 -0.53526218019E-01  0.63011297126E-01 -0.95973578579E-01  0.12828018362E+00  0.20233589478E-01 0.  0.
         14    1    1    2    0    0 -0.18315824410E-01  0.15673561534E-01  0.68935531229E-03  0.24116491572E-01  0.00000000000E+00 0.  1.
     999901    1    3    3    0    0  0.71842042429E-01 -0.78684858660E-01  0.95284223266E-01  0.89153332481E+00  0.88000000000E+00 0. -1.
        -11    1    4    4    0    0 -0.67271543538E-02  0.18571358942E-01 -0.15436202122E-01  0.25073640255E-01  0.51100000000E-03 0. -1.
         11    1    4    4    0    0 -0.46799063665E-01  0.44439938184E-01 -0.80537376456E-01  0.10320654336E+00  0.51100000000E-03 0.  1.
</event>
<event>
 8    1  0.1204770E+005  0.1043930E+01  0.7957747E-01            NaN
         13   -1    0    0    0    0  0.00000000000E+00  0.00000000000E+00  0.74505805969E-08  0.10566000000E+00  0.10566000000E+00 0.  1.
     999900   -1    0    0    0    0 -0.00000000000E+00 -0.00000000000E+00 -0.74505805969E-08  0.93827000000E+00  0.93827000000E+00 0.  1.
     999902    2    1    2    0    0 -0.15506713067E-01 -0.12459552194E-01 -0.13868465715E-01  0.10196806097E+01  0.10193922271E+01 0.  0.
     999903    2    3    3    0    0 -0.15833959288E-01 -0.51138329060E-02 -0.12951576233E+00  0.13208364937E+00  0.19871894391E-01 0.  0.
         14    1    1    2    0    0  0.15506713067E-01  0.12459552194E-01  0.13868465715E-01  0.24249390349E-01  0.00000000000E+00 0.  1.
     999901    1    3    3    0    0  0.32724622181E-03 -0.73457192885E-02  0.11564729661E+00  0.88759696028E+00  0.88000000000E+00 0. -1.
        -11    1    4    4    0    0 -0.17420998818E-01 -0.41125357525E-02 -0.61854562771E-01  0.64394504476E-01  0.51100000000E-03 0.  1.
         11    1    4    4    0    0  0.15870395296E-02 -0.10012971534E-02 -0.67661199556E-01  0.67689144896E-01  0.51100000000E-03 0. -1.
</event>
<event>
 8    1  0.1204770E+005  0.1043930E+01  0.7957747E-01            NaN
         13   -1    0    0    0    0  0.00000000000E+00  0.00000000000E+00  0.74505805969E-08  0.10566000000E+00  0.10566000000E+00 0. -1.
     999900   -1    0    0    0    0 -0.00000000000E+00 -0.00000000000E+00 -0.74505805969E-08  0.93827000000E+00  0.93827000000E+00 0.  1.
     999902    2    1    2    0    0 -0.10182233436E-01 -0.15050929329E-01 -0.15346645179E-01  0.10201449654E+01  0.10198676496E+01 0.  0.
     999903    2    3    3    0    0  0.69047357455E-01  0.84872067195E-01 -0.66373907664E-01  0.12949031023E+00  0.19784829122E-01 0.  0.
         14    1    1    2    0    0  0.10182233436E-01  0.15050929329E-01  0.15346645179E-01  0.23785034573E-01  0.00000000000E+00 0. -1.
     999901    1    3    3    0    0 -0.79229590891E-01 -0.99922996523E-01  0.51027262485E-01  0.89065465520E+00  0.88000000000E+00 0. -1.
        -11    1    4    4    0    0  0.43731037381E-02  0.82126318646E-02 -0.12645287684E-01  0.15707825440E-01  0.51100000000E-03 0. -1.
         11    1    4    4    0    0  0.64674253717E-01  0.76659435330E-01 -0.53728619981E-01  0.11378248479E+00  0.51100000000E-03 0.  1.
</event>
<event>
 8    1  0.1204770E+005  0.1043930E+01  0.7957747E-01            NaN
         13   -1    0    0    0    0  0.00000000000E+00  0.00000000000E+00  0.74505805969E-08  0.10566000000E+00  0.10566000000E+00 0. -1.
     999900   -1    0    0    0    0 -0.00000000000E+00 -0.00000000000E+00 -0.74505805969E-08  0.93827000000E+00  0.93827000000E+00 0. -1.
     999902    2    1    2    0    0 -0.16031104442E-01 -0.13266685091E-01 -0.10705957616E-01  0.10205287442E+01  0.10202604075E+01 0.  0.
     999903    2    3    3    0    0 -0.94765838341E-02 -0.30339600570E-01 -0.12724139266E+00  0.13265772105E+00  0.19934942835E-01 0.  0.
         14    1    1    2    0    0  0.16031104442E-01  0.13266685091E-01  0.10705957616E-01  0.23401255766E-01  0.00000000000E+00 0. -1.
     999901    1    3    3    0    0 -0.65545206081E-02  0.17072915479E-01  0.11653543504E+00  0.88787102318E+00  0.88000000000E+00 0.  1.
        -11    1    4    4    0    0 -0.23310110630E-02 -0.49309289099E-02 -0.62517643966E-01  0.62757187641E-01  0.51100000000E-03 0. -1.
         11    1    4    4    0    0 -0.71455727711E-02 -0.25408671661E-01 -0.64723748691E-01  0.69900533413E-01  0.51100000000E-03 0.  1.
</event>
<event>
 8    1  0.1204770E+005  0.1043930E+01  0.7957747E-01            NaN
         13   -1    0    0    0    0  0.00000000000E+00  0.00000000000E+00  0.74505805969E-08  0.10566000000E+00  0.10566000000E+00 0. -1.
     999900   -1    0    0    0    0 -0.00000000000E+00 -0.00000000000E+00 -0.74505805969E-08  0.93827000000E+00  0.93827000000E+00 0.  1.
     999902    2    1    2    0    0 -0.11306750702E-01 -0.90917810285E-02  0.19187088368E-01  0.10198749079E+01  0.10195911830E+01 0.  0.
     999903    2    3    3    0    0  0.12443200037E+00  0.74056267743E-02  0.27944642148E-01  0.12927181579E+00  0.19802356158E-01 0.  0.
         14    1    1    2    0    0  0.11306750702E-01  0.90917810285E-02 -0.19187088368E-01  0.24055092054E-01  0.00000000000E+00 0.  1.
     999901    1    3    3    0    0 -0.13573875107E+00 -0.16497407803E-01 -0.87575537803E-02  0.89060309215E+00  0.88000000000E+00 0. -1.
        -11    1    4    4    0    0  0.96278718972E-01  0.34075972650E-02  0.13211960634E-01  0.97242071506E-01  0.51100000000E-03 0. -1.
         11    1    4    4    0    0  0.28153281397E-01  0.39980295093E-02  0.14732681514E-01  0.32029744285E-01  0.51100000000E-03 0.  1.
</event>
<event>
 8    1  0.1204770E+005  0.1043930E+01  0.7957747E-01            NaN
         13   -1    0    0    0    0  0.00000000000E+00  0.00000000000E+00  0.74505805969E-08  0.10566000000E+00  0.10566000000E+00 0. -1.
     999900   -1    0    0    0    0 -0.00000000000E+00 -0.00000000000E+00 -0.74505805969E-08  0.93827000000E+00  0.93827000000E+00 0.  1.
     999902    2    1    2    0    0 -0.11095286466E-02  0.21438980086E-02  0.22276760506E-01  0.10215228268E+01  0.10212770458E+01 0.  0.
     999903    2    3    3    0    0  0.65654542755E-01 -0.33255967785E-01 -0.10373532347E+00  0.12934031349E+00  0.23482354678E-01 0.  0.
         14    1    1    2    0    0  0.11095286466E-02 -0.21438980086E-02 -0.22276760506E-01  0.22407173207E-01  0.00000000000E+00 0.  1.
     999901    1    3    3    0    0 -0.66764071402E-01  0.35399865793E-01  0.12601208398E+00  0.89218251330E+00  0.88000000000E+00 0. -1.
        -11    1    4    4    0    0  0.28933631284E-01 -0.17866039936E-01 -0.67126852133E-01  0.75250420600E-01  0.51100000000E-03 0. -1.
         11    1    4    4    0    0  0.36720911471E-01 -0.15389927848E-01 -0.36608471339E-01  0.54089892894E-01  0.51100000000E-03 0.  1.
</event>
<event>
 8    1  0.1204770E+005  0.1043930E+01  0.7957747E-01            NaN
         13   -1    0    0    0    0  0.00000000000E+00  0.00000000000E+00  0.74505805969E-08  0.10566000000E+00  0.10566000000E+00 0.  1.
     999900   -1    0    0    0    0 -0.00000000000E+00 -0.00000000000E+00 -0.74505805969E-08  0.93827000000E+00  0.93827000000E+00 0. -1.
     999902    2    1    2    0    0  0.21293104102E-01 -0.10172481825E-01  0.63935214902E-03  0.10203231273E+01  0.10200499986E+01 0.  0.
     999903    2    3    3    0    0  0.11365052586E+00  0.64768556582E-01  0.84036821926E-04  0.13232179790E+00  0.19940992619E-01 0.  0.
         14    1    1    2    0    0 -0.21293104102E-01  0.10172481825E-01 -0.63935214902E-03  0.23606872727E-01  0.00000000000E+00 0. -1.
     999901    1    3    3    0    0 -0.92357421762E-01 -0.74941038407E-01  0.55531532710E-03  0.88800132937E+00  0.88000000000E+00 0. -1.
        -11    1    4    4    0    0  0.34955476768E-01  0.30806269511E-01 -0.87541706356E-03  0.46604067133E-01  0.51100000000E-03 0.  1.
         11    1    4    4    0    0  0.78695049096E-01  0.33962287072E-01  0.95945388548E-03  0.85717730768E-01  0.51100000000E-03 0. -1.
</event>
<event>
 8    1  0.1204770E+005  0.1043930E+01  0.7957747E-01            NaN
         13   -1    0    0    0    0  0.00000000000E+00  0.00000000000E+00  0.74505805969E-08  0.10566000000E+00  0.10566000000E+00 0.  1.
     999900   -1    0    0    0    0 -0.00000000000E+00 -0.00000000000E+00 -0.74505805969E-08  0.93827000000E+00  0.93827000000E+00 0. -1.
     999902    2    1    2    0    0  0.11467366131E-02  0.15474169498E-01 -0.17351465300E-01  0.10206525802E+01  0.10203871085E+01 0.  0.
     999903    2    3    3    0    0 -0.92707294109E-01  0.31141159624E-01 -0.87433892803E-01  0.13275304738E+00  0.20353667333E-01 0.  0.
         14    1    1    2    0    0 -0.11467366131E-02 -0.15474169498E-01  0.17351465300E-01  0.23277419843E-01  0.00000000000E+00 0.  1.
     999901    1    3    3    0    0  0.93854030722E-01 -0.15666990126E-01  0.70082427503E-01  0.88789953278E+00  0.88000000000E+00 0.  1.
        -11    1    4    4    0    0 -0.88567805290E-01  0.24745722973E-01 -0.77770242851E-01  0.12043703223E+00  0.51100000000E-03 0. -1.
         11    1    4    4    0    0 -0.41394888195E-02  0.63954366514E-02 -0.96636499520E-02  0.12316015145E-01  0.51100000000E-03 0.  1.
</event>
<event>
 8    1  0.1204770E+005  0.1043930E+01  0.7957747E-01            NaN
         13   -1    0    0    0    0  0.00000000000E+00  0.00000000000E+00  0.74505805969E-08  0.10566000000E+00  0.10566000000E+00 0.  1.
     999900   -1    0    0    0    0 -0.00000000000E+00 -0.00000000000E+00 -0.74505805969E-08  0.93827000000E+00  0.93827000000E+00 0. -1.
     999902    2    1    2    0    0  0.29724588405E-02 -0.41370830460E-02 -0.21346327846E-01  0.10219842332E+01  0.10217485778E+01 0.  0.
     999903    2    3    3    0    0  0.91379033823E-01  0.79579056675E-01 -0.51983308405E-01  0.13307324828E+00  0.17979737773E-01 0.  0.
         14    1    1    2    0    0 -0.29724588405E-02  0.41370830460E-02  0.21346327846E-01  0.21945766794E-01  0.00000000000E+00 0.  1.
     999901    1    3    3    0    0 -0.88406574982E-01 -0.83716139721E-01  0.30636980559E-01  0.88891098493E+00  0.88000000000E+00 0. -1.
        -11    1    4    4    0    0  0.62840683176E-01  0.54160208835E-01 -0.26320129710E-01  0.87036142102E-01  0.51100000000E-03 0.  1.
         11    1    4    4    0    0  0.28538350647E-01  0.25418847840E-01 -0.25663178695E-01  0.46037106174E-01  0.51100000000E-03 0. -1.
</event>
<event>
 8    1  0.1204770E+005  0.1043930E+01  0.7957747E-01            NaN
         13   -1    0    0    0    0  0.00000000000E+00  0.00000000000E+00  0.74505805969E-08  0.10566000000E+00  0.10566000000E+00 0.  1.
     999900   -1    0    0    0    0 -0.00000000000E+00 -0.00000000000E+00 -0.74505805969E-08  0.93827000000E+00  0.93827000000E+00 0.  1.
     999902    2    1    2    0    0  0.24945252062E-01  0.30035477582E-02 -0.98660156533E-02  0.10169369423E+01  0.10165786342E+01 0.  0.
     999903    2    3    3    0    0 -0.93055651386E-01  0.72531010926E-02  0.79927124974E-01  0.12452163537E+00  0.20132824917E-01 0.  0.
         14    1    1    2    0    0 -0.24945252062E-01 -0.30035477582E-02  0.98660156533E-02  0.26993057708E-01  0.00000000000E+00 0.  1.
     999901    1    3    3    0    0  0.11800090345E+00 -0.42495533344E-02 -0.89793140628E-01  0.89241530692E+00  0.88000000000E+00 0.  1.
        -11    1    4    4    0    0 -0.40426796634E-01  0.10836098222E-01  0.27093361985E-01  0.49860388039E-01  0.51100000000E-03 0.  1.
         11    1    4    4    0    0 -0.52628854752E-01 -0.35829971298E-02  0.52833762989E-01  0.74661247334E-01  0.51100000000E-03 0. -1.
</event>
<event>
 8    1  0.1204770E+005  0.1043930E+01  0.7957747E-01            NaN
         13   -1    0    0    0    0  0.00000000000E+00  0.00000000000E+00  0.74505805969E-08  0.10566000000E+00  0.10566000000E+00 0. -1.
     999900   -1    0    0    0    0 -0.00000000000E+00 -0.00000000000E+00 -0.74505805969E-08  0.93827000000E+00  0.93827000000E+00 0. -1.
     999902    2    1    2    0    0 -0.76597412611E-03  0.13228111365E-01  0.19706204716E-01  0.10201833339E+01  0.10199069225E+01 0.  0.
     999903    2    3    3    0    0 -0.29868881300E-01 -0.10134986257E+00  0.74192676451E-01  0.13060822919E+00  0.19748710812E-01 0.  0.
         14    1    1    2    0    0  0.76597412611E-03 -0.13228111365E-01 -0.19706204716E-01  0.23746666102E-01  0.00000000000E+00 0.  1.
     999901    1    3    3    0    0  0.29102907174E-01  0.11457797394E+00 -0.54486471735E-01  0.88957510471E+00  0.88000000000E+00 0. -1.
        -11    1    4    4    0    0 -0.82194205061E-02 -0.27039276814E-01  0.97772214171E-02  0.29908803783E-01  0.51100000000E-03 0.  1.
         11    1    4    4    0    0 -0.21649460794E-01 -0.74310585760E-01  0.64415455034E-01  0.10069942540E+00  0.51100000000E-03 0. -1.
</event>
<event>
 8    1  0.1204770E+005  0.1043930E+01  0.7957747E-01            NaN
         13   -1    0    0    0    0  0.00000000000E+00  0.00000000000E+00  0.74505805969E-08  0.10566000000E+00  0.10566000000E+00 0.  1.
     999900   -1    0    0    0    0 -0.00000000000E+00 -0.00000000000E+00 -0.74505805969E-08  0.93827000000E+00  0.93827000000E+00 0.  1.
     999902    2    1    2    0    0  0.10496008372E-01  0.18085495579E-01 -0.11160135404E-01  0.10202276802E+01  0.10199523123E+01 0.  0.
     999903    2    3    3    0    0  0.63179548752E-01  0.79875295898E-01  0.81081052270E-01  0.13168844552E+00  0.19899531913E-01 0.  0.
         14    1    1    2    0    0 -0.10496008372E-01 -0.18085495579E-01  0.11160135404E-01  0.23702319809E-01  0.00000000000E+00 0.  1.
     999901    1    3    3    0    0 -0.52683540380E-01 -0.61789800319E-01 -0.92241187674E-01  0.88853923467E+00  0.88000000000E+00 0.  1.
        -11    1    4    4    0    0  0.59755818837E-01  0.80034939889E-01  0.75871603111E-01  0.12543169762E+00  0.51100000000E-03 0.  1.
         11    1    4    4    0    0  0.34237299148E-02 -0.15964399018E-03  0.52094491593E-02  0.62567478994E-02  0.51100000000E-03 0. -1.
</event>
<event>
 8    1  0.1204770E+005  0.1043930E+01  0.7957747E-01            NaN
         13   -1    0    0    0    0  0.00000000000E+00  0.00000000000E+00  0.74505805969E-08  0.10566000000E+00  0.10566000000E+00 0.  1.
     999900   -1    0    0    0    0 -0.00000000000E+00 -0.00000000000E+00 -0.74505805969E-08  0.93827000000E+00  0.93827000000E+00 0.  1.
     999902    2    1    2    0    0 -0.19146310746E-01 -0.10923537808E-01  0.65841466523E-02  0.10209244381E+01  0.10206652009E+01 0.  0.
     999903    2    3    3    0    0  0.14656526298E-02 -0.60778634598E-01 -0.11554178375E+00  0.13085414499E+00  0.87585904689E-02 0.  0.
         14    1    1    2    0    0  0.19146310746E-01  0.10923537808E-01 -0.65841466523E-02  0.23005561948E-01  0.00000000000E+00 0.  1.
     999901    1    3    3    0    0 -0.20611963376E-01  0.49855096790E-01  0.12212593041E+00  0.89007029306E+00  0.88000000000E+00 0. -1.
        -11    1    4    4    0    0 -0.56187853962E-03 -0.32708375830E-01 -0.70809652148E-01  0.78002701974E-01  0.51100000000E-03 0.  1.
         11    1    4    4    0    0  0.20275311695E-02 -0.28070258768E-01 -0.44732131607E-01  0.52851443018E-01  0.51100000000E-03 0. -1.
</event>
<event>
 8    1  0.1204770E+005  0.1043930E+01  0.7957747E-01            NaN
         13   -1    0    0    0    0  0.00000000000E+00  0.00000000000E+00  0.74505805969E-08  0.10566000000E+00  0.10566000000E+00 0.  1.
     999900   -1    0    0    0    0 -0.00000000000E+00 -0.00000000000E+00 -0.74505805969E-08  0.93827000000E+00  0.93827000000E+00 0. -1.
     999902    2    1    2    0    0 -0.49873371580E-02  0.10331362493E-01 -0.20457480695E-01  0.10204753821E+01  0.10202058059E+01 0.  0.
     999903    2    3    3    0    0  0.38468159370E-01  0.10849164165E+00 -0.63363409123E-01  0.13291426352E+00  0.20026088948E-01 0.  0.
         14    1    1    2    0    0  0.49873371580E-02 -0.10331362493E-01  0.20457480695E-01  0.23454617867E-01  0.00000000000E+00 0.  1.
     999901    1    3    3    0    0 -0.43455496528E-01 -0.98160279154E-01  0.42905928428E-01  0.88756111861E+00  0.88000000000E+00 0.  1.
        -11    1    4    4    0    0  0.20884434726E-01  0.77652089991E-01 -0.36072100304E-01  0.88133218681E-01  0.51100000000E-03 0.  1.
         11    1    4    4    0    0  0.17583724644E-01  0.30839551656E-01 -0.27291308819E-01  0.44781044838E-01  0.51100000000E-03 0. -1.
</event>
<event>
 8    1  0.1204770E+005  0.1043930E+01  0.7957747E-01            NaN
         13   -1    0    0    0    0  0.00000000000E+00  0.00000000000E+00  0.74505805969E-08  0.10566000000E+00  0.10566000000E+00 0. -1.
     999900   -1    0    0    0    0 -0.00000000000E+00 -0.00000000000E+00 -0.74505805969E-08  0.93827000000E+00  0.93827000000E+00 0.  1.
     999902    2    1    2    0    0 -0.75402516849E-02  0.11174799962E-01 -0.19573497381E-01  0.10201633564E+01  0.10198864742E+01 0.  0.
     999903    2    3    3    0    0  0.31167902298E-01 -0.73191418045E-01  0.97720998293E-01  0.12754138788E+00  0.19722837137E-01 0.  0.
         14    1    1    2    0    0  0.75402516849E-02 -0.11174799962E-01  0.19573497381E-01  0.23766643629E-01  0.00000000000E+00 0. -1.
     999901    1    3    3    0    0 -0.38708153983E-01  0.84366218007E-01 -0.11729449567E+00  0.89262196850E+00  0.88000000000E+00 0.  1.
        -11    1    4    4    0    0  0.13461321302E-01 -0.52323526724E-01  0.57622375761E-01  0.78990872443E-01  0.51100000000E-03 0. -1.
         11    1    4    4    0    0  0.17706580996E-01 -0.20867891321E-01  0.40098622533E-01  0.48550515432E-01  0.51100000000E-03 0.  1.
</event>
<event>
 8    1  0.1204770E+005  0.1043930E+01  0.7957747E-01            NaN
         13   -1    0    0    0    0  0.00000000000E+00  0.00000000000E+00  0.74505805969E-08  0.10566000000E+00  0.10566000000E+00 0.  1.
     999900   -1    0    0    0    0 -0.00000000000E+00 -0.00000000000E+00 -0.74505805969E-08  0.93827000000E+00  0.93827000000E+00 0.  1.
     999902    2    1    2    0    0  0.17747125557E-01  0.11183147111E-01  0.10057783633E-01  0.10206666757E+01  0.10204015291E+01 0.  0.
     999903    2    3    3    0    0  0.81313968652E-01  0.10196675577E+00  0.21400762918E-01  0.13364296109E+00  0.19830976151E-01 0.  0.
         14    1    1    2    0    0 -0.17747125557E-01 -0.11183147111E-01 -0.10057783633E-01  0.23263324278E-01  0.00000000000E+00 0.  1.
     999901    1    3    3    0    0 -0.63566843095E-01 -0.90783608659E-01 -0.11342979285E-01  0.88702371463E+00  0.88000000000E+00 0.  1.
        -11    1    4    4    0    0  0.47713458801E-01  0.45957300295E-01  0.58944295503E-02  0.66510548200E-01  0.51100000000E-03 0.  1.
         11    1    4    4    0    0  0.33600509851E-01  0.56009455474E-01  0.15506333368E-01  0.67132412889E-01  0.51100000000E-03 0. -1.
</event>
<event>
 8    1  0.1204770E+005  0.1043930E+01  0.7957747E-01            NaN
         13   -1    0    0    0    0  0.00000000000E+00  0.00000000000E+00  0.74505805969E-08  0.10566000000E+00  0.10566000000E+00 0. -1.
     999900   -1    0    0    0    0 -0.00000000000E+00 -0.00000000000E+00 -0.74505805969E-08  0.93827000000E+00  0.93827000000E+00 0.  1.
     999902    2    1    2    0    0  0.16136754735E-03 -0.11921303624E-01 -0.19582740884E-01  0.10210034377E+01  0.10207459980E+01 0.  0.
     999903    2    3    3    0    0 -0.92544462147E-02  0.21758398200E-01 -0.12979924175E+00  0.13343898541E+00  0.19976160772E-01 0.  0.
         14    1    1    2    0    0 -0.16136754735E-03  0.11921303624E-01  0.19582740884E-01  0.22926562327E-01  0.00000000000E+00 0. -1.
     999901    1    3    3    0    0  0.94158137620E-02 -0.33679701824E-01  0.11021650087E+00  0.88756445227E+00  0.88000000000E+00 0. -1.
        -11    1    4    4    0    0 -0.61715763496E-02 -0.46024173008E-03 -0.11890323818E-01  0.13414212559E-01  0.51100000000E-03 0. -1.
         11    1    4    4    0    0 -0.30828698651E-02  0.22218639930E-01 -0.11790891794E+00  0.12002477285E+00  0.51100000000E-03 0.  1.
</event>
<event>
 8    1  0.1204770E+005  0.1043930E+01  0.7957747E-01            NaN
         13   -1    0    0    0    0  0.00000000000E+00  0.00000000000E+00  0.74505805969E-08  0.10566000000E+00  0.10566000000E+00 0. -1.
     999900   -1    0    0    0    0 -0.00000000000E+00 -0.00000000000E+00 -0.74505805969E-08  0.93827000000E+00  0.93827000000E+00 0.  1.
     999902    2    1    2    0    0  0.25454137181E-01 -0.14081641520E-01 -0.14399502182E-01  0.10114715436E+01  0.10109506082E+01 0.  0.
     999903    2    3    3    0    0 -0.77685636095E-01 -0.88525094526E-01 -0.26177045585E-01  0.12224808967E+00  0.19687744808E-01 0.  0.
         14    1    1    2    0    0 -0.25454137181E-01  0.14081641520E-01  0.14399502182E-01  0.32458456381E-01  0.00000000000E+00 0. -1.
     999901    1    3    3    0    0  0.10313977328E+00  0.74443453007E-01  0.11777543403E-01  0.88922345395E+00  0.88000000000E+00 0.  1.
        -11    1    4    4    0    0 -0.38608633203E-01 -0.49505441032E-01 -0.23236383986E-01  0.66944797492E-01  0.51100000000E-03 0.  1.
         11    1    4    4    0    0 -0.39077002892E-01 -0.39019653495E-01 -0.29406615991E-02  0.55303292176E-01  0.51100000000E-03 0. -1.
</event>
<event>
 8    1  0.1204770E+005  0.1043930E+01  0.7957747E-01            NaN
         13   -1    0    0    0    0  0.00000000000E+00  0.00000000000E+00  0.74505805969E-08  0.10566000000E+00  0.10566000000E+00 0. -1.
     999900   -1    0    0    0    0 -0.00000000000E+00 -0.00000000000E+00 -0.74505805969E-08  0.93827000000E+00  0.93827000000E+00 0. -1.
     999902    2    1    2    0    0  0.21157499435E-01 -0.93564688472E-02  0.76764846042E-03  0.10207832383E+01  0.10205207725E+01 0.  0.
     999903    2    3    3    0    0  0.57644226646E-01 -0.29498539297E-01  0.11403173269E+00  0.13254580552E+00  0.19290770168E-01 0.  0.
         14    1    1    2    0    0 -0.21157499435E-01  0.93564688472E-02 -0.76764846042E-03  0.23146761670E-01  0.00000000000E+00 0.  1.
     999901    1    3    3    0    0 -0.36486727211E-01  0.20142070450E-01 -0.11326408423E+00  0.88823743281E+00  0.88000000000E+00 0. -1.
        -11    1    4    4    0    0  0.20820863770E-01 -0.81315713950E-03  0.37395229521E-01  0.42811609460E-01  0.51100000000E-03 0. -1.
         11    1    4    4    0    0  0.36823362877E-01 -0.28685382157E-01  0.76636503174E-01  0.89734196061E-01  0.51100000000E-03 0.  1.
</event>
<event>
 8    1  0.1204770E+005  0.1043930E+01  0.7957747E-01            NaN
         13   -1    0    0    0    0  0.00000000000E+00  0.00000000000E+00  0.74505805969E-08  0.10566000000E+00  0.10566000000E+00 0.  1.
     999900   -1    0    0    0    0 -0.00000000000E+00 -0.00000000000E+00 -0.74505805969E-08  0.93827000000E+00  0.93827000000E+00 0.  1.
     999902    2    1    2    0    0  0.25586711560E-01  0.12947296625E-01  0.99864070451E-02  0.10135648782E+01  0.10131099257E+01 0.  0.
     999903    2    3    3    0    0  0.37486562338E-01 -0.73816063578E-01 -0.89860661722E-01  0.12359919104E+00  0.18648536193E-01 0.  0.
         14    1    1    2    0    0 -0.25586711560E-01 -0.12947296625E-01 -0.99864070451E-02  0.30365121834E-01  0.00000000000E+00 0.  1.
     999901    1    3    3    0    0 -0.11899850778E-01  0.86763360203E-01  0.99847068767E-01  0.88996568713E+00  0.88000000000E+00 0. -1.
        -11    1    4    4    0    0  0.91335554381E-02 -0.26510735304E-01 -0.19315627777E-01  0.34052834224E-01  0.51100000000E-03 0. -1.
         11    1    4    4    0    0  0.28353006900E-01 -0.47305328275E-01 -0.70545033945E-01  0.89546356814E-01  0.51100000000E-03 0.  1.
</event>
<event>
 8    1  0.1204770E+005  0.1043930E+01  0.7957747E-01            NaN
         13   -1    0    0    0    0  0.00000000000E+00  0.00000000000E+00  0.74505805969E-08  0.10566000000E+00  0.10566000000E+00 0.  1.
     999900   -1    0    0    0    0 -0.00000000000E+00 -0.00000000000E+00 -0.74505805969E-08  0.93827000000E+00  0.93827000000E+00 0. -1.
     999902    2    1    2    0    0 -0.20164325572E-01 -0.12359002194E-01 -0.60609797959E-02  0.10195152414E+01  0.10192228643E+01 0.  0.
     999903    2    3    3    0    0  0.10569278805E+00 -0.62333925990E-01 -0.34154294647E-01  0.12871406247E+00  0.18555599120E-01 0.  0.
         14    1    1    2    0    0  0.20164325572E-01  0.12359002194E-01  0.60609797959E-02  0.24414758592E-01  0.00000000000E+00 0.  1.
     999901    1    3    3    0    0 -0.12585711363E+00  0.49974923796E-01  0.28093314851E-01  0.89080117894E+00  0.88000000000E+00 0.  1.
        -11    1    4    4    0    0  0.64279655110E-01 -0.46533836262E-01 -0.26927266771E-01  0.83801019058E-01  0.51100000000E-03 0.  1.
         11    1    4    4    0    0  0.41413132944E-01 -0.15800089728E-01 -0.72270278764E-02  0.44913043413E-01  0.51100000000E-03 0. -1.
</event>
<event>
 8    1  0.1204770E+005  0.1043930E+01  0.7957747E-01            NaN
         13   -1    0    0    0    0  0.00000000000E+00  0.00000000000E+00  0.74505805969E-08  0.10566000000E+00  0.10566000000E+00 0.  1.
     999900   -1    0    0    0    0 -0.00000000000E+00 -0.00000000000E+00 -0.74505805969E-08  0.93827000000E+00  0.93827000000E+00 0. -1.
     999902    2    1    2    0    0 -0.23414584266E-01 -0.34601970164E-02 -0.90341246990E-03  0.10202438886E+01  0.10199689016E+01 0.  0.
     999903    2    3    3    0    0 -0.71302265347E-01 -0.47974892515E-01  0.98526812713E-01  0.13223422772E+00  0.19818042329E-01 0.  0.
         14    1    1    2    0    0  0.23414584266E-01  0.34601970164E-02  0.90341246990E-03  0.23686111412E-01  0.00000000000E+00 0.  1.
     999901    1    3    3    0    0  0.47887681081E-01  0.44514695499E-01 -0.99430225183E-01  0.88800966087E+00  0.88000000000E+00 0. -1.
        -11    1    4    4    0    0 -0.60502393950E-01 -0.39620583668E-01  0.70228362512E-01  0.10080979291E+00  0.51100000000E-03 0. -1.
         11    1    4    4    0    0 -0.10799871397E-01 -0.83543088477E-02  0.28298450201E-01  0.31424434812E-01  0.51100000000E-03 0.  1.
</event>
<event>
 8    1  0.1204770E+005  0.1043930E+01  0.7957747E-01            NaN
         13   -1    0    0    0    0  0.00000000000E+00  0.00000000000E+00  0.74505805969E-08  0.10566000000E+00  0.10566000000E+00 0. -1.
     999900   -1    0    0    0    0 -0.00000000000E+00 -0.00000000000E+00 -0.74505805969E-08  0.93827000000E+00  0.93827000000E+00 0. -1.
     999902    2    1    2    0    0  0.16326145258E-01 -0.89555583625E-02 -0.16485832550E-01  0.10190597825E+01  0.10187562577E+01 0.  0.
     999903    2    3    3    0    0 -0.52393451744E-02  0.10850627198E+00  0.63536907244E-01  0.12739505241E+00  0.19786333667E-01 0.  0.
         14    1    1    2    0    0 -0.16326145258E-01  0.89555583625E-02  0.16485832550E-01  0.24870217519E-01  0.00000000000E+00 0. -1.
     999901    1    3    3    0    0  0.21565490433E-01 -0.11746183034E+00 -0.80022739795E-01  0.89166473007E+00  0.88000000000E+00 0.  1.
        -11    1    4    4    0    0 -0.99188103620E-02  0.95009341197E-01  0.59499375697E-01  0.11254152364E+00  0.51100000000E-03 0. -1.
         11    1    4    4    0    0  0.46794651876E-02  0.13496930783E-01  0.40375315469E-02  0.14853528772E-01  0.51100000000E-03 0.  1.
</event>
<event>
 8    1  0.1204770E+005  0.1043930E+01  0.7957747E-01            NaN
         13   -1    0    0    0    0  0.00000000000E+00  0.00000000000E+00  0.74505805969E-08  0.10566000000E+00  0.10566000000E+00 0. -1.
     999900   -1    0    0    0    0 -0.00000000000E+00 -0.00000000000E+00 -0.74505805969E-08  0.93827000000E+00  0.93827000000E+00 0.  1.
     999902    2    1    2    0    0 -0.17013099464E-01  0.11955314586E-01  0.11380507777E-01  0.10202257587E+01  0.10199503456E+01 0.  0.
     999903    2    3    3    0    0 -0.80001956103E-02 -0.81584430639E-01  0.99886886690E-01  0.13080780546E+00  0.20329028097E-01 0.  0.
         14    1    1    2    0    0  0.17013099464E-01 -0.11955314586E-01 -0.11380507777E-01  0.23704241339E-01  0.00000000000E+00 0.  1.
     999901    1    3    3    0    0 -0.90129038538E-02  0.93539745225E-01 -0.88506378913E-01  0.88941795320E+00  0.88000000000E+00 0.  1.
        -11    1    4    4    0    0 -0.15174221803E-02 -0.42451989689E-01  0.36385885853E-01  0.55934495697E-01  0.51100000000E-03 0.  1.
         11    1    4    4    0    0 -0.64827734299E-02 -0.39132440950E-01  0.63501000837E-01  0.74873309760E-01  0.51100000000E-03 0. -1.
</event>
<event>
 8    1  0.1204770E+005  0.1043930E+01  0.7957747E-01            NaN
         13   -1    0    0    0    0  0.00000000000E+00  0.00000000000E+00  0.74505805969E-08  0.10566000000E+00  0.10566000000E+00 0.  1.
     999900   -1    0    0    0    0 -0.00000000000E+00 -0.00000000000E+00 -0.74505805969E-08  0.93827000000E+00  0.93827000000E+00 0.  1.
     999902    2    1    2    0    0 -0.18725474370E-01  0.43349499077E-02  0.12526044978E-01  0.10209879647E+01  0.10207301735E+01 0.  0.
     999903    2    3    3    0    0 -0.10188872196E+00  0.58084336742E-01 -0.58657284757E-01  0.13257804311E+00  0.19523284135E-01 0.  0.
         14    1    1    2    0    0  0.18725474370E-01 -0.43349499077E-02 -0.12526044978E-01  0.22942035304E-01  0.00000000000E+00 0. -1.
     999901    1    3    3    0    0  0.83163247589E-01 -0.53749386834E-01  0.71183329735E-01  0.88840992158E+00  0.88000000000E+00 0. -1.
        -11    1    4    4    0    0 -0.36613450080E-01  0.16152863674E-01 -0.29402533575E-01  0.49661150140E-01  0.51100000000E-03 0.  1.
         11    1    4    4    0    0 -0.65275271879E-01  0.41931473068E-01 -0.29254751182E-01  0.82916892973E-01  0.51100000000E-03 0. -1.
</event>
<event>
 8    1  0.1204770E+005  0.1043930E+01  0.7957747E-01            NaN
         13   -1    0    0    0    0  0.00000000000E+00  0.00000000000E+00  0.74505805969E-08  0.10566000000E+00  0.10566000000E+00 0.  1.
     999900   -1    0    0    0    0 -0.00000000000E+00 -0.00000000000E+00 -0.74505805969E-08  0.93827000000E+00  0.93827000000E+00 0. -1.
     999902    2    1    2    0    0 -0.15699996425E-01 -0.60686471560E-02 -0.16325573123E-01  0.10204812750E+01  0.10202118358E+01 0.  0.
     999903    2    3    3    0    0 -0.81943985802E-01 -0.17178169389E-01 -0.10237936296E+00  0.13373613554E+00  0.19847258686E-01 0.  0.
         14    1    1    2    0    0  0.15699996425E-01  0.60686471560E-02  0.16325573123E-01  0.23448724994E-01  0.00000000000E+00 0.  1.
     999901    1    3    3    0    0  0.66243989377E-01  0.11109522233E-01  0.86053789839E-01  0.88674513946E+00  0.88000000000E+00 0.  1.
        -11    1    4    4    0    0 -0.38975893094E-01 -0.14972105715E-01 -0.61853019947E-01  0.74628020137E-01  0.51100000000E-03 0. -1.
         11    1    4    4    0    0 -0.42968092708E-01 -0.22060636736E-02 -0.40526343014E-01  0.59108115407E-01  0.51100000000E-03 0.  1.
</event>
<event>
 8    1  0.1204770E+005  0.1043930E+01  0.7957747E-01            NaN
         13   -1    0    0    0    0  0.00000000000E+00  0.00000000000E+00  0.74505805969E-08  0.10566000000E+00  0.10566000000E+00 0.  1.
     999900   -1    0    0    0    0 -0.00000000000E+00 -0.00000000000E+00 -0.74505805969E-08  0.93827000000E+00  0.93827000000E+00 0.  1.
     999902    2    1    2    0    0 -0.94371471283E-02 -0.17982079063E-01 -0.13075329090E-01  0.10197767571E+01  0.10194906842E+01 0.  0.
     999903    2    3    3    0    0 -0.95502610613E-01  0.17336645785E-01 -0.86661099696E-01  0.13181868263E+00  0.21088171278E-01 0.  0.
         14    1    1    2    0    0  0.94371471283E-02  0.17982079063E-01  0.13075329090E-01  0.24153242933E-01  0.00000000000E+00 0.  1.
     999901    1    3    3    0    0  0.86065463484E-01 -0.35318724848E-01  0.73585770607E-01  0.88795807444E+00  0.88000000000E+00 0. -1.
        -11    1    4    4    0    0 -0.68221463516E-01  0.60426194939E-02 -0.69903412156E-01  0.97864342263E-01  0.51100000000E-03 0.  1.
         11    1    4    4    0    0 -0.27281147097E-01  0.11294026291E-01 -0.16757687541E-01  0.33954340363E-01  0.51100000000E-03 0. -1.
</event>
<event>
 8    1  0.1204770E+005  0.1043930E+01  0.7957747E-01            NaN
         13   -1    0    0    0    0  0.00000000000E+00  0.00000000000E+00  0.74505805969E-08  0.10566000000E+00  0.10566000000E+00 0.  1.
     999900   -1    0    0    0    0 -0.00000000000E+00 -0.00000000000E+00 -0.74505805969E-08  0.93827000000E+00  0.93827000000E+00 0.  1.
     999902    2    1    2    0    0  0.14800001701E-01  0.50292159188E-02  0.17719748605E-01  0.10203011500E+01  0.10200275065E+01 0.  0.
     999903    2    3    3    0    0  0.94253912202E-01 -0.67388006362E-01 -0.56510305541E-01  0.13065668227E+00  0.21279347308E-01 0.  0.
         14    1    1    2    0    0 -0.14800001701E-01 -0.50292159188E-02 -0.17719748605E-01  0.23628850030E-01  0.00000000000E+00 0. -1.
     999901    1    3    3    0    0 -0.79453910501E-01  0.72417222281E-01  0.74230054146E-01  0.88964446770E+00  0.88000000000E+00 0.  1.
        -11    1    4    4    0    0  0.88157939419E-01 -0.64881247742E-01 -0.58003314716E-01  0.12387915172E+00  0.51100000000E-03 0.  1.
         11    1    4    4    0    0  0.60959727832E-02 -0.25067586203E-02  0.14930091756E-02  0.67775305497E-02  0.51100000000E-03 0. -1.
</event>
<event>
 8    1  0.1204770E+005  0.1043930E+01  0.7957747E-01            NaN
         13   -1    0    0    0    0  0.00000000000E+00  0.00000000000E+00  0.74505805969E-08  0.10566000000E+00  0.10566000000E+00 0. -1.
     999900   -1    0    0    0    0 -0.00000000000E+00 -0.00000000000E+00 -0.74505805969E-08  0.93827000000E+00  0.93827000000E+00 0. -1.
     999902    2    1    2    0    0  0.21039815138E-01  0.70759710211E-02  0.12631504934E-02  0.10216962703E+01  0.10214543211E+01 0.  0.
     999903    2    3    3    0    0  0.38910163183E-01 -0.12321726639E+00  0.17300924155E-01  0.13177892176E+00  0.19231919004E-01 0.  0.
         14    1    1    2    0    0 -0.21039815138E-01 -0.70759710211E-02 -0.12631504934E-02  0.22233729694E-01  0.00000000000E+00 0. -1.
     999901    1    3    3    0    0 -0.17870348045E-01  0.13029323741E+00 -0.16037773662E-01  0.88991734854E+00  0.88000000000E+00 0.  1.
        -11    1    4    4    0    0  0.73280644778E-02 -0.51448373847E-01  0.10940491563E-01  0.53109238153E-01  0.51100000000E-03 0.  1.
         11    1    4    4    0    0  0.31582098705E-01 -0.71768892544E-01  0.63604325921E-02  0.78669683610E-01  0.51100000000E-03 0. -1.
</event>
<event>
 8    1  0.1204770E+005  0.1043930E+01  0.7957747E-01            NaN
         13   -1    0    0    0    0  0.00000000000E+00  0.00000000000E+00  0.74505805969E-08  0.10566000000E+00  0.10566000000E+00 0.  1.
     999900   -1    0    0    0    0 -0.00000000000E+00 -0.00000000000E+00 -0.74505805969E-08  0.93827000000E+00  0.93827000000E+00 0.  1.
     999902    2    1    2    0    0 -0.96234158640E-02  0.18560423786E-01  0.64455504635E-02  0.10220520525E+01  0.10218178671E+01 0.  0.
     999903    2    3    3    0    0  0.11132627918E-01  0.19847061336E-01 -0.12816415924E+00  0.13157339321E+00  0.19174588327E-01 0.  0.
         14    1    1    2    0    0  0.96234158640E-02 -0.18560423786E-01 -0.64455504635E-02  0.21877947454E-01  0.00000000000E+00 0. -1.
     999901    1    3    3    0    0 -0.20756043782E-01 -0.12866375499E-02  0.13460970971E+00  0.89047865934E+00  0.88000000000E+00 0. -1.
        -11    1    4    4    0    0  0.10214378236E-01  0.35252635435E-03 -0.43473895358E-01  0.44662047604E-01  0.51100000000E-03 0.  1.
         11    1    4    4    0    0  0.91824968193E-03  0.19494534981E-01 -0.84690263886E-01  0.86911345604E-01  0.51100000000E-03 0. -1.
</event>
<event>
 8    1  0.1204770E+005  0.1043930E+01  0.7957747E-01            NaN
         13   -1    0    0    0    0  0.00000000000E+00  0.00000000000E+00  0.74505805969E-08  0.10566000000E+00  0.10566000000E+00 0. -1.
     999900   -1    0    0    0    0 -0.00000000000E+00 -0.00000000000E+00 -0.74505805969E-08  0.93827000000E+00  0.93827000000E+00 0. -1.
     999902    2    1    2    0    0  0.11607373182E-01  0.80296329566E-02 -0.17704127784E-01  0.10212883954E+01  0.10210373864E+01 0.  0.
     999903    2    3    3    0    0  0.90080167745E-01 -0.72211633409E-01  0.58345900499E-01  0.13090631613E+00  0.20081406238E-01 0.  0.
         14    1    1    2    0    0 -0.11607373182E-01 -0.80296329566E-02  0.17704127784E-01  0.22641604585E-01  0.00000000000E+00 0. -1.
     999901    1    3    3    0    0 -0.78472794564E-01  0.80241266365E-01 -0.76050028283E-01  0.89038207929E+00  0.88000000000E+00 0.  1.
        -11    1    4    4    0    0  0.29374066969E-01 -0.33331918414E-01  0.29079471941E-01  0.53101124328E-01  0.51100000000E-03 0. -1.
         11    1    4    4    0    0  0.60706100776E-01 -0.38879714995E-01  0.29266428557E-01  0.77805191800E-01  0.51100000000E-03 0.  1.
</event>
<event>
 8    1  0.1204770E+005  0.1043930E+01  0.7957747E-01            NaN
         13   -1    0    0    0    0  0.00000000000E+00  0.00000000000E+00  0.74505805969E-08  0.10566000000E+00  0.10566000000E+00 0.  1.
     999900   -1    0    0    0    0 -0.00000000000E+00 -0.00000000000E+00 -0.74505805969E-08  0.93827000000E+00  0.93827000000E+00 0. -1.
     999902    2    1    2    0    0  0.18644358937E-01  0.57036548820E-02  0.13797457429E-01  0.10200445728E+01  0.10197648832E+01 0.  0.
     999903    2    3    3    0    0 -0.27160118898E-01  0.51318280703E-01  0.11613213926E+00  0.13175907178E+00  0.22417431501E-01 0.  0.
         14    1    1    2    0    0 -0.18644358937E-01 -0.57036548820E-02 -0.13797457429E-01  0.23885427162E-01  0.00000000000E+00 0. -1.
     999901    1    3    3    0    0  0.45804477835E-01 -0.45614625821E-01 -0.10233468183E+00  0.88828550105E+00  0.88000000000E+00 0. -1.
        -11    1    4    4    0    0 -0.17271910279E-01  0.45444994398E-01  0.10516122412E+00  0.11585642226E+00  0.51100000000E-03 0.  1.
         11    1    4    4    0    0 -0.98882086190E-02  0.58732863050E-02  0.10970915143E-01  0.15902649521E-01  0.51100000000E-03 0. -1.
</event>
<event>
 8    1  0.1204770E+005  0.1043930E+01  0.7957747E-01            NaN
         13   -1    0    0    0    0  0.00000000000E+00  0.00000000000E+00  0.74505805969E-08  0.10566000000E+00  0.10566000000E+00 0.  1.
     999900   -1    0    0    0    0 -0.00000000000E+00 -0.00000000000E+00 -0.74505805969E-08  0.93827000000E+00  0.93827000000E+00 0. -1.
     999902    2    1    2    0    0  0.11028037573E-01  0.19144601768E-01 -0.59841736921E-02  0.10210401830E+01  0.10207835772E+01 0.  0.
     999903    2    3    3    0    0  0.11160977018E+00  0.33404513620E-01 -0.61789925783E-01  0.13343987201E+00  0.20386323436E-01 0.  0.
         14    1    1    2    0    0 -0.11028037573E-01 -0.19144601768E-01  0.59841736921E-02  0.22889817045E-01  0.00000000000E+00 0.  1.
     999901    1    3    3    0    0 -0.10058173261E+00 -0.14259911852E-01  0.55805752091E-01  0.88760031094E+00  0.88000000000E+00 0.  1.
        -11    1    4    4    0    0  0.29962717661E-01  0.18768885811E-02 -0.22398080607E-01  0.37459608864E-01  0.51100000000E-03 0.  1.
         11    1    4    4    0    0  0.81647052524E-01  0.31527625039E-01 -0.39391845176E-01  0.95980263147E-01  0.51100000000E-03 0. -1.
</event>
<event>
 8    1  0.1204770E+005  0.1043930E+01  0.7957747E-01            NaN
         13   -1    0    0    0    0  0.00000000000E+00  0.00000000000E+00  0.74505805969E-08  0.10566000000E+00  0.10566000000E+00 0. -1.
     999900   -1    0    0    0    0 -0.00000000000E+00 -0.00000000000E+00 -0.74505805969E-08  0.93827000000E+00  0.93827000000E+00 0.  1.
     999902    2    1    2    0    0  0.25572471600E-02  0.20972061324E-01  0.10644071599E-01  0.10202727996E+01  0.10199984914E+01 0.  0.
     999903    2    3    3    0    0  0.15491724692E-01 -0.10973648304E+00  0.62783201627E-01  0.12899814322E+00  0.20413262903E-01 0.  0.
         14    1    1    2    0    0 -0.25572471600E-02 -0.20972061324E-01 -0.10644071599E-01  0.23657200371E-01  0.00000000000E+00 0.  1.
     999901    1    3    3    0    0 -0.12934477532E-01  0.13070854437E+00 -0.52139130028E-01  0.89127465641E+00  0.88000000000E+00 0. -1.
        -11    1    4    4    0    0  0.27935061457E-02 -0.65255976574E-01  0.27744308276E-01  0.70965864455E-01  0.51100000000E-03 0. -1.
         11    1    4    4    0    0  0.12698218546E-01 -0.44480506470E-01  0.35038893351E-01  0.58032278762E-01  0.51100000000E-03 0.  1.
</event>
<event>
 8    1  0.1204770E+005  0.1043930E+01  0.7957747E-01            NaN
         13   -1    0    0    0    0  0.00000000000E+00  0.00000000000E+00  0.74505805969E-08  0.10566000000E+00  0.10566000000E+00 0.  1.
     999900   -1    0    0    0    0 -0.00000000000E+00 -0.00000000000E+00 -0.74505805969E-08  0.93827000000E+00  0.93827000000E+00 0.  1.
     999902    2    1    2    0    0  0.14581219196E-01  0.36038398603E-02 -0.16409498980E-01  0.10216842977E+01  0.10214420849E+01 0.  0.
     999903    2    3    3    0    0  0.41631137258E-01 -0.63340011376E-01 -0.10831116443E+00  0.13395737266E+00  0.21637021965E-01 0.  0.
         14    1    1    2    0    0 -0.14581219196E-01 -0.36038398603E-02  0.16409498980E-01  0.22245702321E-01  0.00000000000E+00 0.  1.
     999901    1    3    3    0    0 -0.27049918062E-01  0.66943851236E-01  0.91901665453E-01  0.88772692502E+00  0.88000000000E+00 0. -1.
        -11    1    4    4    0    0  0.34489055093E-01 -0.35694981314E-01 -0.60383042319E-01  0.78166485996E-01  0.51100000000E-03 0.  1.
         11    1    4    4    0    0  0.71420821647E-02 -0.27645030062E-01 -0.47928122114E-01  0.55790886667E-01  0.51100000000E-03 0. -1.
</event>
<event>
 8    1  0.1204770E+005  0.1043930E+01  0.7957747E-01            NaN
         13   -1    0    0    0    0  0.00000000000E+00  0.00000000000E+00  0.74505805969E-08  0.10566000000E+00  0.10566000000E+00 0.  1.
     999900   -1    0    0    0    0 -0.00000000000E+00 -0.00000000000E+00 -0.74505805969E-08  0.93827000000E+00  0.93827000000E+00 0. -1.
     999902    2    1    2    0    0 -0.17164164234E-01  0.43804055999E-02  0.22267800272E-02  0.10260762879E+01  0.10259209490E+01 0.  0.
     999903    2    3    3    0    0  0.41867808335E-01  0.22307937318E-01  0.12517518078E+00  0.13538976647E+00  0.20273271556E-01 0.  0.
         14    1    1    2    0    0  0.17164164234E-01 -0.43804055999E-02 -0.22267800272E-02  0.17853712117E-01  0.00000000000E+00 0. -1.
     999901    1    3    3    0    0 -0.59031972569E-01 -0.17927531718E-01 -0.12294840075E+00  0.89068652141E+00  0.88000000000E+00 0. -1.
        -11    1    4    4    0    0  0.18220208469E-01  0.20213998077E-01  0.77241679985E-01  0.81897008265E-01  0.51100000000E-03 0.  1.
         11    1    4    4    0    0  0.23647599866E-01  0.20939392410E-02  0.47933500794E-01  0.53492758205E-01  0.51100000000E-03 0. -1.
</event>
<event>
 8    1  0.1204770E+005  0.1043930E+01  0.7957747E-01            NaN
         13   -1    0    0    0    0  0.00000000000E+00  0.00000000000E+00  0.74505805969E-08  0.10566000000E+00  0.10566000000E+00 0.  1.
     999900   -1    0    0    0    0 -0.00000000000E+00 -0.00000000000E+00 -0.74505805969E-08  0.93827000000E+00  0.93827000000E+00 0. -1.
     999902    2    1    2    0    0  0.18772712582E-01 -0.24954965896E-02  0.14024106247E-01  0.10203648181E+01  0.10200926645E+01 0.  0.
     999903    2    3    3    0    0  0.31517373351E-01 -0.49239806365E-01 -0.11417793158E+00  0.12975647582E+00  0.19550948906E-01 0.  0.
         14    1    1    2    0    0 -0.18772712582E-01  0.24954965896E-02 -0.14024106247E-01  0.23565181878E-01  0.00000000000E+00 0.  1.
     999901    1    3    3    0    0 -0.12744660768E-01  0.46744309776E-01  0.12820203783E+00  0.89060834230E+00  0.88000000000E+00 0.  1.
        -11    1    4    4    0    0 -0.20689193675E-02 -0.30558240387E-02 -0.13554205772E-01  0.14056888098E-01  0.51100000000E-03 0.  1.
         11    1    4    4    0    0  0.33586292718E-01 -0.46183982327E-01 -0.10062372581E+00  0.11569958772E+00  0.51100000000E-03 0. -1.
</event>
<event>
 7    1  0.1204770E+005  0.1043930E+01  0.7957747E-01            NaN
         13   -1    0    0    0    0  0.00000000000E+00  0.00000000000E+00  0.74505805969E-08  0.10566000000E+00  0.10566000000E+00 0.  1.
     999900   -1    0    0    0    0 -0.00000000000E+00 -0.00000000000E+00 -0.74505805969E-08  0.93827000000E+00  0.93827000000E+00 0. -1.
     999903    2    1    2    0    0  0.36049838500E-01 -0.66134143422E-01  0.63341796484E-01  0.10031910122E+00  0.19453100168E-01 0.  0.
         14    1    1    2    0    0  0.42421210892E-01 -0.23556993285E-01  0.18241174314E-01  0.51838513737E-01  0.00000000000E+00 0.  1.
     999901    1    1    2    0    0 -0.78471049392E-01  0.89691136707E-01 -0.81582970798E-01  0.89177238504E+00  0.88000000000E+00 0. -1.
        -11    1    3    3    0    0  0.16287500654E-01 -0.12466369986E-01  0.18795026796E-01  0.27824579268E-01  0.51100000000E-03 0. -1.
         11    1    3    3    0    0  0.19762337846E-01 -0.53667773436E-01  0.44546769688E-01  0.72494521954E-01  0.51100000000E-03 0.  1.
</event>
<event>
 8    1  0.1204770E+005  0.1043930E+01  0.7957747E-01            NaN
         13   -1    0    0    0    0  0.00000000000E+00  0.00000000000E+00  0.74505805969E-08  0.10566000000E+00  0.10566000000E+00 0.  1.
     999900   -1    0    0    0    0 -0.00000000000E+00 -0.00000000000E+00 -0.74505805969E-08  0.93827000000E+00  0.93827000000E+00 0. -1.
     999902    2    1    2    0    0 -0.70345705954E-02 -0.22538083714E-01  0.86216866013E-03  0.10203038760E+01  0.10200302964E+01 0.  0.
     999903    2    3    3    0    0  0.99197378225E-01 -0.76112582440E-01 -0.35745463630E-01  0.13154318120E+00  0.19814774724E-01 0.  0.
         14    1    1    2    0    0  0.70345705954E-02  0.22538083714E-01 -0.86216866013E-03  0.23626124010E-01  0.00000000000E+00 0. -1.
     999901    1    3    3    0    0 -0.10623194882E+00  0.53574498726E-01  0.36607632290E-01  0.88876069479E+00  0.88000000000E+00 0.  1.
        -11    1    4    4    0    0  0.90691910583E-01 -0.73538950887E-01 -0.28821129521E-01  0.12026603249E+00  0.51100000000E-03 0.  1.
         11    1    4    4    0    0  0.85054676416E-02 -0.25736315536E-02 -0.69243341085E-02  0.11277148710E-01  0.51100000000E-03 0. -1.
</event>
<event>
 8    1  0.1204770E+005  0.1043930E+01  0.7957747E-01            NaN
         13   -1    0    0    0    0  0.00000000000E+00  0.00000000000E+00  0.74505805969E-08  0.10566000000E+00  0.10566000000E+00 0. -1.
     999900   -1    0    0    0    0 -0.00000000000E+00 -0.00000000000E+00 -0.74505805969E-08  0.93827000000E+00  0.93827000000E+00 0. -1.
     999902    2    1    2    0    0 -0.23134894762E-01 -0.28455054011E-02 -0.15920462487E-01  0.10157026838E+01  0.10153103764E+01 0.  0.
     999903    2    3    3    0    0 -0.99030975317E-02  0.42786414905E-01 -0.11900402746E+00  0.12841266692E+00  0.19977633311E-01 0.  0.
         14    1    1    2    0    0  0.23134894762E-01  0.28455054011E-02  0.15920462487E-01  0.28227316245E-01  0.00000000000E+00 0.  1.
     999901    1    3    3    0    0 -0.13231797230E-01 -0.45631920307E-01  0.10308356497E+00  0.88729001684E+00  0.88000000000E+00 0.  1.
        -11    1    4    4    0    0 -0.17564755165E-02  0.86288952475E-02 -0.52198676567E-01  0.52938700359E-01  0.51100000000E-03 0. -1.
         11    1    4    4    0    0 -0.81466220152E-02  0.34157519658E-01 -0.66805350892E-01  0.75473966560E-01  0.51100000000E-03 0.  1.
</event>
<event>
 8    1  0.1204770E+005  0.1043930E+01  0.7957747E-01            NaN
         13   -1    0    0    0    0  0.00000000000E+00  0.00000000000E+00  0.74505805969E-08  0.10566000000E+00  0.10566000000E+00 0.  1.
     999900   -1    0    0    0    0 -0.00000000000E+00 -0.00000000000E+00 -0.74505805969E-08  0.93827000000E+00  0.93827000000E+00 0.  1.
     999902    2    1    2    0    0 -0.65075755697E-02 -0.19376324190E-02  0.22866014891E-01  0.10200771680E+01  0.10197982501E+01 0.  0.
     999903    2    3    3    0    0  0.92420696263E-01 -0.73143160819E-01 -0.48010299025E-01  0.12885301989E+00  0.20164445163E-01 0.  0.
         14    1    1    2    0    0  0.65075755697E-02  0.19376324190E-02 -0.22866014891E-01  0.23852832037E-01  0.00000000000E+00 0. -1.
     999901    1    3    3    0    0 -0.98928271833E-01  0.71205528400E-01  0.70876313916E-01  0.89122414808E+00  0.88000000000E+00 0.  1.
        -11    1    4    4    0    0  0.54702535529E-01 -0.30679890424E-01 -0.27157371401E-01  0.68347692077E-01  0.51100000000E-03 0. -1.
         11    1    4    4    0    0  0.37718160734E-01 -0.42463270395E-01 -0.20852927625E-01  0.60505327809E-01  0.51100000000E-03 0.  1.
</event>
<event>
 8    1  0.1204770E+005  0.1043930E+01  0.7957747E-01            NaN
         13   -1    0    0    0    0  0.00000000000E+00  0.00000000000E+00  0.74505805969E-08  0.10566000000E+00  0.10566000000E+00 0.  1.
     999900   -1    0    0    0    0 -0.00000000000E+00 -0.00000000000E+00 -0.74505805969E-08  0.93827000000E+00  0.93827000000E+00 0.  1.
     999902    2    1    2    0    0  0.81919909316E-02 -0.13118467556E-01  0.20577348534E-01  0.10181883959E+01  0.10178629473E+01 0.  0.
     999903    2    3    3    0    0  0.66663997360E-01 -0.51413368750E-01 -0.95387510576E-01  0.12783266730E+00  0.12449523057E-01 0.  0.
         14    1    1    2    0    0 -0.81919909316E-02  0.13118467556E-01 -0.20577348534E-01  0.25741604051E-01  0.00000000000E+00 0. -1.
     999901    1    3    3    0    0 -0.58472006428E-01  0.38294901194E-01  0.11596485911E+00  0.89035572865E+00  0.88000000000E+00 0. -1.
        -11    1    4    4    0    0  0.30047280794E-01 -0.15560967740E-01 -0.38995312619E-01  0.51632144323E-01  0.51100000000E-03 0. -1.
         11    1    4    4    0    0  0.36616716566E-01 -0.35852401010E-01 -0.56392197957E-01  0.76200522975E-01  0.51100000000E-03 0.  1.
</event>
<event>
 8    1  0.1204770E+005  0.1043930E+01  0.7957747E-01            NaN
         13   -1    0    0    0    0  0.00000000000E+00  0.00000000000E+00  0.74505805969E-08  0.10566000000E+00  0.10566000000E+00 0. -1.
     999900   -1    0    0    0    0 -0.00000000000E+00 -0.00000000000E+00 -0.74505805969E-08  0.93827000000E+00  0.93827000000E+00 0. -1.
     999902    2    1    2    0    0  0.12851780209E-01 -0.35559841078E-02  0.18503379359E-01  0.10211223626E+01  0.10208676168E+01 0.  0.
     999903    2    3    3    0    0 -0.15864666692E-01  0.98175324340E-01  0.84642983200E-01  0.13233198197E+00  0.21383098223E-01 0.  0.
         14    1    1    2    0    0 -0.12851780209E-01  0.35559841078E-02 -0.18503379359E-01  0.22807637431E-01  0.00000000000E+00 0. -1.
     999901    1    3    3    0    0  0.28716446901E-01 -0.10173130845E+00 -0.66139603841E-01  0.88879038059E+00  0.88000000000E+00 0.  1.
        -11    1    4    4    0    0 -0.95685855335E-02  0.82994911166E-01  0.78905152832E-01  0.11491735018E+00  0.51100000000E-03 0.  1.
         11    1    4    4    0    0 -0.62960811589E-02  0.15180413174E-01  0.57378303680E-02  0.17414631792E-01  0.51100000000E-03 0. -1.
</event>
<event>
 8    1  0.1204770E+005  0.1043930E+01  0.7957747E-01            NaN
         13   -1    0    0    0    0  0.00000000000E+00  0.00000000000E+00  0.74505805969E-08  0.10566000000E+00  0.10566000000E+00 0. -1.
     999900   -1    0    0    0    0 -0.00000000000E+00 -0.00000000000E+00 -0.74505805969E-08  0.93827000000E+00  0.93827000000E+00 0.  1.
     999902    2    1    2    0    0 -0.14409028703E-01  0.16740071304E-01 -0.68473228620E-02  0.10208056422E+01  0.10205436900E+01 0.  0.
     999903    2    3    3    0    0  0.72860390677E-01  0.84513988908E-01  0.64889530488E-01  0.13099924097E+00  0.22336049695E-01 0.  0.
         14    1    1    2    0    0  0.14409028703E-01 -0.16740071304E-01  0.68473228620E-02  0.23124357846E-01  0.00000000000E+00 0. -1.
     999901    1    3    3    0    0 -0.87269419380E-01 -0.67773917604E-01 -0.71736853350E-01  0.88980640119E+00  0.88000000000E+00 0.  1.
        -11    1    4    4    0    0  0.38928912647E-01  0.35841805371E-01  0.19898226327E-01  0.56535792062E-01  0.51100000000E-03 0.  1.
         11    1    4    4    0    0  0.33931478030E-01  0.48672183537E-01  0.44991304161E-01  0.74463448904E-01  0.51100000000E-03 0. -1.
</event>
<event>
 8    1  0.1204770E+005  0.1043930E+01  0.7957747E-01            NaN
         13   -1    0    0    0    0  0.00000000000E+00  0.00000000000E+00  0.74505805969E-08  0.10566000000E+00  0.10566000000E+00 0.  1.
     999900   -1    0    0    0    0 -0.00000000000E+00 -0.00000000000E+00 -0.74505805969E-08  0.93827000000E+00  0.93827000000E+00 0.  1.
     999902    2    1    2    0    0 -0.23337509907E-01  0.10774112763E-02  0.17172589068E-01  0.10149352074E+01  0.10145209595E+01 0.  0.
     999903    2    3    3    0    0 -0.12220857160E-01 -0.79135796017E-01 -0.92576162186E-01  0.12442831409E+00  0.22365955873E-01 0.  0.
         14    1    1    2    0    0  0.23337509907E-01 -0.10774112763E-02 -0.17172589068E-01  0.28994792619E-01  0.00000000000E+00 0.  1.
     999901    1    3    3    0    0 -0.11116652747E-01  0.80213207293E-01  0.10974875125E+00  0.89050689329E+00  0.88000000000E+00 0. -1.
        -11    1    4    4    0    0 -0.41587248087E-03 -0.37379772495E-01 -0.28364650389E-01  0.46927975179E-01  0.51100000000E-03 0. -1.
         11    1    4    4    0    0 -0.11804984679E-01 -0.41756023522E-01 -0.64211511796E-01  0.77500338914E-01  0.51100000000E-03 0.  1.
</event>
<event>
 8    1  0.1204770E+005  0.1043930E+01  0.7957747E-01            NaN
         13   -1    0    0    0    0  0.00000000000E+00  0.00000000000E+00  0.74505805969E-08  0.10566000000E+00  0.10566000000E+00 0.  1.
     999900   -1    0    0    0    0 -0.00000000000E+00 -0.00000000000E+00 -0.74505805969E-08  0.93827000000E+00  0.93827000000E+00 0. -1.
     999902    2    1    2    0    0 -0.23273837409E-01  0.24787204054E-02  0.43081194851E-02  0.10201313560E+01  0.10198537189E+01 0.  0.
     999903    2    3    3    0    0 -0.46672036714E-01  0.86012581989E-01  0.86095138972E-01  0.13209166189E+00  0.21433406521E-01 0.  0.
         14    1    1    2    0    0  0.23273837409E-01 -0.24787204054E-02 -0.43081194851E-02  0.23798643997E-01  0.00000000000E+00 0. -1.
     999901    1    3    3    0    0  0.23398199306E-01 -0.83533861584E-01 -0.81787019487E-01  0.88803969411E+00  0.88000000000E+00 0. -1.
        -11    1    4    4    0    0 -0.36561428070E-01  0.78196552946E-01  0.67782899420E-01  0.10975528001E+00  0.51100000000E-03 0.  1.
         11    1    4    4    0    0 -0.10110608644E-01  0.78160290431E-02  0.18312239552E-01  0.22336381882E-01  0.51100000000E-03 0. -1.
</event>
<event>
 8    1  0.1204770E+005  0.1043930E+01  0.7957747E-01            NaN
         13   -1    0    0    0    0  0.00000000000E+00  0.00000000000E+00  0.74505805969E-08  0.10566000000E+00  0.10566000000E+00 0.  1.
     999900   -1    0    0    0    0 -0.00000000000E+00 -0.00000000000E+00 -0.74505805969E-08  0.93827000000E+00  0.93827000000E+00 0. -1.
     999902    2    1    2    0    0  0.17855224765E-01 -0.14853899726E-01  0.32185043996E-02  0.10204820543E+01  0.10202126332E+01 0.  0.
     999903    2    3    3    0    0 -0.58860262182E-01  0.17905555829E-01 -0.11146794860E+00  0.12912834761E+00  0.21538040723E-01 0.  0.
         14    1    1    2    0    0 -0.17855224765E-01  0.14853899726E-01 -0.32185043996E-02  0.23447945732E-01  0.00000000000E+00 0. -1.
     999901    1    3    3    0    0  0.76715486947E-01 -0.32759455555E-01  0.11468645300E+00  0.89135370666E+00  0.88000000000E+00 0.  1.
        -11    1    4    4    0    0 -0.25695761017E-01 -0.30074943393E-02 -0.47802534561E-01  0.54356789713E-01  0.51100000000E-03 0.  1.
         11    1    4    4    0    0 -0.33164501165E-01  0.20913050169E-01 -0.63665414040E-01  0.74771557900E-01  0.51100000000E-03 0. -1.
</event>
<event>
 8    1  0.1204770E+005  0.1043930E+01  0.7957747E-01            NaN
         13   -1    0    0    0    0  0.00000000000E+00  0.00000000000E+00  0.74505805969E-08  0.10566000000E+00  0.10566000000E+00 0. -1.
     999900   -1    0    0    0    0 -0.00000000000E+00 -0.00000000000E+00 -0.74505805969E-08  0.93827000000E+00  0.93827000000E+00 0. -1.
     999902    2    1    2    0    0  0.13454046262E-02  0.28851035144E-01  0.18810635803E-01  0.10094621547E+01  0.10088735349E+01 0.  0.
     999903    2    3    3    0    0  0.10646344170E+00  0.47358587363E-01 -0.29676291989E-01  0.12168779518E+00  0.18706602395E-01 0.  0.
         14    1    1    2    0    0 -0.13454046262E-02 -0.28851035144E-01 -0.18810635803E-01  0.34467845332E-01  0.00000000000E+00 0.  1.
     999901    1    3    3    0    0 -0.10511803707E+00 -0.18507552219E-01  0.48486927793E-01  0.88777435949E+00  0.88000000000E+00 0. -1.
        -11    1    4    4    0    0  0.41331471487E-01  0.14700772152E-01 -0.25692100296E-02  0.43946162498E-01  0.51100000000E-03 0.  1.
         11    1    4    4    0    0  0.65131970211E-01  0.32657815212E-01 -0.27107081960E-01  0.77741632677E-01  0.51100000000E-03 0. -1.
</event>
<event>
 8    1  0.1204770E+005  0.1043930E+01  0.7957747E-01            NaN
         13   -1    0    0    0    0  0.00000000000E+00  0.00000000000E+00  0.74505805969E-08  0.10566000000E+00  0.10566000000E+00 0.  1.
     999900   -1    0    0    0    0 -0.00000000000E+00 -0.00000000000E+00 -0.74505805969E-08  0.93827000000E+00  0.93827000000E+00 0. -1.
     999902    2    1    2    0    0 -0.23295562520E-01 -0.49914610599E-02 -0.23328007234E-02  0.10199917487E+01  0.10197108058E+01 0.  0.
     999903    2    3    3    0    0  0.42547434449E-02  0.78916562330E-01 -0.10111412365E+00  0.13007190651E+00  0.21182733740E-01 0.  0.
         14    1    1    2    0    0  0.23295562520E-01  0.49914610599E-02  0.23328007234E-02  0.23938251311E-01  0.00000000000E+00 0. -1.
     999901    1    3    3    0    0 -0.27550305965E-01 -0.83908023390E-01  0.98781322929E-01  0.88991984218E+00  0.88000000000E+00 0.  1.
        -11    1    4    4    0    0  0.12158711643E-01  0.54450739602E-01 -0.74337795242E-01  0.92946684903E-01  0.51100000000E-03 0.  1.
         11    1    4    4    0    0 -0.79039681978E-02  0.24465822728E-01 -0.26776328411E-01  0.37125221605E-01  0.51100000000E-03 0. -1.
</event>
<event>
 8    1  0.1204770E+005  0.1043930E+01  0.7957747E-01            NaN
         13   -1    0    0    0    0  0.00000000000E+00  0.00000000000E+00  0.74505805969E-08  0.10566000000E+00  0.10566000000E+00 0. -1.
     999900   -1    0    0    0    0 -0.00000000000E+00 -0.00000000000E+00 -0.74505805969E-08  0.93827000000E+00  0.93827000000E+00 0. -1.
     999902    2    1    2    0    0 -0.96191925181E-02  0.57019945997E-02 -0.19344175163E-01  0.10215863495E+01  0.10213419754E+01 0.  0.
     999903    2    3    3    0    0  0.12116858219E-01 -0.10760536424E+00 -0.73213849905E-01  0.13242216027E+00  0.21204434610E-01 0.  0.
         14    1    1    2    0    0  0.96191925181E-02 -0.57019945997E-02  0.19344175163E-01  0.22343650549E-01  0.00000000000E+00 0. -1.
     999901    1    3    3    0    0 -0.21736050737E-01  0.11330735883E+00  0.53869674742E-01  0.88916418918E+00  0.88000000000E+00 0.  1.
        -11    1    4    4    0    0 -0.33123810330E-02 -0.40787057868E-02 -0.61701223778E-02  0.81202980340E-02  0.51100000000E-03 0. -1.
         11    1    4    4    0    0  0.15429239252E-01 -0.10352665845E+00 -0.67043727527E-01  0.12430186223E+00  0.51100000000E-03 0.  1.
</event>
<event>
 8    1  0.1204770E+005  0.1043930E+01  0.7957747E-01            NaN
         13   -1    0    0    0    0  0.00000000000E+00  0.00000000000E+00  0.74505805969E-08  0.10566000000E+00  0.10566000000E+00 0.  1.
     999900   -1    0    0    0    0 -0.00000000000E+00 -0.00000000000E+00 -0.74505805969E-08  0.93827000000E+00  0.93827000000E+00 0. -1.
     999902    2    1    2    0    0 -0.17713327512E-01  0.15321838627E-01  0.82902271508E-02  0.10190855121E+01  0.10187826228E+01 0.  0.
     999903    2    3    3    0    0 -0.73536863051E-01 -0.71658092461E-01  0.77779655549E-01  0.13031638791E+00  0.19751802421E-01 0.  0.
         14    1    1    2    0    0  0.17713327512E-01 -0.15321838627E-01 -0.82902271508E-02  0.24844487853E-01  0.00000000000E+00 0. -1.
     999901    1    3    3    0    0  0.55823535539E-01  0.86979931088E-01 -0.69489428398E-01  0.88876912423E+00  0.88000000000E+00 0. -1.
        -11    1    4    4    0    0 -0.47082460629E-01 -0.42743233936E-01  0.59429417040E-01  0.87039409907E-01  0.51100000000E-03 0. -1.
         11    1    4    4    0    0 -0.26454402422E-01 -0.28914858525E-01  0.18350238509E-01  0.43276978006E-01  0.51100000000E-03 0.  1.
</event>
<event>
 8    1  0.1204770E+005  0.1043930E+01  0.7957747E-01            NaN
         13   -1    0    0    0    0  0.00000000000E+00  0.00000000000E+00  0.74505805969E-08  0.10566000000E+00  0.10566000000E+00 0. -1.
     999900   -1    0    0    0    0 -0.00000000000E+00 -0.00000000000E+00 -0.74505805969E-08  0.93827000000E+00  0.93827000000E+00 0.  1.
     999902    2    1    2    0    0  0.70107711526E-02  0.21147143378E-01  0.99945414533E-02  0.10195119033E+01  0.10192194453E+01 0.  0.
     999903    2    3    3    0    0  0.11977306687E+00 -0.34256399742E-01 -0.30455463898E-01  0.12966860767E+00  0.19165700186E-01 0.  0.
         14    1    1    2    0    0 -0.70107711526E-02 -0.21147143378E-01 -0.99945414533E-02  0.24418096651E-01  0.00000000000E+00 0.  1.
     999901    1    3    3    0    0 -0.11276229572E+00  0.55403543120E-01  0.40450005351E-01  0.88984329568E+00  0.88000000000E+00 0. -1.
        -11    1    4    4    0    0  0.58500854971E-01 -0.19396745485E-01 -0.24543063910E-01  0.66341592345E-01  0.51100000000E-03 0.  1.
         11    1    4    4    0    0  0.61272211900E-01 -0.14859654257E-01 -0.59123999880E-02  0.63327015328E-01  0.51100000000E-03 0. -1.
</event>
<event>
 8    1  0.1204770E+005  0.1043930E+01  0.7957747E-01            NaN
         13   -1    0    0    0    0  0.00000000000E+00  0.00000000000E+00  0.74505805969E-08  0.10566000000E+00  0.10566000000E+00 0. -1.
     999900   -1    0    0    0    0 -0.00000000000E+00 -0.00000000000E+00 -0.74505805969E-08  0.93827000000E+00  0.93827000000E+00 0. -1.
     999902    2    1    2    0    0  0.11771431596E-01  0.20979161526E-01 -0.20971999450E-02  0.10197827420E+01  0.10194968126E+01 0.  0.
     999903    2    3    3    0    0 -0.86902818501E-01  0.12106524219E-01 -0.93109672722E-01  0.12955883675E+00  0.20430693398E-01 0.  0.
         14    1    1    2    0    0 -0.11771431596E-01 -0.20979161526E-01  0.20971999450E-02  0.24147257976E-01  0.00000000000E+00 0. -1.
     999901    1    3    3    0    0  0.98674250097E-01  0.88726373076E-02  0.91012472777E-01  0.89022390528E+00  0.88000000000E+00 0.  1.
        -11    1    4    4    0    0 -0.44146945077E-01  0.90391192510E-02 -0.61742015153E-01  0.76439492362E-01  0.51100000000E-03 0. -1.
         11    1    4    4    0    0 -0.42755873424E-01  0.30674049678E-02 -0.31367657569E-01  0.53119344385E-01  0.51100000000E-03 0.  1.
</event>
<event>
 8    1  0.1204770E+005  0.1043930E+01  0.7957747E-01            NaN
         13   -1    0    0    0    0  0.00000000000E+00  0.00000000000E+00  0.74505805969E-08  0.10566000000E+00  0.10566000000E+00 0. -1.
     999900   -1    0    0    0    0 -0.00000000000E+00 -0.00000000000E+00 -0.74505805969E-08  0.93827000000E+00  0.93827000000E+00 0. -1.
     999902    2    1    2    0    0 -0.23567669829E-01  0.62059094454E-02  0.34305770659E-02  0.10193186767E+01  0.10190215148E+01 0.  0.
     999903    2    3    3    0    0 -0.88247171340E-01 -0.43247854811E-01  0.85411008550E-01  0.13176591558E+00  0.20230569225E-01 0.  0.
         14    1    1    2    0    0  0.23567669829E-01 -0.62059094454E-02 -0.34305770659E-02  0.24611323252E-01  0.00000000000E+00 0.  1.
     999901    1    3    3    0    0  0.64679501511E-01  0.49453764257E-01 -0.81980431484E-01  0.88755276117E+00  0.88000000000E+00 0. -1.
        -11    1    4    4    0    0 -0.48823186620E-01 -0.34933080721E-01  0.51772393679E-01  0.79275882516E-01  0.51100000000E-03 0. -1.
         11    1    4    4    0    0 -0.39423984720E-01 -0.83147740900E-02  0.33638614870E-01  0.52490033061E-01  0.51100000000E-03 0.  1.
</event>
<event>
 8    1  0.1204770E+005  0.1043930E+01  0.7957747E-01            NaN
         13   -1    0    0    0    0  0.00000000000E+00  0.00000000000E+00  0.74505805969E-08  0.10566000000E+00  0.10566000000E+00 0.  1.
     999900   -1    0    0    0    0 -0.00000000000E+00 -0.00000000000E+00 -0.74505805969E-08  0.93827000000E+00  0.93827000000E+00 0. -1.
     999902    2    1    2    0    0 -0.20792994828E-01  0.14019912929E-01  0.43307440421E-02  0.10184807969E+01  0.10181627924E+01 0.  0.
     999903    2    3    3    0    0  0.85074740382E-01  0.86683738496E-01 -0.34248354664E-01  0.12832555443E+00  0.23296269074E-01 0.  0.
         14    1    1    2    0    0  0.20792994828E-01 -0.14019912929E-01 -0.43307440421E-02  0.25449203060E-01  0.00000000000E+00 0. -1.
     999901    1    3    3    0    0 -0.10586773521E+00 -0.72663825567E-01  0.38579098706E-01  0.89015524251E+00  0.88000000000E+00 0. -1.
        -11    1    4    4    0    0  0.61562449229E-01  0.68768146013E-01 -0.35100882466E-01  0.98748803193E-01  0.51100000000E-03 0. -1.
         11    1    4    4    0    0  0.23512291153E-01  0.17915592483E-01  0.85252780262E-03  0.29576751241E-01  0.51100000000E-03 0.  1.
</event>
<event>
 8    1  0.1204770E+005  0.1043930E+01  0.7957747E-01            NaN
         13   -1    0    0    0    0  0.00000000000E+00  0.00000000000E+00  0.74505805969E-08  0.10566000000E+00  0.10566000000E+00 0. -1.
     999900   -1    0    0    0    0 -0.00000000000E+00 -0.00000000000E+00 -0.74505805969E-08  0.93827000000E+00  0.93827000000E+00 0.  1.
     999902    2    1    2    0    0  0.84787519135E-02 -0.56031762041E-02 -0.21322633859E-01  0.10203092563E+01  0.10200358028E+01 0.  0.
     999903    2    3    3    0    0 -0.84266781656E-01 -0.69374003509E-01 -0.70907738786E-01  0.13175586172E+00  0.20446437946E-01 0.  0.
         14    1    1    2    0    0 -0.84787519135E-02  0.56031762041E-02  0.21322633859E-01  0.23620743685E-01  0.00000000000E+00 0. -1.
     999901    1    3    3    0    0  0.92745533570E-01  0.63770827305E-01  0.49585104927E-01  0.88855339459E+00  0.88000000000E+00 0. -1.
        -11    1    4    4    0    0 -0.24828315675E-01 -0.33198295322E-01 -0.25823954642E-01  0.48843728624E-01  0.51100000000E-03 0.  1.
         11    1    4    4    0    0 -0.59438465981E-01 -0.36175708187E-01 -0.45083784144E-01  0.82912133098E-01  0.51100000000E-03 0. -1.
</event>
<event>
 8    1  0.1204770E+005  0.1043930E+01  0.7957747E-01            NaN
         13   -1    0    0    0    0  0.00000000000E+00  0.00000000000E+00  0.74505805969E-08  0.10566000000E+00  0.10566000000E+00 0.  1.
     999900   -1    0    0    0    0 -0.00000000000E+00 -0.00000000000E+00 -0.74505805969E-08  0.93827000000E+00  0.93827000000E+00 0.  1.
     999902    2    1    2    0    0 -0.13503549141E-01  0.23993114566E-02  0.19675604770E-01  0.10199460062E+01  0.10196639758E+01 0.  0.
     999903    2    3    3    0    0  0.11625769662E+00 -0.48091056697E-01 -0.15429991585E-01  0.12830725589E+00  0.19901394870E-01 0.  0.
         14    1    1    2    0    0  0.13503549141E-01 -0.23993114566E-02 -0.19675604770E-01  0.23983993786E-01  0.00000000000E+00 0. -1.
     999901    1    3    3    0    0 -0.12976124576E+00  0.50490368153E-01  0.35105596355E-01  0.89163875032E+00  0.88000000000E+00 0. -1.
        -11    1    4    4    0    0  0.73338837682E-01 -0.38424484138E-01 -0.42173447036E-02  0.82903999971E-01  0.51100000000E-03 0.  1.
         11    1    4    4    0    0  0.42918858935E-01 -0.96665725589E-02 -0.11212646882E-01  0.45403255923E-01  0.51100000000E-03 0. -1.
</event>
<event>
 8    1  0.1204770E+005  0.1043930E+01  0.7957747E-01            NaN
         13   -1    0    0    0    0  0.00000000000E+00  0.00000000000E+00  0.74505805969E-08  0.10566000000E+00  0.10566000000E+00 0. -1.
     999900   -1    0    0    0    0 -0.00000000000E+00 -0.00000000000E+00 -0.74505805969E-08  0.93827000000E+00  0.93827000000E+00 0.  1.
     999902    2    1    2    0    0 -0.19941740051E-01  0.27512286647E-02 -0.10962293633E-01  0.10210080861E+01  0.10207507520E+01 0.  0.
     999903    2    3    3    0    0  0.12575729303E+00  0.12227759941E-01 -0.15726844277E-01  0.12896508610E+00  0.20499876581E-01 0.  0.
         14    1    1    2    0    0  0.19941740051E-01 -0.27512286647E-02  0.10962293633E-01  0.22921913906E-01  0.00000000000E+00 0. -1.
     999901    1    3    3    0    0 -0.14569903308E+00 -0.94765312767E-02  0.47645506436E-02  0.89204299999E+00  0.88000000000E+00 0. -1.
        -11    1    4    4    0    0  0.40104738437E-01 -0.38649804274E-02  0.58989918151E-03  0.40298104432E-01  0.51100000000E-03 0.  1.
         11    1    4    4    0    0  0.85652554593E-01  0.16092740369E-01 -0.16316743458E-01  0.88666981673E-01  0.51100000000E-03 0. -1.
</event>
<event>
 8    1  0.1204770E+005  0.1043930E+01  0.7957747E-01            NaN
         13   -1    0    0    0    0  0.00000000000E+00  0.00000000000E+00  0.74505805969E-08  0.10566000000E+00  0.10566000000E+00 0. -1.
     999900   -1    0    0    0    0 -0.00000000000E+00 -0.00000000000E+00 -0.74505805969E-08  0.93827000000E+00  0.93827000000E+00 0.  1.
     999902    2    1    2    0    0  0.22492035898E-01 -0.35835105216E-02  0.26144747775E-02  0.10210047147E+01  0.10207473041E+01 0.  0.
     999903    2    3    3    0    0 -0.56753768050E-01  0.71036536033E-01  0.90575448295E-01  0.12994625331E+00  0.20370009263E-01 0.  0.
         14    1    1    2    0    0 -0.22492035898E-01  0.35835105216E-02 -0.26144747775E-02  0.22925285273E-01  0.00000000000E+00 0.  1.
     999901    1    3    3    0    0  0.79245803948E-01 -0.74620046555E-01 -0.87960973517E-01  0.89105846141E+00  0.88000000000E+00 0.  1.
        -11    1    4    4    0    0 -0.48452573826E-02  0.16300575362E-01  0.23425704063E-01  0.28951856730E-01  0.51100000000E-03 0. -1.
         11    1    4    4    0    0 -0.51908510667E-01  0.54735960671E-01  0.67149744231E-01  0.10099439659E+00  0.51100000000E-03 0.  1.
</event>
<event>
 8    1  0.1204770E+005  0.1043930E+01  0.7957747E-01            NaN
         13   -1    0    0    0    0  0.00000000000E+00  0.00000000000E+00  0.74505805969E-08  0.10566000000E+00  0.10566000000E+00 0. -1.
     999900   -1    0    0    0    0 -0.00000000000E+00 -0.00000000000E+00 -0.74505805969E-08  0.93827000000E+00  0.93827000000E+00 0. -1.
     999902    2    1    2    0    0 -0.92628683194E-02 -0.13847150850E-01  0.16198477238E-01  0.10206934990E+01  0.10204289705E+01 0.  0.
     999903    2    3    3    0    0 -0.10508420137E+00  0.71858365426E-01  0.25146211378E-01  0.13130762919E+00  0.20076042339E-01 0.  0.
         14    1    1    2    0    0  0.92628683194E-02  0.13847150850E-01 -0.16198477238E-01  0.23236501048E-01  0.00000000000E+00 0.  1.
     999901    1    3    3    0    0  0.95821333055E-01 -0.85705516276E-01 -0.89477341405E-02  0.88938586976E+00  0.88000000000E+00 0. -1.
        -11    1    4    4    0    0 -0.58828942190E-01  0.48637969405E-01  0.22058895541E-01  0.79456607658E-01  0.51100000000E-03 0.  1.
         11    1    4    4    0    0 -0.46255259185E-01  0.23220396022E-01  0.30873158370E-02  0.51851021530E-01  0.51100000000E-03 0. -1.
</event>
<event>
 8    1  0.1204770E+005  0.1043930E+01  0.7957747E-01            NaN
         13   -1    0    0    0    0  0.00000000000E+00  0.00000000000E+00  0.74505805969E-08  0.10566000000E+00  0.10566000000E+00 0. -1.
     999900   -1    0    0    0    0 -0.00000000000E+00 -0.00000000000E+00 -0.74505805969E-08  0.93827000000E+00  0.93827000000E+00 0.  1.
     999902    2    1    2    0    0  0.11201980848E-01  0.32542309120E-02 -0.19347704932E-01  0.10213377872E+01  0.10210878843E+01 0.  0.
     999903    2    3    3    0    0 -0.87611439380E-01  0.78841285778E-01  0.50589933208E-01  0.12983974001E+00  0.20181776219E-01 0.  0.
         14    1    1    2    0    0 -0.11201980848E-01 -0.32542309120E-02  0.19347704932E-01  0.22592212816E-01  0.00000000000E+00 0. -1.
     999901    1    3    3    0    0  0.98813420228E-01 -0.75587054866E-01 -0.69937638140E-01  0.89149804717E+00  0.88000000000E+00 0. -1.
        -11    1    4    4    0    0 -0.74251599070E-01  0.74447007884E-01  0.47756006865E-01  0.11548400002E+00  0.51100000000E-03 0.  1.
         11    1    4    4    0    0 -0.13359840310E-01  0.43942778945E-02  0.28339263428E-02  0.14355739996E-01  0.51100000000E-03 0. -1.
</event>
<event>
 8    1  0.1204770E+005  0.1043930E+01  0.7957747E-01            NaN
         13   -1    0    0    0    0  0.00000000000E+00  0.00000000000E+00  0.74505805969E-08  0.10566000000E+00  0.10566000000E+00 0. -1.
     999900   -1    0    0    0    0 -0.00000000000E+00 -0.00000000000E+00 -0.74505805969E-08  0.93827000000E+00  0.93827000000E+00 0. -1.
     999902    2    1    2    0    0  0.27176738989E-01  0.90697849339E-02  0.90653594299E-02  0.10138797607E+01  0.10134343354E+01 0.  0.
     999903    2    3    3    0    0 -0.10288733797E-01 -0.10744426479E+00 -0.55637703270E-01  0.12305673014E+00  0.19931801937E-01 0.  0.
         14    1    1    2    0    0 -0.27176738989E-01 -0.90697849339E-02 -0.90653594299E-02  0.30050239307E-01  0.00000000000E+00 0.  1.
     999901    1    3    3    0    0  0.37465472786E-01  0.11651404973E+00  0.64703062700E-01  0.89082303055E+00  0.88000000000E+00 0.  1.
        -11    1    4    4    0    0 -0.12695639678E-01 -0.50052563610E-01 -0.19547369683E-01  0.55215932242E-01  0.51100000000E-03 0.  1.
         11    1    4    4    0    0  0.24069058803E-02 -0.57391701182E-01 -0.36090333588E-01  0.67840797902E-01  0.51100000000E-03 0. -1.
</event>
<event>
 8    1  0.1204770E+005  0.1043930E+01  0.7957747E-01            NaN
         13   -1    0    0    0    0  0.00000000000E+00  0.00000000000E+00  0.74505805969E-08  0.10566000000E+00  0.10566000000E+00 0. -1.
     999900   -1    0    0    0    0 -0.00000000000E+00 -0.00000000000E+00 -0.74505805969E-08  0.93827000000E+00  0.93827000000E+00 0.  1.
     999902    2    1    2    0    0  0.85164897005E-02  0.78286857757E-02  0.20252569053E-01  0.10206065039E+01  0.10203399680E+01 0.  0.
     999903    2    3    3    0    0  0.20693836729E-01 -0.90115023082E-01  0.92727723397E-01  0.13212808215E+00  0.17619510306E-01 0.  0.
         14    1    1    2    0    0 -0.85164897005E-02 -0.78286857757E-02 -0.20252569053E-01  0.23323496116E-01  0.00000000000E+00 0.  1.
     999901    1    3    3    0    0 -0.12177347028E-01  0.97943708858E-01 -0.72475154343E-01  0.88847842173E+00  0.88000000000E+00 0.  1.
        -11    1    4    4    0    0  0.40514143980E-02 -0.51627623664E-01  0.57254745994E-01  0.77202283280E-01  0.51100000000E-03 0.  1.
         11    1    4    4    0    0  0.16642422331E-01 -0.38487399418E-01  0.35472977402E-01  0.54925798873E-01  0.51100000000E-03 0. -1.
</event>
<event>
 8    1  0.1204770E+005  0.1043930E+01  0.7957747E-01            NaN
         13   -1    0    0    0    0  0.00000000000E+00  0.00000000000E+00  0.74505805969E-08  0.10566000000E+00  0.10566000000E+00 0.  1.
     999900   -1    0    0    0    0 -0.00000000000E+00 -0.00000000000E+00 -0.74505805969E-08  0.93827000000E+00  0.93827000000E+00 0. -1.
     999902    2    1    2    0    0 -0.11927959660E-01  0.17249348403E-01 -0.10995586496E-01  0.10202504906E+01  0.10199756588E+01 0.  0.
     999903    2    3    3    0    0  0.72553361205E-01 -0.86775375590E-01 -0.58397842756E-01  0.12884417997E+00  0.19913780200E-01 0.  0.
         14    1    1    2    0    0  0.11927959660E-01 -0.17249348403E-01  0.10995586496E-01  0.23679509378E-01  0.00000000000E+00 0. -1.
     999901    1    3    3    0    0 -0.84481320865E-01  0.10402472399E+00  0.47402256259E-01  0.89140631065E+00  0.88000000000E+00 0.  1.
        -11    1    4    4    0    0  0.63694664876E-01 -0.72623859152E-01 -0.56807863476E-01  0.11206529224E+00  0.51100000000E-03 0. -1.
         11    1    4    4    0    0  0.88586963286E-02 -0.14151516438E-01 -0.15899792802E-02  0.16778887724E-01  0.51100000000E-03 0.  1.
</event>
<event>
 8    1  0.1204770E+005  0.1043930E+01  0.7957747E-01            NaN
         13   -1    0    0    0    0  0.00000000000E+00  0.00000000000E+00  0.74505805969E-08  0.10566000000E+00  0.10566000000E+00 0.  1.
     999900   -1    0    0    0    0 -0.00000000000E+00 -0.00000000000E+00 -0.74505805969E-08  0.93827000000E+00  0.93827000000E+00 0.  1.
     999902    2    1    2    0    0  0.20566891861E-01  0.63707344220E-02 -0.93691940107E-02  0.10204488353E+01  0.10201786414E+01 0.  0.
     999903    2    3    3    0    0  0.54891455580E-01 -0.84767461223E-01  0.80472362539E-01  0.13052982123E+00  0.19069313531E-01 0.  0.
         14    1    1    2    0    0 -0.20566891861E-01 -0.63707344220E-02  0.93691940107E-02  0.23481164671E-01  0.00000000000E+00 0.  1.
     999901    1    3    3    0    0 -0.34324563719E-01  0.91138195645E-01 -0.89841556550E-01  0.88991901410E+00  0.88000000000E+00 0.  1.
        -11    1    4    4    0    0  0.65623750107E-02 -0.97860131058E-02  0.18383092003E-01  0.21841016709E-01  0.51100000000E-03 0.  1.
         11    1    4    4    0    0  0.48329080569E-01 -0.74981448117E-01  0.62089270536E-01  0.10868880452E+00  0.51100000000E-03 0. -1.
</event>
<event>
 8    1  0.1204770E+005  0.1043930E+01  0.7957747E-01            NaN
         13   -1    0    0    0    0  0.00000000000E+00  0.00000000000E+00  0.74505805969E-08  0.10566000000E+00  0.10566000000E+00 0. -1.
     999900   -1    0    0    0    0 -0.00000000000E+00 -0.00000000000E+00 -0.74505805969E-08  0.93827000000E+00  0.93827000000E+00 0.  1.
     999902    2    1    2    0    0 -0.13483476979E-01 -0.19536041915E-01  0.27550931582E-03  0.10201910659E+01  0.10199148367E+01 0.  0.
     999903    2    3    3    0    0 -0.67292179523E-01  0.54490718021E-01  0.95419712726E-01  0.13034402453E+00  0.19676569278E-01 0.  0.
         14    1    1    2    0    0  0.13483476979E-01  0.19536041915E-01 -0.27550931582E-03  0.23738934064E-01  0.00000000000E+00 0. -1.
     999901    1    3    3    0    0  0.53808702544E-01 -0.74026759936E-01 -0.95144203410E-01  0.88984704141E+00  0.88000000000E+00 0. -1.
        -11    1    4    4    0    0 -0.18508304840E-01  0.21591604306E-01  0.20411124676E-01  0.35008996788E-01  0.51100000000E-03 0. -1.
         11    1    4    4    0    0 -0.48783874683E-01  0.32899113715E-01  0.75008588050E-01  0.95335027742E-01  0.51100000000E-03 0.  1.
</event>
<event>
 8    1  0.1204770E+005  0.1043930E+01  0.7957747E-01            NaN
         13   -1    0    0    0    0  0.00000000000E+00  0.00000000000E+00  0.74505805969E-08  0.10566000000E+00  0.10566000000E+00 0. -1.
     999900   -1    0    0    0    0 -0.00000000000E+00 -0.00000000000E+00 -0.74505805969E-08  0.93827000000E+00  0.93827000000E+00 0. -1.
     999902    2    1    2    0    0 -0.10164880918E-01 -0.13938360345E-01 -0.15967602913E-01  0.10204232555E+01  0.10201524657E+01 0.  0.
     999903    2    3    3    0    0  0.11786018247E-01 -0.24315419590E-01 -0.12859890745E+00  0.13291250286E+00  0.19947545242E-01 0.  0.
         14    1    1    2    0    0  0.10164880918E-01  0.13938360345E-01  0.15967602913E-01  0.23506744479E-01  0.00000000000E+00 0. -1.
     999901    1    3    3    0    0 -0.21950899165E-01  0.10377059245E-01  0.11263130454E+00  0.88751075266E+00  0.88000000000E+00 0.  1.
        -11    1    4    4    0    0 -0.45534872958E-02 -0.12610519323E-01 -0.55521233392E-01  0.57119418086E-01  0.51100000000E-03 0.  1.
         11    1    4    4    0    0  0.16339505542E-01 -0.11704900267E-01 -0.73077674063E-01  0.75793084771E-01  0.51100000000E-03 0. -1.
</event>
<event>
 8    1  0.1204770E+005  0.1043930E+01  0.7957747E-01            NaN
         13   -1    0    0    0    0  0.00000000000E+00  0.00000000000E+00  0.74505805969E-08  0.10566000000E+00  0.10566000000E+00 0. -1.
     999900   -1    0    0    0    0 -0.00000000000E+00 -0.00000000000E+00 -0.74505805969E-08  0.93827000000E+00  0.93827000000E+00 0. -1.
     999902    2    1    2    0    0 -0.20413392660E-01 -0.11408752216E-01  0.33899476894E-03  0.10205423720E+01  0.10202743513E+01 0.  0.
     999903    2    3    3    0    0 -0.92824552849E-01 -0.76369866555E-01  0.54338260586E-01  0.13353659792E+00  0.20751440735E-01 0.  0.
         14    1    1    2    0    0  0.20413392660E-01  0.11408752216E-01 -0.33899476893E-03  0.23387628021E-01  0.00000000000E+00 0.  1.
     999901    1    3    3    0    0  0.72411160189E-01  0.64961114339E-01 -0.53999265817E-01  0.88700577405E+00  0.88000000000E+00 0. -1.
        -11    1    4    4    0    0 -0.59674200595E-01 -0.61071951482E-01  0.35833891530E-01  0.92601956662E-01  0.51100000000E-03 0. -1.
         11    1    4    4    0    0 -0.33150352254E-01 -0.15297915073E-01  0.18504369055E-01  0.40934641263E-01  0.51100000000E-03 0.  1.
</event>
<event>
 8    1  0.1204770E+005  0.1043930E+01  0.7957747E-01            NaN
         13   -1    0    0    0    0  0.00000000000E+00  0.00000000000E+00  0.74505805969E-08  0.10566000000E+00  0.10566000000E+00 0. -1.
     999900   -1    0    0    0    0 -0.00000000000E+00 -0.00000000000E+00 -0.74505805969E-08  0.93827000000E+00  0.93827000000E+00 0.  1.
     999902    2    1    2    0    0 -0.10045229705E-01  0.96299016663E-02  0.19478840485E-01  0.10199911848E+01  0.10197102286E+01 0.  0.
     999903    2    3    3    0    0 -0.61359446445E-01  0.11363980958E+00  0.21431499158E-01  0.13237920728E+00  0.19645797890E-01 0.  0.
         14    1    1    2    0    0  0.10045229705E-01 -0.96299016663E-02 -0.19478840485E-01  0.23938815187E-01  0.00000000000E+00 0.  1.
     999901    1    3    3    0    0  0.51314216740E-01 -0.10400990791E+00 -0.19526586736E-02  0.88761197753E+00  0.88000000000E+00 0. -1.
        -11    1    4    4    0    0 -0.17492207393E-02  0.16329622643E-01  0.42823949494E-02  0.16979881518E-01  0.51100000000E-03 0. -1.
         11    1    4    4    0    0 -0.59610225706E-01  0.97310186936E-01  0.17149104209E-01  0.11539932576E+00  0.51100000000E-03 0.  1.
</event>
<event>
 8    1  0.1204770E+005  0.1043930E+01  0.7957747E-01            NaN
         13   -1    0    0    0    0  0.00000000000E+00  0.00000000000E+00  0.74505805969E-08  0.10566000000E+00  0.10566000000E+00 0. -1.
     999900   -1    0    0    0    0 -0.00000000000E+00 -0.00000000000E+00 -0.74505805969E-08  0.93827000000E+00  0.93827000000E+00 0.  1.
     999902    2    1    2    0    0 -0.11312742909E-01 -0.89046471515E-03 -0.20236519652E-01  0.10207289697E+01  0.10204652575E+01 0.  0.
     999903    2    3    3    0    0 -0.60837367711E-02  0.54257482262E-01  0.11476540776E+00  0.12871206461E+00  0.20366897716E-01 0.  0.
         14    1    1    2    0    0  0.11312742909E-01  0.89046471515E-03  0.20236519652E-01  0.23201030303E-01  0.00000000000E+00 0. -1.
     999901    1    3    3    0    0 -0.52290061375E-02 -0.55147946977E-01 -0.13500192741E+00  0.89201690509E+00  0.88000000000E+00 0.  1.
        -11    1    4    4    0    0 -0.11953871670E-01  0.33071449356E-01  0.57917984782E-01  0.67759647967E-01  0.51100000000E-03 0. -1.
         11    1    4    4    0    0  0.58701348986E-02  0.21186032905E-01  0.56847422978E-01  0.60952416640E-01  0.51100000000E-03 0.  1.
</event>
<event>
 8    1  0.1204770E+005  0.1043930E+01  0.7957747E-01            NaN
         13   -1    0    0    0    0  0.00000000000E+00  0.00000000000E+00  0.74505805969E-08  0.10566000000E+00  0.10566000000E+00 0.  1.
     999900   -1    0    0    0    0 -0.00000000000E+00 -0.00000000000E+00 -0.74505805969E-08  0.93827000000E+00  0.93827000000E+00 0.  1.
     999902    2    1    2    0    0  0.87491978829E-02 -0.14626322113E-01 -0.17971984309E-01  0.10191616738E+01  0.10188606614E+01 0.  0.
     999903    2    3    3    0    0  0.11139076105E-01  0.90835276950E-01  0.85513791223E-01  0.12684045019E+00  0.20019109855E-01 0.  0.
         14    1    1    2    0    0 -0.87491978829E-02  0.14626322113E-01  0.17971984309E-01  0.24768326187E-01  0.00000000000E+00 0.  1.
     999901    1    3    3    0    0 -0.23898782218E-02 -0.10546159906E+00 -0.10348577553E+00  0.89232122363E+00  0.88000000000E+00 0.  1.
        -11    1    4    4    0    0  0.95972362237E-02  0.21833690838E-01  0.29581960962E-01  0.38002243804E-01  0.51100000000E-03 0.  1.
         11    1    4    4    0    0  0.15418398810E-02  0.69001586112E-01  0.55931830260E-01  0.88838206384E-01  0.51100000000E-03 0. -1.
</event>
<event>
 8    1  0.1204770E+005  0.1043930E+01  0.7957747E-01            NaN
         13   -1    0    0    0    0  0.00000000000E+00  0.00000000000E+00  0.74505805969E-08  0.10566000000E+00  0.10566000000E+00 0. -1.
     999900   -1    0    0    0    0 -0.00000000000E+00 -0.00000000000E+00 -0.74505805969E-08  0.93827000000E+00  0.93827000000E+00 0. -1.
     999902    2    1    2    0    0  0.25466759822E-03  0.18833811733E-01 -0.15089916402E-01  0.10197953175E+01  0.10195096894E+01 0.  0.
     999903    2    3    3    0    0 -0.98825237757E-01  0.84645582337E-01 -0.11105949049E-03  0.13166673286E+00  0.20119989557E-01 0.  0.
         14    1    1    2    0    0 -0.25466759822E-03 -0.18833811733E-01  0.15089916402E-01  0.24134682451E-01  0.00000000000E+00 0. -1.
     999901    1    3    3    0    0  0.99079905355E-01 -0.65811770604E-01 -0.14978856911E-01  0.88812858469E+00  0.88000000000E+00 0.  1.
        -11    1    4    4    0    0 -0.64275075179E-01  0.59042072645E-01  0.88865388104E-02  0.87729603467E-01  0.51100000000E-03 0.  1.
         11    1    4    4    0    0 -0.34550162578E-01  0.25603509692E-01 -0.89975983009E-02  0.43937129389E-01  0.51100000000E-03 0. -1.
</event>
<event>
 8    1  0.1204770E+005  0.1043930E+01  0.7957747E-01            NaN
         13   -1    0    0    0    0  0.00000000000E+00  0.00000000000E+00  0.74505805969E-08  0.10566000000E+00  0.10566000000E+00 0. -1.
     999900   -1    0    0    0    0 -0.00000000000E+00 -0.00000000000E+00 -0.74505805969E-08  0.93827000000E+00  0.93827000000E+00 0. -1.
     999902    2    1    2    0    0 -0.37225981041E-02 -0.15874281506E-01  0.17777358150E-01  0.10198077071E+01  0.10195223757E+01 0.  0.
     999903    2    3    3    0    0  0.11830788557E-01 -0.73381694473E-01  0.10851100296E+00  0.13313888245E+00  0.20651479697E-01 0.  0.
         14    1    1    2    0    0  0.37225981041E-02  0.15874281506E-01 -0.17777358150E-01  0.24122292859E-01  0.00000000000E+00 0.  1.
     999901    1    3    3    0    0 -0.15553386661E-01  0.57507412967E-01 -0.90733644814E-01  0.88666882469E+00  0.88000000000E+00 0. -1.
        -11    1    4    4    0    0  0.16874805565E-02 -0.18181908903E-01  0.43931022406E-01  0.47577570898E-01  0.51100000000E-03 0.  1.
         11    1    4    4    0    0  0.10143308000E-01 -0.55199785570E-01  0.64579980558E-01  0.85561311549E-01  0.51100000000E-03 0. -1.
</event>
<event>
 8    1  0.1204770E+005  0.1043930E+01  0.7957747E-01            NaN
         13   -1    0    0    0    0  0.00000000000E+00  0.00000000000E+00  0.74505805969E-08  0.10566000000E+00  0.10566000000E+00 0. -1.
     999900   -1    0    0    0    0 -0.00000000000E+00 -0.00000000000E+00 -0.74505805969E-08  0.93827000000E+00  0.93827000000E+00 0. -1.
     999902    2    1    2    0    0  0.19559693779E-01  0.70250852754E-02 -0.95459814473E-02  0.10210595123E+01  0.10208033447E+01 0.  0.
     999903    2    3    3    0    0 -0.11110291475E+00  0.63172416495E-01 -0.14516804755E-01  0.12962810772E+00  0.16065391961E-01 0.  0.
         14    1    1    2    0    0 -0.19559693779E-01 -0.70250852754E-02  0.95459814473E-02  0.22870487656E-01  0.00000000000E+00 0. -1.
     999901    1    3    3    0    0  0.13066260853E+00 -0.56147331220E-01  0.49708233080E-02  0.89143140463E+00  0.88000000000E+00 0. -1.
        -11    1    4    4    0    0 -0.87344323625E-01  0.54969652520E-01 -0.72443675444E-02  0.10345740935E+00  0.51100000000E-03 0.  1.
         11    1    4    4    0    0 -0.23758591122E-01  0.82027639755E-02 -0.72724372108E-02  0.26170698365E-01  0.51100000000E-03 0. -1.
</event>
<event>
 8    1  0.1204770E+005  0.1043930E+01  0.7957747E-01            NaN
         13   -1    0    0    0    0  0.00000000000E+00  0.00000000000E+00  0.74505805969E-08  0.10566000000E+00  0.10566000000E+00 0. -1.
     999900   -1    0    0    0    0 -0.00000000000E+00 -0.00000000000E+00 -0.74505805969E-08  0.93827000000E+00  0.93827000000E+00 0.  1.
     999902    2    1    2    0    0 -0.10771591149E-01 -0.40371746767E-02  0.21851275984E-01  0.10192357858E+01  0.10189365941E+01 0.  0.
     999903    2    3    3    0    0 -0.95285902552E-01  0.35157607192E-01  0.82242300183E-01  0.13226003887E+00  0.20333749601E-01 0.  0.
         14    1    1    2    0    0  0.10771591149E-01  0.40371746767E-02 -0.21851275984E-01  0.24694214249E-01  0.00000000000E+00 0.  1.
     999901    1    3    3    0    0  0.84514311402E-01 -0.39194781869E-01 -0.60391024200E-01  0.88697574688E+00  0.88000000000E+00 0.  1.
        -11    1    4    4    0    0 -0.91872965872E-01  0.31398556050E-01  0.72195463949E-01  0.12099155886E+00  0.51100000000E-03 0. -1.
         11    1    4    4    0    0 -0.34129366795E-02  0.37590511424E-02  0.10046836235E-01  0.11268480004E-01  0.51100000000E-03 0.  1.
</event>
<event>
 7    1  0.1204770E+005  0.1043930E+01  0.7957747E-01            NaN
         13   -1    0    0    0    0  0.00000000000E+00  0.00000000000E+00  0.74505805969E-08  0.10566000000E+00  0.10566000000E+00 0.  1.
     999900   -1    0    0    0    0 -0.00000000000E+00 -0.00000000000E+00 -0.74505805969E-08  0.93827000000E+00  0.93827000000E+00 0.  1.
     999902    2    1    2    0    0  0.15990088078E-02 -0.20911139848E-01  0.10527807464E-01  0.10204636980E+01  0.10201938500E+01 0.  0.
         14    1    1    2    0    0 -0.15990088078E-02  0.20911139848E-01 -0.10527807464E-01  0.23466301986E-01  0.00000000000E+00 0.  1.
     999901    1    3    3    0    0  0.27669013685E-01 -0.10806657541E+00  0.70831846092E-01  0.88986578171E+00  0.88000000000E+00 0. -1.
        -11    1    3    3    0    0  0.18552042786E-01  0.60692947391E-01 -0.39143896490E-01  0.74567539238E-01  0.51100000000E-03 0.  1.
         11    1    3    3    0    0 -0.44622047663E-01  0.26462488169E-01 -0.21160142138E-01  0.56030377065E-01  0.51100000000E-03 0. -1.
</event>
<event>
 8    1  0.1204770E+005  0.1043930E+01  0.7957747E-01            NaN
         13   -1    0    0    0    0  0.00000000000E+00  0.00000000000E+00  0.74505805969E-08  0.10566000000E+00  0.10566000000E+00 0.  1.
     999900   -1    0    0    0    0 -0.00000000000E+00 -0.00000000000E+00 -0.74505805969E-08  0.93827000000E+00  0.93827000000E+00 0. -1.
     999902    2    1    2    0    0 -0.45281840376E-02 -0.26491788302E-01 -0.62197098176E-02  0.10163436975E+01  0.10159692452E+01 0.  0.
     999903    2    3    3    0    0 -0.53734523861E-01  0.73459129234E-01  0.83909498547E-01  0.12475257816E+00  0.15451831258E-01 0.  0.
         14    1    1    2    0    0  0.45281840376E-02  0.26491788302E-01  0.62197098176E-02  0.27586302549E-01  0.00000000000E+00 0.  1.
     999901    1    3    3    0    0  0.49206339824E-01 -0.99950917535E-01 -0.90129208365E-01  0.89159111929E+00  0.88000000000E+00 0. -1.
        -11    1    4    4    0    0 -0.33900521807E-01  0.38797729450E-01  0.55570271920E-01  0.75781431970E-01  0.51100000000E-03 0. -1.
         11    1    4    4    0    0 -0.19834002055E-01  0.34661399784E-01  0.28339226627E-01  0.48971146191E-01  0.51100000000E-03 0.  1.
</event>
<event>
 8    1  0.1204770E+005  0.1043930E+01  0.7957747E-01            NaN
         13   -1    0    0    0    0  0.00000000000E+00  0.00000000000E+00  0.74505805969E-08  0.10566000000E+00  0.10566000000E+00 0. -1.
     999900   -1    0    0    0    0 -0.00000000000E+00 -0.00000000000E+00 -0.74505805969E-08  0.93827000000E+00  0.93827000000E+00 0. -1.
     999902    2    1    2    0    0 -0.13805392494E-01  0.10090195660E-01  0.16390300490E-01  0.10202436567E+01  0.10199686643E+01 0.  0.
     999903    2    3    3    0    0 -0.11340192673E+00 -0.63305972143E-01 -0.22730727134E-02  0.13139339448E+00  0.19784189614E-01 0.  0.
         14    1    1    2    0    0  0.13805392494E-01 -0.10090195660E-01 -0.16390300490E-01  0.23686343334E-01  0.00000000000E+00 0.  1.
     999901    1    3    3    0    0  0.99596534239E-01  0.73396167803E-01  0.18663373204E-01  0.88885026218E+00  0.88000000000E+00 0. -1.
        -11    1    4    4    0    0 -0.35332578941E-02 -0.47665787328E-02  0.32396850467E-02  0.67794442519E-02  0.51100000000E-03 0. -1.
         11    1    4    4    0    0 -0.10986866884E+00 -0.58539393410E-01 -0.55127577602E-02  0.12461395023E+00  0.51100000000E-03 0.  1.
</event>
<event>
 8    1  0.1204770E+005  0.1043930E+01  0.7957747E-01            NaN
         13   -1    0    0    0    0  0.00000000000E+00  0.00000000000E+00  0.74505805969E-08  0.10566000000E+00  0.10566000000E+00 0. -1.
     999900   -1    0    0    0    0 -0.00000000000E+00 -0.00000000000E+00 -0.74505805969E-08  0.93827000000E+00  0.93827000000E+00 0. -1.
     999902    2    1    2    0    0 -0.21391182923E-01 -0.10404532613E-01  0.14050211756E-02  0.10201012130E+01  0.10198228639E+01 0.  0.
     999903    2    3    3    0    0  0.22769667971E-01 -0.86914680693E-01  0.91154539216E-01  0.13113610710E+00  0.28546612155E-01 0.  0.
         14    1    1    2    0    0  0.21391182923E-01  0.10404532613E-01 -0.14050211756E-02  0.23828787007E-01  0.00000000000E+00 0.  1.
     999901    1    3    3    0    0 -0.44160850893E-01  0.76510148080E-01 -0.89749518040E-01  0.88896510590E+00  0.88000000000E+00 0.  1.
        -11    1    4    4    0    0  0.13073808886E-01 -0.71648258547E-01  0.57001719345E-01  0.92487050774E-01  0.51100000000E-03 0. -1.
         11    1    4    4    0    0  0.96958590846E-02 -0.15266422146E-01  0.34152819871E-01  0.38649056323E-01  0.51100000000E-03 0.  1.
</event>
<event>
 7    1  0.1204770E+005  0.1043930E+01  0.7957747E-01            NaN
         13   -1    0    0    0    0  0.00000000000E+00  0.00000000000E+00  0.74505805969E-08  0.10566000000E+00  0.10566000000E+00 0. -1.
     999900   -1    0    0    0    0 -0.00000000000E+00 -0.00000000000E+00 -0.74505805969E-08  0.93827000000E+00  0.93827000000E+00 0. -1.
     999903    2    1    2    0    0  0.97600123958E-01 -0.61910854005E-01  0.73579295245E-02  0.11748983351E+00  0.19773310601E-01 0.  0.
         14    1    1    2    0    0  0.17940846692E-01  0.32406096859E-01 -0.10099194754E-01  0.38393004940E-01  0.00000000000E+00 0.  1.
     999901    1    1    2    0    0 -0.11554097065E+00  0.29504757147E-01  0.27412652295E-02  0.88804716155E+00  0.88000000000E+00 0.  1.
        -11    1    3    3    0    0  0.69148171074E-01 -0.33971880460E-01  0.90540574240E-02  0.77574450058E-01  0.51100000000E-03 0. -1.
         11    1    3    3    0    0  0.28451952884E-01 -0.27938973545E-01 -0.16961278995E-02  0.39915383457E-01  0.51100000000E-03 0.  1.
</event>
<event>
 8    1  0.1204770E+005  0.1043930E+01  0.7957747E-01            NaN
         13   -1    0    0    0    0  0.00000000000E+00  0.00000000000E+00  0.74505805969E-08  0.10566000000E+00  0.10566000000E+00 0.  1.
     999900   -1    0    0    0    0 -0.00000000000E+00 -0.00000000000E+00 -0.74505805969E-08  0.93827000000E+00  0.93827000000E+00 0.  1.
     999902    2    1    2    0    0  0.19005035197E-01 -0.11213371767E-01 -0.79250515673E-02  0.10204835181E+01  0.10202141311E+01 0.  0.
     999903    2    3    3    0    0  0.56894262864E-01 -0.11409179607E+00 -0.33717590271E-01  0.13330550961E+00  0.19483016241E-01 0.  0.
         14    1    1    2    0    0 -0.19005035197E-01  0.11213371767E-01  0.79250515673E-02  0.23446481859E-01  0.00000000000E+00 0.  1.
     999901    1    3    3    0    0 -0.37889227667E-01  0.10287842431E+00  0.25792538704E-01  0.88717800853E+00  0.88000000000E+00 0. -1.
        -11    1    4    4    0    0  0.79313663146E-02 -0.34852345841E-01 -0.73116906014E-02  0.36487182992E-01  0.51100000000E-03 0.  1.
         11    1    4    4    0    0  0.48962896549E-01 -0.79239450231E-01 -0.26405899670E-01  0.96818326622E-01  0.51100000000E-03 0. -1.
</event>
<event>
 8    1  0.1204770E+005  0.1043930E+01  0.7957747E-01            NaN
         13   -1    0    0    0    0  0.00000000000E+00  0.00000000000E+00  0.74505805969E-08  0.10566000000E+00  0.10566000000E+00 0. -1.
     999900   -1    0    0    0    0 -0.00000000000E+00 -0.00000000000E+00 -0.74505805969E-08  0.93827000000E+00  0.93827000000E+00 0. -1.
     999902    2    1    2    0    0 -0.20712413578E-01  0.54877399805E-02  0.11352985698E-01  0.10196810897E+01  0.10193927188E+01 0.  0.
     999903    2    3    3    0    0 -0.96411501290E-01 -0.38010423000E-01  0.80282836449E-01  0.13267840290E+00  0.20451281903E-01 0.  0.
         14    1    1    2    0    0  0.20712413578E-01 -0.54877399805E-02 -0.11352985698E-01  0.24248910297E-01  0.00000000000E+00 0.  1.
     999901    1    3    3    0    0  0.75699087712E-01  0.43498162980E-01 -0.68929850751E-01  0.88700268680E+00  0.88000000000E+00 0. -1.
        -11    1    4    4    0    0 -0.33014635701E-01 -0.34404295790E-02  0.29356103171E-01  0.44315286759E-01  0.51100000000E-03 0.  1.
         11    1    4    4    0    0 -0.63396865589E-01 -0.34569993421E-01  0.50926733278E-01  0.88363116146E-01  0.51100000000E-03 0. -1.
</event>
<event>
 8    1  0.1204770E+005  0.1043930E+01  0.7957747E-01            NaN
         13   -1    0    0    0    0  0.00000000000E+00  0.00000000000E+00  0.74505805969E-08  0.10566000000E+00  0.10566000000E+00 0. -1.
     999900   -1    0    0    0    0 -0.00000000000E+00 -0.00000000000E+00 -0.74505805969E-08  0.93827000000E+00  0.93827000000E+00 0.  1.
     999902    2    1    2    0    0  0.13237038249E-01  0.11710262123E-01  0.15937193387E-01  0.10201320263E+01  0.10198544050E+01 0.  0.
     999903    2    3    3    0    0 -0.90449155499E-01  0.91258244073E-01  0.79319657741E-02  0.13044511961E+00  0.21068846866E-01 0.  0.
         14    1    1    2    0    0 -0.13237038249E-01 -0.11710262123E-01 -0.15937193387E-01  0.23797973730E-01  0.00000000000E+00 0.  1.
     999901    1    3    3    0    0  0.10368619375E+00 -0.79547981949E-01  0.80052276130E-02  0.88968690666E+00  0.88000000000E+00 0. -1.
        -11    1    4    4    0    0 -0.48739447469E-01  0.41554314136E-01 -0.51273467761E-02  0.64256093632E-01  0.51100000000E-03 0. -1.
         11    1    4    4    0    0 -0.41709708029E-01  0.49703929937E-01  0.13059312550E-01  0.66189025981E-01  0.51100000000E-03 0.  1.
</event>
<event>
 8    1  0.1204770E+005  0.1043930E+01  0.7957747E-01            NaN
         13   -1    0    0    0    0  0.00000000000E+00  0.00000000000E+00  0.74505805969E-08  0.10566000000E+00  0.10566000000E+00 0.  1.
     999900   -1    0    0    0    0 -0.00000000000E+00 -0.00000000000E+00 -0.74505805969E-08  0.93827000000E+00  0.93827000000E+00 0.  1.
     999902    2    1    2    0    0  0.13054670451E-01  0.14954983367E-01  0.12599289743E-01  0.10204179169E+01  0.10201470027E+01 0.  0.
     999903    2    3    3    0    0  0.91880158573E-01 -0.90188139703E-01 -0.87802117844E-02  0.13040352548E+00  0.18764947550E-01 0.  0.
         14    1    1    2    0    0 -0.13054670451E-01 -0.14954983367E-01 -0.12599289743E-01  0.23512083066E-01  0.00000000000E+00 0. -1.
     999901    1    3    3    0    0 -0.78825488122E-01  0.10514312307E+00  0.21379501528E-01  0.89001439145E+00  0.88000000000E+00 0.  1.
        -11    1    4    4    0    0  0.50565997867E-01 -0.36693356392E-01 -0.57488233115E-02  0.62742590272E-01  0.51100000000E-03 0.  1.
         11    1    4    4    0    0  0.41314160706E-01 -0.53494783311E-01 -0.30313884730E-02  0.67660935209E-01  0.51100000000E-03 0. -1.
</event>
<event>
 8    1  0.1204770E+005  0.1043930E+01  0.7957747E-01            NaN
         13   -1    0    0    0    0  0.00000000000E+00  0.00000000000E+00  0.74505805969E-08  0.10566000000E+00  0.10566000000E+00 0. -1.
     999900   -1    0    0    0    0 -0.00000000000E+00 -0.00000000000E+00 -0.74505805969E-08  0.93827000000E+00  0.93827000000E+00 0. -1.
     999902    2    1    2    0    0  0.22445706729E-01  0.67575000623E-02 -0.52190901990E-02  0.10199151617E+01  0.10196323968E+01 0.  0.
     999903    2    3    3    0    0 -0.10060061802E+00 -0.63692444323E-01  0.40337214836E-01  0.12740243368E+00  0.20665850965E-01 0.  0.
         14    1    1    2    0    0 -0.22445706729E-01 -0.67575000623E-02  0.52190901990E-02  0.24014838333E-01  0.00000000000E+00 0.  1.
     999901    1    3    3    0    0  0.12304632475E+00  0.70449944385E-01 -0.45556305035E-01  0.89251272799E+00  0.88000000000E+00 0. -1.
        -11    1    4    4    0    0 -0.23408286851E-02 -0.39705539675E-02  0.56255815573E-02  0.72906149672E-02  0.51100000000E-03 0.  1.
         11    1    4    4    0    0 -0.98259789334E-01 -0.59721890355E-01  0.34711633279E-01  0.12011181871E+00  0.51100000000E-03 0. -1.
</event>
<event>
 8    1  0.1204770E+005  0.1043930E+01  0.7957747E-01            NaN
         13   -1    0    0    0    0  0.00000000000E+00  0.00000000000E+00  0.74505805969E-08  0.10566000000E+00  0.10566000000E+00 0.  1.
     999900   -1    0    0    0    0 -0.00000000000E+00 -0.00000000000E+00 -0.74505805969E-08  0.93827000000E+00  0.93827000000E+00 0.  1.
     999902    2    1    2    0    0 -0.21060209214E-02 -0.21520389344E-01 -0.11838960587E-01  0.10192779520E+01  0.10189797937E+01 0.  0.
     999903    2    3    3    0    0 -0.70825979890E-02  0.98873456099E-02  0.12609282233E+00  0.12796634048E+00  0.18112472405E-01 0.  0.
         14    1    1    2    0    0  0.21060209214E-02  0.21520389344E-01  0.11838960587E-01  0.24652047976E-01  0.00000000000E+00 0.  1.
     999901    1    3    3    0    0  0.49765770676E-02 -0.31407734954E-01 -0.13793178291E+00  0.89131161154E+00  0.88000000000E+00 0.  1.
        -11    1    4    4    0    0 -0.68445948334E-02  0.15092880629E-01  0.96310341450E-01  0.97727102256E-01  0.51100000000E-03 0. -1.
         11    1    4    4    0    0 -0.23800315561E-03 -0.52055350192E-02  0.29782480876E-01  0.30239238225E-01  0.51100000000E-03 0.  1.
</event>
<event>
 8    1  0.1204770E+005  0.1043930E+01  0.7957747E-01            NaN
         13   -1    0    0    0    0  0.00000000000E+00  0.00000000000E+00  0.74505805969E-08  0.10566000000E+00  0.10566000000E+00 0.  1.
     999900   -1    0    0    0    0 -0.00000000000E+00 -0.00000000000E+00 -0.74505805969E-08  0.93827000000E+00  0.93827000000E+00 0. -1.
     999902    2    1    2    0    0 -0.86987746201E-02  0.18728200981E-01 -0.12170661524E-01  0.10199604528E+01  0.10196787661E+01 0.  0.
     999903    2    3    3    0    0 -0.10157547361E+00 -0.38837090477E-01  0.67510651811E-01  0.12962964028E+00  0.20500221813E-01 0.  0.
         14    1    1    2    0    0  0.86987746201E-02 -0.18728200981E-01  0.12170661524E-01  0.23969547217E-01  0.00000000000E+00 0.  1.
     999901    1    3    3    0    0  0.92876698995E-01  0.57565291458E-01 -0.79681313335E-01  0.89033081250E+00  0.88000000000E+00 0. -1.
        -11    1    4    4    0    0 -0.24723518652E-01 -0.14934513050E-02  0.20164613398E-01  0.31943004333E-01  0.51100000000E-03 0.  1.
         11    1    4    4    0    0 -0.76851954963E-01 -0.37343639172E-01  0.47346038413E-01  0.97686635947E-01  0.51100000000E-03 0. -1.
</event>
<event>
 8    1  0.1204770E+005  0.1043930E+01  0.7957747E-01            NaN
         13   -1    0    0    0    0  0.00000000000E+00  0.00000000000E+00  0.74505805969E-08  0.10566000000E+00  0.10566000000E+00 0.  1.
     999900   -1    0    0    0    0 -0.00000000000E+00 -0.00000000000E+00 -0.74505805969E-08  0.93827000000E+00  0.93827000000E+00 0. -1.
     999902    2    1    2    0    0 -0.14664500582E-01 -0.10629231911E-01 -0.16359399475E-01  0.10195238922E+01  0.10192317247E+01 0.  0.
     999903    2    3    3    0    0  0.77752476962E-01 -0.82639812777E-01  0.57059404908E-01  0.12872832509E+00  0.20986177867E-01 0.  0.
         14    1    1    2    0    0  0.14664500582E-01  0.10629231911E-01  0.16359399475E-01  0.24406107832E-01  0.00000000000E+00 0.  1.
     999901    1    3    3    0    0 -0.92416977545E-01  0.72010580866E-01 -0.73418804383E-01  0.89079556708E+00  0.88000000000E+00 0.  1.
        -11    1    4    4    0    0  0.60478999382E-01 -0.50560707534E-01  0.36240277150E-01  0.86762395780E-01  0.51100000000E-03 0. -1.
         11    1    4    4    0    0  0.17273477580E-01 -0.32079105243E-01  0.20819127758E-01  0.41965929306E-01  0.51100000000E-03 0.  1.
</event>
<event>
 8    1  0.1204770E+005  0.1043930E+01  0.7957747E-01            NaN
         13   -1    0    0    0    0  0.00000000000E+00  0.00000000000E+00  0.74505805969E-08  0.10566000000E+00  0.10566000000E+00 0. -1.
     999900   -1    0    0    0    0 -0.00000000000E+00 -0.00000000000E+00 -0.74505805969E-08  0.93827000000E+00  0.93827000000E+00 0.  1.
     999902    2    1    2    0    0 -0.92089836963E-02  0.19114715816E-01 -0.99615388698E-02  0.10204905035E+01  0.10202212788E+01 0.  0.
     999903    2    3    3    0    0  0.60015832428E-01 -0.79645840873E-01  0.77670184813E-01  0.12795196551E+00  0.19841566448E-01 0.  0.
         14    1    1    2    0    0  0.92089836963E-02 -0.19114715816E-01  0.99615388698E-02  0.23439496541E-01  0.00000000000E+00 0.  1.
     999901    1    3    3    0    0 -0.69224816125E-01  0.98760556689E-01 -0.87631723683E-01  0.89253853795E+00  0.88000000000E+00 0. -1.
        -11    1    4    4    0    0  0.10755905804E-01 -0.29354598088E-01  0.24902069420E-01  0.39971941671E-01  0.51100000000E-03 0.  1.
         11    1    4    4    0    0  0.49259926625E-01 -0.50291242785E-01  0.52768115393E-01  0.87980023841E-01  0.51100000000E-03 0. -1.
</event>
<event>
 8    1  0.1204770E+005  0.1043930E+01  0.7957747E-01            NaN
         13   -1    0    0    0    0  0.00000000000E+00  0.00000000000E+00  0.74505805969E-08  0.10566000000E+00  0.10566000000E+00 0. -1.
     999900   -1    0    0    0    0 -0.00000000000E+00 -0.00000000000E+00 -0.74505805969E-08  0.93827000000E+00  0.93827000000E+00 0. -1.
     999902    2    1    2    0    0  0.22204732743E-02  0.14168519437E-01 -0.18523942967E-01  0.10205032224E+01  0.10202342932E+01 0.  0.
     999903    2    3    3    0    0 -0.73396781345E-01  0.85983474326E-01  0.62208007261E-01  0.13067570839E+00  0.20641202169E-01 0.  0.
         14    1    1    2    0    0 -0.22204732743E-02 -0.14168519437E-01  0.18523942967E-01  0.23426777577E-01  0.00000000000E+00 0. -1.
     999901    1    3    3    0    0  0.75617254619E-01 -0.71814954888E-01 -0.80731950228E-01  0.88982751403E+00  0.88000000000E+00 0. -1.
        -11    1    4    4    0    0 -0.23911071776E-01  0.24144487505E-01  0.29435099545E-01  0.44959780210E-01  0.51100000000E-03 0.  1.
         11    1    4    4    0    0 -0.49485709569E-01  0.61838986821E-01  0.32772907717E-01  0.85715928180E-01  0.51100000000E-03 0. -1.
</event>
<event>
 8    1  0.1564251E+005  0.1043930E+01  0.7957747E-01            NaN
         13   -1    0    0    0    0  0.00000000000E+00  0.00000000000E+00  0.74505805969E-08  0.10566000000E+00  0.10566000000E+00 0.  1.
     999900   -1    0    0    0    0 -0.00000000000E+00 -0.00000000000E+00 -0.74505805969E-08  0.93827000000E+00  0.93827000000E+00 0. -1.
     999902    2    1    2    0    0 -0.17356854310E-01 -0.10080022398E-01  0.15955216865E-01  0.10182894815E+01  0.10179666163E+01 0.  0.
     999903    2    3    3    0    0  0.54841174596E-01  0.94550078417E-01  0.62576792693E-01  0.12793360620E+00  0.22447290512E-01 0.  0.
         14    1    1    2    0    0  0.17356854310E-01  0.10080022398E-01 -0.15955216865E-01  0.25640518487E-01  0.00000000000E+00 0. -1.
     999901    1    3    3    0    0 -0.72198028906E-01 -0.10463010082E+00 -0.46621575828E-01  0.89035587531E+00  0.88000000000E+00 0.  1.
        -11    1    4    4    0    0  0.27218822613E-01  0.43063383268E-01  0.41863098010E-01  0.65940119646E-01  0.51100000000E-03 0.  1.
         11    1    4    4    0    0  0.27622351983E-01  0.51486695149E-01  0.20713694683E-01  0.61993486552E-01  0.51100000000E-03 0. -1.
</event>
<event>
 8    1  0.1204770E+005  0.1043930E+01  0.7957747E-01            NaN
         13   -1    0    0    0    0  0.00000000000E+00  0.00000000000E+00  0.74505805969E-08  0.10566000000E+00  0.10566000000E+00 0.  1.
     999900   -1    0    0    0    0 -0.00000000000E+00 -0.00000000000E+00 -0.74505805969E-08  0.93827000000E+00  0.93827000000E+00 0. -1.
     999902    2    1    2    0    0  0.10702498944E-01 -0.26119533869E-01  0.11287745273E-01  0.10135295604E+01  0.10130735329E+01 0.  0.
     999903    2    3    3    0    0 -0.61483536622E-01  0.10193054792E+00  0.12574015418E-01  0.12133602667E+00  0.19856072873E-01 0.  0.
         14    1    1    2    0    0 -0.10702498944E-01  0.26119533869E-01 -0.11287745273E-01  0.30400439578E-01  0.00000000000E+00 0.  1.
     999901    1    3    3    0    0  0.72186035567E-01 -0.12805008179E+00 -0.12862701448E-02  0.89219353375E+00  0.88000000000E+00 0. -1.
        -11    1    4    4    0    0 -0.14370097473E-01  0.25183178066E-01  0.11714334165E-01  0.31275851784E-01  0.51100000000E-03 0. -1.
         11    1    4    4    0    0 -0.47113439149E-01  0.76747369853E-01  0.85968125306E-03  0.90060174887E-01  0.51100000000E-03 0.  1.
</event>
<event>
 8    1  0.1204770E+005  0.1043930E+01  0.7957747E-01            NaN
         13   -1    0    0    0    0  0.00000000000E+00  0.00000000000E+00  0.74505805969E-08  0.10566000000E+00  0.10566000000E+00 0.  1.
     999900   -1    0    0    0    0 -0.00000000000E+00 -0.00000000000E+00 -0.74505805969E-08  0.93827000000E+00  0.93827000000E+00 0. -1.
     999902    2    1    2    0    0 -0.45184524040E-03  0.18324529877E-01  0.15206298574E-01  0.10201135335E+01  0.10198354756E+01 0.  0.
     999903    2    3    3    0    0 -0.61749199606E-01  0.11516362888E+00 -0.77481402422E-02  0.13238492465E+00  0.19751190533E-01 0.  0.
         14    1    1    2    0    0  0.45184524040E-03 -0.18324529877E-01 -0.15206298574E-01  0.23816466482E-01  0.00000000000E+00 0. -1.
     999901    1    3    3    0    0  0.61297354365E-01 -0.96839099003E-01  0.22954438817E-01  0.88772860887E+00  0.88000000000E+00 0. -1.
        -11    1    4    4    0    0 -0.12382545042E-01  0.33910576171E-01  0.50353621427E-02  0.36453677330E-01  0.51100000000E-03 0. -1.
         11    1    4    4    0    0 -0.49366654563E-01  0.81253052710E-01 -0.12783502385E-01  0.95931247316E-01  0.51100000000E-03 0.  1.
</event>
<event>
 8    1  0.1204770E+005  0.1043930E+01  0.7957747E-01            NaN
         13   -1    0    0    0    0  0.00000000000E+00  0.00000000000E+00  0.74505805969E-08  0.10566000000E+00  0.10566000000E+00 0. -1.
     999900   -1    0    0    0    0 -0.00000000000E+00 -0.00000000000E+00 -0.74505805969E-08  0.93827000000E+00  0.93827000000E+00 0. -1.
     999902    2    1    2    0    0  0.14192117510E-01  0.18404139097E-01  0.36272490534E-02  0.10204079790E+01  0.10201368331E+01 0.  0.
     999903    2    3    3    0    0 -0.10785201003E+00 -0.65686090497E-01 -0.67157997392E-02  0.12795466683E+00  0.19508363448E-01 0.  0.
         14    1    1    2    0    0 -0.14192117510E-01 -0.18404139097E-01 -0.36272490534E-02  0.23522020980E-01  0.00000000000E+00 0.  1.
     999901    1    3    3    0    0  0.12204412754E+00  0.84090229594E-01  0.10343048793E-01  0.89245331219E+00  0.88000000000E+00 0. -1.
        -11    1    4    4    0    0 -0.10777838747E+00 -0.64410310013E-01 -0.83277132841E-02  0.12583513330E+00  0.51100000000E-03 0.  1.
         11    1    4    4    0    0 -0.73622560859E-04 -0.12757804839E-02  0.16119135448E-02  0.21195335337E-02  0.51100000000E-03 0. -1.
</event>
<event>
 8    1  0.1204770E+005  0.1043930E+01  0.7957747E-01            NaN
         13   -1    0    0    0    0  0.00000000000E+00  0.00000000000E+00  0.74505805969E-08  0.10566000000E+00  0.10566000000E+00 0.  1.
     999900   -1    0    0    0    0 -0.00000000000E+00 -0.00000000000E+00 -0.74505805969E-08  0.93827000000E+00  0.93827000000E+00 0.  1.
     999902    2    1    2    0    0  0.90370208430E-02 -0.11573510616E-01  0.17760294395E-01  0.10208856525E+01  0.10206255305E+01 0.  0.
     999903    2    3    3    0    0 -0.10814952840E+00  0.61914522092E-01 -0.26343041248E-01  0.12898976034E+00  0.20363543691E-01 0.  0.
         14    1    1    2    0    0 -0.90370208430E-02  0.11573510616E-01 -0.17760294395E-01  0.23044347478E-01  0.00000000000E+00 0. -1.
     999901    1    3    3    0    0  0.11718654924E+00 -0.73488032707E-01  0.44103335643E-01  0.89189589218E+00  0.88000000000E+00 0.  1.
        -11    1    4    4    0    0 -0.27338331243E-01  0.60108481773E-02 -0.51495855118E-02  0.28465663578E-01  0.51100000000E-03 0. -1.
         11    1    4    4    0    0 -0.80811197156E-01  0.55903673914E-01 -0.21193455736E-01  0.10052409676E+00  0.51100000000E-03 0.  1.
</event>
<event>
 8    1  0.1204770E+005  0.1043930E+01  0.7957747E-01            NaN
         13   -1    0    0    0    0  0.00000000000E+00  0.00000000000E+00  0.74505805969E-08  0.10566000000E+00  0.10566000000E+00 0. -1.
     999900   -1    0    0    0    0 -0.00000000000E+00 -0.00000000000E+00 -0.74505805969E-08  0.93827000000E+00  0.93827000000E+00 0. -1.
     999902    2    1    2    0    0  0.20315021589E-01  0.85744058864E-02 -0.74119857006E-02  0.10206671956E+01  0.10204020610E+01 0.  0.
     999903    2    3    3    0    0  0.49344902491E-01 -0.21951885685E-01  0.11741785755E+00  0.13085986909E+00  0.20507251913E-01 0.  0.
         14    1    1    2    0    0 -0.20315021589E-01 -0.85744058864E-02  0.74119857006E-02  0.23262804442E-01  0.00000000000E+00 0. -1.
     999901    1    3    3    0    0 -0.29029880902E-01  0.30526291572E-01 -0.12482984325E+00  0.88980732646E+00  0.88000000000E+00 0. -1.
        -11    1    4    4    0    0  0.22289841375E-01 -0.19963560198E-01  0.51301376214E-01  0.59392533931E-01  0.51100000000E-03 0. -1.
         11    1    4    4    0    0  0.27055061115E-01 -0.19883254873E-02  0.66116481336E-01  0.71467335164E-01  0.51100000000E-03 0.  1.
</event>
<event>
 8    1  0.1204770E+005  0.1043930E+01  0.7957747E-01            NaN
         13   -1    0    0    0    0  0.00000000000E+00  0.00000000000E+00  0.74505805969E-08  0.10566000000E+00  0.10566000000E+00 0.  1.
     999900   -1    0    0    0    0 -0.00000000000E+00 -0.00000000000E+00 -0.74505805969E-08  0.93827000000E+00  0.93827000000E+00 0.  1.
     999902    2    1    2    0    0 -0.19078854071E-01  0.32546828844E-02  0.12320496221E-01  0.10209868036E+01  0.10207289860E+01 0.  0.
     999903    2    3    3    0    0 -0.10272567002E+00  0.64445462541E-01 -0.50439336747E-01  0.13268511051E+00  0.18852876058E-01 0.  0.
         14    1    1    2    0    0  0.19078854071E-01 -0.32546828844E-02 -0.12320496221E-01  0.22943196387E-01  0.00000000000E+00 0.  1.
     999901    1    3    3    0    0  0.83646815953E-01 -0.61190779657E-01  0.62759832969E-01  0.88830169310E+00  0.88000000000E+00 0. -1.
        -11    1    4    4    0    0 -0.77511315672E-01  0.39131062801E-01 -0.38793650300E-01  0.95102326773E-01  0.51100000000E-03 0. -1.
         11    1    4    4    0    0 -0.25214354352E-01  0.25314399741E-01 -0.11645686448E-01  0.37582783737E-01  0.51100000000E-03 0.  1.
</event>
<event>
 8    1  0.1204770E+005  0.1043930E+01  0.7957747E-01            NaN
         13   -1    0    0    0    0  0.00000000000E+00  0.00000000000E+00  0.74505805969E-08  0.10566000000E+00  0.10566000000E+00 0. -1.
     999900   -1    0    0    0    0 -0.00000000000E+00 -0.00000000000E+00 -0.74505805969E-08  0.93827000000E+00  0.93827000000E+00 0. -1.
     999902    2    1    2    0    0  0.22834120046E-01  0.39590331572E-02  0.49865749799E-03  0.10207498438E+01  0.10204866114E+01 0.  0.
     999903    2    3    3    0    0  0.55777567968E-01  0.93506620189E-01 -0.72773448568E-01  0.13256470397E+00  0.20562120851E-01 0.  0.
         14    1    1    2    0    0 -0.22834120046E-01 -0.39590331572E-02 -0.49865749799E-03  0.23180156193E-01  0.00000000000E+00 0. -1.
     999901    1    3    3    0    0 -0.32943447922E-01 -0.89547587032E-01  0.73272106066E-01  0.88818513984E+00  0.88000000000E+00 0.  1.
        -11    1    4    4    0    0  0.35020515985E-01  0.69965714024E-01 -0.60321916914E-01  0.98795913174E-01  0.51100000000E-03 0. -1.
         11    1    4    4    0    0  0.20757051984E-01  0.23540906166E-01 -0.12451531654E-01  0.33768790794E-01  0.51100000000E-03 0.  1.
</event>
<event>
 7    1  0.1204770E+005  0.1043930E+01  0.7957747E-01            NaN
         13   -1    0    0    0    0  0.00000000000E+00  0.00000000000E+00  0.74505805969E-08  0.10566000000E+00  0.10566000000E+00 0. -1.
     999900   -1    0    0    0    0 -0.00000000000E+00 -0.00000000000E+00 -0.74505805969E-08  0.93827000000E+00  0.93827000000E+00 0.  1.
     999902    2    1    2    0    0  0.46664695386E-02 -0.15923085603E-01  0.12763791987E-01  0.10229959374E+01  0.10227817230E+01 0.  0.
         14    1    1    2    0    0 -0.46664695386E-02  0.15923085603E-01 -0.12763791987E-01  0.20934062648E-01  0.00000000000E+00 0.  1.
     999901    1    3    3    0    0  0.33568903337E-01  0.84558960408E-01 -0.53372645786E-01  0.88629889336E+00  0.88000000000E+00 0.  1.
        -11    1    3    3    0    0 -0.20426070481E-01 -0.32494733782E-01  0.55320316273E-01  0.67332982946E-01  0.51100000000E-03 0.  1.
         11    1    3    3    0    0 -0.84763633170E-02 -0.67987312229E-01  0.10816121500E-01  0.69364061044E-01  0.51100000000E-03 0. -1.
</event>
<event>
 8    1  0.1204770E+005  0.1043930E+01  0.7957747E-01            NaN
         13   -1    0    0    0    0  0.00000000000E+00  0.00000000000E+00  0.74505805969E-08  0.10566000000E+00  0.10566000000E+00 0.  1.
     999900   -1    0    0    0    0 -0.00000000000E+00 -0.00000000000E+00 -0.74505805969E-08  0.93827000000E+00  0.93827000000E+00 0. -1.
     999902    2    1    2    0    0 -0.10479211361E-01  0.11386135863E-01 -0.18870510508E-01  0.10195260223E+01  0.10192339064E+01 0.  0.
     999903    2    3    3    0    0  0.94318338452E-01  0.35346016707E-01 -0.81267517948E-01  0.13079097243E+00  0.18883302940E-01 0.  0.
         14    1    1    2    0    0  0.10479211361E-01 -0.11386135863E-01  0.18870510508E-01  0.24403977698E-01  0.00000000000E+00 0. -1.
     999901    1    3    3    0    0 -0.10479754981E+00 -0.23959880844E-01  0.62397007440E-01  0.88873504987E+00  0.88000000000E+00 0. -1.
        -11    1    4    4    0    0  0.40033873054E-01  0.11972041944E-01 -0.45165520842E-01  0.61532318126E-01  0.51100000000E-03 0. -1.
         11    1    4    4    0    0  0.54284465398E-01  0.23373974763E-01 -0.36101997106E-01  0.69258654303E-01  0.51100000000E-03 0.  1.
</event>
<event>
 8    1  0.1204770E+005  0.1043930E+01  0.7957747E-01            NaN
         13   -1    0    0    0    0  0.00000000000E+00  0.00000000000E+00  0.74505805969E-08  0.10566000000E+00  0.10566000000E+00 0.  1.
     999900   -1    0    0    0    0 -0.00000000000E+00 -0.00000000000E+00 -0.74505805969E-08  0.93827000000E+00  0.93827000000E+00 0. -1.
     999902    2    1    2    0    0  0.10975195600E-01  0.90670322058E-02 -0.19360918523E-01  0.10198985382E+01  0.10196153770E+01 0.  0.
     999903    2    3    3    0    0  0.52381727745E-01 -0.93013607411E-01 -0.74147923788E-01  0.13133983227E+00  0.18890748365E-01 0.  0.
         14    1    1    2    0    0 -0.10975195600E-01 -0.90670322058E-02  0.19360918523E-01  0.24031461827E-01  0.00000000000E+00 0.  1.
     999901    1    3    3    0    0 -0.41406532145E-01  0.10208063962E+00  0.54787005265E-01  0.88855870590E+00  0.88000000000E+00 0. -1.
        -11    1    4    4    0    0  0.22395938013E-01 -0.24470720141E-01 -0.28187740109E-01  0.43533940749E-01  0.51100000000E-03 0. -1.
         11    1    4    4    0    0  0.29985789732E-01 -0.68542887270E-01 -0.45960183679E-01  0.87805891522E-01  0.51100000000E-03 0.  1.
</event>
<event>
 8    1  0.1204770E+005  0.1043930E+01  0.7957747E-01            NaN
         13   -1    0    0    0    0  0.00000000000E+00  0.00000000000E+00  0.74505805969E-08  0.10566000000E+00  0.10566000000E+00 0. -1.
     999900   -1    0    0    0    0 -0.00000000000E+00 -0.00000000000E+00 -0.74505805969E-08  0.93827000000E+00  0.93827000000E+00 0.  1.
     999902    2    1    2    0    0  0.82131847753E-02 -0.82133946719E-02 -0.20878261815E-01  0.10200382007E+01  0.10197583600E+01 0.  0.
     999903    2    3    3    0    0 -0.49699741099E-01  0.11549870081E+00 -0.22512604676E-01  0.12949833041E+00  0.21283469065E-01 0.  0.
         14    1    1    2    0    0 -0.82131847753E-02  0.82133946719E-02  0.20878261815E-01  0.23891799275E-01  0.00000000000E+00 0. -1.
     999901    1    3    3    0    0  0.57912925874E-01 -0.12371209548E+00  0.16343428602E-02  0.89053987032E+00  0.88000000000E+00 0.  1.
        -11    1    4    4    0    0 -0.41700657310E-01  0.71628113840E-01 -0.16283435103E-01  0.84468591157E-01  0.51100000000E-03 0. -1.
         11    1    4    4    0    0 -0.79990837884E-02  0.43870586966E-01 -0.62291695729E-02  0.45029739248E-01  0.51100000000E-03 0.  1.
</event>
<event>
 8    1  0.1204770E+005  0.1043930E+01  0.7957747E-01            NaN
         13   -1    0    0    0    0  0.00000000000E+00  0.00000000000E+00  0.74505805969E-08  0.10566000000E+00  0.10566000000E+00 0. -1.
     999900   -1    0    0    0    0 -0.00000000000E+00 -0.00000000000E+00 -0.74505805969E-08  0.93827000000E+00  0.93827000000E+00 0. -1.
     999902    2    1    2    0    0  0.18142570221E-01 -0.13422891167E-01  0.91090256091E-03  0.10213433534E+01  0.10210935750E+01 0.  0.
     999903    2    3    3    0    0  0.53098367552E-01 -0.10936087230E+00  0.51943953249E-01  0.13397061533E+00  0.21695955043E-01 0.  0.
         14    1    1    2    0    0 -0.18142570221E-01  0.13422891167E-01 -0.91090256091E-03  0.22586646608E-01  0.00000000000E+00 0.  1.
     999901    1    3    3    0    0 -0.34955797331E-01  0.95937981137E-01 -0.51033050688E-01  0.88737273806E+00  0.88000000000E+00 0.  1.
        -11    1    4    4    0    0  0.36799740090E-01 -0.91613729852E-01  0.47093140930E-01  0.10938611160E+00  0.51100000000E-03 0.  1.
         11    1    4    4    0    0  0.16298627462E-01 -0.17747142453E-01  0.48508123182E-02  0.24584503728E-01  0.51100000000E-03 0. -1.
</event>
<event>
 8    1  0.1204770E+005  0.1043930E+01  0.7957747E-01            NaN
         13   -1    0    0    0    0  0.00000000000E+00  0.00000000000E+00  0.74505805969E-08  0.10566000000E+00  0.10566000000E+00 0.  1.
     999900   -1    0    0    0    0 -0.00000000000E+00 -0.00000000000E+00 -0.74505805969E-08  0.93827000000E+00  0.93827000000E+00 0.  1.
     999902    2    1    2    0    0  0.12302408436E-01 -0.20188812360E-01  0.35000034160E-02  0.10200304724E+01  0.10197504484E+01 0.  0.
     999903    2    3    3    0    0  0.45371292772E-01 -0.42396946116E-01  0.11488895887E+00  0.13211479409E+00  0.19969744575E-01 0.  0.
         14    1    1    2    0    0 -0.12302408436E-01  0.20188812360E-01 -0.35000034160E-02  0.23899527647E-01  0.00000000000E+00 0. -1.
     999901    1    3    3    0    0 -0.33068884336E-01  0.22208133756E-01 -0.11138895545E+00  0.88791567827E+00  0.88000000000E+00 0.  1.
        -11    1    4    4    0    0  0.62281358811E-02 -0.15574779226E-01  0.20707606037E-01  0.26653883268E-01  0.51100000000E-03 0. -1.
         11    1    4    4    0    0  0.39143156891E-01 -0.26822166890E-01  0.94181352833E-01  0.10546091082E+00  0.51100000000E-03 0.  1.
</event>
<event>
 8    1  0.1204770E+005  0.1043930E+01  0.7957747E-01            NaN
         13   -1    0    0    0    0  0.00000000000E+00  0.00000000000E+00  0.74505805969E-08  0.10566000000E+00  0.10566000000E+00 0. -1.
     999900   -1    0    0    0    0 -0.00000000000E+00 -0.00000000000E+00 -0.74505805969E-08  0.93827000000E+00  0.93827000000E+00 0.  1.
     999902    2    1    2    0    0 -0.22637255262E-01 -0.87306742793E-02  0.28301698327E-03  0.10196658269E+01  0.10193770884E+01 0.  0.
     999903    2    3    3    0    0 -0.56130970411E-01 -0.11705936313E+00 -0.14600446038E-01  0.13226600083E+00  0.20677079435E-01 0.  0.
         14    1    1    2    0    0  0.22637255262E-01  0.87306742793E-02 -0.28301698327E-03  0.24264173132E-01  0.00000000000E+00 0.  1.
     999901    1    3    3    0    0  0.33493715150E-01  0.10832868886E+00  0.14883463021E-01  0.88739982604E+00  0.88000000000E+00 0. -1.
        -11    1    4    4    0    0 -0.46024906191E-01 -0.10925923335E+00 -0.11472807009E-01  0.11911237754E+00  0.51100000000E-03 0.  1.
         11    1    4    4    0    0 -0.10106064221E-01 -0.78001297865E-02 -0.31276390289E-02  0.13153623289E-01  0.51100000000E-03 0. -1.
</event>
<event>
 8    1  0.1204770E+005  0.1043930E+01  0.7957747E-01            NaN
         13   -1    0    0    0    0  0.00000000000E+00  0.00000000000E+00  0.74505805969E-08  0.10566000000E+00  0.10566000000E+00 0. -1.
     999900   -1    0    0    0    0 -0.00000000000E+00 -0.00000000000E+00 -0.74505805969E-08  0.93827000000E+00  0.93827000000E+00 0.  1.
     999902    2    1    2    0    0  0.31365327901E-02 -0.18277880461E-01 -0.22380857791E-01  0.10148641859E+01  0.10144478766E+01 0.  0.
     999903    2    3    3    0    0  0.10418370754E+00  0.60548520791E-02 -0.69373266388E-01  0.12750242213E+00  0.23522572314E-01 0.  0.
         14    1    1    2    0    0 -0.31365327901E-02  0.18277880461E-01  0.22380857791E-01  0.29065814070E-01  0.00000000000E+00 0. -1.
     999901    1    3    3    0    0 -0.10104717475E+00 -0.24332732540E-01  0.46992408597E-01  0.88736176381E+00  0.88000000000E+00 0. -1.
        -11    1    4    4    0    0  0.91168207580E-01 -0.27954720988E-02 -0.59965990322E-01  0.10915877360E+00  0.51100000000E-03 0.  1.
         11    1    4    4    0    0  0.13015499958E-01  0.88503241779E-02 -0.94072760662E-02  0.18343648525E-01  0.51100000000E-03 0. -1.
</event>
<event>
 8    1  0.1204770E+005  0.1043930E+01  0.7957747E-01            NaN
         13   -1    0    0    0    0  0.00000000000E+00  0.00000000000E+00  0.74505805969E-08  0.10566000000E+00  0.10566000000E+00 0.  1.
     999900   -1    0    0    0    0 -0.00000000000E+00 -0.00000000000E+00 -0.74505805969E-08  0.93827000000E+00  0.93827000000E+00 0. -1.
     999902    2    1    2    0    0 -0.10758149071E-01  0.20735404339E-01  0.14665475647E-02  0.10205238998E+01  0.10202554506E+01 0.  0.
     999903    2    3    3    0    0 -0.13372818247E-01  0.98811809740E-01  0.85935144127E-01  0.13303434754E+00  0.19253119680E-01 0.  0.
         14    1    1    2    0    0  0.10758149071E-01 -0.20735404339E-01 -0.14665475647E-02  0.23406100194E-01  0.00000000000E+00 0. -1.
     999901    1    3    3    0    0  0.26146691755E-02 -0.78076405401E-01 -0.84468596562E-01  0.88748955227E+00  0.88000000000E+00 0.  1.
        -11    1    4    4    0    0 -0.12197166400E-01  0.54720878735E-01  0.37110287200E-01  0.67235258420E-01  0.51100000000E-03 0.  1.
         11    1    4    4    0    0 -0.11756518466E-02  0.44090931005E-01  0.48824856927E-01  0.65799089121E-01  0.51100000000E-03 0. -1.
</event>
<event>
 8    1  0.1204770E+005  0.1043930E+01  0.7957747E-01            NaN
         13   -1    0    0    0    0  0.00000000000E+00  0.00000000000E+00  0.74505805969E-08  0.10566000000E+00  0.10566000000E+00 0. -1.
     999900   -1    0    0    0    0 -0.00000000000E+00 -0.00000000000E+00 -0.74505805969E-08  0.93827000000E+00  0.93827000000E+00 0.  1.
     999902    2    1    2    0    0 -0.14537871476E-01 -0.11654404587E-01  0.14533455631E-01  0.10202995919E+01  0.10200259120E+01 0.  0.
     999903    2    3    3    0    0  0.10574756910E+00  0.54895381869E-01 -0.41929198654E-01  0.12783923279E+00  0.19717008375E-01 0.  0.
         14    1    1    2    0    0  0.14537871476E-01  0.11654404587E-01 -0.14533455631E-01  0.23630408077E-01  0.00000000000E+00 0.  1.
     999901    1    3    3    0    0 -0.12028544058E+00 -0.66549786456E-01  0.56462654285E-01  0.89246035913E+00  0.88000000000E+00 0. -1.
        -11    1    4    4    0    0  0.74303756211E-01  0.35186538330E-01 -0.19576221194E-01  0.84514082992E-01  0.51100000000E-03 0. -1.
         11    1    4    4    0    0  0.31443812892E-01  0.19708843539E-01 -0.22352977461E-01  0.43325149800E-01  0.51100000000E-03 0.  1.
</event>
<event>
 8    1  0.1204770E+005  0.1043930E+01  0.7957747E-01            NaN
         13   -1    0    0    0    0  0.00000000000E+00  0.00000000000E+00  0.74505805969E-08  0.10566000000E+00  0.10566000000E+00 0.  1.
     999900   -1    0    0    0    0 -0.00000000000E+00 -0.00000000000E+00 -0.74505805969E-08  0.93827000000E+00  0.93827000000E+00 0.  1.
     999902    2    1    2    0    0 -0.40400632914E-03  0.14540148906E-01  0.21330647790E-01  0.10181118729E+01  0.10177844615E+01 0.  0.
     999903    2    3    3    0    0  0.23320795478E-01 -0.99537174087E-01  0.75843137436E-01  0.12875923567E+00  0.19371389893E-01 0.  0.
         14    1    1    2    0    0  0.40400632914E-03 -0.14540148906E-01 -0.21330647790E-01  0.25818127091E-01  0.00000000000E+00 0. -1.
     999901    1    3    3    0    0 -0.23724801807E-01  0.11407732299E+00 -0.54512489646E-01  0.88935263724E+00  0.88000000000E+00 0.  1.
        -11    1    4    4    0    0  0.91935112690E-02 -0.28919106300E-01  0.33548067517E-01  0.45239024236E-01  0.51100000000E-03 0. -1.
         11    1    4    4    0    0  0.14127284209E-01 -0.70618067787E-01  0.42295069919E-01  0.83520211431E-01  0.51100000000E-03 0.  1.
</event>
<event>
 8    1  0.1204770E+005  0.1043930E+01  0.7957747E-01            NaN
         13   -1    0    0    0    0  0.00000000000E+00  0.00000000000E+00  0.74505805969E-08  0.10566000000E+00  0.10566000000E+00 0.  1.
     999900   -1    0    0    0    0 -0.00000000000E+00 -0.00000000000E+00 -0.74505805969E-08  0.93827000000E+00  0.93827000000E+00 0. -1.
     999902    2    1    2    0    0 -0.11676971830E-01 -0.12557343741E-01  0.16685213007E-01  0.10200043885E+01  0.10197237458E+01 0.  0.
     999903    2    3    3    0    0  0.79714591310E-01  0.98203574831E-01 -0.42278193272E-02  0.12812000483E+00  0.19962540031E-01 0.  0.
         14    1    1    2    0    0  0.11676971830E-01  0.12557343741E-01 -0.16685213007E-01  0.23925611508E-01  0.00000000000E+00 0.  1.
     999901    1    3    3    0    0 -0.91391563140E-01 -0.11076091857E+00  0.20913032334E-01  0.89188438366E+00  0.88000000000E+00 0. -1.
        -11    1    4    4    0    0  0.62870278767E-01  0.63810645247E-01  0.61471882800E-04  0.89580886905E-01  0.51100000000E-03 0.  1.
         11    1    4    4    0    0  0.16844312544E-01  0.34392929584E-01 -0.42892912100E-02  0.38539117926E-01  0.51100000000E-03 0. -1.
</event>
<event>
 8    1  0.1204770E+005  0.1043930E+01  0.7957747E-01            NaN
         13   -1    0    0    0    0  0.00000000000E+00  0.00000000000E+00  0.74505805969E-08  0.10566000000E+00  0.10566000000E+00 0.  1.
     999900   -1    0    0    0    0 -0.00000000000E+00 -0.00000000000E+00 -0.74505805969E-08  0.93827000000E+00  0.93827000000E+00 0. -1.
     999902    2    1    2    0    0 -0.15447190591E-01  0.10554787313E-01  0.14435132671E-01  0.10202996744E+01  0.10200259964E+01 0.  0.
     999903    2    3    3    0    0  0.57412358611E-01  0.96163347583E-01  0.66872473237E-01  0.13160005463E+00  0.17409145957E-01 0.  0.
         14    1    1    2    0    0  0.15447190591E-01 -0.10554787313E-01 -0.14435132671E-01  0.23630325592E-01  0.00000000000E+00 0. -1.
     999901    1    3    3    0    0 -0.72859549203E-01 -0.85608560270E-01 -0.52437340567E-01  0.88869961977E+00  0.88000000000E+00 0. -1.
        -11    1    4    4    0    0  0.64233808044E-02  0.15430087668E-01  0.17106693190E-01  0.23921695160E-01  0.51100000000E-03 0. -1.
         11    1    4    4    0    0  0.50988977807E-01  0.80733259915E-01  0.49765780047E-01  0.10767835947E+00  0.51100000000E-03 0.  1.
</event>
<event>
 8    1  0.1204770E+005  0.1043930E+01  0.7957747E-01            NaN
         13   -1    0    0    0    0  0.00000000000E+00  0.00000000000E+00  0.74505805969E-08  0.10566000000E+00  0.10566000000E+00 0. -1.
     999900   -1    0    0    0    0 -0.00000000000E+00 -0.00000000000E+00 -0.74505805969E-08  0.93827000000E+00  0.93827000000E+00 0. -1.
     999902    2    1    2    0    0 -0.11899272050E-01  0.33774237518E-02 -0.20333757712E-01  0.10201295511E+01  0.10198518714E+01 0.  0.
     999903    2    3    3    0    0 -0.12186261242E+00  0.45444677768E-01 -0.13036964851E-01  0.13225859577E+00  0.20165779413E-01 0.  0.
         14    1    1    2    0    0  0.11899272050E-01 -0.33774237518E-02  0.20333757712E-01  0.23800448929E-01  0.00000000000E+00 0.  1.
     999901    1    3    3    0    0  0.10996334037E+00 -0.42067254017E-01 -0.72967928611E-02  0.88787095530E+00  0.88000000000E+00 0. -1.
        -11    1    4    4    0    0 -0.53084023448E-01  0.17834412600E-01 -0.15482548769E-01  0.58102928116E-01  0.51100000000E-03 0. -1.
         11    1    4    4    0    0 -0.68778588969E-01  0.27610265168E-01  0.24455839177E-02  0.74155667652E-01  0.51100000000E-03 0.  1.
</event>
<event>
 8    1  0.1204770E+005  0.1043930E+01  0.7957747E-01            NaN
         13   -1    0    0    0    0  0.00000000000E+00  0.00000000000E+00  0.74505805969E-08  0.10566000000E+00  0.10566000000E+00 0. -1.
     999900   -1    0    0    0    0 -0.00000000000E+00 -0.00000000000E+00 -0.74505805969E-08  0.93827000000E+00  0.93827000000E+00 0. -1.
     999902    2    1    2    0    0  0.20552511503E-01 -0.11085505758E-01 -0.29687667629E-02  0.10203905067E+01  0.10201189531E+01 0.  0.
     999903    2    3    3    0    0  0.87635936288E-01 -0.89374054528E-01 -0.42220711225E-01  0.13350269089E+00  0.19302877177E-01 0.  0.
         14    1    1    2    0    0 -0.20552511503E-01  0.11085505758E-01  0.29687667629E-02  0.23539493263E-01  0.00000000000E+00 0. -1.
     999901    1    3    3    0    0 -0.67083424785E-01  0.78288548770E-01  0.39251944462E-01  0.88688781584E+00  0.88000000000E+00 0.  1.
        -11    1    4    4    0    0  0.46042815167E-01 -0.33332211086E-01 -0.17946196516E-01  0.59609598345E-01  0.51100000000E-03 0. -1.
         11    1    4    4    0    0  0.41593121121E-01 -0.56041843442E-01 -0.24274514709E-01  0.73893092548E-01  0.51100000000E-03 0.  1.
</event>
<event>
 8    1  0.1204770E+005  0.1043930E+01  0.7957747E-01            NaN
         13   -1    0    0    0    0  0.00000000000E+00  0.00000000000E+00  0.74505805969E-08  0.10566000000E+00  0.10566000000E+00 0. -1.
     999900   -1    0    0    0    0 -0.00000000000E+00 -0.00000000000E+00 -0.74505805969E-08  0.93827000000E+00  0.93827000000E+00 0. -1.
     999902    2    1    2    0    0 -0.20570101580E-01 -0.84365975463E-02  0.48170377170E-02  0.10211811734E+01  0.10209277545E+01 0.  0.
     999903    2    3    3    0    0  0.11744970476E+00 -0.13591287865E-01 -0.47456837909E-01  0.12887595893E+00  0.19434635917E-01 0.  0.
         14    1    1    2    0    0  0.20570101580E-01  0.84365975463E-02 -0.48170377170E-02  0.22748826553E-01  0.00000000000E+00 0. -1.
     999901    1    3    3    0    0 -0.13801980634E+00  0.51546903191E-02  0.52273875626E-01  0.89230521451E+00  0.88000000000E+00 0.  1.
        -11    1    4    4    0    0  0.35563333410E-01 -0.12954296564E-01 -0.12865033611E-01  0.39979178249E-01  0.51100000000E-03 0.  1.
         11    1    4    4    0    0  0.81886371348E-01 -0.63699130185E-03 -0.34591804298E-01  0.88896780685E-01  0.51100000000E-03 0. -1.
</event>
<event>
 8    1  0.1204770E+005  0.1043930E+01  0.7957747E-01            NaN
         13   -1    0    0    0    0  0.00000000000E+00  0.00000000000E+00  0.74505805969E-08  0.10566000000E+00  0.10566000000E+00 0. -1.
     999900   -1    0    0    0    0 -0.00000000000E+00 -0.00000000000E+00 -0.74505805969E-08  0.93827000000E+00  0.93827000000E+00 0.  1.
     999902    2    1    2    0    0  0.84442542045E-02 -0.21683681507E-01 -0.28117429056E-02  0.10204908581E+01  0.10202216417E+01 0.  0.
     999903    2    3    3    0    0  0.94690665168E-01 -0.75043425612E-01  0.50982514126E-01  0.13303408298E+00  0.22383312763E-01 0.  0.
         14    1    1    2    0    0 -0.84442542045E-02  0.21683681507E-01  0.28117429056E-02  0.23439141855E-01  0.00000000000E+00 0. -1.
     999901    1    3    3    0    0 -0.86246410964E-01  0.53359744105E-01 -0.53794257032E-01  0.88745677516E+00  0.88000000000E+00 0. -1.
        -11    1    4    4    0    0  0.82209546092E-01 -0.59821231246E-01  0.34535762748E-01  0.10737769417E+00  0.51100000000E-03 0. -1.
         11    1    4    4    0    0  0.12481119076E-01 -0.15222194365E-01  0.16446751379E-01  0.25656388807E-01  0.51100000000E-03 0.  1.
</event>
<event>
 7    1  0.1620188E+005  0.1043930E+01  0.7957747E-01            NaN
         13   -1    0    0    0    0  0.00000000000E+00  0.00000000000E+00  0.74505805969E-08  0.10566000000E+00  0.10566000000E+00 0.  1.
     999900   -1    0    0    0    0 -0.00000000000E+00 -0.00000000000E+00 -0.74505805969E-08  0.93827000000E+00  0.93827000000E+00 0. -1.
     999903    2    1    2    0    0  0.55578543531E-01 -0.10863841338E-02 -0.10126312719E+00  0.11686124237E+00  0.17668455172E-01 0.  0.
         14    1    1    2    0    0 -0.33914334890E-01  0.16236438791E-02  0.27543837785E-01  0.43720490967E-01  0.00000000000E+00 0.  1.
     999901    1    1    2    0    0 -0.21664208641E-01 -0.53725974530E-03  0.73719289408E-01  0.88334826666E+00  0.88000000000E+00 0.  1.
        -11    1    3    3    0    0  0.29116901322E-01 -0.91714409593E-02 -0.49302287107E-01  0.57990394954E-01  0.51100000000E-03 0. -1.
         11    1    3    3    0    0  0.26461642209E-01  0.80850568255E-02 -0.51960840085E-01  0.58870847417E-01  0.51100000000E-03 0.  1.
</event>
<event>
 8    1  0.1204770E+005  0.1043930E+01  0.7957747E-01            NaN
         13   -1    0    0    0    0  0.00000000000E+00  0.00000000000E+00  0.74505805969E-08  0.10566000000E+00  0.10566000000E+00 0. -1.
     999900   -1    0    0    0    0 -0.00000000000E+00 -0.00000000000E+00 -0.74505805969E-08  0.93827000000E+00  0.93827000000E+00 0. -1.
     999902    2    1    2    0    0 -0.38851657163E-04  0.11839864392E-01  0.18474714815E-01  0.10219869149E+01  0.10217513177E+01 0.  0.
     999903    2    3    3    0    0  0.14423148080E-01 -0.81607768010E-01  0.10210292058E+00  0.13297887989E+00  0.19761606824E-01 0.  0.
         14    1    1    2    0    0  0.38851657163E-04 -0.11839864392E-01 -0.18474714815E-01  0.21943085147E-01  0.00000000000E+00 0. -1.
     999901    1    3    3    0    0 -0.14461999737E-01  0.93447632402E-01 -0.83628205766E-01  0.88900803497E+00  0.88000000000E+00 0. -1.
        -11    1    4    4    0    0  0.93498373434E-02 -0.23310727983E-01  0.43038302459E-01  0.49833383359E-01  0.51100000000E-03 0.  1.
         11    1    4    4    0    0  0.50733107367E-02 -0.58297040027E-01  0.59064618122E-01  0.83145496526E-01  0.51100000000E-03 0. -1.
</event>
<event>
 8    1  0.1204770E+005  0.1043930E+01  0.7957747E-01            NaN
         13   -1    0    0    0    0  0.00000000000E+00  0.00000000000E+00  0.74505805969E-08  0.10566000000E+00  0.10566000000E+00 0. -1.
     999900   -1    0    0    0    0 -0.00000000000E+00 -0.00000000000E+00 -0.74505805969E-08  0.93827000000E+00  0.93827000000E+00 0. -1.
     999902    2    1    2    0    0 -0.18843626428E-02  0.23950911031E-01  0.69155530661E-02  0.10189295633E+01  0.10186228120E+01 0.  0.
     999903    2    3    3    0    0  0.71722648827E-01 -0.28793960220E-01 -0.99905875800E-01  0.12785670922E+00  0.19822299914E-01 0.  0.
         14    1    1    2    0    0  0.18843626428E-02 -0.23950911031E-01 -0.69155530661E-02  0.25000436716E-01  0.00000000000E+00 0. -1.
     999901    1    3    3    0    0 -0.73607011470E-01  0.52744871251E-01  0.10682142887E+00  0.89107285406E+00  0.88000000000E+00 0. -1.
        -11    1    4    4    0    0  0.57765745721E-01 -0.24394548834E-01 -0.66608199087E-01  0.91481630386E-01  0.51100000000E-03 0. -1.
         11    1    4    4    0    0  0.13956903106E-01 -0.43994113861E-02 -0.33297676713E-01  0.36375078836E-01  0.51100000000E-03 0.  1.
</event>
<event>
 8    1  0.1204770E+005  0.1043930E+01  0.7957747E-01            NaN
         13   -1    0    0    0    0  0.00000000000E+00  0.00000000000E+00  0.74505805969E-08  0.10566000000E+00  0.10566000000E+00 0. -1.
     999900   -1    0    0    0    0 -0.00000000000E+00 -0.00000000000E+00 -0.74505805969E-08  0.93827000000E+00  0.93827000000E+00 0. -1.
     999902    2    1    2    0    0  0.10817539279E-01 -0.21594337638E-01  0.10879558331E-01  0.10174403914E+01  0.10170954973E+01 0.  0.
     999903    2    3    3    0    0  0.62676497855E-02 -0.12121179654E-01  0.12737517235E+00  0.12970075035E+00  0.20289003932E-01 0.  0.
         14    1    1    2    0    0 -0.10817539279E-01  0.21594337638E-01 -0.10879558331E-01  0.26489608595E-01  0.00000000000E+00 0.  1.
     999901    1    3    3    0    0  0.45498894932E-02 -0.94731579833E-02 -0.11649561402E+00  0.88773964106E+00  0.88000000000E+00 0. -1.
        -11    1    4    4    0    0  0.10153372470E-01 -0.72655828659E-02  0.35890807890E-01  0.38003827162E-01  0.51100000000E-03 0.  1.
         11    1    4    4    0    0 -0.38857226848E-02 -0.48555967885E-02  0.91484364457E-01  0.91696923187E-01  0.51100000000E-03 0. -1.
</event>
<event>
 8    1  0.1204770E+005  0.1043930E+01  0.7957747E-01            NaN
         13   -1    0    0    0    0  0.00000000000E+00  0.00000000000E+00  0.74505805969E-08  0.10566000000E+00  0.10566000000E+00 0.  1.
     999900   -1    0    0    0    0 -0.00000000000E+00 -0.00000000000E+00 -0.74505805969E-08  0.93827000000E+00  0.93827000000E+00 0. -1.
     999902    2    1    2    0    0 -0.50504679862E-02  0.16090594292E-01 -0.15801700138E-01  0.10208192194E+01  0.10205575783E+01 0.  0.
     999903    2    3    3    0    0 -0.77867112573E-01 -0.94893255130E-01  0.35474349429E-01  0.12938839663E+00  0.20369355088E-01 0.  0.
         14    1    1    2    0    0  0.50504679862E-02 -0.16090594292E-01  0.15801700138E-01  0.23110780575E-01  0.00000000000E+00 0.  1.
     999901    1    3    3    0    0  0.72816644587E-01  0.11098384942E+00 -0.51276049567E-01  0.89143082279E+00  0.88000000000E+00 0. -1.
        -11    1    4    4    0    0 -0.66803283400E-01 -0.71838124282E-01  0.22239089353E-01  0.10058942782E+00  0.51100000000E-03 0. -1.
         11    1    4    4    0    0 -0.11063829173E-01 -0.23055130848E-01  0.13235260076E-01  0.28798968812E-01  0.51100000000E-03 0.  1.
</event>
<event>
 8    1  0.1204770E+005  0.1043930E+01  0.7957747E-01            NaN
         13   -1    0    0    0    0  0.00000000000E+00  0.00000000000E+00  0.74505805969E-08  0.10566000000E+00  0.10566000000E+00 0. -1.
     999900   -1    0    0    0    0 -0.00000000000E+00 -0.00000000000E+00 -0.74505805969E-08  0.93827000000E+00  0.93827000000E+00 0. -1.
     999902    2    1    2    0    0 -0.36770166107E-03  0.16128775296E-01 -0.17453307361E-01  0.10201625741E+01  0.10198856735E+01 0.  0.
     999903    2    3    3    0    0  0.86861209711E-01  0.82971942304E-01 -0.52948081527E-01  0.13261721132E+00  0.18831156095E-01 0.  0.
         14    1    1    2    0    0  0.36770166107E-03 -0.16128775296E-01  0.17453307361E-01  0.23767425920E-01  0.00000000000E+00 0. -1.
     999901    1    3    3    0    0 -0.87228911372E-01 -0.66843167008E-01  0.35494774167E-01  0.88754536276E+00  0.88000000000E+00 0.  1.
        -11    1    4    4    0    0  0.46868654112E-01  0.34581864371E-01 -0.19132923664E-01  0.61309917391E-01  0.51100000000E-03 0. -1.
         11    1    4    4    0    0  0.39992555600E-01  0.48390077933E-01 -0.33815157863E-01  0.71307293933E-01  0.51100000000E-03 0.  1.
</event>
<event>
 8    1  0.1204770E+005  0.1043930E+01  0.7957747E-01            NaN
         13   -1    0    0    0    0  0.00000000000E+00  0.00000000000E+00  0.74505805969E-08  0.10566000000E+00  0.10566000000E+00 0. -1.
     999900   -1    0    0    0    0 -0.00000000000E+00 -0.00000000000E+00 -0.74505805969E-08  0.93827000000E+00  0.93827000000E+00 0. -1.
     999902    2    1    2    0    0 -0.91419684553E-02  0.19698473744E-01 -0.95436676510E-02  0.10202089746E+01  0.10199331668E+01 0.  0.
     999903    2    3    3    0    0 -0.40697212925E-01 -0.86812322447E-01  0.83046312034E-01  0.12840564003E+00  0.19966872100E-01 0.  0.
         14    1    1    2    0    0  0.91419684553E-02 -0.19698473744E-01  0.95436676510E-02  0.23721025427E-01  0.00000000000E+00 0. -1.
     999901    1    3    3    0    0  0.31555244470E-01  0.10651079619E+00 -0.92589979685E-01  0.89180333454E+00  0.88000000000E+00 0. -1.
        -11    1    4    4    0    0 -0.12696048299E-01 -0.46709382043E-01  0.34128329824E-01  0.59228034163E-01  0.51100000000E-03 0.  1.
         11    1    4    4    0    0 -0.28001164626E-01 -0.40102940404E-01  0.48917982210E-01  0.69177605870E-01  0.51100000000E-03 0. -1.
</event>
<event>
 8    1  0.1204770E+005  0.1043930E+01  0.7957747E-01            NaN
         13   -1    0    0    0    0  0.00000000000E+00  0.00000000000E+00  0.74505805969E-08  0.10566000000E+00  0.10566000000E+00 0.  1.
     999900   -1    0    0    0    0 -0.00000000000E+00 -0.00000000000E+00 -0.74505805969E-08  0.93827000000E+00  0.93827000000E+00 0.  1.
     999902    2    1    2    0    0 -0.14009565728E-01  0.20586185470E-01  0.29548980641E-02  0.10188543069E+01  0.10185456829E+01 0.  0.
     999903    2    3    3    0    0 -0.52256243142E-01  0.10457722076E+00  0.58594724412E-01  0.13228051262E+00  0.19941971880E-01 0.  0.
         14    1    1    2    0    0  0.14009565728E-01 -0.20586185470E-01 -0.29548980641E-02  0.25075693144E-01  0.00000000000E+00 0.  1.
     999901    1    3    3    0    0  0.38246677415E-01 -0.83991035288E-01 -0.55639826348E-01  0.88657379423E+00  0.88000000000E+00 0.  1.
        -11    1    4    4    0    0 -0.48005537859E-01  0.92801585983E-01  0.44912738197E-01  0.11372810207E+00  0.51100000000E-03 0.  1.
         11    1    4    4    0    0 -0.42507052834E-02  0.11775634775E-01  0.13681986215E-01  0.18552410559E-01  0.51100000000E-03 0. -1.
</event>
<event>
 8    1  0.1204770E+005  0.1043930E+01  0.7957747E-01            NaN
         13   -1    0    0    0    0  0.00000000000E+00  0.00000000000E+00  0.74505805969E-08  0.10566000000E+00  0.10566000000E+00 0. -1.
     999900   -1    0    0    0    0 -0.00000000000E+00 -0.00000000000E+00 -0.74505805969E-08  0.93827000000E+00  0.93827000000E+00 0. -1.
     999902    2    1    2    0    0 -0.10739487606E-01 -0.23221931074E-01  0.78214024917E-02  0.10171761402E+01  0.10168242381E+01 0.  0.
     999903    2    3    3    0    0 -0.73614552277E-01 -0.10678578393E+00  0.38498656060E-02  0.13097528015E+00  0.17815627658E-01 0.  0.
         14    1    1    2    0    0  0.10739487606E-01  0.23221931074E-01 -0.78214024917E-02  0.26753859792E-01  0.00000000000E+00 0.  1.
     999901    1    3    3    0    0  0.62875064671E-01  0.83563852856E-01  0.39715368857E-02  0.88620086006E+00  0.88000000000E+00 0. -1.
        -11    1    4    4    0    0 -0.38143193290E-01 -0.68146167576E-01 -0.25072248753E-02  0.78136743259E-01  0.51100000000E-03 0. -1.
         11    1    4    4    0    0 -0.35471358987E-01 -0.38639616354E-01  0.63570904813E-02  0.52838536891E-01  0.51100000000E-03 0.  1.
</event>
<event>
 8    1  0.1204770E+005  0.1043930E+01  0.7957747E-01            NaN
         13   -1    0    0    0    0  0.00000000000E+00  0.00000000000E+00  0.74505805969E-08  0.10566000000E+00  0.10566000000E+00 0. -1.
     999900   -1    0    0    0    0 -0.00000000000E+00 -0.00000000000E+00 -0.74505805969E-08  0.93827000000E+00  0.93827000000E+00 0.  1.
     999902    2    1    2    0    0  0.14269993612E-01 -0.12128881736E-01  0.15085489422E-01  0.10198818300E+01  0.10195982702E+01 0.  0.
     999903    2    3    3    0    0 -0.17674777337E-01 -0.90515045082E-01  0.92830490459E-01  0.13240836887E+00  0.20226345413E-01 0.  0.
         14    1    1    2    0    0 -0.14269993612E-01  0.12128881736E-01 -0.15085489422E-01  0.24048170012E-01  0.00000000000E+00 0.  1.
     999901    1    3    3    0    0  0.31944770949E-01  0.78386163347E-01 -0.77745001038E-01  0.88747346111E+00  0.88000000000E+00 0.  1.
        -11    1    4    4    0    0  0.33648222691E-02 -0.97744164010E-02  0.15549983965E-01  0.18679517317E-01  0.51100000000E-03 0. -1.
         11    1    4    4    0    0 -0.21039599606E-01 -0.80740628681E-01  0.77280506494E-01  0.11372885156E+00  0.51100000000E-03 0.  1.
</event>
<event>
 8    1  0.1204770E+005  0.1043930E+01  0.7957747E-01            NaN
         13   -1    0    0    0    0  0.00000000000E+00  0.00000000000E+00  0.74505805969E-08  0.10566000000E+00  0.10566000000E+00 0.  1.
     999900   -1    0    0    0    0 -0.00000000000E+00 -0.00000000000E+00 -0.74505805969E-08  0.93827000000E+00  0.93827000000E+00 0.  1.
     999902    2    1    2    0    0 -0.18464313163E-01 -0.11885338998E-01  0.87983848883E-02  0.10202740553E+01  0.10199997766E+01 0.  0.
     999903    2    3    3    0    0 -0.42419947833E-01  0.11799896617E+00 -0.26451890578E-01  0.12972007765E+00  0.20109401744E-01 0.  0.
         14    1    1    2    0    0  0.18464313163E-01  0.11885338998E-01 -0.87983848883E-02  0.23655944714E-01  0.00000000000E+00 0.  1.
     999901    1    3    3    0    0  0.23955634670E-01 -0.12988430517E+00  0.35250275466E-01  0.89055397764E+00  0.88000000000E+00 0. -1.
        -11    1    4    4    0    0 -0.25415597056E-01  0.68385428408E-01 -0.25425700391E-01  0.77260900549E-01  0.51100000000E-03 0.  1.
         11    1    4    4    0    0 -0.17004350777E-01  0.49613537764E-01 -0.10261901873E-02  0.52459177101E-01  0.51100000000E-03 0. -1.
</event>
<event>
 8    1  0.1204770E+005  0.1043930E+01  0.7957747E-01            NaN
         13   -1    0    0    0    0  0.00000000000E+00  0.00000000000E+00  0.74505805969E-08  0.10566000000E+00  0.10566000000E+00 0. -1.
     999900   -1    0    0    0    0 -0.00000000000E+00 -0.00000000000E+00 -0.74505805969E-08  0.93827000000E+00  0.93827000000E+00 0. -1.
     999902    2    1    2    0    0  0.34395994056E-02 -0.18620017289E-01 -0.14313546387E-01  0.10201936671E+01  0.10199174991E+01 0.  0.
     999903    2    3    3    0    0 -0.31003130348E-01 -0.11595756943E+00 -0.53141930297E-01  0.13330667090E+00  0.23221794746E-01 0.  0.
         14    1    1    2    0    0 -0.34395994056E-02  0.18620017289E-01  0.14313546387E-01  0.23736332870E-01  0.00000000000E+00 0. -1.
     999901    1    3    3    0    0  0.34442729753E-01  0.97337552138E-01  0.38828383910E-01  0.88688699623E+00  0.88000000000E+00 0.  1.
        -11    1    4    4    0    0 -0.20412374410E-01 -0.52885605664E-01 -0.35770919120E-01  0.67032619606E-01  0.51100000000E-03 0.  1.
         11    1    4    4    0    0 -0.10590755937E-01 -0.63071963764E-01 -0.17371011176E-01  0.66274051292E-01  0.51100000000E-03 0. -1.
</event>
<event>
 8    1  0.1204770E+005  0.1043930E+01  0.7957747E-01            NaN
         13   -1    0    0    0    0  0.00000000000E+00  0.00000000000E+00  0.74505805969E-08  0.10566000000E+00  0.10566000000E+00 0. -1.
     999900   -1    0    0    0    0 -0.00000000000E+00 -0.00000000000E+00 -0.74505805969E-08  0.93827000000E+00  0.93827000000E+00 0. -1.
     999902    2    1    2    0    0  0.67141932762E-02  0.22583043795E-01 -0.41456471816E-02  0.10200080300E+01  0.10197274737E+01 0.  0.
     999903    2    3    3    0    0  0.10126551711E+00 -0.36882963703E-01 -0.70701751658E-01  0.13045428011E+00  0.20112770673E-01 0.  0.
         14    1    1    2    0    0 -0.67141932762E-02 -0.22583043795E-01  0.41456471816E-02  0.23921970006E-01  0.00000000000E+00 0.  1.
     999901    1    3    3    0    0 -0.94551323837E-01  0.59466007498E-01  0.66556104477E-01  0.88955374988E+00  0.88000000000E+00 0.  1.
        -11    1    4    4    0    0  0.22429320867E-01 -0.17416660895E-01 -0.19579567547E-01  0.34496885332E-01  0.51100000000E-03 0.  1.
         11    1    4    4    0    0  0.78836196246E-01 -0.19466302808E-01 -0.51122184112E-01  0.95957394779E-01  0.51100000000E-03 0. -1.
</event>
<event>
 8    1  0.1204770E+005  0.1043930E+01  0.7957747E-01            NaN
         13   -1    0    0    0    0  0.00000000000E+00  0.00000000000E+00  0.74505805969E-08  0.10566000000E+00  0.10566000000E+00 0. -1.
     999900   -1    0    0    0    0 -0.00000000000E+00 -0.00000000000E+00 -0.74505805969E-08  0.93827000000E+00  0.93827000000E+00 0.  1.
     999902    2    1    2    0    0 -0.17803902274E-01  0.12501451140E-01  0.94272081153E-02  0.10202205616E+01  0.10199450264E+01 0.  0.
     999903    2    3    3    0    0 -0.40086154232E-01 -0.63971950144E-01 -0.10392431681E+00  0.12938205319E+00  0.15496512364E-01 0.  0.
         14    1    1    2    0    0  0.17803902274E-01 -0.12501451140E-01 -0.94272081153E-02  0.23709438408E-01  0.00000000000E+00 0. -1.
     999901    1    3    3    0    0  0.22282251958E-01  0.76473401284E-01  0.11335152493E+00  0.89083850841E+00  0.88000000000E+00 0. -1.
        -11    1    4    4    0    0 -0.10563066856E-01 -0.14603133065E-01 -0.36806467009E-01  0.40985448776E-01  0.51100000000E-03 0. -1.
         11    1    4    4    0    0 -0.29523087375E-01 -0.49368817078E-01 -0.67117849803E-01  0.88396604409E-01  0.51100000000E-03 0.  1.
</event>
<event>
 8    1  0.1204770E+005  0.1043930E+01  0.7957747E-01            NaN
         13   -1    0    0    0    0  0.00000000000E+00  0.00000000000E+00  0.74505805969E-08  0.10566000000E+00  0.10566000000E+00 0.  1.
     999900   -1    0    0    0    0 -0.00000000000E+00 -0.00000000000E+00 -0.74505805969E-08  0.93827000000E+00  0.93827000000E+00 0.  1.
     999902    2    1    2    0    0  0.57596878392E-02 -0.21784497886E-01  0.46842389301E-02  0.10209152124E+01  0.10206557650E+01 0.  0.
     999903    2    3    3    0    0 -0.58099720971E-01 -0.26439834356E-01 -0.11238924732E+00  0.13085572149E+00  0.20426319160E-01 0.  0.
         14    1    1    2    0    0 -0.57596878392E-02  0.21784497886E-01 -0.46842389301E-02  0.23014787561E-01  0.00000000000E+00 0. -1.
     999901    1    3    3    0    0  0.63859408810E-01  0.46553364700E-02  0.11707348625E+00  0.89005949095E+00  0.88000000000E+00 0. -1.
        -11    1    4    4    0    0 -0.16858806313E-01 -0.17262543798E-01 -0.32502101482E-01  0.40482866628E-01  0.51100000000E-03 0. -1.
         11    1    4    4    0    0 -0.41240914658E-01 -0.91772905581E-02 -0.79887145839E-01  0.90372854858E-01  0.51100000000E-03 0.  1.
</event>
<event>
 8    1  0.1204770E+005  0.1043930E+01  0.7957747E-01            NaN
         13   -1    0    0    0    0  0.00000000000E+00  0.00000000000E+00  0.74505805969E-08  0.10566000000E+00  0.10566000000E+00 0. -1.
     999900   -1    0    0    0    0 -0.00000000000E+00 -0.00000000000E+00 -0.74505805969E-08  0.93827000000E+00  0.93827000000E+00 0.  1.
     999902    2    1    2    0    0 -0.31238664064E-02  0.18429669547E-01  0.15695399543E-01  0.10195218696E+01  0.10192296531E+01 0.  0.
     999903    2    3    3    0    0 -0.99874228627E-02 -0.78082906218E-01  0.10167989054E+00  0.13005286041E+00  0.19448843166E-01 0.  0.
         14    1    1    2    0    0  0.31238664064E-02 -0.18429669547E-01 -0.15695399543E-01  0.24408130362E-01  0.00000000000E+00 0. -1.
     999901    1    3    3    0    0  0.68635564563E-02  0.96512575765E-01 -0.85984491000E-01  0.88946900923E+00  0.88000000000E+00 0.  1.
        -11    1    4    4    0    0  0.96579557762E-04 -0.10315649146E-02  0.91372798501E-02  0.92100194268E-02  0.51100000000E-03 0. -1.
         11    1    4    4    0    0 -0.10084002420E-01 -0.77051341303E-01  0.92542610693E-01  0.12084284098E+00  0.51100000000E-03 0.  1.
</event>
<event>
 8    1  0.1204770E+005  0.1043930E+01  0.7957747E-01            NaN
         13   -1    0    0    0    0  0.00000000000E+00  0.00000000000E+00  0.74505805969E-08  0.10566000000E+00  0.10566000000E+00 0. -1.
     999900   -1    0    0    0    0 -0.00000000000E+00 -0.00000000000E+00 -0.74505805969E-08  0.93827000000E+00  0.93827000000E+00 0.  1.
     999902    2    1    2    0    0 -0.37750440467E-02  0.19962799919E-01  0.13521056490E-01  0.10195254245E+01  0.10192332941E+01 0.  0.
     999903    2    3    3    0    0  0.11370828723E+00  0.63090250748E-02  0.60365456218E-01  0.13037799211E+00  0.19622796417E-01 0.  0.
         14    1    1    2    0    0  0.37750440467E-02 -0.19962799919E-01 -0.13521056490E-01  0.24404575530E-01  0.00000000000E+00 0. -1.
     999901    1    3    3    0    0 -0.11748333128E+00  0.13653774844E-01 -0.46844399728E-01  0.88914743236E+00  0.88000000000E+00 0.  1.
        -11    1    4    4    0    0  0.34207340453E-01 -0.26944861870E-02  0.96505427718E-02  0.35648232684E-01  0.51100000000E-03 0.  1.
         11    1    4    4    0    0  0.79500946775E-01  0.90035112617E-02  0.50714913447E-01  0.94729759422E-01  0.51100000000E-03 0. -1.
</event>
<event>
 8    1  0.1204770E+005  0.1043930E+01  0.7957747E-01            NaN
         13   -1    0    0    0    0  0.00000000000E+00  0.00000000000E+00  0.74505805969E-08  0.10566000000E+00  0.10566000000E+00 0. -1.
     999900   -1    0    0    0    0 -0.00000000000E+00 -0.00000000000E+00 -0.74505805969E-08  0.93827000000E+00  0.93827000000E+00 0.  1.
     999902    2    1    2    0    0 -0.22635033363E-01 -0.10332881862E-01 -0.62660488284E-02  0.10182711506E+01  0.10179478177E+01 0.  0.
     999903    2    3    3    0    0  0.89093057210E-01  0.80899667091E-01  0.30185832318E-01  0.12578289645E+00  0.20683896844E-01 0.  0.
         14    1    1    2    0    0  0.22635033363E-01  0.10332881862E-01  0.62660488284E-02  0.25658849367E-01  0.00000000000E+00 0.  1.
     999901    1    3    3    0    0 -0.11172809057E+00 -0.91232548953E-01 -0.36451881147E-01  0.89248825418E+00  0.88000000000E+00 0. -1.
        -11    1    4    4    0    0  0.18472996203E-01  0.67674908287E-02  0.36860973207E-02  0.20022461270E-01  0.51100000000E-03 0. -1.
         11    1    4    4    0    0  0.70620061007E-01  0.74132176263E-01  0.26499734998E-01  0.10576043518E+00  0.51100000000E-03 0.  1.
</event>
<event>
 8    1  0.1204770E+005  0.1043930E+01  0.7957747E-01            NaN
         13   -1    0    0    0    0  0.00000000000E+00  0.00000000000E+00  0.74505805969E-08  0.10566000000E+00  0.10566000000E+00 0.  1.
     999900   -1    0    0    0    0 -0.00000000000E+00 -0.00000000000E+00 -0.74505805969E-08  0.93827000000E+00  0.93827000000E+00 0.  1.
     999902    2    1    2    0    0  0.23763708711E-01 -0.24992804389E-02 -0.37260629515E-02  0.10197464560E+01  0.10194596563E+01 0.  0.
     999903    2    3    3    0    0 -0.44454761293E-01 -0.10993140106E+00  0.46840607659E-01  0.12915541162E+00  0.20638291690E-01 0.  0.
         14    1    1    2    0    0 -0.23763708711E-01  0.24992804389E-02  0.37260629515E-02  0.24183543982E-01  0.00000000000E+00 0.  1.
     999901    1    3    3    0    0  0.68218470004E-01  0.10743212062E+00 -0.50566670610E-01  0.89059104440E+00  0.88000000000E+00 0. -1.
        -11    1    4    4    0    0 -0.20262834455E-01 -0.25896757373E-01  0.11579725064E-01  0.34865106570E-01  0.51100000000E-03 0.  1.
         11    1    4    4    0    0 -0.24191926838E-01 -0.84034643686E-01  0.35260882595E-01  0.94290305047E-01  0.51100000000E-03 0. -1.
</event>
<event>
 8    1  0.1204770E+005  0.1043930E+01  0.7957747E-01            NaN
         13   -1    0    0    0    0  0.00000000000E+00  0.00000000000E+00  0.74505805969E-08  0.10566000000E+00  0.10566000000E+00 0.  1.
     999900   -1    0    0    0    0 -0.00000000000E+00 -0.00000000000E+00 -0.74505805969E-08  0.93827000000E+00  0.93827000000E+00 0.  1.
     999902    2    1    2    0    0  0.25696452068E-02  0.20536601853E-01  0.11356268467E-01  0.10203223757E+01  0.10200492294E+01 0.  0.
     999903    2    3    3    0    0  0.80601892896E-01 -0.95320545449E-01 -0.23269332141E-01  0.12863249547E+00  0.20547154310E-01 0.  0.
         14    1    1    2    0    0 -0.25696452068E-02 -0.20536601853E-01 -0.11356268467E-01  0.23607624312E-01  0.00000000000E+00 0. -1.
     999901    1    3    3    0    0 -0.78032247689E-01  0.11585714730E+00  0.34625600608E-01  0.89168988021E+00  0.88000000000E+00 0.  1.
        -11    1    4    4    0    0  0.37021888061E-01 -0.30898331593E-01 -0.33390770466E-02  0.48339814308E-01  0.51100000000E-03 0.  1.
         11    1    4    4    0    0  0.43580004835E-01 -0.64422213855E-01 -0.19930255095E-01  0.80292681164E-01  0.51100000000E-03 0. -1.
</event>
<event>
 8    1  0.1204770E+005  0.1043930E+01  0.7957747E-01            NaN
         13   -1    0    0    0    0  0.00000000000E+00  0.00000000000E+00  0.74505805969E-08  0.10566000000E+00  0.10566000000E+00 0. -1.
     999900   -1    0    0    0    0 -0.00000000000E+00 -0.00000000000E+00 -0.74505805969E-08  0.93827000000E+00  0.93827000000E+00 0. -1.
     999902    2    1    2    0    0 -0.72046269273E-02 -0.21182612617E-01  0.44518748829E-03  0.10215512619E+01  0.10213061112E+01 0.  0.
     999903    2    3    3    0    0  0.30077756849E-01 -0.83015020162E-01 -0.97828004531E-01  0.13314209771E+00  0.18982483605E-01 0.  0.
         14    1    1    2    0    0  0.72046269273E-02  0.21182612617E-01 -0.44518748829E-03  0.22378738087E-01  0.00000000000E+00 0.  1.
     999901    1    3    3    0    0 -0.37282383776E-01  0.61832407544E-01  0.98273192019E-01  0.88840916420E+00  0.88000000000E+00 0.  1.
        -11    1    4    4    0    0  0.61649172072E-02 -0.42596048749E-01 -0.52255500555E-01  0.67700280889E-01  0.51100000000E-03 0. -1.
         11    1    4    4    0    0  0.23912839641E-01 -0.40418971412E-01 -0.45572503976E-01  0.65441816826E-01  0.51100000000E-03 0.  1.
</event>
<event>
 8    1  0.1204770E+005  0.1043930E+01  0.7957747E-01            NaN
         13   -1    0    0    0    0  0.00000000000E+00  0.00000000000E+00  0.74505805969E-08  0.10566000000E+00  0.10566000000E+00 0. -1.
     999900   -1    0    0    0    0 -0.00000000000E+00 -0.00000000000E+00 -0.74505805969E-08  0.93827000000E+00  0.93827000000E+00 0. -1.
     999902    2    1    2    0    0 -0.13310966305E-01  0.19591259201E-01  0.82524936815E-03  0.10202302047E+01  0.10199548962E+01 0.  0.
     999903    2    3    3    0    0  0.96799166131E-01  0.58309094075E-01  0.62308734110E-01  0.13039677596E+00  0.18732640444E-01 0.  0.
         14    1    1    2    0    0  0.13310966305E-01 -0.19591259201E-01 -0.82524936815E-03  0.23699795306E-01  0.00000000000E+00 0.  1.
     999901    1    3    3    0    0 -0.11011013244E+00 -0.38717834874E-01 -0.61483484742E-01  0.88983342874E+00  0.88000000000E+00 0. -1.
        -11    1    4    4    0    0  0.33249905790E-01  0.28868319845E-01  0.18359637016E-01  0.47710308300E-01  0.51100000000E-03 0.  1.
         11    1    4    4    0    0  0.63549260341E-01  0.29440774229E-01  0.43949097095E-01  0.82686467656E-01  0.51100000000E-03 0. -1.
</event>
<event>
 8    1  0.1204770E+005  0.1043930E+01  0.7957747E-01            NaN
         13   -1    0    0    0    0  0.00000000000E+00  0.00000000000E+00  0.74505805969E-08  0.10566000000E+00  0.10566000000E+00 0.  1.
     999900   -1    0    0    0    0 -0.00000000000E+00 -0.00000000000E+00 -0.74505805969E-08  0.93827000000E+00  0.93827000000E+00 0.  1.
     999902    2    1    2    0    0  0.16770751031E-01  0.26582032872E-02  0.16009307176E-01  0.10205928611E+01  0.10203260097E+01 0.  0.
     999903    2    3    3    0    0 -0.12059365823E+00  0.23875013548E-01 -0.31286883958E-01  0.12842916332E+00  0.20058270281E-01 0.  0.
         14    1    1    2    0    0 -0.16770751031E-01 -0.26582032872E-02 -0.16009307176E-01  0.23337138880E-01  0.00000000000E+00 0. -1.
     999901    1    3    3    0    0  0.13736440926E+00 -0.21216810261E-01  0.47296191134E-01  0.89216369780E+00  0.88000000000E+00 0. -1.
        -11    1    4    4    0    0 -0.37701001253E-01  0.33772534878E-02 -0.18333753524E-01  0.42061371541E-01  0.51100000000E-03 0. -1.
         11    1    4    4    0    0 -0.82892656978E-01  0.20497760060E-01 -0.12953130434E-01  0.86367791783E-01  0.51100000000E-03 0.  1.
</event>
<event>
 8    1  0.1204770E+005  0.1043930E+01  0.7957747E-01            NaN
         13   -1    0    0    0    0  0.00000000000E+00  0.00000000000E+00  0.74505805969E-08  0.10566000000E+00  0.10566000000E+00 0. -1.
     999900   -1    0    0    0    0 -0.00000000000E+00 -0.00000000000E+00 -0.74505805969E-08  0.93827000000E+00  0.93827000000E+00 0. -1.
     999902    2    1    2    0    0  0.36196021299E-02 -0.20456598711E-02 -0.16894955375E-01  0.10265309839E+01  0.10263835225E+01 0.  0.
     999903    2    3    3    0    0  0.18774946673E-01 -0.10387528032E+00 -0.86078927304E-01  0.13783228466E+00  0.21108872182E-01 0.  0.
         14    1    1    2    0    0 -0.36196021299E-02  0.20456598711E-02  0.16894955375E-01  0.17399016093E-01  0.00000000000E+00 0. -1.
     999901    1    3    3    0    0 -0.15155344543E-01  0.10182962045E+00  0.69183971929E-01  0.88869869925E+00  0.88000000000E+00 0.  1.
        -11    1    4    4    0    0  0.14380117117E-02 -0.16177416258E-01 -0.24045205412E-01  0.29020849380E-01  0.51100000000E-03 0.  1.
         11    1    4    4    0    0  0.17336934961E-01 -0.87697864063E-01 -0.62033721893E-01  0.10881143528E+00  0.51100000000E-03 0. -1.
</event>
<event>
 8    1  0.1204770E+005  0.1043930E+01  0.7957747E-01            NaN
         13   -1    0    0    0    0  0.00000000000E+00  0.00000000000E+00  0.74505805969E-08  0.10566000000E+00  0.10566000000E+00 0. -1.
     999900   -1    0    0    0    0 -0.00000000000E+00 -0.00000000000E+00 -0.74505805969E-08  0.93827000000E+00  0.93827000000E+00 0. -1.
     999902    2    1    2    0    0  0.73735809830E-02 -0.80637595259E-02 -0.21497944735E-01  0.10198145373E+01  0.10195293693E+01 0.  0.
     999903    2    3    3    0    0  0.71375769966E-01 -0.58972272732E-01  0.87772359039E-01  0.12929336617E+00  0.20989474395E-01 0.  0.
         14    1    1    2    0    0 -0.73735809830E-02  0.80637595259E-02  0.21497944735E-01  0.24115462717E-01  0.00000000000E+00 0. -1.
     999901    1    3    3    0    0 -0.64002188983E-01  0.50908513206E-01 -0.10927030377E+00  0.89052117111E+00  0.88000000000E+00 0. -1.
        -11    1    4    4    0    0  0.22714507841E-01 -0.14201967827E-01  0.14027716595E-01  0.30243721836E-01  0.51100000000E-03 0.  1.
         11    1    4    4    0    0  0.48661262125E-01 -0.44770304904E-01  0.73744642444E-01  0.99049644336E-01  0.51100000000E-03 0. -1.
</event>
<event>
 8    1  0.1204770E+005  0.1043930E+01  0.7957747E-01            NaN
         13   -1    0    0    0    0  0.00000000000E+00  0.00000000000E+00  0.74505805969E-08  0.10566000000E+00  0.10566000000E+00 0. -1.
     999900   -1    0    0    0    0 -0.00000000000E+00 -0.00000000000E+00 -0.74505805969E-08  0.93827000000E+00  0.93827000000E+00 0.  1.
     999902    2    1    2    0    0 -0.18875923741E-01  0.17643616167E-01  0.13047354991E-01  0.10149846867E+01  0.10145718718E+01 0.  0.
     999903    2    3    3    0    0  0.10216852327E+00  0.67743404839E-01  0.14009871705E-01  0.12528660680E+00  0.21745833887E-01 0.  0.
         14    1    1    2    0    0  0.18875923741E-01 -0.17643616167E-01 -0.13047354991E-01  0.28945313278E-01  0.00000000000E+00 0.  1.
     999901    1    3    3    0    0 -0.12104444701E+00 -0.50099788672E-01 -0.96251671356E-03  0.88969807992E+00  0.88000000000E+00 0. -1.
        -11    1    4    4    0    0  0.67695812728E-01  0.33124703931E-01  0.12564539748E-01  0.76407446310E-01  0.51100000000E-03 0.  1.
         11    1    4    4    0    0  0.34472710544E-01  0.34618700907E-01  0.14453319569E-02  0.48879160490E-01  0.51100000000E-03 0. -1.
</event>
<event>
 8    1  0.1204770E+005  0.1043930E+01  0.7957747E-01            NaN
         13   -1    0    0    0    0  0.00000000000E+00  0.00000000000E+00  0.74505805969E-08  0.10566000000E+00  0.10566000000E+00 0. -1.
     999900   -1    0    0    0    0 -0.00000000000E+00 -0.00000000000E+00 -0.74505805969E-08  0.93827000000E+00  0.93827000000E+00 0. -1.
     999902    2    1    2    0    0  0.21948465447E-01 -0.55269598775E-02 -0.84203559048E-02  0.10197807802E+01  0.10194948038E+01 0.  0.
     999903    2    3    3    0    0  0.10346557679E+00  0.66166854917E-01 -0.45660415479E-01  0.13232832262E+00  0.18513053604E-01 0.  0.
         14    1    1    2    0    0 -0.21948465447E-01  0.55269598775E-02  0.84203559048E-02  0.24149219750E-01  0.00000000000E+00 0. -1.
     999901    1    3    3    0    0 -0.81517111347E-01 -0.71693814795E-01  0.37240059574E-01  0.88745245763E+00  0.88000000000E+00 0. -1.
        -11    1    4    4    0    0  0.41914113169E-01  0.28162085264E-01 -0.28475595815E-01  0.57974275391E-01  0.51100000000E-03 0. -1.
         11    1    4    4    0    0  0.61551463626E-01  0.38004769653E-01 -0.17184819664E-01  0.74354047225E-01  0.51100000000E-03 0.  1.
</event>
<event>
 8    1  0.1204770E+005  0.1043930E+01  0.7957747E-01            NaN
         13   -1    0    0    0    0  0.00000000000E+00  0.00000000000E+00  0.74505805969E-08  0.10566000000E+00  0.10566000000E+00 0. -1.
     999900   -1    0    0    0    0 -0.00000000000E+00 -0.00000000000E+00 -0.74505805969E-08  0.93827000000E+00  0.93827000000E+00 0.  1.
     999902    2    1    2    0    0 -0.22638928644E-01  0.40045945259E-02  0.59236940202E-02  0.10201887275E+01  0.10199124432E+01 0.  0.
     999903    2    3    3    0    0  0.66067369553E-01 -0.52255341048E-01  0.96161062545E-01  0.12935946759E+00  0.19783930809E-01 0.  0.
         14    1    1    2    0    0  0.22638928644E-01 -0.40045945259E-02 -0.59236940202E-02  0.23741272466E-01  0.00000000000E+00 0. -1.
     999901    1    3    3    0    0 -0.88706298197E-01  0.56259935574E-01 -0.90237368524E-01  0.89082925994E+00  0.88000000000E+00 0. -1.
        -11    1    4    4    0    0  0.24014048473E-01 -0.30019254764E-01  0.49998697344E-01  0.63071079250E-01  0.51100000000E-03 0. -1.
         11    1    4    4    0    0  0.42053321080E-01 -0.22236086284E-01  0.46162365200E-01  0.66288388342E-01  0.51100000000E-03 0.  1.
</event>
<event>
 8    1  0.1204770E+005  0.1043930E+01  0.7957747E-01            NaN
         13   -1    0    0    0    0  0.00000000000E+00  0.00000000000E+00  0.74505805969E-08  0.10566000000E+00  0.10566000000E+00 0. -1.
     999900   -1    0    0    0    0 -0.00000000000E+00 -0.00000000000E+00 -0.74505805969E-08  0.93827000000E+00  0.93827000000E+00 0.  1.
     999902    2    1    2    0    0  0.78223791059E-02 -0.19984263260E-01  0.97087724573E-02  0.10203753687E+01  0.10201034616E+01 0.  0.
     999903    2    3    3    0    0 -0.37730948210E-02  0.74907080515E-01 -0.10190987001E+00  0.12818842446E+00  0.20526655938E-01 0.  0.
         14    1    1    2    0    0 -0.78223791059E-02  0.19984263260E-01 -0.97087724573E-02  0.23554631297E-01  0.00000000000E+00 0.  1.
     999901    1    3    3    0    0  0.11595473927E-01 -0.94891343775E-01  0.11161864246E+00  0.89218694425E+00  0.88000000000E+00 0.  1.
        -11    1    4    4    0    0 -0.45538684543E-02  0.60365425853E-01 -0.66670559930E-01  0.90055244371E-01  0.51100000000E-03 0. -1.
         11    1    4    4    0    0  0.78077363335E-03  0.14541654663E-01 -0.35239310076E-01  0.38133180086E-01  0.51100000000E-03 0.  1.
</event>
<event>
 8    1  0.1204770E+005  0.1043930E+01  0.7957747E-01            NaN
         13   -1    0    0    0    0  0.00000000000E+00  0.00000000000E+00  0.74505805969E-08  0.10566000000E+00  0.10566000000E+00 0.  1.
     999900   -1    0    0    0    0 -0.00000000000E+00 -0.00000000000E+00 -0.74505805969E-08  0.93827000000E+00  0.93827000000E+00 0. -1.
     999902    2    1    2    0    0  0.13602215073E-01 -0.15827327376E-01  0.91065086132E-02  0.10211604360E+01  0.10209065496E+01 0.  0.
     999903    2    3    3    0    0 -0.11853195552E+00 -0.37175742058E-01 -0.31810435015E-01  0.13009961307E+00  0.21957806529E-01 0.  0.
         14    1    1    2    0    0 -0.13602215073E-01  0.15827327376E-01 -0.91065086132E-02  0.22769564025E-01  0.00000000000E+00 0.  1.
     999901    1    3    3    0    0  0.13213417059E+00  0.21348414681E-01  0.40916943628E-01  0.89106082291E+00  0.88000000000E+00 0.  1.
        -11    1    4    4    0    0 -0.28114908847E-01 -0.18915822495E-01 -0.75996370280E-02  0.34731427326E-01  0.51100000000E-03 0. -1.
         11    1    4    4    0    0 -0.90417046672E-01 -0.18259919563E-01 -0.24210797987E-01  0.95368185741E-01  0.51100000000E-03 0.  1.
</event>
<event>
 8    1  0.1204770E+005  0.1043930E+01  0.7957747E-01            NaN
         13   -1    0    0    0    0  0.00000000000E+00  0.00000000000E+00  0.74505805969E-08  0.10566000000E+00  0.10566000000E+00 0.  1.
     999900   -1    0    0    0    0 -0.00000000000E+00 -0.00000000000E+00 -0.74505805969E-08  0.93827000000E+00  0.93827000000E+00 0. -1.
     999902    2    1    2    0    0 -0.23844020260E-01 -0.49071822798E-03 -0.15661415910E-02  0.10200295626E+01  0.10197495172E+01 0.  0.
     999903    2    3    3    0    0 -0.72363943220E-01  0.29454351647E-01 -0.10465804743E+00  0.13217888196E+00  0.20343324116E-01 0.  0.
         14    1    1    2    0    0  0.23844020260E-01  0.49071822798E-03  0.15661415910E-02  0.23900437360E-01  0.00000000000E+00 0. -1.
     999901    1    3    3    0    0  0.48519922960E-01 -0.29945069875E-01  0.10309190583E+00  0.88785068068E+00  0.88000000000E+00 0.  1.
        -11    1    4    4    0    0 -0.23029143664E-01  0.17651821190E-01 -0.48336614953E-01  0.56379231241E-01  0.51100000000E-03 0. -1.
         11    1    4    4    0    0 -0.49334799556E-01  0.11802530457E-01 -0.56321432473E-01  0.75799650720E-01  0.51100000000E-03 0.  1.
</event>
<event>
 8    1  0.1204770E+005  0.1043930E+01  0.7957747E-01            NaN
         13   -1    0    0    0    0  0.00000000000E+00  0.00000000000E+00  0.74505805969E-08  0.10566000000E+00  0.10566000000E+00 0. -1.
     999900   -1    0    0    0    0 -0.00000000000E+00 -0.00000000000E+00 -0.74505805969E-08  0.93827000000E+00  0.93827000000E+00 0. -1.
     999902    2    1    2    0    0  0.91997299035E-02 -0.10033588758E-01 -0.18273461455E-01  0.10211434398E+01  0.10208891699E+01 0.  0.
     999903    2    3    3    0    0  0.46066770584E-01  0.64101949378E-01 -0.10514849495E+00  0.13299788405E+00  0.20025581246E-01 0.  0.
         14    1    1    2    0    0 -0.91997299035E-02  0.10033588758E-01  0.18273461455E-01  0.22786560232E-01  0.00000000000E+00 0. -1.
     999901    1    3    3    0    0 -0.36867040680E-01 -0.74135538136E-01  0.86875033496E-01  0.88814555572E+00  0.88000000000E+00 0.  1.
        -11    1    4    4    0    0  0.27960423284E-01  0.41245103281E-01 -0.81152343827E-01  0.95230813525E-01  0.51100000000E-03 0.  1.
         11    1    4    4    0    0  0.18106347299E-01  0.22856846097E-01 -0.23996151123E-01  0.37767070521E-01  0.51100000000E-03 0. -1.
</event>
<event>
 8    1  0.1204770E+005  0.1043930E+01  0.7957747E-01            NaN
         13   -1    0    0    0    0  0.00000000000E+00  0.00000000000E+00  0.74505805969E-08  0.10566000000E+00  0.10566000000E+00 0.  1.
     999900   -1    0    0    0    0 -0.00000000000E+00 -0.00000000000E+00 -0.74505805969E-08  0.93827000000E+00  0.93827000000E+00 0.  1.
     999902    2    1    2    0    0 -0.18002788653E-01 -0.14540374675E-01 -0.28990711778E-02  0.10206077465E+01  0.10203412393E+01 0.  0.
     999903    2    3    3    0    0 -0.12019165036E-01  0.12669965967E+00 -0.80010738151E-02  0.12931061226E+00  0.21446518899E-01 0.  0.
         14    1    1    2    0    0  0.18002788653E-01  0.14540374675E-01  0.28990711778E-02  0.23322253507E-01  0.00000000000E+00 0. -1.
     999901    1    3    3    0    0 -0.59836236166E-02 -0.14124003435E+00  0.51020026373E-02  0.89129713423E+00  0.88000000000E+00 0.  1.
        -11    1    4    4    0    0 -0.15776777949E-01  0.62416789917E-01 -0.83047304991E-02  0.64915268278E-01  0.51100000000E-03 0.  1.
         11    1    4    4    0    0  0.37576129120E-02  0.64282869754E-01  0.30365668400E-03  0.64395343985E-01  0.51100000000E-03 0. -1.
</event>
<event>
 8    1  0.1204770E+005  0.1043930E+01  0.7957747E-01            NaN
         13   -1    0    0    0    0  0.00000000000E+00  0.00000000000E+00  0.74505805969E-08  0.10566000000E+00  0.10566000000E+00 0.  1.
     999900   -1    0    0    0    0 -0.00000000000E+00 -0.00000000000E+00 -0.74505805969E-08  0.93827000000E+00  0.93827000000E+00 0. -1.
     999902    2    1    2    0    0  0.19062718472E-01  0.24695921890E-02  0.13051346208E-01  0.10206958923E+01  0.10204314190E+01 0.  0.
     999903    2    3    3    0    0 -0.54295938925E-02 -0.11138289233E+00  0.66624813557E-01  0.13140832467E+00  0.19840685909E-01 0.  0.
         14    1    1    2    0    0 -0.19062718472E-01 -0.24695921890E-02 -0.13051346208E-01  0.23234107665E-01  0.00000000000E+00 0. -1.
     999901    1    3    3    0    0  0.24492312365E-01  0.11385248452E+00 -0.53573467348E-01  0.88928756766E+00  0.88000000000E+00 0. -1.
        -11    1    4    4    0    0  0.56203838336E-03 -0.79911145435E-01  0.56261647937E-01  0.97733009784E-01  0.51100000000E-03 0.  1.
         11    1    4    4    0    0 -0.59916322759E-02 -0.31471746898E-01  0.10363165620E-01  0.33675314888E-01  0.51100000000E-03 0. -1.
</event>
<event>
 8    1  0.1204770E+005  0.1043930E+01  0.7957747E-01            NaN
         13   -1    0    0    0    0  0.00000000000E+00  0.00000000000E+00  0.74505805969E-08  0.10566000000E+00  0.10566000000E+00 0. -1.
     999900   -1    0    0    0    0 -0.00000000000E+00 -0.00000000000E+00 -0.74505805969E-08  0.93827000000E+00  0.93827000000E+00 0. -1.
     999902    2    1    2    0    0  0.24396385245E-01 -0.75771699265E-02 -0.52367179867E-02  0.10178528005E+01  0.10175186992E+01 0.  0.
     999903    2    3    3    0    0 -0.85272122916E-01  0.86830527390E-01 -0.25011139905E-01  0.12581523251E+00  0.19825240933E-01 0.  0.
         14    1    1    2    0    0 -0.24396385245E-01  0.75771699265E-02  0.52367179867E-02  0.26077199474E-01  0.00000000000E+00 0. -1.
     999901    1    3    3    0    0  0.10966850816E+00 -0.94407697317E-01  0.19774421918E-01  0.89203756802E+00  0.88000000000E+00 0. -1.
        -11    1    4    4    0    0 -0.49718883460E-01  0.63837100216E-01 -0.14812918321E-01  0.82260722139E-01  0.51100000000E-03 0.  1.
         11    1    4    4    0    0 -0.35553239455E-01  0.22993427174E-01 -0.10198221584E-01  0.43554510369E-01  0.51100000000E-03 0. -1.
</event>
<event>
 8    1  0.1204770E+005  0.1043930E+01  0.7957747E-01            NaN
         13   -1    0    0    0    0  0.00000000000E+00  0.00000000000E+00  0.74505805969E-08  0.10566000000E+00  0.10566000000E+00 0. -1.
     999900   -1    0    0    0    0 -0.00000000000E+00 -0.00000000000E+00 -0.74505805969E-08  0.93827000000E+00  0.93827000000E+00 0.  1.
     999902    2    1    2    0    0  0.98682234056E-02 -0.45913340206E-02  0.21243235229E-01  0.10200608311E+01  0.10197815266E+01 0.  0.
     999903    2    3    3    0    0  0.38028487000E-01  0.12287537510E+00 -0.11260067722E-02  0.13015007974E+00  0.19830575781E-01 0.  0.
         14    1    1    2    0    0 -0.98682234056E-02  0.45913340206E-02 -0.21243235229E-01  0.23869168906E-01  0.00000000000E+00 0.  1.
     999901    1    3    3    0    0 -0.28160263595E-01 -0.12746670912E+00  0.22369242001E-01  0.88991075135E+00  0.88000000000E+00 0.  1.
        -11    1    4    4    0    0  0.34662841604E-01  0.82372537603E-01 -0.34647673028E-02  0.89437202956E-01  0.51100000000E-03 0.  1.
         11    1    4    4    0    0  0.33656453968E-02  0.40502837500E-01  0.23387605306E-02  0.40712876788E-01  0.51100000000E-03 0. -1.
</event>
<event>
 8    1  0.1204770E+005  0.1043930E+01  0.7957747E-01            NaN
         13   -1    0    0    0    0  0.00000000000E+00  0.00000000000E+00  0.74505805969E-08  0.10566000000E+00  0.10566000000E+00 0.  1.
     999900   -1    0    0    0    0 -0.00000000000E+00 -0.00000000000E+00 -0.74505805969E-08  0.93827000000E+00  0.93827000000E+00 0. -1.
     999902    2    1    2    0    0 -0.21070744982E-01 -0.11738210309E-01  0.69634000427E-03  0.10198002100E+01  0.10195146991E+01 0.  0.
     999903    2    3    3    0    0 -0.12226129463E+00  0.45504146000E-01 -0.35039090105E-02  0.13214382560E+00  0.20766843753E-01 0.  0.
         14    1    1    2    0    0  0.21070744982E-01  0.11738210309E-01 -0.69634000427E-03  0.24129789986E-01  0.00000000000E+00 0. -1.
     999901    1    3    3    0    0  0.10119054965E+00 -0.57242356310E-01  0.42002490147E-02  0.88765638441E+00  0.88000000000E+00 0.  1.
        -11    1    4    4    0    0 -0.50396294928E-01  0.16974747982E-01  0.86257853201E-02  0.53875726491E-01  0.51100000000E-03 0.  1.
         11    1    4    4    0    0 -0.71864999700E-01  0.28529398018E-01 -0.12129694331E-01  0.78268099112E-01  0.51100000000E-03 0. -1.
</event>
<event>
 8    1  0.1204770E+005  0.1043930E+01  0.7957747E-01            NaN
         13   -1    0    0    0    0  0.00000000000E+00  0.00000000000E+00  0.74505805969E-08  0.10566000000E+00  0.10566000000E+00 0. -1.
     999900   -1    0    0    0    0 -0.00000000000E+00 -0.00000000000E+00 -0.74505805969E-08  0.93827000000E+00  0.93827000000E+00 0. -1.
     999902    2    1    2    0    0 -0.11408485707E-01  0.18258639978E-01 -0.10003537341E-01  0.10201896917E+01  0.10199134300E+01 0.  0.
     999903    2    3    3    0    0 -0.12293055070E+00  0.22109365806E-01 -0.40161205358E-01  0.13263040689E+00  0.19420557810E-01 0.  0.
         14    1    1    2    0    0  0.11408485707E-01 -0.18258639978E-01  0.10003537341E-01  0.23740308323E-01  0.00000000000E+00 0. -1.
     999901    1    3    3    0    0  0.11152206499E+00 -0.38507258289E-02  0.30157668017E-01  0.88755928479E+00  0.88000000000E+00 0.  1.
        -11    1    4    4    0    0 -0.10499591276E-01  0.12395741417E-02 -0.95382596493E-02  0.14248420233E-01  0.51100000000E-03 0.  1.
         11    1    4    4    0    0 -0.11243095942E+00  0.20869791665E-01 -0.30622945709E-01  0.11838198666E+00  0.51100000000E-03 0. -1.
</event>
<event>
 8    1  0.1204770E+005  0.1043930E+01  0.7957747E-01            NaN
         13   -1    0    0    0    0  0.00000000000E+00  0.00000000000E+00  0.74505805969E-08  0.10566000000E+00  0.10566000000E+00 0. -1.
     999900   -1    0    0    0    0 -0.00000000000E+00 -0.00000000000E+00 -0.74505805969E-08  0.93827000000E+00  0.93827000000E+00 0. -1.
     999902    2    1    2    0    0  0.40734089620E-03 -0.32782752840E-02  0.26873373024E-01  0.10168543432E+01  0.10164938091E+01 0.  0.
     999903    2    3    3    0    0 -0.80058339628E-01  0.96404336567E-01 -0.56808375477E-02  0.12698293365E+00  0.19729664712E-01 0.  0.
         14    1    1    2    0    0 -0.40734089620E-03  0.32782752840E-02 -0.26873373024E-01  0.27075656836E-01  0.00000000000E+00 0.  1.
     999901    1    3    3    0    0  0.80465680524E-01 -0.99682611851E-01  0.32554210571E-01  0.88987140952E+00  0.88000000000E+00 0.  1.
        -11    1    4    4    0    0 -0.20860190263E-01  0.39841966553E-01 -0.16334556347E-02  0.45005101210E-01  0.51100000000E-03 0. -1.
         11    1    4    4    0    0 -0.59198149365E-01  0.56562370015E-01 -0.40473819131E-02  0.81977832438E-01  0.51100000000E-03 0.  1.
</event>
<event>
 8    1  0.1204770E+005  0.1043930E+01  0.7957747E-01            NaN
         13   -1    0    0    0    0  0.00000000000E+00  0.00000000000E+00  0.74505805969E-08  0.10566000000E+00  0.10566000000E+00 0.  1.
     999900   -1    0    0    0    0 -0.00000000000E+00 -0.00000000000E+00 -0.74505805969E-08  0.93827000000E+00  0.93827000000E+00 0. -1.
     999902    2    1    2    0    0  0.15559371538E-01 -0.90320627187E-02  0.15707763733E-01  0.10200468251E+01  0.10197671888E+01 0.  0.
     999903    2    3    3    0    0 -0.39510269729E-01 -0.84284420839E-01  0.91567511309E-01  0.13187438463E+00  0.18474825675E-01 0.  0.
         14    1    1    2    0    0 -0.15559371538E-01  0.90320627187E-02 -0.15707763733E-01  0.23883174854E-01  0.00000000000E+00 0. -1.
     999901    1    3    3    0    0  0.55069641267E-01  0.75252358120E-01 -0.75859747576E-01  0.88817244052E+00  0.88000000000E+00 0. -1.
        -11    1    4    4    0    0 -0.36211810835E-01 -0.84034425456E-01  0.87515953729E-01  0.12661904748E+00  0.51100000000E-03 0.  1.
         11    1    4    4    0    0 -0.32984588940E-02 -0.24999538309E-03  0.40515575801E-02  0.52553371530E-02  0.51100000000E-03 0. -1.
</event>
<event>
 8    1  0.1204770E+005  0.1043930E+01  0.7957747E-01            NaN
         13   -1    0    0    0    0  0.00000000000E+00  0.00000000000E+00  0.74505805969E-08  0.10566000000E+00  0.10566000000E+00 0.  1.
     999900   -1    0    0    0    0 -0.00000000000E+00 -0.00000000000E+00 -0.74505805969E-08  0.93827000000E+00  0.93827000000E+00 0. -1.
     999902    2    1    2    0    0  0.19684784269E-02  0.18893757026E-01 -0.15300500287E-01  0.10195383155E+01  0.10192464975E+01 0.  0.
     999903    2    3    3    0    0 -0.52626310828E-01  0.52176318635E-01 -0.10779156617E+00  0.13238392244E+00  0.20361344922E-01 0.  0.
         14    1    1    2    0    0 -0.19684784269E-02 -0.18893757026E-01  0.15300500287E-01  0.24391684463E-01  0.00000000000E+00 0.  1.
     999901    1    3    3    0    0  0.54594789255E-01 -0.33282561608E-01  0.92491065879E-01  0.88715439310E+00  0.88000000000E+00 0.  1.
        -11    1    4    4    0    0 -0.51749813475E-01  0.43370701431E-01 -0.99489487091E-01  0.12023926189E+00  0.51100000000E-03 0.  1.
         11    1    4    4    0    0 -0.87649735265E-03  0.88056172036E-02 -0.83020790747E-02  0.12144660551E-01  0.51100000000E-03 0. -1.
</event>
<event>
 8    1  0.1204770E+005  0.1043930E+01  0.7957747E-01            NaN
         13   -1    0    0    0    0  0.00000000000E+00  0.00000000000E+00  0.74505805969E-08  0.10566000000E+00  0.10566000000E+00 0. -1.
     999900   -1    0    0    0    0 -0.00000000000E+00 -0.00000000000E+00 -0.74505805969E-08  0.93827000000E+00  0.93827000000E+00 0. -1.
     999902    2    1    2    0    0 -0.12777357576E-01 -0.14768483576E-01  0.13485343166E-01  0.10201976707E+01  0.10199215969E+01 0.  0.
     999903    2    3    3    0    0  0.85094433380E-01  0.79655703114E-01 -0.48875262603E-01  0.12757027943E+00  0.17300036639E-01 0.  0.
         14    1    1    2    0    0  0.12777357576E-01  0.14768483576E-01 -0.13485343166E-01  0.23732329301E-01  0.00000000000E+00 0. -1.
     999901    1    3    3    0    0 -0.97871790956E-01 -0.94424186690E-01  0.62360605769E-01  0.89262739127E+00  0.88000000000E+00 0. -1.
        -11    1    4    4    0    0  0.12588354074E-01  0.19096185394E-01 -0.50497918950E-02  0.23428454368E-01  0.51100000000E-03 0. -1.
         11    1    4    4    0    0  0.72506079307E-01  0.60559517720E-01 -0.43825470708E-01  0.10414182506E+00  0.51100000000E-03 0.  1.
</event>
<event>
 8    1  0.1204770E+005  0.1043930E+01  0.7957747E-01            NaN
         13   -1    0    0    0    0  0.00000000000E+00  0.00000000000E+00  0.74505805969E-08  0.10566000000E+00  0.10566000000E+00 0. -1.
     999900   -1    0    0    0    0 -0.00000000000E+00 -0.00000000000E+00 -0.74505805969E-08  0.93827000000E+00  0.93827000000E+00 0.  1.
     999902    2    1    2    0    0 -0.16335669353E-01 -0.34656039564E-02 -0.14276600525E-01  0.10219598879E+01  0.10217237037E+01 0.  0.
     999903    2    3    3    0    0  0.19867513296E-01  0.10794409794E+00 -0.70819775214E-01  0.13239824150E+00  0.21614981537E-01 0.  0.
         14    1    1    2    0    0  0.16335669353E-01  0.34656039564E-02  0.14276600525E-01  0.21970112120E-01  0.00000000000E+00 0. -1.
     999901    1    3    3    0    0 -0.36203182649E-01 -0.11140970189E+00  0.56543174689E-01  0.88956164638E+00  0.88000000000E+00 0. -1.
        -11    1    4    4    0    0  0.12829384515E-01  0.33069200435E-01 -0.31947102599E-01  0.47739329801E-01  0.51100000000E-03 0. -1.
         11    1    4    4    0    0  0.70381287808E-02  0.74874897501E-01 -0.38872672615E-01  0.84658911697E-01  0.51100000000E-03 0.  1.
</event>
<event>
 8    1  0.1204770E+005  0.1043930E+01  0.7957747E-01            NaN
         13   -1    0    0    0    0  0.00000000000E+00  0.00000000000E+00  0.74505805969E-08  0.10566000000E+00  0.10566000000E+00 0.  1.
     999900   -1    0    0    0    0 -0.00000000000E+00 -0.00000000000E+00 -0.74505805969E-08  0.93827000000E+00  0.93827000000E+00 0. -1.
     999902    2    1    2    0    0  0.16519512058E-01 -0.15404655285E-01 -0.63206561619E-02  0.10204747580E+01  0.10202051673E+01 0.  0.
     999903    2    3    3    0    0  0.63477977771E-01 -0.10015214714E+00 -0.58435338705E-01  0.13362461563E+00  0.19517757423E-01 0.  0.
         14    1    1    2    0    0 -0.16519512058E-01  0.15404655285E-01  0.63206561619E-02  0.23455242003E-01  0.00000000000E+00 0.  1.
     999901    1    3    3    0    0 -0.46958465712E-01  0.84747491853E-01  0.52114682543E-01  0.88685014237E+00  0.88000000000E+00 0.  1.
        -11    1    4    4    0    0  0.28095183537E-01 -0.61810654202E-01 -0.30382886976E-01  0.74386001727E-01  0.51100000000E-03 0. -1.
         11    1    4    4    0    0  0.35382794234E-01 -0.38341492936E-01 -0.28052451729E-01  0.59238613905E-01  0.51100000000E-03 0.  1.
</event>
<event>
 8    1  0.1204770E+005  0.1043930E+01  0.7957747E-01            NaN
         13   -1    0    0    0    0  0.00000000000E+00  0.00000000000E+00  0.74505805969E-08  0.10566000000E+00  0.10566000000E+00 0. -1.
     999900   -1    0    0    0    0 -0.00000000000E+00 -0.00000000000E+00 -0.74505805969E-08  0.93827000000E+00  0.93827000000E+00 0. -1.
     999902    2    1    2    0    0  0.10588136834E-01  0.52747628982E-02  0.35126991808E-01  0.10068646885E+01  0.10061822219E+01 0.  0.
     999903    2    3    3    0    0  0.65750447696E-04 -0.11632888111E+00  0.68195157077E-03  0.11777266419E+00  0.18371784553E-01 0.  0.
         14    1    1    2    0    0 -0.10588136834E-01 -0.52747628982E-02 -0.35126991808E-01  0.37065311529E-01  0.00000000000E+00 0.  1.
     999901    1    3    3    0    0  0.10522386387E-01  0.12160364401E+00  0.34445040237E-01  0.88909202429E+00  0.88000000000E+00 0.  1.
        -11    1    4    4    0    0 -0.22930147798E-02 -0.58545089826E-01 -0.85286001561E-02  0.59209658005E-01  0.51100000000E-03 0. -1.
         11    1    4    4    0    0  0.23587652275E-02 -0.57783791285E-01  0.92105517268E-02  0.58563006180E-01  0.51100000000E-03 0.  1.
</event>
<event>
 8    1  0.1204770E+005  0.1043930E+01  0.7957747E-01            NaN
         13   -1    0    0    0    0  0.00000000000E+00  0.00000000000E+00  0.74505805969E-08  0.10566000000E+00  0.10566000000E+00 0.  1.
     999900   -1    0    0    0    0 -0.00000000000E+00 -0.00000000000E+00 -0.74505805969E-08  0.93827000000E+00  0.93827000000E+00 0.  1.
     999902    2    1    2    0    0  0.27622439041E-02 -0.11400589522E-01 -0.12901043328E-01  0.10264932471E+01  0.10263451398E+01 0.  0.
     999903    2    3    3    0    0  0.32098246288E-01  0.14773596143E-01  0.12813697882E+00  0.13439604795E+00  0.19865945863E-01 0.  0.
         14    1    1    2    0    0 -0.27622439041E-02  0.11400589522E-01  0.12901043328E-01  0.17436752903E-01  0.00000000000E+00 0.  1.
     999901    1    3    3    0    0 -0.29336002384E-01 -0.26174185665E-01 -0.14103802215E+00  0.89209719915E+00  0.88000000000E+00 0.  1.
        -11    1    4    4    0    0  0.52767741065E-03 -0.32236269254E-02  0.21093995386E-01  0.21351533349E-01  0.51100000000E-03 0.  1.
         11    1    4    4    0    0  0.31570568877E-01  0.17997223068E-01  0.10704298344E+00  0.11304451460E+00  0.51100000000E-03 0. -1.
</event>
<event>
 8    1  0.1204770E+005  0.1043930E+01  0.7957747E-01            NaN
         13   -1    0    0    0    0  0.00000000000E+00  0.00000000000E+00  0.74505805969E-08  0.10566000000E+00  0.10566000000E+00 0.  1.
     999900   -1    0    0    0    0 -0.00000000000E+00 -0.00000000000E+00 -0.74505805969E-08  0.93827000000E+00  0.93827000000E+00 0.  1.
     999902    2    1    2    0    0  0.18336382801E-02  0.12745777651E-01 -0.19117557296E-01  0.10208800960E+01  0.10206198471E+01 0.  0.
     999903    2    3    3    0    0 -0.63070418881E-01  0.28824058729E-01  0.10718950989E+00  0.12935077906E+00  0.20816553820E-01 0.  0.
         14    1    1    2    0    0 -0.18336382801E-02 -0.12745777651E-01  0.19117557296E-01  0.23049903996E-01  0.00000000000E+00 0.  1.
     999901    1    3    3    0    0  0.64904057161E-01 -0.16078281077E-01 -0.12630706718E+00  0.89152931695E+00  0.88000000000E+00 0.  1.
        -11    1    4    4    0    0 -0.19577953248E-01  0.16556093543E-01  0.52313357382E-01  0.58261041600E-01  0.51100000000E-03 0. -1.
         11    1    4    4    0    0 -0.43492465633E-01  0.12267965186E-01  0.54876152505E-01  0.71089737455E-01  0.51100000000E-03 0.  1.
</event>
<event>
 8    1  0.1204770E+005  0.1043930E+01  0.7957747E-01            NaN
         13   -1    0    0    0    0  0.00000000000E+00  0.00000000000E+00  0.74505805969E-08  0.10566000000E+00  0.10566000000E+00 0. -1.
     999900   -1    0    0    0    0 -0.00000000000E+00 -0.00000000000E+00 -0.74505805969E-08  0.93827000000E+00  0.93827000000E+00 0.  1.
     999902    2    1    2    0    0  0.10945374324E-01  0.20472692040E-01 -0.11974267151E-02  0.10206842226E+01  0.10204194804E+01 0.  0.
     999903    2    3    3    0    0 -0.49461420764E-01  0.11536622413E+00 -0.38450184297E-01  0.13274192078E+00  0.19652049417E-01 0.  0.
         14    1    1    2    0    0 -0.10945374324E-01 -0.20472692040E-01  0.11974267151E-02  0.23245777449E-01  0.00000000000E+00 0. -1.
     999901    1    3    3    0    0  0.60406795088E-01 -0.94893532090E-01  0.37252757582E-01  0.88794230177E+00  0.88000000000E+00 0. -1.
        -11    1    4    4    0    0 -0.44505390511E-01  0.10674875216E+00 -0.29507414089E-01  0.11936069068E+00  0.51100000000E-03 0.  1.
         11    1    4    4    0    0 -0.49560302530E-02  0.86174719659E-02 -0.89427702082E-02  0.13381230098E-01  0.51100000000E-03 0. -1.
</event>
<event>
 8    1  0.1204770E+005  0.1043930E+01  0.7957747E-01            NaN
         13   -1    0    0    0    0  0.00000000000E+00  0.00000000000E+00  0.74505805969E-08  0.10566000000E+00  0.10566000000E+00 0.  1.
     999900   -1    0    0    0    0 -0.00000000000E+00 -0.00000000000E+00 -0.74505805969E-08  0.93827000000E+00  0.93827000000E+00 0.  1.
     999902    2    1    2    0    0 -0.35626590163E-02 -0.27713573371E-01 -0.20006160748E-02  0.10159168396E+01  0.10155305450E+01 0.  0.
     999903    2    3    3    0    0 -0.92163367780E-01 -0.73237662693E-01  0.48064808496E-01  0.12888297612E+00  0.21041723337E-01 0.  0.
         14    1    1    2    0    0  0.35626590163E-02  0.27713573371E-01  0.20006160748E-02  0.28013160353E-01  0.00000000000E+00 0.  1.
     999901    1    3    3    0    0  0.88600708764E-01  0.45524089322E-01 -0.50065424571E-01  0.88703386352E+00  0.88000000000E+00 0.  1.
        -11    1    4    4    0    0 -0.27159075809E-01 -0.15097039235E-01  0.21222931711E-01  0.37632564939E-01  0.51100000000E-03 0. -1.
         11    1    4    4    0    0 -0.65004291972E-01 -0.58140623458E-01  0.26841876785E-01  0.91250411184E-01  0.51100000000E-03 0.  1.
</event>
<event>
 8    1  0.1204770E+005  0.1043930E+01  0.7957747E-01            NaN
         13   -1    0    0    0    0  0.00000000000E+00  0.00000000000E+00  0.74505805969E-08  0.10566000000E+00  0.10566000000E+00 0.  1.
     999900   -1    0    0    0    0 -0.00000000000E+00 -0.00000000000E+00 -0.74505805969E-08  0.93827000000E+00  0.93827000000E+00 0.  1.
     999902    2    1    2    0    0  0.16647799693E-02 -0.55104687218E-02 -0.22192258203E-01  0.10210033107E+01  0.10207458682E+01 0.  0.
     999903    2    3    3    0    0 -0.94494206818E-01 -0.85449635708E-01 -0.28535702378E-01  0.13214052015E+00  0.20396945586E-01 0.  0.
         14    1    1    2    0    0 -0.16647799693E-02  0.55104687218E-02  0.22192258203E-01  0.22926689295E-01  0.00000000000E+00 0.  1.
     999901    1    3    3    0    0  0.96158986787E-01  0.79939166986E-01  0.63434441755E-02  0.88886279056E+00  0.88000000000E+00 0.  1.
        -11    1    4    4    0    0 -0.33605093544E-01 -0.36047144901E-01 -0.20286514848E-01  0.53296367356E-01  0.51100000000E-03 0.  1.
         11    1    4    4    0    0 -0.60889113274E-01 -0.49402490807E-01 -0.82491875305E-02  0.78844152790E-01  0.51100000000E-03 0. -1.
</event>
<event>
 7    1  0.1204770E+005  0.1043930E+01  0.7957747E-01            NaN
         13   -1    0    0    0    0  0.00000000000E+00  0.00000000000E+00  0.74505805969E-08  0.10566000000E+00  0.10566000000E+00 0. -1.
     999900   -1    0    0    0    0 -0.00000000000E+00 -0.00000000000E+00 -0.74505805969E-08  0.93827000000E+00  0.93827000000E+00 0. -1.
     999903    2    1    2    0    0 -0.76949844739E-01 -0.74061870034E-01  0.39801378685E-01  0.11580187843E+00  0.20481359935E-01 0.  0.
         14    1    1    2    0    0  0.33995353444E-01 -0.22656080941E-01 -0.42702635573E-02  0.41075749661E-01  0.00000000000E+00 0.  1.
     999901    1    1    2    0    0  0.42954491295E-01  0.96717950975E-01 -0.35531115128E-01  0.88705237191E+00  0.88000000000E+00 0. -1.
        -11    1    3    3    0    0 -0.71896430494E-01 -0.61708940522E-01  0.38873256414E-01  0.10241328646E+00  0.51100000000E-03 0. -1.
         11    1    3    3    0    0 -0.50534142447E-02 -0.12352929512E-01  0.92812227140E-03  0.13388591972E-01  0.51100000000E-03 0.  1.
</event>
<event>
 8    1  0.1204770E+005  0.1043930E+01  0.7957747E-01            NaN
         13   -1    0    0    0    0  0.00000000000E+00  0.00000000000E+00  0.74505805969E-08  0.10566000000E+00  0.10566000000E+00 0. -1.
     999900   -1    0    0    0    0 -0.00000000000E+00 -0.00000000000E+00 -0.74505805969E-08  0.93827000000E+00  0.93827000000E+00 0.  1.
     999902    2    1    2    0    0  0.23244597471E-01 -0.48417613896E-02  0.11334589346E-02  0.10201594574E+01  0.10198824834E+01 0.  0.
     999903    2    3    3    0    0 -0.42565249071E-01 -0.38589465954E-01  0.11463928709E+00  0.12979244519E+00  0.20073997393E-01 0.  0.
         14    1    1    2    0    0 -0.23244597471E-01  0.48417613896E-02 -0.11334589346E-02  0.23770542571E-01  0.00000000000E+00 0.  1.
     999901    1    3    3    0    0  0.65809846542E-01  0.33747704564E-01 -0.11350582816E+00  0.89036701224E+00  0.88000000000E+00 0.  1.
        -11    1    4    4    0    0 -0.30885951413E-01 -0.35703610413E-01  0.77480759566E-01  0.90731576726E-01  0.51100000000E-03 0.  1.
         11    1    4    4    0    0 -0.11679297658E-01 -0.28858555409E-02  0.37158527525E-01  0.39060868460E-01  0.51100000000E-03 0. -1.
</event>
<event>
 8    1  0.1204770E+005  0.1043930E+01  0.7957747E-01            NaN
         13   -1    0    0    0    0  0.00000000000E+00  0.00000000000E+00  0.74505805969E-08  0.10566000000E+00  0.10566000000E+00 0. -1.
     999900   -1    0    0    0    0 -0.00000000000E+00 -0.00000000000E+00 -0.74505805969E-08  0.93827000000E+00  0.93827000000E+00 0. -1.
     999902    2    1    2    0    0  0.16841023674E-01 -0.16115000875E-01  0.17280536609E-02  0.10205569493E+01  0.10202892664E+01 0.  0.
     999903    2    3    3    0    0  0.12764654409E+00 -0.18344074434E-01  0.27705070791E-01  0.13322519757E+00  0.18741318951E-01 0.  0.
         14    1    1    2    0    0 -0.16841023674E-01  0.16115000875E-01 -0.17280536609E-02  0.23373050743E-01  0.00000000000E+00 0. -1.
     999901    1    3    3    0    0 -0.11080552042E+00  0.22290735588E-02 -0.25977017130E-01  0.88733175168E+00  0.88000000000E+00 0.  1.
        -11    1    4    4    0    0  0.55650817069E-01  0.13240995922E-02  0.11103796448E-01  0.56765500938E-01  0.51100000000E-03 0. -1.
         11    1    4    4    0    0  0.71995727022E-01 -0.19668174026E-01  0.16601274343E-01  0.76459696637E-01  0.51100000000E-03 0.  1.
</event>
<event>
 8    1  0.1204770E+005  0.1043930E+01  0.7957747E-01            NaN
         13   -1    0    0    0    0  0.00000000000E+00  0.00000000000E+00  0.74505805969E-08  0.10566000000E+00  0.10566000000E+00 0. -1.
     999900   -1    0    0    0    0 -0.00000000000E+00 -0.00000000000E+00 -0.74505805969E-08  0.93827000000E+00  0.93827000000E+00 0.  1.
     999902    2    1    2    0    0 -0.60217336533E-02 -0.14072283530E-01  0.15654224448E-01  0.10220360469E+01  0.10218015149E+01 0.  0.
     999903    2    3    3    0    0 -0.87456277638E-01  0.95685839769E-01 -0.26821667526E-02  0.13129778352E+00  0.20676883416E-01 0.  0.
         14    1    1    2    0    0  0.60217336533E-02  0.14072283530E-01 -0.15654224448E-01  0.21893953115E-01  0.00000000000E+00 0.  1.
     999901    1    3    3    0    0  0.81434543984E-01 -0.10975812330E+00  0.18336391200E-01  0.89073826337E+00  0.88000000000E+00 0. -1.
        -11    1    4    4    0    0 -0.41433740294E-01  0.53374735777E-01 -0.10170478924E-01  0.68332400928E-01  0.51100000000E-03 0. -1.
         11    1    4    4    0    0 -0.46022537343E-01  0.42311103992E-01  0.74883121719E-02  0.62965382590E-01  0.51100000000E-03 0.  1.
</event>
<event>
 8    1  0.1204770E+005  0.1043930E+01  0.7957747E-01            NaN
         13   -1    0    0    0    0  0.00000000000E+00  0.00000000000E+00  0.74505805969E-08  0.10566000000E+00  0.10566000000E+00 0.  1.
     999900   -1    0    0    0    0 -0.00000000000E+00 -0.00000000000E+00 -0.74505805969E-08  0.93827000000E+00  0.93827000000E+00 0. -1.
     999902    2    1    2    0    0  0.10566055710E-01  0.12305063130E-01 -0.16550035268E-01  0.10207576074E+01  0.10204945533E+01 0.  0.
     999903    2    3    3    0    0 -0.11407396488E+00  0.53362393693E-01  0.12074913807E-01  0.13056648924E+00  0.32270575533E-01 0.  0.
         14    1    1    2    0    0 -0.10566055710E-01 -0.12305063130E-01  0.16550035268E-01  0.23172392610E-01  0.00000000000E+00 0.  1.
     999901    1    3    3    0    0  0.12464002059E+00 -0.41057330563E-01 -0.28624949075E-01  0.89019111815E+00  0.88000000000E+00 0. -1.
        -11    1    4    4    0    0 -0.55194675369E-01  0.42831905862E-01  0.11102444652E-01  0.70742842374E-01  0.51100000000E-03 0. -1.
         11    1    4    4    0    0 -0.58879289509E-01  0.10530487831E-01  0.97246915507E-03  0.59823646865E-01  0.51100000000E-03 0.  1.
</event>
<event>
 8    1  0.1204770E+005  0.1043930E+01  0.7957747E-01            NaN
         13   -1    0    0    0    0  0.00000000000E+00  0.00000000000E+00  0.74505805969E-08  0.10566000000E+00  0.10566000000E+00 0.  1.
     999900   -1    0    0    0    0 -0.00000000000E+00 -0.00000000000E+00 -0.74505805969E-08  0.93827000000E+00  0.93827000000E+00 0. -1.
     999902    2    1    2    0    0 -0.57785596770E-02 -0.16757260119E-01  0.14112210949E-01  0.10212727271E+01  0.10210213666E+01 0.  0.
     999903    2    3    3    0    0 -0.82791618236E-01  0.12048105870E-01 -0.97915748787E-01  0.13036811711E+00  0.20217398248E-01 0.  0.
         14    1    1    2    0    0  0.57785596770E-02  0.16757260119E-01 -0.14112210949E-01  0.22657272927E-01  0.00000000000E+00 0. -1.
     999901    1    3    3    0    0  0.77013058559E-01 -0.28805365988E-01  0.11202795974E+00  0.89090460997E+00  0.88000000000E+00 0.  1.
        -11    1    4    4    0    0 -0.36388177503E-01  0.15461439530E-01 -0.44879965850E-01  0.59813276369E-01  0.51100000000E-03 0. -1.
         11    1    4    4    0    0 -0.46403440734E-01 -0.34133336609E-02 -0.53035782937E-01  0.70554840736E-01  0.51100000000E-03 0.  1.
</event>
<event>
 8    1  0.1204770E+005  0.1043930E+01  0.7957747E-01            NaN
         13   -1    0    0    0    0  0.00000000000E+00  0.00000000000E+00  0.74505805969E-08  0.10566000000E+00  0.10566000000E+00 0.  1.
     999900   -1    0    0    0    0 -0.00000000000E+00 -0.00000000000E+00 -0.74505805969E-08  0.93827000000E+00  0.93827000000E+00 0.  1.
     999902    2    1    2    0    0 -0.16240239583E-01 -0.64241448429E-02 -0.15193913711E-01  0.10207811332E+01  0.10205186191E+01 0.  0.
     999903    2    3    3    0    0  0.36996023710E-02  0.13962233408E-01 -0.13049575020E+00  0.13280156409E+00  0.19962053655E-01 0.  0.
         14    1    1    2    0    0  0.16240239583E-01  0.64241448429E-02  0.15193913711E-01  0.23148866765E-01  0.00000000000E+00 0.  1.
     999901    1    3    3    0    0 -0.19939841954E-01 -0.20386378251E-01  0.11530183649E+00  0.88797956914E+00  0.88000000000E+00 0. -1.
        -11    1    4    4    0    0 -0.77250828343E-02  0.94723318281E-02 -0.71658039148E-01  0.72694825611E-01  0.51100000000E-03 0.  1.
         11    1    4    4    0    0  0.11424685205E-01  0.44899015798E-02 -0.58837711051E-01  0.60106738482E-01  0.51100000000E-03 0. -1.
</event>
<event>
 8    1  0.1226229E+005  0.1043930E+01  0.7957747E-01            NaN
         13   -1    0    0    0    0  0.00000000000E+00  0.00000000000E+00  0.74505805969E-08  0.10566000000E+00  0.10566000000E+00 0. -1.
     999900   -1    0    0    0    0 -0.00000000000E+00 -0.00000000000E+00 -0.74505805969E-08  0.93827000000E+00  0.93827000000E+00 0.  1.
     999902    2    1    2    0    0  0.82897584015E-02 -0.18400336101E-01 -0.12986866003E-01  0.10199310177E+01  0.10196486305E+01 0.  0.
     999903    2    3    3    0    0  0.45437416213E-01 -0.42555581699E-01 -0.11515443727E+00  0.13291262049E+00  0.23014863380E-01 0.  0.
         14    1    1    2    0    0 -0.82897584015E-02  0.18400336101E-01  0.12986866003E-01  0.23998982303E-01  0.00000000000E+00 0. -1.
     999901    1    3    3    0    0 -0.37147657811E-01  0.24155245598E-01  0.10216757127E+00  0.88701839721E+00  0.88000000000E+00 0. -1.
        -11    1    4    4    0    0  0.31163939283E-02 -0.15623550702E-01 -0.33096579730E-01  0.36734887484E-01  0.51100000000E-03 0.  1.
         11    1    4    4    0    0  0.42321022284E-01 -0.26932030997E-01 -0.82057857539E-01  0.96177733004E-01  0.51100000000E-03 0. -1.
</event>
<event>
 8    1  0.1204770E+005  0.1043930E+01  0.7957747E-01            NaN
         13   -1    0    0    0    0  0.00000000000E+00  0.00000000000E+00  0.74505805969E-08  0.10566000000E+00  0.10566000000E+00 0.  1.
     999900   -1    0    0    0    0 -0.00000000000E+00 -0.00000000000E+00 -0.74505805969E-08  0.93827000000E+00  0.93827000000E+00 0.  1.
     999902    2    1    2    0    0 -0.71376557201E-02 -0.16957852540E-01 -0.15467756967E-01  0.10198932282E+01  0.10196099404E+01 0.  0.
     999903    2    3    3    0    0  0.28505695992E-01  0.70376487430E-01  0.10014872563E+00  0.12733235830E+00  0.20453301410E-01 0.  0.
         14    1    1    2    0    0  0.71376557201E-02  0.16957852540E-01  0.15467756967E-01  0.24036771779E-01  0.00000000000E+00 0.  1.
     999901    1    3    3    0    0 -0.35643351712E-01 -0.87334339970E-01 -0.11561648260E+00  0.89256086992E+00  0.88000000000E+00 0. -1.
        -11    1    4    4    0    0  0.22447591131E-01  0.43613328671E-01  0.49282782851E-01  0.69534671869E-01  0.51100000000E-03 0. -1.
         11    1    4    4    0    0  0.60581048607E-02  0.26763158759E-01  0.50865942781E-01  0.57797686435E-01  0.51100000000E-03 0.  1.
</event>
<event>
 8    1  0.1204770E+005  0.1043930E+01  0.7957747E-01            NaN
         13   -1    0    0    0    0  0.00000000000E+00  0.00000000000E+00  0.74505805969E-08  0.10566000000E+00  0.10566000000E+00 0. -1.
     999900   -1    0    0    0    0 -0.00000000000E+00 -0.00000000000E+00 -0.74505805969E-08  0.93827000000E+00  0.93827000000E+00 0.  1.
     999902    2    1    2    0    0 -0.11118855836E-02  0.23027166982E-01  0.38099615656E-02  0.10205633033E+01  0.10202957676E+01 0.  0.
     999903    2    3    3    0    0  0.20285314730E-01  0.12997487982E+00  0.14124167414E-01  0.13377018405E+00  0.19748586191E-01 0.  0.
         14    1    1    2    0    0  0.11118855836E-02 -0.23027166982E-01 -0.38099615656E-02  0.23366696726E-01  0.00000000000E+00 0. -1.
     999901    1    3    3    0    0 -0.21397200314E-01 -0.10694771284E+00 -0.10314205848E-01  0.88679311923E+00  0.88000000000E+00 0. -1.
        -11    1    4    4    0    0  0.44432011316E-02  0.51819165066E-01 -0.33922317507E-02  0.52122320187E-01  0.51100000000E-03 0.  1.
         11    1    4    4    0    0  0.15842113598E-01  0.78155714757E-01  0.17516399165E-01  0.81647863861E-01  0.51100000000E-03 0. -1.
</event>
<event>
 8    1  0.1204770E+005  0.1043930E+01  0.7957747E-01            NaN
         13   -1    0    0    0    0  0.00000000000E+00  0.00000000000E+00  0.74505805969E-08  0.10566000000E+00  0.10566000000E+00 0.  1.
     999900   -1    0    0    0    0 -0.00000000000E+00 -0.00000000000E+00 -0.74505805969E-08  0.93827000000E+00  0.93827000000E+00 0. -1.
     999902    2    1    2    0    0  0.46487897526E-02  0.47019209230E-02 -0.28016252713E-01  0.10151440708E+01  0.10147358546E+01 0.  0.
     999903    2    3    3    0    0 -0.33160754880E-01  0.11937704400E+00  0.15210864652E-01  0.12584742216E+00  0.15990277139E-01 0.  0.
         14    1    1    2    0    0 -0.46487897526E-02 -0.47019209230E-02  0.28016252713E-01  0.28785929247E-01  0.00000000000E+00 0.  1.
     999901    1    3    3    0    0  0.37809544633E-01 -0.11467512308E+00 -0.43227117365E-01  0.88929664859E+00  0.88000000000E+00 0.  1.
        -11    1    4    4    0    0 -0.11131493683E-01  0.28311247444E-01 -0.23737522084E-02  0.30517744084E-01  0.51100000000E-03 0. -1.
         11    1    4    4    0    0 -0.22029261197E-01  0.91065796557E-01  0.17584616861E-01  0.95329678079E-01  0.51100000000E-03 0.  1.
</event>
<event>
 8    1  0.1204770E+005  0.1043930E+01  0.7957747E-01            NaN
         13   -1    0    0    0    0  0.00000000000E+00  0.00000000000E+00  0.74505805969E-08  0.10566000000E+00  0.10566000000E+00 0.  1.
     999900   -1    0    0    0    0 -0.00000000000E+00 -0.00000000000E+00 -0.74505805969E-08  0.93827000000E+00  0.93827000000E+00 0. -1.
     999902    2    1    2    0    0  0.24274153542E-01 -0.64305837146E-03 -0.16635217599E-02  0.10195904158E+01  0.10192998581E+01 0.  0.
     999903    2    3    3    0    0  0.24238139664E-01 -0.14594598518E-01  0.12569849273E+00  0.13031220877E+00  0.19510790814E-01 0.  0.
         14    1    1    2    0    0 -0.24274153542E-01  0.64305837146E-03  0.16635217599E-02  0.24339584197E-01  0.00000000000E+00 0.  1.
     999901    1    3    3    0    0  0.36013877620E-04  0.13951540147E-01 -0.12736201449E+00  0.88927820703E+00  0.88000000000E+00 0. -1.
        -11    1    4    4    0    0  0.15736539152E-02 -0.10005278206E-01  0.24736478323E-01  0.26734555531E-01  0.51100000000E-03 0. -1.
         11    1    4    4    0    0  0.22664485749E-01 -0.45893203123E-02  0.10096201441E+00  0.10357765324E+00  0.51100000000E-03 0.  1.
</event>
<event>
 8    1  0.1204770E+005  0.1043930E+01  0.7957747E-01            NaN
         13   -1    0    0    0    0  0.00000000000E+00  0.00000000000E+00  0.74505805969E-08  0.10566000000E+00  0.10566000000E+00 0. -1.
     999900   -1    0    0    0    0 -0.00000000000E+00 -0.00000000000E+00 -0.74505805969E-08  0.93827000000E+00  0.93827000000E+00 0. -1.
     999902    2    1    2    0    0 -0.21692713452E-01  0.65697765910E-02 -0.58406216897E-02  0.10205238332E+01  0.10202553825E+01 0.  0.
     999903    2    3    3    0    0 -0.57371525531E-01  0.88444983311E-01  0.77136082231E-01  0.13211983700E+00  0.19790632468E-01 0.  0.
         14    1    1    2    0    0  0.21692713452E-01 -0.65697765910E-02  0.58406216897E-02  0.23406166775E-01  0.00000000000E+00 0.  1.
     999901    1    3    3    0    0  0.35678812079E-01 -0.81875206720E-01 -0.82976703921E-01  0.88840399622E+00  0.88000000000E+00 0. -1.
        -11    1    4    4    0    0 -0.55827688630E-01  0.80266992155E-01  0.65048887731E-01  0.11743568352E+00  0.51100000000E-03 0. -1.
         11    1    4    4    0    0 -0.15438369014E-02  0.81779911561E-02  0.12087194500E-01  0.14684153486E-01  0.51100000000E-03 0.  1.
</event>
<event>
 8    1  0.1204770E+005  0.1043930E+01  0.7957747E-01            NaN
         13   -1    0    0    0    0  0.00000000000E+00  0.00000000000E+00  0.74505805969E-08  0.10566000000E+00  0.10566000000E+00 0. -1.
     999900   -1    0    0    0    0 -0.00000000000E+00 -0.00000000000E+00 -0.74505805969E-08  0.93827000000E+00  0.93827000000E+00 0.  1.
     999902    2    1    2    0    0  0.14605267892E-01  0.17479343950E-01 -0.56079222319E-02  0.10204717369E+01  0.10202020759E+01 0.  0.
     999903    2    3    3    0    0 -0.11253676721E+00 -0.58111451811E-01 -0.35815710860E-03  0.12811159352E+00  0.19261030930E-01 0.  0.
         14    1    1    2    0    0 -0.14605267892E-01 -0.17479343950E-01  0.56079222319E-02  0.23458263083E-01  0.00000000000E+00 0. -1.
     999901    1    3    3    0    0  0.12714203510E+00  0.75590795761E-01 -0.52497651233E-02  0.89236014340E+00  0.88000000000E+00 0. -1.
        -11    1    4    4    0    0 -0.37045091153E-01 -0.22292896106E-01  0.85586657158E-02  0.44077475826E-01  0.51100000000E-03 0.  1.
         11    1    4    4    0    0 -0.75491676053E-01 -0.35818555705E-01 -0.89168228244E-02  0.84034117692E-01  0.51100000000E-03 0. -1.
</event>
<event>
 8    1  0.1204770E+005  0.1043930E+01  0.7957747E-01            NaN
         13   -1    0    0    0    0  0.00000000000E+00  0.00000000000E+00  0.74505805969E-08  0.10566000000E+00  0.10566000000E+00 0.  1.
     999900   -1    0    0    0    0 -0.00000000000E+00 -0.00000000000E+00 -0.74505805969E-08  0.93827000000E+00  0.93827000000E+00 0. -1.
     999902    2    1    2    0    0  0.44976191804E-02 -0.19824305063E-01 -0.93657585686E-02  0.10215481081E+01  0.10213028876E+01 0.  0.
     999903    2    3    3    0    0  0.12513801576E+00 -0.30682221776E-01 -0.26478030232E-01  0.13308604959E+00  0.20245710375E-01 0.  0.
         14    1    1    2    0    0 -0.44976191804E-02  0.19824305063E-01  0.93657585686E-02  0.22381891857E-01  0.00000000000E+00 0.  1.
     999901    1    3    3    0    0 -0.12064039658E+00  0.10857916713E-01  0.17112271663E-01  0.88846205855E+00  0.88000000000E+00 0.  1.
        -11    1    4    4    0    0  0.44885179924E-01 -0.57553459337E-02 -0.17694623749E-01  0.48591812214E-01  0.51100000000E-03 0.  1.
         11    1    4    4    0    0  0.80252835840E-01 -0.24926875843E-01 -0.87834064821E-02  0.84494237378E-01  0.51100000000E-03 0. -1.
</event>
<event>
 8    1  0.1204770E+005  0.1043930E+01  0.7957747E-01            NaN
         13   -1    0    0    0    0  0.00000000000E+00  0.00000000000E+00  0.74505805969E-08  0.10566000000E+00  0.10566000000E+00 0.  1.
     999900   -1    0    0    0    0 -0.00000000000E+00 -0.00000000000E+00 -0.74505805969E-08  0.93827000000E+00  0.93827000000E+00 0.  1.
     999902    2    1    2    0    0 -0.11839694598E-01  0.51219908864E-03 -0.18113130636E-01  0.10222845336E+01  0.10220553514E+01 0.  0.
     999903    2    3    3    0    0 -0.21186802392E-01  0.18406294284E-01  0.12573528350E+00  0.13037650393E+00  0.20024959302E-01 0.  0.
         14    1    1    2    0    0  0.11839694598E-01 -0.51219908864E-03  0.18113130636E-01  0.21645466443E-01  0.00000000000E+00 0.  1.
     999901    1    3    3    0    0  0.93471077944E-02 -0.17894095195E-01 -0.14384841414E+00  0.89190802963E+00  0.88000000000E+00 0.  1.
        -11    1    4    4    0    0  0.86762741882E-03 -0.29378226988E-02  0.21245818115E-01  0.21471597237E-01  0.51100000000E-03 0. -1.
         11    1    4    4    0    0 -0.22054429811E-01  0.21344116983E-01  0.10448946538E+00  0.10890490669E+00  0.51100000000E-03 0.  1.
</event>
<event>
 8    1  0.1204770E+005  0.1043930E+01  0.7957747E-01            NaN
         13   -1    0    0    0    0  0.00000000000E+00  0.00000000000E+00  0.74505805969E-08  0.10566000000E+00  0.10566000000E+00 0. -1.
     999900   -1    0    0    0    0 -0.00000000000E+00 -0.00000000000E+00 -0.74505805969E-08  0.93827000000E+00  0.93827000000E+00 0. -1.
     999902    2    1    2    0    0 -0.21768309758E-02  0.72283648268E-02 -0.22442537438E-01  0.10202518384E+01  0.10199770382E+01 0.  0.
     999903    2    3    3    0    0  0.28173961817E-01 -0.15602142704E-01 -0.12766689725E+00  0.13316978547E+00  0.19953849922E-01 0.  0.
         14    1    1    2    0    0  0.21768309758E-02 -0.72283648268E-02  0.22442537438E-01  0.23678161622E-01  0.00000000000E+00 0. -1.
     999901    1    3    3    0    0 -0.30350792792E-01  0.22830507531E-01  0.10522435981E+00  0.88708205291E+00  0.88000000000E+00 0.  1.
        -11    1    4    4    0    0  0.63337846344E-02  0.38893974179E-02 -0.14826656231E-01  0.16593224402E-01  0.51100000000E-03 0.  1.
         11    1    4    4    0    0  0.21840177182E-01 -0.19491540122E-01 -0.11284024102E+00  0.11657656107E+00  0.51100000000E-03 0. -1.
</event>
<event>
 8    1  0.1204770E+005  0.1043930E+01  0.7957747E-01            NaN
         13   -1    0    0    0    0  0.00000000000E+00  0.00000000000E+00  0.74505805969E-08  0.10566000000E+00  0.10566000000E+00 0.  1.
     999900   -1    0    0    0    0 -0.00000000000E+00 -0.00000000000E+00 -0.74505805969E-08  0.93827000000E+00  0.93827000000E+00 0. -1.
     999902    2    1    2    0    0 -0.11055073028E-02  0.11760205097E-01  0.14375049222E-01  0.10253244468E+01  0.10251556246E+01 0.  0.
     999903    2    3    3    0    0 -0.33922212374E-01  0.55374953039E-01  0.11948081636E+00  0.13739066285E+00  0.19581288070E-01 0.  0.
         14    1    1    2    0    0  0.11055073028E-02 -0.11760205097E-01 -0.14375049222E-01  0.18605553215E-01  0.00000000000E+00 0. -1.
     999901    1    3    3    0    0  0.32816705071E-01 -0.43614747942E-01 -0.10510576714E+00  0.88793378394E+00  0.88000000000E+00 0. -1.
        -11    1    4    4    0    0 -0.13389420697E-01  0.39371294128E-01  0.68261009685E-01  0.79932483710E-01  0.51100000000E-03 0. -1.
         11    1    4    4    0    0 -0.20532791678E-01  0.16003658911E-01  0.51219806679E-01  0.57458179138E-01  0.51100000000E-03 0.  1.
</event>
<event>
 8    1  0.1204770E+005  0.1043930E+01  0.7957747E-01            NaN
         13   -1    0    0    0    0  0.00000000000E+00  0.00000000000E+00  0.74505805969E-08  0.10566000000E+00  0.10566000000E+00 0. -1.
     999900   -1    0    0    0    0 -0.00000000000E+00 -0.00000000000E+00 -0.74505805969E-08  0.93827000000E+00  0.93827000000E+00 0.  1.
     999902    2    1    2    0    0 -0.11005440851E-01 -0.20768890453E-01  0.27042641896E-02  0.10202703385E+01  0.10199959725E+01 0.  0.
     999903    2    3    3    0    0  0.41747181752E-02 -0.11359675554E+00  0.66045837372E-01  0.13299382877E+00  0.20091160143E-01 0.  0.
         14    1    1    2    0    0  0.11005440851E-01  0.20768890453E-01 -0.27042641896E-02  0.23659661532E-01  0.00000000000E+00 0.  1.
     999901    1    3    3    0    0 -0.15180159026E-01  0.92827865088E-01 -0.63341573182E-01  0.88727650970E+00  0.88000000000E+00 0.  1.
        -11    1    4    4    0    0  0.47997322831E-02 -0.76342480015E-01  0.33460620970E-01  0.83493029419E-01  0.51100000000E-03 0.  1.
         11    1    4    4    0    0 -0.62501410781E-03 -0.37254275527E-01  0.32585216402E-01  0.49500799354E-01  0.51100000000E-03 0. -1.
</event>
<event>
 8    1  0.1204770E+005  0.1043930E+01  0.7957747E-01            NaN
         13   -1    0    0    0    0  0.00000000000E+00  0.00000000000E+00  0.74505805969E-08  0.10566000000E+00  0.10566000000E+00 0.  1.
     999900   -1    0    0    0    0 -0.00000000000E+00 -0.00000000000E+00 -0.74505805969E-08  0.93827000000E+00  0.93827000000E+00 0.  1.
     999902    2    1    2    0    0  0.50871401026E-02  0.48576227827E-02 -0.22593364873E-01  0.10202670410E+01  0.10199925977E+01 0.  0.
     999903    2    3    3    0    0  0.64256814990E-01 -0.68616593254E-01 -0.92564505023E-01  0.13246330630E+00  0.11881278704E-01 0.  0.
         14    1    1    2    0    0 -0.50871401026E-02 -0.48576227827E-02  0.22593364873E-01  0.23662959024E-01  0.00000000000E+00 0.  1.
     999901    1    3    3    0    0 -0.59169674888E-01  0.73474216036E-01  0.69971140150E-01  0.88780373467E+00  0.88000000000E+00 0.  1.
        -11    1    4    4    0    0  0.24414300166E-01 -0.28909349532E-01 -0.29704398663E-01  0.48108429240E-01  0.51100000000E-03 0.  1.
         11    1    4    4    0    0  0.39842514824E-01 -0.39707243721E-01 -0.62860106360E-01  0.84354877061E-01  0.51100000000E-03 0. -1.
</event>
<event>
 8    1  0.1204770E+005  0.1043930E+01  0.7957747E-01            NaN
         13   -1    0    0    0    0  0.00000000000E+00  0.00000000000E+00  0.74505805969E-08  0.10566000000E+00  0.10566000000E+00 0.  1.
     999900   -1    0    0    0    0 -0.00000000000E+00 -0.00000000000E+00 -0.74505805969E-08  0.93827000000E+00  0.93827000000E+00 0. -1.
     999902    2    1    2    0    0  0.17986453548E-02 -0.18490587044E-01  0.12156190361E-01  0.10217284258E+01  0.10214871835E+01 0.  0.
     999903    2    3    3    0    0  0.10486180502E+00  0.18693557165E-01 -0.73027151344E-01  0.13085196005E+00  0.21067116202E-01 0.  0.
         14    1    1    2    0    0 -0.17986453548E-02  0.18490587044E-01 -0.12156190361E-01  0.22201574233E-01  0.00000000000E+00 0. -1.
     999901    1    3    3    0    0 -0.10306315966E+00 -0.37184144209E-01  0.85183341705E-01  0.89087646571E+00  0.88000000000E+00 0. -1.
        -11    1    4    4    0    0  0.39692691071E-01  0.60349517430E-02 -0.15615480144E-01  0.43081721276E-01  0.51100000000E-03 0.  1.
         11    1    4    4    0    0  0.65169113946E-01  0.12658605422E-01 -0.57411671201E-01  0.87770238776E-01  0.51100000000E-03 0. -1.
</event>
<event>
 8    1  0.1204770E+005  0.1043930E+01  0.7957747E-01            NaN
         13   -1    0    0    0    0  0.00000000000E+00  0.00000000000E+00  0.74505805969E-08  0.10566000000E+00  0.10566000000E+00 0.  1.
     999900   -1    0    0    0    0 -0.00000000000E+00 -0.00000000000E+00 -0.74505805969E-08  0.93827000000E+00  0.93827000000E+00 0. -1.
     999902    2    1    2    0    0 -0.10813268427E-01  0.17765567918E-01  0.90135510483E-02  0.10212631458E+01  0.10210115703E+01 0.  0.
     999903    2    3    3    0    0 -0.15169987856E-01 -0.11480935417E-01 -0.12723998650E+00  0.13028651003E+00  0.20557726562E-01 0.  0.
         14    1    1    2    0    0  0.10813268427E-01 -0.17765567918E-01 -0.90135510483E-02  0.22666854215E-01  0.00000000000E+00 0. -1.
     999901    1    3    3    0    0  0.43567194284E-02  0.29246503334E-01  0.13625353755E+00  0.89097663575E+00  0.88000000000E+00 0.  1.
        -11    1    4    4    0    0 -0.62194661560E-02 -0.14939229123E-01 -0.52732090093E-01  0.55161551580E-01  0.51100000000E-03 0.  1.
         11    1    4    4    0    0 -0.89505216995E-02  0.34582937063E-02 -0.74507896410E-01  0.75124958453E-01  0.51100000000E-03 0. -1.
</event>
<event>
 8    1  0.1204770E+005  0.1043930E+01  0.7957747E-01            NaN
         13   -1    0    0    0    0  0.00000000000E+00  0.00000000000E+00  0.74505805969E-08  0.10566000000E+00  0.10566000000E+00 0. -1.
     999900   -1    0    0    0    0 -0.00000000000E+00 -0.00000000000E+00 -0.74505805969E-08  0.93827000000E+00  0.93827000000E+00 0. -1.
     999902    2    1    2    0    0 -0.19991249113E-01  0.81286066992E-02 -0.95717289268E-02  0.10203219022E+01  0.10200487448E+01 0.  0.
     999903    2    3    3    0    0  0.50235187287E-01 -0.81067120057E-01  0.83242640819E-01  0.12818842715E+00  0.20186223235E-01 0.  0.
         14    1    1    2    0    0  0.19991249113E-01 -0.81286066992E-02  0.95717289268E-02  0.23608097818E-01  0.00000000000E+00 0. -1.
     999901    1    3    3    0    0 -0.70226436400E-01  0.89195726757E-01 -0.92814369746E-01  0.89213347503E+00  0.88000000000E+00 0. -1.
        -11    1    4    4    0    0  0.38984745724E-01 -0.53505022715E-01  0.67343210338E-01  0.94434987979E-01  0.51100000000E-03 0. -1.
         11    1    4    4    0    0  0.11250441563E-01 -0.27562097342E-01  0.15899430481E-01  0.33753439171E-01  0.51100000000E-03 0.  1.
</event>
<event>
 8    1  0.1204770E+005  0.1043930E+01  0.7957747E-01            NaN
         13   -1    0    0    0    0  0.00000000000E+00  0.00000000000E+00  0.74505805969E-08  0.10566000000E+00  0.10566000000E+00 0.  1.
     999900   -1    0    0    0    0 -0.00000000000E+00 -0.00000000000E+00 -0.74505805969E-08  0.93827000000E+00  0.93827000000E+00 0. -1.
     999902    2    1    2    0    0 -0.78720837198E-02  0.18764676606E-01 -0.11949854970E-01  0.10203316563E+01  0.10200587273E+01 0.  0.
     999903    2    3    3    0    0  0.90235733145E-02 -0.12388480997E+00  0.23824855188E-01  0.12796728617E+00  0.19471301675E-01 0.  0.
         14    1    1    2    0    0  0.78720837198E-02 -0.18764676606E-01  0.11949854970E-01  0.23598343671E-01  0.00000000000E+00 0.  1.
     999901    1    3    3    0    0 -0.16895657034E-01  0.14264948657E+00 -0.35774710158E-01  0.89236437016E+00  0.88000000000E+00 0. -1.
        -11    1    4    4    0    0 -0.59490103819E-02 -0.36985728539E-01  0.49671460981E-02  0.37792439739E-01  0.51100000000E-03 0. -1.
         11    1    4    4    0    0  0.14972583696E-01 -0.86899081427E-01  0.18857709090E-01  0.90174846429E-01  0.51100000000E-03 0.  1.
</event>
<event>
 8    1  0.1204770E+005  0.1043930E+01  0.7957747E-01            NaN
         13   -1    0    0    0    0  0.00000000000E+00  0.00000000000E+00  0.74505805969E-08  0.10566000000E+00  0.10566000000E+00 0. -1.
     999900   -1    0    0    0    0 -0.00000000000E+00 -0.00000000000E+00 -0.74505805969E-08  0.93827000000E+00  0.93827000000E+00 0.  1.
     999902    2    1    2    0    0  0.13297289766E-01  0.19200151973E-01  0.54158181331E-02  0.10199551207E+01  0.10196733072E+01 0.  0.
     999903    2    3    3    0    0  0.12794967906E+00  0.25144072273E-01 -0.10916612322E-01  0.13234752225E+00  0.19833040114E-01 0.  0.
         14    1    1    2    0    0 -0.13297289766E-01 -0.19200151973E-01 -0.54158181331E-02  0.23974879290E-01  0.00000000000E+00 0.  1.
     999901    1    3    3    0    0 -0.11465238929E+00 -0.59439203002E-02  0.16332430455E-01  0.88760759846E+00  0.88000000000E+00 0.  1.
        -11    1    4    4    0    0  0.96208684783E-01  0.23083647254E-01 -0.72580234698E-03  0.98943184244E-01  0.51100000000E-03 0. -1.
         11    1    4    4    0    0  0.31740994274E-01  0.20604250187E-02 -0.10190809975E-01  0.33404338007E-01  0.51100000000E-03 0.  1.
</event>
<event>
 8    1  0.1204770E+005  0.1043930E+01  0.7957747E-01            NaN
         13   -1    0    0    0    0  0.00000000000E+00  0.00000000000E+00  0.74505805969E-08  0.10566000000E+00  0.10566000000E+00 0. -1.
     999900   -1    0    0    0    0 -0.00000000000E+00 -0.00000000000E+00 -0.74505805969E-08  0.93827000000E+00  0.93827000000E+00 0.  1.
     999902    2    1    2    0    0  0.12126718650E-02 -0.24199249823E-01 -0.18987340962E-01  0.10131469952E+01  0.10126792387E+01 0.  0.
     999903    2    3    3    0    0 -0.25918953984E-02 -0.90906146733E-01  0.83519904074E-01  0.12468089003E+00  0.17294638666E-01 0.  0.
         14    1    1    2    0    0 -0.12126718650E-02  0.24199249823E-01  0.18987340962E-01  0.30783004757E-01  0.00000000000E+00 0.  1.
     999901    1    3    3    0    0  0.38045672633E-02  0.66706896909E-01 -0.10250724504E+00  0.88846610521E+00  0.88000000000E+00 0.  1.
        -11    1    4    4    0    0 -0.37972484347E-02 -0.69051227175E-01  0.72408390071E-01  0.10012855309E+00  0.51100000000E-03 0. -1.
         11    1    4    4    0    0  0.12053530364E-02 -0.21854919557E-01  0.11111514003E-01  0.24552336940E-01  0.51100000000E-03 0.  1.
</event>
<event>
 8    1  0.1204770E+005  0.1043930E+01  0.7957747E-01            NaN
         13   -1    0    0    0    0  0.00000000000E+00  0.00000000000E+00  0.74505805969E-08  0.10566000000E+00  0.10566000000E+00 0. -1.
     999900   -1    0    0    0    0 -0.00000000000E+00 -0.00000000000E+00 -0.74505805969E-08  0.93827000000E+00  0.93827000000E+00 0.  1.
     999902    2    1    2    0    0 -0.21582372000E-01 -0.73174251885E-02  0.53210224019E-02  0.10205279323E+01  0.10202595767E+01 0.  0.
     999903    2    3    3    0    0 -0.11833482753E+00 -0.54329675320E-02  0.58685028108E-01  0.13361626482E+00  0.19409409036E-01 0.  0.
         14    1    1    2    0    0  0.21582372000E-01  0.73174251885E-02 -0.53210224019E-02  0.23402067685E-01  0.00000000000E+00 0.  1.
     999901    1    3    3    0    0  0.96752455525E-01 -0.18844576564E-02 -0.53364005707E-01  0.88691166749E+00  0.88000000000E+00 0.  1.
        -11    1    4    4    0    0 -0.63312864149E-01 -0.12552155165E-01  0.32369754825E-01  0.72208984999E-01  0.51100000000E-03 0. -1.
         11    1    4    4    0    0 -0.55021963376E-01  0.71191876325E-02  0.26315273283E-01  0.61407279823E-01  0.51100000000E-03 0.  1.
</event>
<event>
 8    1  0.1204770E+005  0.1043930E+01  0.7957747E-01            NaN
         13   -1    0    0    0    0  0.00000000000E+00  0.00000000000E+00  0.74505805969E-08  0.10566000000E+00  0.10566000000E+00 0. -1.
     999900   -1    0    0    0    0 -0.00000000000E+00 -0.00000000000E+00 -0.74505805969E-08  0.93827000000E+00  0.93827000000E+00 0. -1.
     999902    2    1    2    0    0 -0.10659379440E-01  0.10645175521E-01  0.18582941760E-01  0.10200078794E+01  0.10197273195E+01 0.  0.
     999903    2    3    3    0    0 -0.10214464522E-01  0.10708183239E+00  0.75471136419E-01  0.13291346869E+00  0.19981081377E-01 0.  0.
         14    1    1    2    0    0  0.10659379440E-01 -0.10645175521E-01 -0.18582941760E-01  0.23922120649E-01  0.00000000000E+00 0.  1.
     999901    1    3    3    0    0 -0.44491491772E-03 -0.96436656869E-01 -0.56888194658E-01  0.88709441066E+00  0.88000000000E+00 0. -1.
        -11    1    4    4    0    0 -0.15485062032E-02  0.64382317372E-01  0.34305077876E-01  0.72969720780E-01  0.51100000000E-03 0. -1.
         11    1    4    4    0    0 -0.86659583187E-02  0.42699515018E-01  0.41166058543E-01  0.59943747908E-01  0.51100000000E-03 0.  1.
</event>
<event>
 8    1  0.1204770E+005  0.1043930E+01  0.7957747E-01            NaN
         13   -1    0    0    0    0  0.00000000000E+00  0.00000000000E+00  0.74505805969E-08  0.10566000000E+00  0.10566000000E+00 0. -1.
     999900   -1    0    0    0    0 -0.00000000000E+00 -0.00000000000E+00 -0.74505805969E-08  0.93827000000E+00  0.93827000000E+00 0.  1.
     999902    2    1    2    0    0  0.38364712474E-02  0.12574047110E-01  0.14739895481E-01  0.10241793116E+01  0.10239888538E+01 0.  0.
     999903    2    3    3    0    0 -0.87664479133E-02 -0.12674848857E+00  0.33955788960E-01  0.13292241652E+00  0.19322092122E-01 0.  0.
         14    1    1    2    0    0 -0.38364712474E-02 -0.12574047110E-01 -0.14739895481E-01  0.19750688371E-01  0.00000000000E+00 0.  1.
     999901    1    3    3    0    0  0.12602919161E-01  0.13932253568E+00 -0.19215893480E-01  0.89125689511E+00  0.88000000000E+00 0.  1.
        -11    1    4    4    0    0  0.48294141443E-02 -0.61324654037E-01  0.19711783016E-01  0.64597615625E-01  0.51100000000E-03 0. -1.
         11    1    4    4    0    0 -0.13595862058E-01 -0.65423834537E-01  0.14244005944E-01  0.68324800892E-01  0.51100000000E-03 0.  1.
</event>
<event>
 8    1  0.1204770E+005  0.1043930E+01  0.7957747E-01            NaN
         13   -1    0    0    0    0  0.00000000000E+00  0.00000000000E+00  0.74505805969E-08  0.10566000000E+00  0.10566000000E+00 0. -1.
     999900   -1    0    0    0    0 -0.00000000000E+00 -0.00000000000E+00 -0.74505805969E-08  0.93827000000E+00  0.93827000000E+00 0.  1.
     999902    2    1    2    0    0 -0.10200414575E-03  0.16586277266E-01 -0.17310920690E-01  0.10199553681E+01  0.10196735605E+01 0.  0.
     999903    2    3    3    0    0  0.10166994453E+00  0.79707438140E-01  0.11340776929E-01  0.13138194389E+00  0.21036840144E-01 0.  0.
         14    1    1    2    0    0  0.10200414575E-03 -0.16586277266E-01  0.17310920690E-01  0.23974631874E-01  0.00000000000E+00 0. -1.
     999901    1    3    3    0    0 -0.10177194867E+00 -0.63121160875E-01 -0.28651697619E-01  0.88857342424E+00  0.88000000000E+00 0. -1.
        -11    1    4    4    0    0  0.52971262267E-01  0.32665064676E-01 -0.24382543712E-02  0.62282961408E-01  0.51100000000E-03 0.  1.
         11    1    4    4    0    0  0.48698682260E-01  0.47042373464E-01  0.13779031300E-01  0.69098982479E-01  0.51100000000E-03 0. -1.
</event>
<event>
 8    1  0.1204770E+005  0.1043930E+01  0.7957747E-01            NaN
         13   -1    0    0    0    0  0.00000000000E+00  0.00000000000E+00  0.74505805969E-08  0.10566000000E+00  0.10566000000E+00 0.  1.
     999900   -1    0    0    0    0 -0.00000000000E+00 -0.00000000000E+00 -0.74505805969E-08  0.93827000000E+00  0.93827000000E+00 0.  1.
     999902    2    1    2    0    0 -0.12608353733E-01  0.16855297283E-02 -0.23388371709E-01  0.10173061850E+01  0.10169577408E+01 0.  0.
     999903    2    3    3    0    0 -0.12424185284E+00  0.26486077877E-01  0.12588899047E-01  0.12917811466E+00  0.19772572138E-01 0.  0.
         14    1    1    2    0    0  0.12608353733E-01 -0.16855297283E-02  0.23388371709E-01  0.26623815007E-01  0.00000000000E+00 0.  1.
     999901    1    3    3    0    0  0.11163349910E+00 -0.24800548149E-01 -0.35977270756E-01  0.88812807034E+00  0.88000000000E+00 0.  1.
        -11    1    4    4    0    0 -0.80256202799E-01  0.25978412506E-01  0.11805305171E-01  0.85179588842E-01  0.51100000000E-03 0. -1.
         11    1    4    4    0    0 -0.43985650038E-01  0.50766537118E-03  0.78359387568E-03  0.43998525813E-01  0.51100000000E-03 0.  1.
</event>
<event>
 8    1  0.1204770E+005  0.1043930E+01  0.7957747E-01            NaN
         13   -1    0    0    0    0  0.00000000000E+00  0.00000000000E+00  0.74505805969E-08  0.10566000000E+00  0.10566000000E+00 0. -1.
     999900   -1    0    0    0    0 -0.00000000000E+00 -0.00000000000E+00 -0.74505805969E-08  0.93827000000E+00  0.93827000000E+00 0.  1.
     999902    2    1    2    0    0  0.27356695606E-02 -0.83663439199E-02 -0.21986534997E-01  0.10202469402E+01  0.10199720250E+01 0.  0.
     999903    2    3    3    0    0  0.11394674237E+00  0.12179558566E-01  0.57071439268E-01  0.12949433703E+00  0.19479024616E-01 0.  0.
         14    1    1    2    0    0 -0.27356695606E-02  0.83663439199E-02  0.21986534997E-01  0.23683059762E-01  0.00000000000E+00 0. -1.
     999901    1    3    3    0    0 -0.11121107281E+00 -0.20545902486E-01 -0.79057974265E-01  0.89075260321E+00  0.88000000000E+00 0.  1.
        -11    1    4    4    0    0  0.66185452680E-01  0.16311161604E-01  0.30486281465E-01  0.74674243336E-01  0.51100000000E-03 0. -1.
         11    1    4    4    0    0  0.47761289688E-01 -0.41316030378E-02  0.26585157804E-01  0.54820093695E-01  0.51100000000E-03 0.  1.
</event>
<event>
 7    1  0.1204770E+005  0.1043930E+01  0.7957747E-01            NaN
         13   -1    0    0    0    0  0.00000000000E+00  0.00000000000E+00  0.74505805969E-08  0.10566000000E+00  0.10566000000E+00 0.  1.
     999900   -1    0    0    0    0 -0.00000000000E+00 -0.00000000000E+00 -0.74505805969E-08  0.93827000000E+00  0.93827000000E+00 0. -1.
     999902    2    1    2    0    0 -0.74889578926E-03  0.14021541697E-01 -0.18408682153E-01  0.10207773748E+01  0.10205147744E+01 0.  0.
         14    1    1    2    0    0  0.74889578926E-03 -0.14021541697E-01  0.18408682153E-01  0.23152625230E-01  0.00000000000E+00 0.  1.
     999901    1    3    3    0    0  0.11481289877E+00  0.13374310518E-01 -0.65329170106E-01  0.88995998470E+00  0.88000000000E+00 0.  1.
        -11    1    3    3    0    0 -0.48685755164E-01 -0.97713212864E-02  0.22291603037E-02  0.49709272296E-01  0.51100000000E-03 0. -1.
         11    1    3    3    0    0 -0.66876039392E-01  0.10418552465E-01  0.44691327650E-01  0.81108117771E-01  0.51100000000E-03 0.  1.
</event>
<event>
 8    1  0.1204770E+005  0.1043930E+01  0.7957747E-01            NaN
         13   -1    0    0    0    0  0.00000000000E+00  0.00000000000E+00  0.74505805969E-08  0.10566000000E+00  0.10566000000E+00 0.  1.
     999900   -1    0    0    0    0 -0.00000000000E+00 -0.00000000000E+00 -0.74505805969E-08  0.93827000000E+00  0.93827000000E+00 0. -1.
     999902    2    1    2    0    0 -0.13397741176E-01 -0.20874803401E-01  0.79198416293E-03  0.10191129872E+01  0.10188107756E+01 0.  0.
     999903    2    3    3    0    0 -0.95696982752E-01  0.67461955653E-01  0.51515167686E-01  0.12942237271E+00  0.19680195294E-01 0.  0.
         14    1    1    2    0    0  0.13397741176E-01  0.20874803401E-01 -0.79198416293E-03  0.24817012805E-01  0.00000000000E+00 0.  1.
     999901    1    3    3    0    0  0.82299241576E-01 -0.88336759054E-01 -0.50723183523E-01  0.88969061449E+00  0.88000000000E+00 0. -1.
        -11    1    4    4    0    0 -0.62495361842E-01  0.33724334290E-01  0.35911570626E-01  0.79579538833E-01  0.51100000000E-03 0. -1.
         11    1    4    4    0    0 -0.33201620909E-01  0.33737621363E-01  0.15603597060E-01  0.49842833873E-01  0.51100000000E-03 0.  1.
</event>
<event>
 8    1  0.1204770E+005  0.1043930E+01  0.7957747E-01            NaN
         13   -1    0    0    0    0  0.00000000000E+00  0.00000000000E+00  0.74505805969E-08  0.10566000000E+00  0.10566000000E+00 0. -1.
     999900   -1    0    0    0    0 -0.00000000000E+00 -0.00000000000E+00 -0.74505805969E-08  0.93827000000E+00  0.93827000000E+00 0.  1.
     999902    2    1    2    0    0 -0.23442928647E-01 -0.67995412115E-02  0.55479744595E-03  0.10195145855E+01  0.10192221925E+01 0.  0.
     999903    2    3    3    0    0  0.48167058563E-01  0.11518704297E+00 -0.20139778572E-01  0.12797828089E+00  0.19614007767E-01 0.  0.
         14    1    1    2    0    0  0.23442928647E-01  0.67995412115E-02 -0.55479744595E-03  0.24415414484E-01  0.00000000000E+00 0.  1.
     999901    1    3    3    0    0 -0.71609987210E-01 -0.12198658418E+00  0.20694576018E-01  0.89153630462E+00  0.88000000000E+00 0.  1.
        -11    1    4    4    0    0  0.38851462047E-01  0.79692726643E-01 -0.67678545487E-02  0.88918118284E-01  0.51100000000E-03 0.  1.
         11    1    4    4    0    0  0.93155965155E-02  0.35494316325E-01 -0.13371924023E-01  0.39060162607E-01  0.51100000000E-03 0. -1.
</event>
<event>
 8    1  0.1204770E+005  0.1043930E+01  0.7957747E-01            NaN
         13   -1    0    0    0    0  0.00000000000E+00  0.00000000000E+00  0.74505805969E-08  0.10566000000E+00  0.10566000000E+00 0. -1.
     999900   -1    0    0    0    0 -0.00000000000E+00 -0.00000000000E+00 -0.74505805969E-08  0.93827000000E+00  0.93827000000E+00 0.  1.
     999902    2    1    2    0    0  0.42206685429E-02 -0.21118937041E-01 -0.82096551508E-02  0.10208817467E+01  0.10206215355E+01 0.  0.
     999903    2    3    3    0    0 -0.65016638141E-01  0.28719977030E-01 -0.10911166582E+00  0.13101718519E+00  0.14427296349E-01 0.  0.
         14    1    1    2    0    0 -0.42206685429E-02  0.21118937041E-01  0.82096551508E-02  0.23048253348E-01  0.00000000000E+00 0.  1.
     999901    1    3    3    0    0  0.69237306684E-01 -0.49838914071E-01  0.10090201067E+00  0.88986456146E+00  0.88000000000E+00 0. -1.
        -11    1    4    4    0    0 -0.44467782405E-01  0.25849844397E-01 -0.71837021746E-01  0.88353929973E-01  0.51100000000E-03 0. -1.
         11    1    4    4    0    0 -0.20548855736E-01  0.28701326332E-02 -0.37274644078E-01  0.42663255215E-01  0.51100000000E-03 0.  1.
</event>
<event>
 8    1  0.1204770E+005  0.1043930E+01  0.7957747E-01            NaN
         13   -1    0    0    0    0  0.00000000000E+00  0.00000000000E+00  0.74505805969E-08  0.10566000000E+00  0.10566000000E+00 0.  1.
     999900   -1    0    0    0    0 -0.00000000000E+00 -0.00000000000E+00 -0.74505805969E-08  0.93827000000E+00  0.93827000000E+00 0. -1.
     999902    2    1    2    0    0  0.12861750384E-02  0.15897190897E-01 -0.18793143939E-01  0.10192813249E+01  0.10189832492E+01 0.  0.
     999903    2    3    3    0    0  0.56130412954E-01 -0.50034738132E-02 -0.11703081972E+00  0.13187196663E+00  0.22767187162E-01 0.  0.
         14    1    1    2    0    0 -0.12861750384E-02 -0.15897190897E-01  0.18793143939E-01  0.24648675091E-01  0.00000000000E+00 0.  1.
     999901    1    3    3    0    0 -0.54844237915E-01  0.20900664710E-01  0.98237675777E-01  0.88740935828E+00  0.88000000000E+00 0.  1.
        -11    1    4    4    0    0  0.11438509177E-01  0.10515182296E-02 -0.83691400649E-02  0.14221420787E-01  0.51100000000E-03 0. -1.
         11    1    4    4    0    0  0.44691903776E-01 -0.60549920428E-02 -0.10866167965E+00  0.11765054584E+00  0.51100000000E-03 0.  1.
</event>
<event>
 8    1  0.1204770E+005  0.1043930E+01  0.7957747E-01            NaN
         13   -1    0    0    0    0  0.00000000000E+00  0.00000000000E+00  0.74505805969E-08  0.10566000000E+00  0.10566000000E+00 0.  1.
     999900   -1    0    0    0    0 -0.00000000000E+00 -0.00000000000E+00 -0.74505805969E-08  0.93827000000E+00  0.93827000000E+00 0. -1.
     999902    2    1    2    0    0  0.54339933842E-02 -0.79613613352E-02  0.21845062961E-01  0.10200528491E+01  0.10197733555E+01 0.  0.
     999903    2    3    3    0    0  0.68330499948E-01  0.63680475921E-01  0.91423233716E-01  0.13217355258E+00  0.19681974007E-01 0.  0.
         14    1    1    2    0    0 -0.54339933842E-02  0.79613613352E-02 -0.21845062961E-01  0.23877150881E-01  0.00000000000E+00 0. -1.
     999901    1    3    3    0    0 -0.62896506564E-01 -0.71641837257E-01 -0.69578170755E-01  0.88787929654E+00  0.88000000000E+00 0. -1.
        -11    1    4    4    0    0  0.64864371762E-01  0.52328875341E-01  0.76794159957E-01  0.11332829322E+00  0.51100000000E-03 0.  1.
         11    1    4    4    0    0  0.34661281858E-02  0.11351600580E-01  0.14629073760E-01  0.18845259361E-01  0.51100000000E-03 0. -1.
</event>
<event>
 8    1  0.1204770E+005  0.1043930E+01  0.7957747E-01            NaN
         13   -1    0    0    0    0  0.00000000000E+00  0.00000000000E+00  0.74505805969E-08  0.10566000000E+00  0.10566000000E+00 0.  1.
     999900   -1    0    0    0    0 -0.00000000000E+00 -0.00000000000E+00 -0.74505805969E-08  0.93827000000E+00  0.93827000000E+00 0. -1.
     999902    2    1    2    0    0  0.13418912173E-02 -0.22536061333E-01  0.61187252256E-02  0.10205395419E+01  0.10202714556E+01 0.  0.
     999903    2    3    3    0    0 -0.68809772167E-01 -0.10454438806E+00  0.43060236212E-01  0.13317755444E+00  0.14756803334E-01 0.  0.
         14    1    1    2    0    0 -0.13418912173E-02  0.22536061333E-01 -0.61187252256E-02  0.23390458115E-01  0.00000000000E+00 0. -1.
     999901    1    3    3    0    0  0.70151663384E-01  0.82008326723E-01 -0.36941510986E-01  0.88736198744E+00  0.88000000000E+00 0.  1.
        -11    1    4    4    0    0 -0.48537513101E-01 -0.68836159273E-01  0.22136684688E-01  0.87089614372E-01  0.51100000000E-03 0. -1.
         11    1    4    4    0    0 -0.20272259066E-01 -0.35708228783E-01  0.20923551523E-01  0.46087940069E-01  0.51100000000E-03 0.  1.
</event>
<event>
 8    1  0.1204770E+005  0.1043930E+01  0.7957747E-01            NaN
         13   -1    0    0    0    0  0.00000000000E+00  0.00000000000E+00  0.74505805969E-08  0.10566000000E+00  0.10566000000E+00 0.  1.
     999900   -1    0    0    0    0 -0.00000000000E+00 -0.00000000000E+00 -0.74505805969E-08  0.93827000000E+00  0.93827000000E+00 0. -1.
     999902    2    1    2    0    0 -0.14969984709E-01 -0.27966374403E-02 -0.15887078907E-01  0.10219227080E+01  0.10216857150E+01 0.  0.
     999903    2    3    3    0    0  0.83501029532E-01 -0.54474933940E-01 -0.84556230845E-01  0.13226960744E+00  0.20138334543E-01 0.  0.
         14    1    1    2    0    0  0.14969984709E-01  0.27966374403E-02  0.15887078907E-01  0.22007291959E-01  0.00000000000E+00 0.  1.
     999901    1    3    3    0    0 -0.98471014241E-01  0.51678296499E-01  0.68669151938E-01  0.88965310060E+00  0.88000000000E+00 0. -1.
        -11    1    4    4    0    0  0.18894034428E-01 -0.16606070383E-01 -0.11552697214E-01  0.27685231523E-01  0.51100000000E-03 0. -1.
         11    1    4    4    0    0  0.64606995103E-01 -0.37868863557E-01 -0.73003533630E-01  0.10458437592E+00  0.51100000000E-03 0.  1.
</event>
<event>
 8    1  0.1204770E+005  0.1043930E+01  0.7957747E-01            NaN
         13   -1    0    0    0    0  0.00000000000E+00  0.00000000000E+00  0.74505805969E-08  0.10566000000E+00  0.10566000000E+00 0.  1.
     999900   -1    0    0    0    0 -0.00000000000E+00 -0.00000000000E+00 -0.74505805969E-08  0.93827000000E+00  0.93827000000E+00 0.  1.
     999902    2    1    2    0    0  0.55486071494E-02  0.20856334881E-01 -0.29651993284E-02  0.10221454607E+01  0.10219132921E+01 0.  0.
     999903    2    3    3    0    0  0.98710730076E-01 -0.83604182263E-01 -0.80439981852E-02  0.13106915925E+00  0.19517968007E-01 0.  0.
         14    1    1    2    0    0 -0.55486071494E-02 -0.20856334881E-01  0.29651993284E-02  0.21784539312E-01  0.00000000000E+00 0. -1.
     999901    1    3    3    0    0 -0.93162122926E-01  0.10446051714E+00  0.50787988569E-02  0.89107630144E+00  0.88000000000E+00 0. -1.
        -11    1    4    4    0    0  0.82509145691E-02 -0.41700245514E-02 -0.52626869696E-02  0.10650055921E-01  0.51100000000E-03 0. -1.
         11    1    4    4    0    0  0.90459815507E-01 -0.79434157712E-01 -0.27813112156E-02  0.12041910333E+00  0.51100000000E-03 0.  1.
</event>
<event>
 8    1  0.1204770E+005  0.1043930E+01  0.7957747E-01            NaN
         13   -1    0    0    0    0  0.00000000000E+00  0.00000000000E+00  0.74505805969E-08  0.10566000000E+00  0.10566000000E+00 0.  1.
     999900   -1    0    0    0    0 -0.00000000000E+00 -0.00000000000E+00 -0.74505805969E-08  0.93827000000E+00  0.93827000000E+00 0.  1.
     999902    2    1    2    0    0  0.19806232251E-01 -0.12551559657E-01  0.82873725539E-02  0.10190601582E+01  0.10187566427E+01 0.  0.
     999903    2    3    3    0    0 -0.94945503429E-01  0.31535829712E-01  0.77128575587E-01  0.12785267959E+00  0.19706174923E-01 0.  0.
         14    1    1    2    0    0 -0.19806232251E-01  0.12551559657E-01 -0.82873725539E-02  0.24869841770E-01  0.00000000000E+00 0. -1.
     999901    1    3    3    0    0  0.11475173568E+00 -0.44087389369E-01 -0.68841203033E-01  0.89120747864E+00  0.88000000000E+00 0. -1.
        -11    1    4    4    0    0 -0.43726461606E-01  0.46471787114E-02  0.29981259841E-01  0.53223460778E-01  0.51100000000E-03 0.  1.
         11    1    4    4    0    0 -0.51219041823E-01  0.26888651001E-01  0.47147315746E-01  0.74629218815E-01  0.51100000000E-03 0. -1.
</event>
<event>
 8    1  0.1204770E+005  0.1043930E+01  0.7957747E-01            NaN
         13   -1    0    0    0    0  0.00000000000E+00  0.00000000000E+00  0.74505805969E-08  0.10566000000E+00  0.10566000000E+00 0.  1.
     999900   -1    0    0    0    0 -0.00000000000E+00 -0.00000000000E+00 -0.74505805969E-08  0.93827000000E+00  0.93827000000E+00 0. -1.
     999902    2    1    2    0    0  0.11399446302E-01  0.15223662428E-01 -0.14266806031E-01  0.10201550336E+01  0.10198779552E+01 0.  0.
     999903    2    3    3    0    0 -0.57145106415E-01 -0.59355356031E-01 -0.98972687359E-01  0.13030365721E+00  0.19870298513E-01 0.  0.
         14    1    1    2    0    0 -0.11399446302E-01 -0.15223662428E-01  0.14266806031E-01  0.23774966415E-01  0.00000000000E+00 0.  1.
     999901    1    3    3    0    0  0.68544552718E-01  0.74579018458E-01  0.84705881327E-01  0.88985137637E+00  0.88000000000E+00 0. -1.
        -11    1    4    4    0    0 -0.12638501991E-01 -0.59497200985E-02 -0.90979658964E-02  0.16678279476E-01  0.51100000000E-03 0. -1.
         11    1    4    4    0    0 -0.44506604425E-01 -0.53405635932E-01 -0.89874721462E-01  0.11362537774E+00  0.51100000000E-03 0.  1.
</event>
<event>
 8    1  0.1204770E+005  0.1043930E+01  0.7957747E-01            NaN
         13   -1    0    0    0    0  0.00000000000E+00  0.00000000000E+00  0.74505805969E-08  0.10566000000E+00  0.10566000000E+00 0.  1.
     999900   -1    0    0    0    0 -0.00000000000E+00 -0.00000000000E+00 -0.74505805969E-08  0.93827000000E+00  0.93827000000E+00 0.  1.
     999902    2    1    2    0    0  0.74029581971E-02 -0.17517815479E-01 -0.11924132738E-01  0.10214831162E+01  0.10212364536E+01 0.  0.
     999903    2    3    3    0    0 -0.66690344051E-01  0.10531910361E+00 -0.29561612767E-01  0.12969289043E+00  0.20165349094E-01 0.  0.
         14    1    1    2    0    0 -0.74029581971E-02  0.17517815479E-01  0.11924132738E-01  0.22446883766E-01  0.00000000000E+00 0. -1.
     999901    1    3    3    0    0  0.74093302248E-01 -0.12283691909E+00  0.17637480029E-01  0.89179022580E+00  0.88000000000E+00 0. -1.
        -11    1    4    4    0    0 -0.42131620907E-01  0.56583023465E-01 -0.79540708206E-02  0.70994650421E-01  0.51100000000E-03 0.  1.
         11    1    4    4    0    0 -0.24558723144E-01  0.48736080149E-01 -0.21607541946E-01  0.58698240014E-01  0.51100000000E-03 0. -1.
</event>
<event>
 8    1  0.1204770E+005  0.1043930E+01  0.7957747E-01            NaN
         13   -1    0    0    0    0  0.00000000000E+00  0.00000000000E+00  0.74505805969E-08  0.10566000000E+00  0.10566000000E+00 0. -1.
     999900   -1    0    0    0    0 -0.00000000000E+00 -0.00000000000E+00 -0.74505805969E-08  0.93827000000E+00  0.93827000000E+00 0.  1.
     999902    2    1    2    0    0 -0.21473324215E-02  0.26825132318E-02 -0.24976116152E-01  0.10187186277E+01  0.10184066129E+01 0.  0.
     999903    2    3    3    0    0  0.82759707738E-01 -0.53189723496E-01 -0.83898551861E-01  0.13091078493E+00  0.20502455852E-01 0.  0.
         14    1    1    2    0    0  0.21473324215E-02 -0.26825132318E-02  0.24976116152E-01  0.25211372271E-01  0.00000000000E+00 0. -1.
     999901    1    3    3    0    0 -0.84907040160E-01  0.55872236728E-01  0.58922435709E-01  0.88780784280E+00  0.88000000000E+00 0. -1.
        -11    1    4    4    0    0  0.53911802362E-01 -0.36675350556E-01 -0.42574505180E-01  0.77874343558E-01  0.51100000000E-03 0.  1.
         11    1    4    4    0    0  0.28847905376E-01 -0.16514372940E-01 -0.41324046682E-01  0.53036441372E-01  0.51100000000E-03 0. -1.
</event>
<event>
 8    1  0.1204770E+005  0.1043930E+01  0.7957747E-01            NaN
         13   -1    0    0    0    0  0.00000000000E+00  0.00000000000E+00  0.74505805969E-08  0.10566000000E+00  0.10566000000E+00 0. -1.
     999900   -1    0    0    0    0 -0.00000000000E+00 -0.00000000000E+00 -0.74505805969E-08  0.93827000000E+00  0.93827000000E+00 0.  1.
     999902    2    1    2    0    0  0.18245966313E-01  0.12911338971E-01 -0.88945062101E-02  0.10198731880E+01  0.10195894220E+01 0.  0.
     999903    2    3    3    0    0 -0.37243053225E-01 -0.56386201248E-01  0.10657947249E+00  0.12790041933E+00  0.20805879083E-01 0.  0.
         14    1    1    2    0    0 -0.18245966313E-01 -0.12911338971E-01  0.88945062101E-02  0.24056811955E-01  0.00000000000E+00 0. -1.
     999901    1    3    3    0    0  0.55489019537E-01  0.69297540219E-01 -0.11547397870E+00  0.89197276871E+00  0.88000000000E+00 0.  1.
        -11    1    4    4    0    0 -0.42438980207E-02 -0.27012695761E-02  0.13322751948E-02  0.52291113899E-02  0.51100000000E-03 0. -1.
         11    1    4    4    0    0 -0.32999155204E-01 -0.53684931672E-01  0.10524719729E+00  0.12267130794E+00  0.51100000000E-03 0.  1.
</event>
<event>
 8    1  0.1204770E+005  0.1043930E+01  0.7957747E-01            NaN
         13   -1    0    0    0    0  0.00000000000E+00  0.00000000000E+00  0.74505805969E-08  0.10566000000E+00  0.10566000000E+00 0. -1.
     999900   -1    0    0    0    0 -0.00000000000E+00 -0.00000000000E+00 -0.74505805969E-08  0.93827000000E+00  0.93827000000E+00 0.  1.
     999902    2    1    2    0    0  0.13613830110E-01  0.14990767101E-01 -0.11116010762E-01  0.10208296718E+01  0.10205682699E+01 0.  0.
     999903    2    3    3    0    0  0.37735819099E-01 -0.92504478235E-01 -0.82583270909E-01  0.13108551339E+00  0.19553635204E-01 0.  0.
         14    1    1    2    0    0 -0.13613830110E-01 -0.14990767101E-01  0.11116010762E-01  0.23100328218E-01  0.00000000000E+00 0. -1.
     999901    1    3    3    0    0 -0.24121988989E-01  0.10749524534E+00  0.71467260147E-01  0.88974415839E+00  0.88000000000E+00 0. -1.
        -11    1    4    4    0    0  0.12716416840E-01 -0.19042920138E-01 -0.28155774630E-01  0.36295300394E-01  0.51100000000E-03 0. -1.
         11    1    4    4    0    0  0.25019402259E-01 -0.73461558097E-01 -0.54427496279E-01  0.94790212995E-01  0.51100000000E-03 0.  1.
</event>
<event>
 8    1  0.1204770E+005  0.1043930E+01  0.7957747E-01            NaN
         13   -1    0    0    0    0  0.00000000000E+00  0.00000000000E+00  0.74505805969E-08  0.10566000000E+00  0.10566000000E+00 0.  1.
     999900   -1    0    0    0    0 -0.00000000000E+00 -0.00000000000E+00 -0.74505805969E-08  0.93827000000E+00  0.93827000000E+00 0. -1.
     999902    2    1    2    0    0 -0.11152197977E-01  0.10438214432E-02 -0.21043907713E-01  0.10200908068E+01  0.10198122116E+01 0.  0.
     999903    2    3    3    0    0  0.12208804082E+00  0.33546601917E-01 -0.17488313913E-01  0.12946067352E+00  0.20575729708E-01 0.  0.
         14    1    1    2    0    0  0.11152197977E-01 -0.10438214432E-02  0.21043907713E-01  0.23839193248E-01  0.00000000000E+00 0.  1.
     999901    1    3    3    0    0 -0.13324023880E+00 -0.32502780474E-01 -0.35555937996E-02  0.89063013323E+00  0.88000000000E+00 0. -1.
        -11    1    4    4    0    0  0.92737589476E-01  0.16145020820E-01 -0.13709946800E-01  0.95126999119E-01  0.51100000000E-03 0.  1.
         11    1    4    4    0    0  0.29350451345E-01  0.17401581097E-01 -0.37783671132E-02  0.34333674401E-01  0.51100000000E-03 0. -1.
</event>
<event>
 8    1  0.1204770E+005  0.1043930E+01  0.7957747E-01            NaN
         13   -1    0    0    0    0  0.00000000000E+00  0.00000000000E+00  0.74505805969E-08  0.10566000000E+00  0.10566000000E+00 0.  1.
     999900   -1    0    0    0    0 -0.00000000000E+00 -0.00000000000E+00 -0.74505805969E-08  0.93827000000E+00  0.93827000000E+00 0.  1.
     999902    2    1    2    0    0 -0.18691192562E-01  0.70560277725E-02 -0.15270848031E-01  0.10187834892E+01  0.10184730977E+01 0.  0.
     999903    2    3    3    0    0 -0.10002573854E+00  0.82964293774E-01  0.90059742218E-04  0.13164577117E+00  0.21032796868E-01 0.  0.
         14    1    1    2    0    0  0.18691192562E-01 -0.70560277725E-02  0.15270848031E-01  0.25146510830E-01  0.00000000000E+00 0. -1.
     999901    1    3    3    0    0  0.81334545975E-01 -0.75908266001E-01 -0.15360907774E-01  0.88713771800E+00  0.88000000000E+00 0. -1.
        -11    1    4    4    0    0 -0.46878238641E-01  0.52481127040E-01 -0.43342028562E-03  0.70372487007E-01  0.51100000000E-03 0. -1.
         11    1    4    4    0    0 -0.53147499896E-01  0.30483166734E-01  0.52348002784E-03  0.61273284159E-01  0.51100000000E-03 0.  1.
</event>
<event>
 8    1  0.1204770E+005  0.1043930E+01  0.7957747E-01            NaN
         13   -1    0    0    0    0  0.00000000000E+00  0.00000000000E+00  0.74505805969E-08  0.10566000000E+00  0.10566000000E+00 0.  1.
     999900   -1    0    0    0    0 -0.00000000000E+00 -0.00000000000E+00 -0.74505805969E-08  0.93827000000E+00  0.93827000000E+00 0.  1.
     999902    2    1    2    0    0 -0.18761772190E-01 -0.33519115211E-02 -0.13148637246E-01  0.10207756037E+01  0.10205129627E+01 0.  0.
     999903    2    3    3    0    0 -0.79457270481E-01 -0.57490836524E-01  0.85366219743E-01  0.13155114173E+00  0.19991430701E-01 0.  0.
         14    1    1    2    0    0  0.18761772190E-01  0.33519115211E-02  0.13148637246E-01  0.23154396300E-01  0.00000000000E+00 0. -1.
     999901    1    3    3    0    0  0.60695498291E-01  0.54138925003E-01 -0.98514856990E-01  0.88922446197E+00  0.88000000000E+00 0.  1.
        -11    1    4    4    0    0 -0.63246273036E-01 -0.35110065201E-01  0.58942975830E-01  0.93313146191E-01  0.51100000000E-03 0. -1.
         11    1    4    4    0    0 -0.16210997445E-01 -0.22380771323E-01  0.26423243914E-01  0.38237995542E-01  0.51100000000E-03 0.  1.
</event>
<event>
 8    1  0.1204770E+005  0.1043930E+01  0.7957747E-01            NaN
         13   -1    0    0    0    0  0.00000000000E+00  0.00000000000E+00  0.74505805969E-08  0.10566000000E+00  0.10566000000E+00 0. -1.
     999900   -1    0    0    0    0 -0.00000000000E+00 -0.00000000000E+00 -0.74505805969E-08  0.93827000000E+00  0.93827000000E+00 0.  1.
     999902    2    1    2    0    0 -0.69301219576E-02 -0.19311455721E-01  0.11302166588E-01  0.10205056989E+01  0.10202368272E+01 0.  0.
     999903    2    3    3    0    0 -0.36360684008E-01 -0.12592049407E+00  0.13103973352E-01  0.13358129877E+00  0.22230139320E-01 0.  0.
         14    1    1    2    0    0  0.69301219576E-02  0.19311455721E-01 -0.11302166588E-01  0.23424301100E-01  0.00000000000E+00 0.  1.
     999901    1    3    3    0    0  0.29430562050E-01  0.10660903835E+00 -0.18018067642E-02  0.88692440013E+00  0.88000000000E+00 0. -1.
        -11    1    4    4    0    0 -0.16831866546E-01 -0.85731071409E-01  0.13678514734E-02  0.87379977541E-01  0.51100000000E-03 0. -1.
         11    1    4    4    0    0 -0.19528817462E-01 -0.40189422664E-01  0.11736121879E-01  0.46201321228E-01  0.51100000000E-03 0.  1.
</event>
<event>
 8    1  0.1204770E+005  0.1043930E+01  0.7957747E-01            NaN
         13   -1    0    0    0    0  0.00000000000E+00  0.00000000000E+00  0.74505805969E-08  0.10566000000E+00  0.10566000000E+00 0. -1.
     999900   -1    0    0    0    0 -0.00000000000E+00 -0.00000000000E+00 -0.74505805969E-08  0.93827000000E+00  0.93827000000E+00 0.  1.
     999902    2    1    2    0    0 -0.61589770613E-02 -0.13089895756E-01  0.18408350429E-01  0.10205174876E+01  0.10202488897E+01 0.  0.
     999903    2    3    3    0    0  0.89260504328E-01 -0.64807659733E-01  0.70049993162E-01  0.13234719778E+00  0.21007351668E-01 0.  0.
         14    1    1    2    0    0  0.61589770613E-02  0.13089895756E-01 -0.18408350429E-01  0.23412512357E-01  0.00000000000E+00 0.  1.
     999901    1    3    3    0    0 -0.95419481389E-01  0.51717763977E-01 -0.51641642733E-01  0.88817028987E+00  0.88000000000E+00 0.  1.
        -11    1    4    4    0    0  0.21205091435E-01 -0.52653764632E-02  0.13069715387E-01  0.25464851725E-01  0.51100000000E-03 0. -1.
         11    1    4    4    0    0  0.68055412893E-01 -0.59542283270E-01  0.56980277775E-01  0.10688234605E+00  0.51100000000E-03 0.  1.
</event>
<event>
 8    1  0.1204770E+005  0.1043930E+01  0.7957747E-01            NaN
         13   -1    0    0    0    0  0.00000000000E+00  0.00000000000E+00  0.74505805969E-08  0.10566000000E+00  0.10566000000E+00 0.  1.
     999900   -1    0    0    0    0 -0.00000000000E+00 -0.00000000000E+00 -0.74505805969E-08  0.93827000000E+00  0.93827000000E+00 0. -1.
     999902    2    1    2    0    0 -0.67926718423E-02 -0.14957792527E-01  0.17124059494E-01  0.10202000746E+01  0.10199240574E+01 0.  0.
     999903    2    3    3    0    0  0.78255541606E-01 -0.29837524510E-01  0.10024825047E+00  0.13207607637E+00  0.19497963077E-01 0.  0.
         14    1    1    2    0    0  0.67926718423E-02  0.14957792527E-01 -0.17124059494E-01  0.23729925444E-01  0.00000000000E+00 0. -1.
     999901    1    3    3    0    0 -0.85048213448E-01  0.14879731983E-01 -0.83124190980E-01  0.88812399819E+00  0.88000000000E+00 0.  1.
        -11    1    4    4    0    0  0.19026458882E-01 -0.68580636914E-02  0.38436892793E-01  0.43436102769E-01  0.51100000000E-03 0.  1.
         11    1    4    4    0    0  0.59229082724E-01 -0.22979460819E-01  0.61811357681E-01  0.88639973596E-01  0.51100000000E-03 0. -1.
</event>
<event>
 8    1  0.1204770E+005  0.1043930E+01  0.7957747E-01            NaN
         13   -1    0    0    0    0  0.00000000000E+00  0.00000000000E+00  0.74505805969E-08  0.10566000000E+00  0.10566000000E+00 0. -1.
     999900   -1    0    0    0    0 -0.00000000000E+00 -0.00000000000E+00 -0.74505805969E-08  0.93827000000E+00  0.93827000000E+00 0. -1.
     999902    2    1    2    0    0 -0.16450486027E-02  0.26305125969E-01  0.38930663630E-02  0.10172875188E+01  0.10169385793E+01 0.  0.
     999903    2    3    3    0    0  0.12473962014E+00 -0.10276158820E-01  0.13900963230E-01  0.12744964995E+00  0.19611328932E-01 0.  0.
         14    1    1    2    0    0  0.16450486027E-02 -0.26305125969E-01 -0.38930663630E-02  0.26642481170E-01  0.00000000000E+00 0.  1.
     999901    1    3    3    0    0 -0.12638466874E+00  0.36581284789E-01 -0.10007896867E-01  0.88983786888E+00  0.88000000000E+00 0.  1.
        -11    1    4    4    0    0  0.10268521883E+00 -0.15636552158E-01  0.92983836859E-02  0.10428555504E+00  0.51100000000E-03 0.  1.
         11    1    4    4    0    0  0.22054401302E-01  0.53603933380E-02  0.46025795438E-02  0.23164094909E-01  0.51100000000E-03 0. -1.
</event>
<event>
 8    1  0.1204770E+005  0.1043930E+01  0.7957747E-01            NaN
         13   -1    0    0    0    0  0.00000000000E+00  0.00000000000E+00  0.74505805969E-08  0.10566000000E+00  0.10566000000E+00 0. -1.
     999900   -1    0    0    0    0 -0.00000000000E+00 -0.00000000000E+00 -0.74505805969E-08  0.93827000000E+00  0.93827000000E+00 0. -1.
     999902    2    1    2    0    0  0.22540271034E-01  0.73717552216E-02  0.30364164740E-02  0.10200212899E+01  0.10197410482E+01 0.  0.
     999903    2    3    3    0    0 -0.98161410621E-01 -0.77308819481E-01  0.16877826953E-01  0.12764733224E+00  0.19916432395E-01 0.  0.
         14    1    1    2    0    0 -0.22540271034E-01 -0.73717552216E-02 -0.30364164740E-02  0.23908710093E-01  0.00000000000E+00 0.  1.
     999901    1    3    3    0    0  0.12070168166E+00  0.84680574703E-01 -0.13841410479E-01  0.89237395767E+00  0.88000000000E+00 0.  1.
        -11    1    4    4    0    0 -0.35959696916E-01 -0.24303489417E-01 -0.31021339796E-02  0.43516017240E-01  0.51100000000E-03 0. -1.
         11    1    4    4    0    0 -0.62201713705E-01 -0.53005330064E-01  0.19979960932E-01  0.84131314996E-01  0.51100000000E-03 0.  1.
</event>
<event>
 8    1  0.1204770E+005  0.1043930E+01  0.7957747E-01            NaN
         13   -1    0    0    0    0  0.00000000000E+00  0.00000000000E+00  0.74505805969E-08  0.10566000000E+00  0.10566000000E+00 0. -1.
     999900   -1    0    0    0    0 -0.00000000000E+00 -0.00000000000E+00 -0.74505805969E-08  0.93827000000E+00  0.93827000000E+00 0.  1.
     999902    2    1    2    0    0  0.20127650402E-01  0.11364630310E-01 -0.55561814930E-02  0.10201571523E+01  0.10198801239E+01 0.  0.
     999903    2    3    3    0    0  0.66760378167E-01  0.11068659244E+00  0.23873156022E-01  0.13285475217E+00  0.19286984111E-01 0.  0.
         14    1    1    2    0    0 -0.20127650402E-01 -0.11364630310E-01  0.55561814930E-02  0.23772847653E-01  0.00000000000E+00 0. -1.
     999901    1    3    3    0    0 -0.46632727765E-01 -0.99321962129E-01 -0.29429337515E-01  0.88730240018E+00  0.88000000000E+00 0. -1.
        -11    1    4    4    0    0  0.52467588799E-01  0.99636759148E-01  0.19980464612E-01  0.11436700457E+00  0.51100000000E-03 0. -1.
         11    1    4    4    0    0  0.14292789368E-01  0.11049833290E-01  0.38926914096E-02  0.18487747593E-01  0.51100000000E-03 0.  1.
</event>
<event>
 8    1  0.1204770E+005  0.1043930E+01  0.7957747E-01            NaN
         13   -1    0    0    0    0  0.00000000000E+00  0.00000000000E+00  0.74505805969E-08  0.10566000000E+00  0.10566000000E+00 0. -1.
     999900   -1    0    0    0    0 -0.00000000000E+00 -0.00000000000E+00 -0.74505805969E-08  0.93827000000E+00  0.93827000000E+00 0.  1.
     999902    2    1    2    0    0  0.96668982387E-02 -0.20761799777E-01 -0.64566294901E-02  0.10201352671E+01  0.10198577223E+01 0.  0.
     999903    2    3    3    0    0  0.59446953659E-01  0.10014336406E+00  0.50470301958E-01  0.12865515618E+00  0.21030077692E-01 0.  0.
         14    1    1    2    0    0 -0.96668982387E-02  0.20761799777E-01  0.64566294901E-02  0.23794732945E-01  0.00000000000E+00 0. -1.
     999901    1    3    3    0    0 -0.49780055420E-01 -0.12090516384E+00 -0.56926931448E-01  0.89148011087E+00  0.88000000000E+00 0. -1.
        -11    1    4    4    0    0  0.76122668621E-02  0.78604939123E-02  0.11450993022E-01  0.15846776755E-01  0.51100000000E-03 0.  1.
         11    1    4    4    0    0  0.51834686796E-01  0.92282870147E-01  0.39019308937E-01  0.11280837943E+00  0.51100000000E-03 0. -1.
</event>
<event>
 8    1  0.1204770E+005  0.1043930E+01  0.7957747E-01            NaN
         13   -1    0    0    0    0  0.00000000000E+00  0.00000000000E+00  0.74505805969E-08  0.10566000000E+00  0.10566000000E+00 0. -1.
     999900   -1    0    0    0    0 -0.00000000000E+00 -0.00000000000E+00 -0.74505805969E-08  0.93827000000E+00  0.93827000000E+00 0. -1.
     999902    2    1    2    0    0  0.37636874861E-02 -0.18409055829E-01  0.14383992615E-01  0.10202665699E+01  0.10199921155E+01 0.  0.
     999903    2    3    3    0    0  0.44851884491E-01  0.18321278033E-02 -0.11934749324E+00  0.12898543819E+00  0.19451757979E-01 0.  0.
         14    1    1    2    0    0 -0.37636874861E-02  0.18409055829E-01 -0.14383992615E-01  0.23663430088E-01  0.00000000000E+00 0.  1.
     999901    1    3    3    0    0 -0.41088197005E-01 -0.20241183632E-01  0.13373148586E+00  0.89128113172E+00  0.88000000000E+00 0.  1.
        -11    1    4    4    0    0  0.93512212361E-02  0.80144379422E-03 -0.52027323704E-01  0.52869567650E-01  0.51100000000E-03 0. -1.
         11    1    4    4    0    0  0.35500663255E-01  0.10306840091E-02 -0.67320169537E-01  0.76115870543E-01  0.51100000000E-03 0.  1.
</event>
<event>
 8    1  0.1204770E+005  0.1043930E+01  0.7957747E-01            NaN
         13   -1    0    0    0    0  0.00000000000E+00  0.00000000000E+00  0.74505805969E-08  0.10566000000E+00  0.10566000000E+00 0.  1.
     999900   -1    0    0    0    0 -0.00000000000E+00 -0.00000000000E+00 -0.74505805969E-08  0.93827000000E+00  0.93827000000E+00 0.  1.
     999902    2    1    2    0    0 -0.14104332815E-01  0.40918798914E-02 -0.18914632008E-01  0.10199834138E+01  0.10197022730E+01 0.  0.
     999903    2    3    3    0    0  0.27238549406E-01 -0.79108109230E-03  0.12299950828E+00  0.12764227927E+00  0.20520917054E-01 0.  0.
         14    1    1    2    0    0  0.14104332815E-01 -0.40918798914E-02  0.18914632008E-01  0.23946586170E-01  0.00000000000E+00 0.  1.
     999901    1    3    3    0    0 -0.41342882221E-01  0.48829609837E-02 -0.14191414029E+00  0.89234113456E+00  0.88000000000E+00 0.  1.
        -11    1    4    4    0    0 -0.67481067945E-04  0.58056510072E-02  0.26643844300E-01  0.27273901397E-01  0.51100000000E-03 0. -1.
         11    1    4    4    0    0  0.27306030474E-01 -0.65967320995E-02  0.96355663979E-01  0.10036837787E+00  0.51100000000E-03 0.  1.
</event>
<event>
 8    1  0.1204770E+005  0.1043930E+01  0.7957747E-01            NaN
         13   -1    0    0    0    0  0.00000000000E+00  0.00000000000E+00  0.74505805969E-08  0.10566000000E+00  0.10566000000E+00 0. -1.
     999900   -1    0    0    0    0 -0.00000000000E+00 -0.00000000000E+00 -0.74505805969E-08  0.93827000000E+00  0.93827000000E+00 0. -1.
     999902    2    1    2    0    0 -0.19586951263E-02  0.18748694495E-01  0.14048528876E-01  0.10204201894E+01  0.10201493281E+01 0.  0.
     999903    2    3    3    0    0  0.11000986797E-01 -0.12453413812E+00  0.22993003396E-01  0.12869269339E+00  0.20083771025E-01 0.  0.
         14    1    1    2    0    0  0.19586951263E-02 -0.18748694495E-01 -0.14048528876E-01  0.23509810622E-01  0.00000000000E+00 0. -1.
     999901    1    3    3    0    0 -0.12959681923E-01  0.14328283262E+00 -0.89444745196E-02  0.89172749599E+00  0.88000000000E+00 0. -1.
        -11    1    4    4    0    0  0.16933579122E-01 -0.92922744492E-01  0.17047287555E-01  0.95980485932E-01  0.51100000000E-03 0. -1.
         11    1    4    4    0    0 -0.59325923245E-02 -0.31611393630E-01  0.59457158413E-02  0.32712207458E-01  0.51100000000E-03 0.  1.
</event>
<event>
 8    1  0.1204770E+005  0.1043930E+01  0.7957747E-01            NaN
         13   -1    0    0    0    0  0.00000000000E+00  0.00000000000E+00  0.74505805969E-08  0.10566000000E+00  0.10566000000E+00 0.  1.
     999900   -1    0    0    0    0 -0.00000000000E+00 -0.00000000000E+00 -0.74505805969E-08  0.93827000000E+00  0.93827000000E+00 0.  1.
     999902    2    1    2    0    0  0.20426979459E-01 -0.79207036844E-02 -0.53735724283E-02  0.10213717572E+01  0.10211226137E+01 0.  0.
     999903    2    3    3    0    0  0.92924516598E-01 -0.74331380093E-01  0.57619236821E-01  0.13365876033E+00  0.19610403088E-01 0.  0.
         14    1    1    2    0    0 -0.20426979459E-01  0.79207036844E-02  0.53735724283E-02  0.22558242780E-01  0.00000000000E+00 0. -1.
     999901    1    3    3    0    0 -0.72497537139E-01  0.66410676409E-01 -0.62992809249E-01  0.88771299689E+00  0.88000000000E+00 0.  1.
        -11    1    4    4    0    0  0.40137850956E-01 -0.21098705427E-01  0.26191247752E-01  0.52368359053E-01  0.51100000000E-03 0.  1.
         11    1    4    4    0    0  0.52786665642E-01 -0.53232674666E-01  0.31427989069E-01  0.81290401276E-01  0.51100000000E-03 0. -1.
</event>
<event>
 8    1  0.1204770E+005  0.1043930E+01  0.7957747E-01            NaN
         13   -1    0    0    0    0  0.00000000000E+00  0.00000000000E+00  0.74505805969E-08  0.10566000000E+00  0.10566000000E+00 0. -1.
     999900   -1    0    0    0    0 -0.00000000000E+00 -0.00000000000E+00 -0.74505805969E-08  0.93827000000E+00  0.93827000000E+00 0.  1.
     999902    2    1    2    0    0  0.22463189683E-01 -0.58027587520E-02  0.36500868879E-02  0.10204440460E+01  0.10201737406E+01 0.  0.
     999903    2    3    3    0    0  0.94253025600E-01  0.32879116510E-02  0.91746188068E-01  0.13308992062E+00  0.20027999091E-01 0.  0.
         14    1    1    2    0    0 -0.22463189683E-01  0.58027587520E-02 -0.36500868879E-02  0.23485953976E-01  0.00000000000E+00 0.  1.
     999901    1    3    3    0    0 -0.71789835917E-01 -0.90906704030E-02 -0.88096101181E-01  0.88735412540E+00  0.88000000000E+00 0.  1.
        -11    1    4    4    0    0  0.13206527781E-01  0.24614365412E-02  0.49302758725E-02  0.14319210420E-01  0.51100000000E-03 0. -1.
         11    1    4    4    0    0  0.81046497819E-01  0.82647510977E-03  0.86815912196E-01  0.11877071020E+00  0.51100000000E-03 0.  1.
</event>
<event>
 8    1  0.1204770E+005  0.1043930E+01  0.7957747E-01            NaN
         13   -1    0    0    0    0  0.00000000000E+00  0.00000000000E+00  0.74505805969E-08  0.10566000000E+00  0.10566000000E+00 0. -1.
     999900   -1    0    0    0    0 -0.00000000000E+00 -0.00000000000E+00 -0.74505805969E-08  0.93827000000E+00  0.93827000000E+00 0.  1.
     999902    2    1    2    0    0 -0.11651452102E-01  0.66887412337E-02  0.20009024670E-01  0.10198290319E+01  0.10195442107E+01 0.  0.
     999903    2    3    3    0    0  0.10799006533E+00 -0.66337327607E-01 -0.30337418867E-02  0.12843805790E+00  0.20606695133E-01 0.  0.
         14    1    1    2    0    0  0.11651452102E-01 -0.66887412337E-02 -0.20009024670E-01  0.24100968105E-01  0.00000000000E+00 0.  1.
     999901    1    3    3    0    0 -0.11964151743E+00  0.73026068841E-01  0.23042766557E-01  0.89139097399E+00  0.88000000000E+00 0. -1.
        -11    1    4    4    0    0  0.49339897227E-01 -0.29954990962E-01 -0.11634222282E-01  0.58884150592E-01  0.51100000000E-03 0.  1.
         11    1    4    4    0    0  0.58650168102E-01 -0.36382336645E-01  0.86004803951E-02  0.69553907310E-01  0.51100000000E-03 0. -1.
</event>
<event>
 8    1  0.1204770E+005  0.1043930E+01  0.7957747E-01            NaN
         13   -1    0    0    0    0  0.00000000000E+00  0.00000000000E+00  0.74505805969E-08  0.10566000000E+00  0.10566000000E+00 0. -1.
     999900   -1    0    0    0    0 -0.00000000000E+00 -0.00000000000E+00 -0.74505805969E-08  0.93827000000E+00  0.93827000000E+00 0. -1.
     999902    2    1    2    0    0  0.19052784217E-01 -0.79386382739E-02 -0.14842571673E-01  0.10185069298E+01  0.10181895863E+01 0.  0.
     999903    2    3    3    0    0  0.12915566952E+00 -0.25892777511E-02  0.11289722824E-01  0.13124476008E+00  0.20244453061E-01 0.  0.
         14    1    1    2    0    0 -0.19052784217E-01  0.79386382739E-02  0.14842571673E-01  0.25423070191E-01  0.00000000000E+00 0. -1.
     999901    1    3    3    0    0 -0.11010288530E+00 -0.53493605228E-02 -0.26132294497E-01  0.88726216973E+00  0.88000000000E+00 0.  1.
        -11    1    4    4    0    0  0.70325245772E-01  0.14623979232E-02  0.15818954906E-01  0.72099093309E-01  0.51100000000E-03 0. -1.
         11    1    4    4    0    0  0.58830423747E-01 -0.40516756743E-02 -0.45292320815E-02  0.59145666775E-01  0.51100000000E-03 0.  1.
</event>
<event>
 8    1  0.1204770E+005  0.1043930E+01  0.7957747E-01            NaN
         13   -1    0    0    0    0  0.00000000000E+00  0.00000000000E+00  0.74505805969E-08  0.10566000000E+00  0.10566000000E+00 0. -1.
     999900   -1    0    0    0    0 -0.00000000000E+00 -0.00000000000E+00 -0.74505805969E-08  0.93827000000E+00  0.93827000000E+00 0.  1.
     999902    2    1    2    0    0 -0.92421300321E-02  0.15297154296E-02 -0.21588395482E-01  0.10203967083E+01  0.10201252994E+01 0.  0.
     999903    2    3    3    0    0 -0.12425687404E+00 -0.30043458653E-01  0.22210346944E-01  0.13127152790E+00  0.19913170790E-01 0.  0.
         14    1    1    2    0    0  0.92421300321E-02 -0.15297154296E-02  0.21588395482E-01  0.23533291659E-01  0.00000000000E+00 0. -1.
     999901    1    3    3    0    0  0.11501474401E+00  0.31573174083E-01 -0.43798742426E-01  0.88912518044E+00  0.88000000000E+00 0. -1.
        -11    1    4    4    0    0 -0.55111143839E-01 -0.11520512297E-01 -0.50072476955E-04  0.56304742315E-01  0.51100000000E-03 0.  1.
         11    1    4    4    0    0 -0.69145730201E-01 -0.18522946357E-01  0.22260419421E-01  0.74966785582E-01  0.51100000000E-03 0. -1.
</event>
<event>
 8    1  0.1204770E+005  0.1043930E+01  0.7957747E-01            NaN
         13   -1    0    0    0    0  0.00000000000E+00  0.00000000000E+00  0.74505805969E-08  0.10566000000E+00  0.10566000000E+00 0.  1.
     999900   -1    0    0    0    0 -0.00000000000E+00 -0.00000000000E+00 -0.74505805969E-08  0.93827000000E+00  0.93827000000E+00 0.  1.
     999902    2    1    2    0    0 -0.14982560250E-01  0.18319812945E-01  0.53283963162E-02  0.10196713012E+01  0.10193826946E+01 0.  0.
     999903    2    3    3    0    0  0.40996958031E-01 -0.27744590010E-01 -0.11637877299E+00  0.12834180507E+00  0.21842327823E-01 0.  0.
         14    1    1    2    0    0  0.14982560250E-01 -0.18319812945E-01 -0.53283963162E-02  0.24258698755E-01  0.00000000000E+00 0. -1.
     999901    1    3    3    0    0 -0.55979518281E-01  0.46064402955E-01  0.12170716930E+00  0.89132949617E+00  0.88000000000E+00 0. -1.
        -11    1    4    4    0    0  0.14783584368E-01 -0.16088982492E-02 -0.18795313538E-01  0.23972230858E-01  0.51100000000E-03 0.  1.
         11    1    4    4    0    0  0.26213373663E-01 -0.26135691761E-01 -0.97583459450E-01  0.10436957421E+00  0.51100000000E-03 0. -1.
</event>
<event>
 8    1  0.1204770E+005  0.1043930E+01  0.7957747E-01            NaN
         13   -1    0    0    0    0  0.00000000000E+00  0.00000000000E+00  0.74505805969E-08  0.10566000000E+00  0.10566000000E+00 0.  1.
     999900   -1    0    0    0    0 -0.00000000000E+00 -0.00000000000E+00 -0.74505805969E-08  0.93827000000E+00  0.93827000000E+00 0.  1.
     999902    2    1    2    0    0 -0.12973879750E-01 -0.20329550824E-01 -0.13932702362E-01  0.10160780272E+01  0.10156962267E+01 0.  0.
     999903    2    3    3    0    0  0.11910093985E+00 -0.35552622505E-01 -0.79223340147E-02  0.12607149668E+00  0.19550858221E-01 0.  0.
         14    1    1    2    0    0  0.12973879750E-01  0.20329550824E-01  0.13932702362E-01  0.27851972777E-01  0.00000000000E+00 0. -1.
     999901    1    3    3    0    0 -0.13207481960E+00  0.15223071681E-01 -0.60103683477E-02  0.89000653054E+00  0.88000000000E+00 0. -1.
        -11    1    4    4    0    0  0.67835720572E-01 -0.26191612442E-01 -0.12384983309E-01  0.73765401649E-01  0.51100000000E-03 0. -1.
         11    1    4    4    0    0  0.51265219283E-01 -0.93610100630E-02  0.44626492947E-02  0.52306095029E-01  0.51100000000E-03 0.  1.
</event>
<event>
 8    1  0.1204770E+005  0.1043930E+01  0.7957747E-01            NaN
         13   -1    0    0    0    0  0.00000000000E+00  0.00000000000E+00  0.74505805969E-08  0.10566000000E+00  0.10566000000E+00 0.  1.
     999900   -1    0    0    0    0 -0.00000000000E+00 -0.00000000000E+00 -0.74505805969E-08  0.93827000000E+00  0.93827000000E+00 0. -1.
     999902    2    1    2    0    0  0.12453611066E-01  0.19750714877E-01  0.19775497874E-02  0.10204972479E+01  0.10202281799E+01 0.  0.
     999903    2    3    3    0    0  0.73232248470E-01 -0.57380211921E-02  0.10749854967E+00  0.13174621425E+00  0.20130565946E-01 0.  0.
         14    1    1    2    0    0 -0.12453611066E-01 -0.19750714877E-01 -0.19775497874E-02  0.23432752077E-01  0.00000000000E+00 0.  1.
     999901    1    3    3    0    0 -0.60778637404E-01  0.25488736069E-01 -0.10552099989E+00  0.88875103367E+00  0.88000000000E+00 0. -1.
        -11    1    4    4    0    0  0.45378631961E-01 -0.92726884980E-02  0.80007462421E-01  0.92448137648E-01  0.51100000000E-03 0. -1.
         11    1    4    4    0    0  0.27853616509E-01  0.35346673059E-02  0.27491087252E-01  0.39298076606E-01  0.51100000000E-03 0.  1.
</event>
<event>
 8    1  0.1204770E+005  0.1043930E+01  0.7957747E-01            NaN
         13   -1    0    0    0    0  0.00000000000E+00  0.00000000000E+00  0.74505805969E-08  0.10566000000E+00  0.10566000000E+00 0. -1.
     999900   -1    0    0    0    0 -0.00000000000E+00 -0.00000000000E+00 -0.74505805969E-08  0.93827000000E+00  0.93827000000E+00 0. -1.
     999902    2    1    2    0    0 -0.29771516107E-01 -0.11747372932E-01  0.40885039984E-02  0.10116645416E+01  0.10111498825E+01 0.  0.
     999903    2    3    3    0    0  0.32618944489E-01  0.48485188450E-01 -0.10484558006E+00  0.12071719987E+00  0.12854479735E-01 0.  0.
         14    1    1    2    0    0  0.29771516107E-01  0.11747372932E-01 -0.40885039984E-02  0.32265458420E-01  0.00000000000E+00 0.  1.
     999901    1    3    3    0    0 -0.62390460595E-01 -0.60232561382E-01  0.10893408406E+00  0.89094734171E+00  0.88000000000E+00 0.  1.
        -11    1    4    4    0    0  0.10857587985E-01  0.22397442684E-01 -0.33942118975E-01  0.42093481884E-01  0.51100000000E-03 0.  1.
         11    1    4    4    0    0  0.21761356504E-01  0.26087745766E-01 -0.70903461083E-01  0.78623717990E-01  0.51100000000E-03 0. -1.
</event>
<event>
 8    1  0.1204770E+005  0.1043930E+01  0.7957747E-01            NaN
         13   -1    0    0    0    0  0.00000000000E+00  0.00000000000E+00  0.74505805969E-08  0.10566000000E+00  0.10566000000E+00 0.  1.
     999900   -1    0    0    0    0 -0.00000000000E+00 -0.00000000000E+00 -0.74505805969E-08  0.93827000000E+00  0.93827000000E+00 0.  1.
     999902    2    1    2    0    0  0.12050053567E-01  0.66040796222E-02  0.21446663361E-01  0.10184588982E+01  0.10181403392E+01 0.  0.
     999903    2    3    3    0    0 -0.37226352100E-01 -0.10328244188E+00 -0.59818745144E-01  0.12654675095E+00  0.19563583840E-01 0.  0.
         14    1    1    2    0    0 -0.12050053567E-01 -0.66040796222E-02 -0.21446663361E-01  0.25471101820E-01  0.00000000000E+00 0. -1.
     999901    1    3    3    0    0  0.49276405666E-01  0.10988652150E+00  0.81265408506E-01  0.89191214723E+00  0.88000000000E+00 0.  1.
        -11    1    4    4    0    0 -0.30796596307E-01 -0.57030887701E-01 -0.34787123471E-01  0.73561930211E-01  0.51100000000E-03 0.  1.
         11    1    4    4    0    0 -0.64297557930E-02 -0.46251554181E-01 -0.25031621673E-01  0.52984820735E-01  0.51100000000E-03 0. -1.
</event>
<event>
 8    1  0.1204770E+005  0.1043930E+01  0.7957747E-01            NaN
         13   -1    0    0    0    0  0.00000000000E+00  0.00000000000E+00  0.74505805969E-08  0.10566000000E+00  0.10566000000E+00 0.  1.
     999900   -1    0    0    0    0 -0.00000000000E+00 -0.00000000000E+00 -0.74505805969E-08  0.93827000000E+00  0.93827000000E+00 0.  1.
     999902    2    1    2    0    0 -0.12723822038E-02 -0.12741487082E-01  0.18841029300E-01  0.10211495515E+01  0.10208954196E+01 0.  0.
     999903    2    3    3    0    0  0.66120578959E-01 -0.64413256897E-01  0.94764263528E-01  0.13380738495E+00  0.20078645365E-01 0.  0.
         14    1    1    2    0    0  0.12723822038E-02  0.12741487082E-01 -0.18841029300E-01  0.22780448516E-01  0.00000000000E+00 0. -1.
     999901    1    3    3    0    0 -0.67392961163E-01  0.51671769815E-01 -0.75923234228E-01  0.88734216653E+00  0.88000000000E+00 0. -1.
        -11    1    4    4    0    0  0.21589658804E-01 -0.25414998506E-01  0.21771649789E-01  0.39828399062E-01  0.51100000000E-03 0.  1.
         11    1    4    4    0    0  0.44530920155E-01 -0.38998258391E-01  0.72992613739E-01  0.93978985889E-01  0.51100000000E-03 0. -1.
</event>
<event>
 8    1  0.1204770E+005  0.1043930E+01  0.7957747E-01            NaN
         13   -1    0    0    0    0  0.00000000000E+00  0.00000000000E+00  0.74505805969E-08  0.10566000000E+00  0.10566000000E+00 0.  1.
     999900   -1    0    0    0    0 -0.00000000000E+00 -0.00000000000E+00 -0.74505805969E-08  0.93827000000E+00  0.93827000000E+00 0. -1.
     999902    2    1    2    0    0 -0.50467314233E-02  0.23783771021E-02 -0.24359755360E-01  0.10189395247E+01  0.10186330208E+01 0.  0.
     999903    2    3    3    0    0  0.61026248504E-01  0.45242531808E-02  0.10887047046E+00  0.12645953245E+00  0.19863588166E-01 0.  0.
         14    1    1    2    0    0  0.50467314233E-02 -0.23783771021E-02  0.24359755360E-01  0.24990475324E-01  0.00000000000E+00 0.  1.
     999901    1    3    3    0    0 -0.66072979927E-01 -0.21458760787E-02 -0.13323022582E+00  0.89247999223E+00  0.88000000000E+00 0. -1.
        -11    1    4    4    0    0  0.25580498808E-01  0.12363421726E-02  0.65611035955E-01  0.70434079971E-01  0.51100000000E-03 0.  1.
         11    1    4    4    0    0  0.35445749696E-01  0.32879110082E-02  0.43259434505E-01  0.56025452475E-01  0.51100000000E-03 0. -1.
</event>
<event>
 8    1  0.1204770E+005  0.1043930E+01  0.7957747E-01            NaN
         13   -1    0    0    0    0  0.00000000000E+00  0.00000000000E+00  0.74505805969E-08  0.10566000000E+00  0.10566000000E+00 0.  1.
     999900   -1    0    0    0    0 -0.00000000000E+00 -0.00000000000E+00 -0.74505805969E-08  0.93827000000E+00  0.93827000000E+00 0.  1.
     999902    2    1    2    0    0 -0.10404670339E-01  0.14207553982E-01  0.15814976746E-01  0.10202609222E+01  0.10199863353E+01 0.  0.
     999903    2    3    3    0    0 -0.71237829573E-01  0.72531299980E-01  0.84424551688E-01  0.13357630724E+00  0.19480941695E-01 0.  0.
         14    1    1    2    0    0  0.10404670339E-01 -0.14207553982E-01 -0.15814976746E-01  0.23669077812E-01  0.00000000000E+00 0. -1.
     999901    1    3    3    0    0  0.60833159234E-01 -0.58323745998E-01 -0.68609574942E-01  0.88668461495E+00  0.88000000000E+00 0.  1.
        -11    1    4    4    0    0 -0.34843100230E-01  0.49153845681E-01  0.48728545424E-01  0.77491124904E-01  0.51100000000E-03 0. -1.
         11    1    4    4    0    0 -0.36394729344E-01  0.23377454299E-01  0.35696006265E-01  0.56085182337E-01  0.51100000000E-03 0.  1.
</event>
<event>
 8    1  0.1204770E+005  0.1043930E+01  0.7957747E-01            NaN
         13   -1    0    0    0    0  0.00000000000E+00  0.00000000000E+00  0.74505805969E-08  0.10566000000E+00  0.10566000000E+00 0.  1.
     999900   -1    0    0    0    0 -0.00000000000E+00 -0.00000000000E+00 -0.74505805969E-08  0.93827000000E+00  0.93827000000E+00 0.  1.
     999902    2    1    2    0    0  0.54273740133E-02 -0.21246350785E-01 -0.60867056153E-02  0.10211723245E+01  0.10209187061E+01 0.  0.
     999903    2    3    3    0    0  0.11178024372E+00 -0.94092013971E-02  0.66043980418E-01  0.13176022265E+00  0.20386097343E-01 0.  0.
         14    1    1    2    0    0 -0.54273740133E-02  0.21246350785E-01  0.60867056153E-02  0.22757675532E-01  0.00000000000E+00 0. -1.
     999901    1    3    3    0    0 -0.10635286971E+00 -0.11837149388E-01 -0.72130686034E-01  0.88941210182E+00  0.88000000000E+00 0.  1.
        -11    1    4    4    0    0  0.46002948105E-01 -0.13896634301E-01  0.29123220923E-01  0.56194401832E-01  0.51100000000E-03 0.  1.
         11    1    4    4    0    0  0.65777295616E-01  0.44874329043E-02  0.36920759495E-01  0.75565820814E-01  0.51100000000E-03 0. -1.
</event>
<event>
 8    1  0.1204770E+005  0.1043930E+01  0.7957747E-01            NaN
         13   -1    0    0    0    0  0.00000000000E+00  0.00000000000E+00  0.74505805969E-08  0.10566000000E+00  0.10566000000E+00 0. -1.
     999900   -1    0    0    0    0 -0.00000000000E+00 -0.00000000000E+00 -0.74505805969E-08  0.93827000000E+00  0.93827000000E+00 0.  1.
     999902    2    1    2    0    0  0.20526635854E-01 -0.71724537184E-02 -0.74157393519E-02  0.10209565357E+01  0.10206980296E+01 0.  0.
     999903    2    3    3    0    0  0.96935514027E-02 -0.12715891913E+00 -0.29141835133E-01  0.13248248946E+00  0.20952513092E-01 0.  0.
         14    1    1    2    0    0 -0.20526635854E-01  0.71724537184E-02  0.74157393519E-02  0.22973464301E-01  0.00000000000E+00 0.  1.
     999901    1    3    3    0    0  0.10833084452E-01  0.11998646541E+00  0.21726095781E-01  0.88847404624E+00  0.88000000000E+00 0.  1.
        -11    1    4    4    0    0  0.70096713732E-02 -0.10783526998E+00 -0.32129508824E-01  0.11273928953E+00  0.51100000000E-03 0. -1.
         11    1    4    4    0    0  0.26838800295E-02 -0.19323649149E-01  0.29876736908E-02  0.19743199931E-01  0.51100000000E-03 0.  1.
</event>
<event>
 8    1  0.1204770E+005  0.1043930E+01  0.7957747E-01            NaN
         13   -1    0    0    0    0  0.00000000000E+00  0.00000000000E+00  0.74505805969E-08  0.10566000000E+00  0.10566000000E+00 0.  1.
     999900   -1    0    0    0    0 -0.00000000000E+00 -0.00000000000E+00 -0.74505805969E-08  0.93827000000E+00  0.93827000000E+00 0.  1.
     999902    2    1    2    0    0  0.64142664714E-02  0.12536300917E-01  0.18567501008E-01  0.10206264863E+01  0.10203604122E+01 0.  0.
     999903    2    3    3    0    0 -0.41339800229E-01  0.97275513079E-01  0.78707244985E-01  0.13322692934E+00  0.19572423472E-01 0.  0.
         14    1    1    2    0    0 -0.64142664714E-02 -0.12536300917E-01 -0.18567501008E-01  0.23303513656E-01  0.00000000000E+00 0. -1.
     999901    1    3    3    0    0  0.47754066700E-01 -0.84739212163E-01 -0.60139743977E-01  0.88739955700E+00  0.88000000000E+00 0.  1.
        -11    1    4    4    0    0 -0.26546069611E-01  0.73479198113E-01  0.48197046770E-01  0.91799252749E-01  0.51100000000E-03 0. -1.
         11    1    4    4    0    0 -0.14793730618E-01  0.23796314967E-01  0.30510198215E-01  0.41427676591E-01  0.51100000000E-03 0.  1.
</event>
<event>
 8    1  0.1204770E+005  0.1043930E+01  0.7957747E-01            NaN
         13   -1    0    0    0    0  0.00000000000E+00  0.00000000000E+00  0.74505805969E-08  0.10566000000E+00  0.10566000000E+00 0. -1.
     999900   -1    0    0    0    0 -0.00000000000E+00 -0.00000000000E+00 -0.74505805969E-08  0.93827000000E+00  0.93827000000E+00 0. -1.
     999902    2    1    2    0    0 -0.11697290654E-01 -0.19054577484E-01  0.83014003480E-02  0.10200801199E+01  0.10198012720E+01 0.  0.
     999903    2    3    3    0    0 -0.11601598616E+00 -0.27926200604E-02  0.60263530287E-01  0.13224741922E+00  0.19752950076E-01 0.  0.
         14    1    1    2    0    0  0.11697290654E-01  0.19054577484E-01 -0.83014003480E-02  0.23849880073E-01  0.00000000000E+00 0. -1.
     999901    1    3    3    0    0  0.10431869551E+00 -0.16261957424E-01 -0.51962129939E-01  0.88783270070E+00  0.88000000000E+00 0.  1.
        -11    1    4    4    0    0 -0.17966805244E-01  0.22238886145E-02  0.23567839273E-02  0.18263825523E-01  0.51100000000E-03 0. -1.
         11    1    4    4    0    0 -0.98049180917E-01 -0.50165086749E-02  0.57906746360E-01  0.11398359370E+00  0.51100000000E-03 0.  1.
</event>
<event>
 8    1  0.1204770E+005  0.1043930E+01  0.7957747E-01            NaN
         13   -1    0    0    0    0  0.00000000000E+00  0.00000000000E+00  0.74505805969E-08  0.10566000000E+00  0.10566000000E+00 0.  1.
     999900   -1    0    0    0    0 -0.00000000000E+00 -0.00000000000E+00 -0.74505805969E-08  0.93827000000E+00  0.93827000000E+00 0. -1.
     999902    2    1    2    0    0 -0.15297647654E-01  0.18280076390E-01 -0.11683915276E-02  0.10200648716E+01  0.10197856627E+01 0.  0.
     999903    2    3    3    0    0 -0.71986598949E-01 -0.10525050651E+00  0.11521338213E-01  0.12954004240E+00  0.19701314766E-01 0.  0.
         14    1    1    2    0    0  0.15297647654E-01 -0.18280076390E-01  0.11683915276E-02  0.23865128437E-01  0.00000000000E+00 0.  1.
     999901    1    3    3    0    0  0.56688951295E-01  0.12353058290E+00 -0.12689729740E-01  0.89052482916E+00  0.88000000000E+00 0.  1.
        -11    1    4    4    0    0 -0.35436667578E-01 -0.53262190387E-01  0.15621525210E-01  0.65855231415E-01  0.51100000000E-03 0. -1.
         11    1    4    4    0    0 -0.36549931371E-01 -0.51988316119E-01 -0.41001869975E-02  0.63684810988E-01  0.51100000000E-03 0.  1.
</event>
<event>
 8    1  0.1204770E+005  0.1043930E+01  0.7957747E-01            NaN
         13   -1    0    0    0    0  0.00000000000E+00  0.00000000000E+00  0.74505805969E-08  0.10566000000E+00  0.10566000000E+00 0. -1.
     999900   -1    0    0    0    0 -0.00000000000E+00 -0.00000000000E+00 -0.74505805969E-08  0.93827000000E+00  0.93827000000E+00 0. -1.
     999902    2    1    2    0    0 -0.80663266786E-02  0.17771610249E-01  0.13102400646E-01  0.10204232210E+01  0.10201524304E+01 0.  0.
     999903    2    3    3    0    0 -0.24871681082E-01 -0.12288694414E+00  0.22763767630E-01  0.12904193844E+00  0.20342841504E-01 0.  0.
         14    1    1    2    0    0  0.80663266786E-02 -0.17771610249E-01 -0.13102400646E-01  0.23506779014E-01  0.00000000000E+00 0.  1.
     999901    1    3    3    0    0  0.16805354403E-01  0.14065855439E+00 -0.96613669845E-02  0.89138128254E+00  0.88000000000E+00 0. -1.
        -11    1    4    4    0    0  0.20649000200E-02 -0.30805865765E-01  0.86501846215E-02  0.32067927788E-01  0.51100000000E-03 0.  1.
         11    1    4    4    0    0 -0.26936581102E-01 -0.92081078373E-01  0.14113583009E-01  0.96974010653E-01  0.51100000000E-03 0. -1.
</event>
<event>
 8    1  0.1204770E+005  0.1043930E+01  0.7957747E-01            NaN
         13   -1    0    0    0    0  0.00000000000E+00  0.00000000000E+00  0.74505805969E-08  0.10566000000E+00  0.10566000000E+00 0. -1.
     999900   -1    0    0    0    0 -0.00000000000E+00 -0.00000000000E+00 -0.74505805969E-08  0.93827000000E+00  0.93827000000E+00 0.  1.
     999902    2    1    2    0    0  0.19854657151E-01 -0.43044881936E-02 -0.13055201931E-01  0.10197809974E+01  0.10194950261E+01 0.  0.
     999903    2    3    3    0    0 -0.48031462704E-01  0.10415100439E+00 -0.56680214586E-01  0.12945843738E+00  0.19808764692E-01 0.  0.
         14    1    1    2    0    0 -0.19854657151E-01  0.43044881936E-02  0.13055201931E-01  0.24149002601E-01  0.00000000000E+00 0. -1.
     999901    1    3    3    0    0  0.67886119855E-01 -0.10845549259E+00  0.43625012655E-01  0.89032256001E+00  0.88000000000E+00 0.  1.
        -11    1    4    4    0    0 -0.28103741899E-01  0.60219363807E-01 -0.43571099445E-01  0.79466306784E-01  0.51100000000E-03 0. -1.
         11    1    4    4    0    0 -0.19927720805E-01  0.43931640587E-01 -0.13109115141E-01  0.49992130601E-01  0.51100000000E-03 0.  1.
</event>
<event>
 8    1  0.1204770E+005  0.1043930E+01  0.7957747E-01            NaN
         13   -1    0    0    0    0  0.00000000000E+00  0.00000000000E+00  0.74505805969E-08  0.10566000000E+00  0.10566000000E+00 0.  1.
     999900   -1    0    0    0    0 -0.00000000000E+00 -0.00000000000E+00 -0.74505805969E-08  0.93827000000E+00  0.93827000000E+00 0.  1.
     999902    2    1    2    0    0 -0.75396160406E-03 -0.16237068541E-01 -0.16088312326E-01  0.10210598306E+01  0.10208036702E+01 0.  0.
     999903    2    3    3    0    0 -0.17947878658E-01 -0.73538218116E-01 -0.10890109557E+00  0.13415889747E+00  0.20227834339E-01 0.  0.
         14    1    1    2    0    0  0.75396160406E-03  0.16237068541E-01  0.16088312326E-01  0.22870169357E-01  0.00000000000E+00 0.  1.
     999901    1    3    3    0    0  0.17193917054E-01  0.57301149575E-01  0.92812783246E-01  0.88690093317E+00  0.88000000000E+00 0. -1.
        -11    1    4    4    0    0 -0.12780165128E-01 -0.34178374799E-01 -0.36658792615E-01  0.51726416091E-01  0.51100000000E-03 0.  1.
         11    1    4    4    0    0 -0.51677135293E-02 -0.39359843317E-01 -0.72242302957E-01  0.82432481381E-01  0.51100000000E-03 0. -1.
</event>
<event>
 8    1  0.1204770E+005  0.1043930E+01  0.7957747E-01            NaN
         13   -1    0    0    0    0  0.00000000000E+00  0.00000000000E+00  0.74505805969E-08  0.10566000000E+00  0.10566000000E+00 0.  1.
     999900   -1    0    0    0    0 -0.00000000000E+00 -0.00000000000E+00 -0.74505805969E-08  0.93827000000E+00  0.93827000000E+00 0. -1.
     999902    2    1    2    0    0  0.16509714998E-01  0.20333885142E-01 -0.72525535122E-02  0.10167521210E+01  0.10163888225E+01 0.  0.
     999903    2    3    3    0    0 -0.99443366030E-03  0.11936049447E+00  0.45994179250E-01  0.12942586808E+00  0.19689445501E-01 0.  0.
         14    1    1    2    0    0 -0.16509714998E-01 -0.20333885142E-01  0.72525535122E-02  0.27177878996E-01  0.00000000000E+00 0. -1.
     999901    1    3    3    0    0  0.17504148658E-01 -0.99026609333E-01 -0.53246732762E-01  0.88732625292E+00  0.88000000000E+00 0. -1.
        -11    1    4    4    0    0 -0.78081644058E-02  0.48241357480E-01  0.12101379605E-01  0.50347795505E-01  0.51100000000E-03 0.  1.
         11    1    4    4    0    0  0.68137307455E-02  0.71119136995E-01  0.33892799645E-01  0.79078072576E-01  0.51100000000E-03 0. -1.
</event>
<event>
 8    1  0.1204770E+005  0.1043930E+01  0.7957747E-01            NaN
         13   -1    0    0    0    0  0.00000000000E+00  0.00000000000E+00  0.74505805969E-08  0.10566000000E+00  0.10566000000E+00 0.  1.
     999900   -1    0    0    0    0 -0.00000000000E+00 -0.00000000000E+00 -0.74505805969E-08  0.93827000000E+00  0.93827000000E+00 0. -1.
     999902    2    1    2    0    0 -0.13523540183E-05  0.81955889728E-02 -0.25812799906E-01  0.10168473798E+01  0.10164866578E+01 0.  0.
     999903    2    3    3    0    0  0.11266871934E+00 -0.42149867158E-01  0.32780592378E-01  0.12630687218E+00  0.20199185747E-01 0.  0.
         14    1    1    2    0    0  0.13523540183E-05 -0.81955889728E-02  0.25812799906E-01  0.27082620247E-01  0.00000000000E+00 0.  1.
     999901    1    3    3    0    0 -0.11267007169E+00  0.50345456131E-01 -0.58593392284E-01  0.89054050757E+00  0.88000000000E+00 0. -1.
        -11    1    4    4    0    0  0.40805505154E-01 -0.14679252904E-01  0.21965705425E-01  0.48614021151E-01  0.51100000000E-03 0.  1.
         11    1    4    4    0    0  0.71863214184E-01 -0.27470614253E-01  0.10814886954E-01  0.77692851030E-01  0.51100000000E-03 0. -1.
</event>
<event>
 8    1  0.1204770E+005  0.1043930E+01  0.7957747E-01            NaN
         13   -1    0    0    0    0  0.00000000000E+00  0.00000000000E+00  0.74505805969E-08  0.10566000000E+00  0.10566000000E+00 0. -1.
     999900   -1    0    0    0    0 -0.00000000000E+00 -0.00000000000E+00 -0.74505805969E-08  0.93827000000E+00  0.93827000000E+00 0. -1.
     999902    2    1    2    0    0  0.71985356769E-02 -0.16391595335E-01  0.14917804110E-01  0.10206266914E+01  0.10203606220E+01 0.  0.
     999903    2    3    3    0    0  0.35101226935E-01 -0.10641647870E+00  0.70342554836E-01  0.13386012525E+00  0.20344410538E-01 0.  0.
         14    1    1    2    0    0 -0.71985356769E-02  0.16391595335E-01 -0.14917804110E-01  0.23303308628E-01  0.00000000000E+00 0.  1.
     999901    1    3    3    0    0 -0.27902691258E-01  0.90024883360E-01 -0.55424750726E-01  0.88676656612E+00  0.88000000000E+00 0. -1.
        -11    1    4    4    0    0  0.21648857828E-01 -0.55914673382E-01  0.26149866680E-01  0.65415597475E-01  0.51100000000E-03 0. -1.
         11    1    4    4    0    0  0.13452369107E-01 -0.50501805314E-01  0.44192688156E-01  0.68444527772E-01  0.51100000000E-03 0.  1.
</event>
<event>
 8    1  0.1204770E+005  0.1043930E+01  0.7957747E-01            NaN
         13   -1    0    0    0    0  0.00000000000E+00  0.00000000000E+00  0.74505805969E-08  0.10566000000E+00  0.10566000000E+00 0. -1.
     999900   -1    0    0    0    0 -0.00000000000E+00 -0.00000000000E+00 -0.74505805969E-08  0.93827000000E+00  0.93827000000E+00 0. -1.
     999902    2    1    2    0    0 -0.13406859065E-01 -0.11123805501E-01  0.16302914957E-01  0.10200706632E+01  0.10197915914E+01 0.  0.
     999903    2    3    3    0    0  0.85694571881E-01 -0.94582195174E-01 -0.15033981111E-01  0.13003223843E+00  0.19824508810E-01 0.  0.
         14    1    1    2    0    0  0.13406859065E-01  0.11123805501E-01 -0.16302914957E-01  0.23859336849E-01  0.00000000000E+00 0.  1.
     999901    1    3    3    0    0 -0.99101430946E-01  0.83458389673E-01  0.31336896068E-01  0.89003842472E+00  0.88000000000E+00 0. -1.
        -11    1    4    4    0    0  0.25849465053E-01 -0.18833555555E-01  0.18008848708E-02  0.32037508731E-01  0.51100000000E-03 0.  1.
         11    1    4    4    0    0  0.59845106828E-01 -0.75748639619E-01 -0.16834865981E-01  0.97994729700E-01  0.51100000000E-03 0. -1.
</event>
<event>
 8    1  0.1204770E+005  0.1043930E+01  0.7957747E-01            NaN
         13   -1    0    0    0    0  0.00000000000E+00  0.00000000000E+00  0.74505805969E-08  0.10566000000E+00  0.10566000000E+00 0.  1.
     999900   -1    0    0    0    0 -0.00000000000E+00 -0.00000000000E+00 -0.74505805969E-08  0.93827000000E+00  0.93827000000E+00 0.  1.
     999902    2    1    2    0    0 -0.84058506408E-02 -0.21574516154E-01 -0.59126285612E-02  0.10200327774E+01  0.10197528081E+01 0.  0.
     999903    2    3    3    0    0 -0.61672082556E-01 -0.11107871264E+00  0.33674989902E-01  0.13300658150E+00  0.20367120751E-01 0.  0.
         14    1    1    2    0    0  0.84058506408E-02  0.21574516154E-01  0.59126285612E-02  0.23897222617E-01  0.00000000000E+00 0.  1.
     999901    1    3    3    0    0  0.53266231916E-01  0.89504196488E-01 -0.39587618464E-01  0.88702619589E+00  0.88000000000E+00 0.  1.
        -11    1    4    4    0    0 -0.54871805131E-01 -0.81053096212E-01  0.25867535781E-01  0.10124183884E+00  0.51100000000E-03 0.  1.
         11    1    4    4    0    0 -0.68002774256E-02 -0.30025616430E-01  0.78074541219E-02  0.31764742655E-01  0.51100000000E-03 0. -1.
</event>
<event>
 8    1  0.1204770E+005  0.1043930E+01  0.7957747E-01            NaN
         13   -1    0    0    0    0  0.00000000000E+00  0.00000000000E+00  0.74505805969E-08  0.10566000000E+00  0.10566000000E+00 0. -1.
     999900   -1    0    0    0    0 -0.00000000000E+00 -0.00000000000E+00 -0.74505805969E-08  0.93827000000E+00  0.93827000000E+00 0.  1.
     999902    2    1    2    0    0 -0.13775759293E-01  0.12583638907E-01  0.14431192728E-01  0.10203423160E+01  0.10200696364E+01 0.  0.
     999903    2    3    3    0    0  0.63764588392E-01 -0.67081342731E-01 -0.85745382234E-01  0.12770893047E+00  0.19785627908E-01 0.  0.
         14    1    1    2    0    0  0.13775759293E-01 -0.12583638907E-01 -0.14431192728E-01  0.23587683986E-01  0.00000000000E+00 0.  1.
     999901    1    3    3    0    0 -0.77540347685E-01  0.79664981638E-01  0.10017657496E+00  0.89263338555E+00  0.88000000000E+00 0. -1.
        -11    1    4    4    0    0  0.18138784367E-01 -0.30688925559E-01 -0.25531824483E-01  0.43851577311E-01  0.51100000000E-03 0. -1.
         11    1    4    4    0    0  0.45625804025E-01 -0.36392417172E-01 -0.60213557752E-01  0.83857353158E-01  0.51100000000E-03 0.  1.
</event>
<event>
 8    1  0.1204770E+005  0.1043930E+01  0.7957747E-01            NaN
         13   -1    0    0    0    0  0.00000000000E+00  0.00000000000E+00  0.74505805969E-08  0.10566000000E+00  0.10566000000E+00 0. -1.
     999900   -1    0    0    0    0 -0.00000000000E+00 -0.00000000000E+00 -0.74505805969E-08  0.93827000000E+00  0.93827000000E+00 0.  1.
     999902    2    1    2    0    0 -0.12871072880E-01  0.17801793706E-01  0.72196268316E-02  0.10208066052E+01  0.10205446751E+01 0.  0.
     999903    2    3    3    0    0 -0.20946826517E-01 -0.46102215395E-01 -0.11780956384E+00  0.12963813699E+00  0.19046506909E-01 0.  0.
         14    1    1    2    0    0  0.12871072880E-01 -0.17801793706E-01 -0.72196268316E-02  0.23123394816E-01  0.00000000000E+00 0. -1.
     999901    1    3    3    0    0  0.80757536371E-02  0.63904009101E-01  0.12502919067E+00  0.89116846819E+00  0.88000000000E+00 0. -1.
        -11    1    4    4    0    0 -0.79448305800E-02 -0.36041055725E-01 -0.90789875993E-01  0.98005819902E-01  0.51100000000E-03 0.  1.
         11    1    4    4    0    0 -0.13001995937E-01 -0.10061159670E-01 -0.27019687848E-01  0.31632317092E-01  0.51100000000E-03 0. -1.
</event>
<event>
 8    1  0.1204770E+005  0.1043930E+01  0.7957747E-01            NaN
         13   -1    0    0    0    0  0.00000000000E+00  0.00000000000E+00  0.74505805969E-08  0.10566000000E+00  0.10566000000E+00 0.  1.
     999900   -1    0    0    0    0 -0.00000000000E+00 -0.00000000000E+00 -0.74505805969E-08  0.93827000000E+00  0.93827000000E+00 0.  1.
     999902    2    1    2    0    0 -0.33927914660E-01 -0.36414064379E-02  0.17407295617E-02  0.10097628612E+01  0.10091846424E+01 0.  0.
     999903    2    3    3    0    0 -0.83684785457E-01 -0.89285822029E-01  0.39500464326E-02  0.12420338088E+00  0.20875239465E-01 0.  0.
         14    1    1    2    0    0  0.33927914660E-01  0.36414064379E-02 -0.17407295617E-02  0.34167138795E-01  0.00000000000E+00 0. -1.
     999901    1    3    3    0    0  0.49756870798E-01  0.85644415591E-01 -0.22093168709E-02  0.88555948033E+00  0.88000000000E+00 0. -1.
        -11    1    4    4    0    0 -0.76780521521E-01 -0.73215843537E-01 -0.70485145300E-03  0.10609696587E+00  0.51100000000E-03 0.  1.
         11    1    4    4    0    0 -0.69042639358E-02 -0.16069978493E-01  0.46548978856E-02  0.18106415012E-01  0.51100000000E-03 0. -1.
</event>
<event>
 8    1  0.1204770E+005  0.1043930E+01  0.7957747E-01            NaN
         13   -1    0    0    0    0  0.00000000000E+00  0.00000000000E+00  0.74505805969E-08  0.10566000000E+00  0.10566000000E+00 0.  1.
     999900   -1    0    0    0    0 -0.00000000000E+00 -0.00000000000E+00 -0.74505805969E-08  0.93827000000E+00  0.93827000000E+00 0. -1.
     999902    2    1    2    0    0 -0.11039837676E-01  0.59980383994E-02  0.20021345948E-01  0.10202929787E+01  0.10200191438E+01 0.  0.
     999903    2    3    3    0    0 -0.10569277612E-01 -0.10904789134E+00 -0.64664801323E-01  0.12877319157E+00  0.19946079829E-01 0.  0.
         14    1    1    2    0    0  0.11039837676E-01 -0.59980383994E-02 -0.20021345948E-01  0.23637021262E-01  0.00000000000E+00 0. -1.
     999901    1    3    3    0    0 -0.47056006361E-03  0.11504592974E+00  0.84686147272E-01  0.89151978717E+00  0.88000000000E+00 0. -1.
        -11    1    4    4    0    0 -0.52869998662E-02 -0.72322180024E-01 -0.31717414858E-01  0.79149893350E-01  0.51100000000E-03 0. -1.
         11    1    4    4    0    0 -0.52822777458E-02 -0.36725711320E-01 -0.32947386465E-01  0.49623298218E-01  0.51100000000E-03 0.  1.
</event>
<event>
 8    1  0.1204770E+005  0.1043930E+01  0.7957747E-01            NaN
         13   -1    0    0    0    0  0.00000000000E+00  0.00000000000E+00  0.74505805969E-08  0.10566000000E+00  0.10566000000E+00 0. -1.
     999900   -1    0    0    0    0 -0.00000000000E+00 -0.00000000000E+00 -0.74505805969E-08  0.93827000000E+00  0.93827000000E+00 0.  1.
     999902    2    1    2    0    0 -0.78711071787E-02 -0.19753121414E-01  0.94166234600E-02  0.10206746150E+01  0.10204096515E+01 0.  0.
     999903    2    3    3    0    0 -0.12152496255E+00  0.28180689009E-01  0.37073540230E-01  0.13164157059E+00  0.19813832694E-01 0.  0.
         14    1    1    2    0    0  0.78711071787E-02  0.19753121414E-01 -0.94166234600E-02  0.23255384993E-01  0.00000000000E+00 0. -1.
     999901    1    3    3    0    0  0.11365385537E+00 -0.47933810423E-01 -0.27656916770E-01  0.88903304442E+00  0.88000000000E+00 0.  1.
        -11    1    4    4    0    0 -0.56707192703E-01  0.21500339559E-01  0.23734232303E-01  0.65127146486E-01  0.51100000000E-03 0. -1.
         11    1    4    4    0    0 -0.64817769847E-01  0.66803494500E-02  0.13339307928E-01  0.66514424102E-01  0.51100000000E-03 0.  1.
</event>
<event>
 8    1  0.1204770E+005  0.1043930E+01  0.7957747E-01            NaN
         13   -1    0    0    0    0  0.00000000000E+00  0.00000000000E+00  0.74505805969E-08  0.10566000000E+00  0.10566000000E+00 0. -1.
     999900   -1    0    0    0    0 -0.00000000000E+00 -0.00000000000E+00 -0.74505805969E-08  0.93827000000E+00  0.93827000000E+00 0.  1.
     999902    2    1    2    0    0  0.13651782630E-01  0.39833640001E-02 -0.14693072591E-01  0.10234819013E+01  0.10232776151E+01 0.  0.
     999903    2    3    3    0    0 -0.45137400900E-01  0.11332310388E+00  0.48930561629E-01  0.13249407107E+00  0.16762105253E-01 0.  0.
         14    1    1    2    0    0 -0.13651782630E-01 -0.39833640001E-02  0.14693072591E-01  0.20448098687E-01  0.00000000000E+00 0. -1.
     999901    1    3    3    0    0  0.58789183529E-01 -0.10933973988E+00 -0.63623634220E-01  0.89098783025E+00  0.88000000000E+00 0.  1.
        -11    1    4    4    0    0 -0.18631777033E-01  0.30346707508E-01  0.93854879566E-02  0.36829529961E-01  0.51100000000E-03 0.  1.
         11    1    4    4    0    0 -0.26505623867E-01  0.82976396375E-01  0.39545073673E-01  0.95664541105E-01  0.51100000000E-03 0. -1.
</event>
<event>
 8    1  0.1204770E+005  0.1043930E+01  0.7957747E-01            NaN
         13   -1    0    0    0    0  0.00000000000E+00  0.00000000000E+00  0.74505805969E-08  0.10566000000E+00  0.10566000000E+00 0.  1.
     999900   -1    0    0    0    0 -0.00000000000E+00 -0.00000000000E+00 -0.74505805969E-08  0.93827000000E+00  0.93827000000E+00 0.  1.
     999902    2    1    2    0    0  0.17290957601E-02 -0.10843480148E-01  0.20808940088E-01  0.10204016592E+01  0.10201303658E+01 0.  0.
     999903    2    3    3    0    0  0.45899637481E-01 -0.11765741122E+00 -0.29686016526E-01  0.13140784972E+00  0.20897852888E-01 0.  0.
         14    1    1    2    0    0 -0.17290957601E-02  0.10843480148E-01 -0.20808940088E-01  0.23528340814E-01  0.00000000000E+00 0. -1.
     999901    1    3    3    0    0 -0.44170541721E-01  0.10681393107E+00  0.50494956614E-01  0.88899380947E+00  0.88000000000E+00 0. -1.
        -11    1    4    4    0    0  0.17093199705E-01 -0.26657289369E-01 -0.80121119807E-03  0.31681092359E-01  0.51100000000E-03 0.  1.
         11    1    4    4    0    0  0.28806437776E-01 -0.91000121849E-01 -0.28884805328E-01  0.99726757360E-01  0.51100000000E-03 0. -1.
</event>
<event>
 8    1  0.1204770E+005  0.1043930E+01  0.7957747E-01            NaN
         13   -1    0    0    0    0  0.00000000000E+00  0.00000000000E+00  0.74505805969E-08  0.10566000000E+00  0.10566000000E+00 0.  1.
     999900   -1    0    0    0    0 -0.00000000000E+00 -0.00000000000E+00 -0.74505805969E-08  0.93827000000E+00  0.93827000000E+00 0. -1.
     999902    2    1    2    0    0  0.23068121307E-02  0.23641284413E-01 -0.34555559720E-02  0.10199264049E+01  0.10196439079E+01 0.  0.
     999903    2    3    3    0    0 -0.82276708140E-01 -0.92144110933E-01  0.25887935767E-01  0.12783802912E+00  0.20307205372E-01 0.  0.
         14    1    1    2    0    0 -0.23068121307E-02 -0.23641284413E-01  0.34555559720E-02  0.24003595106E-01  0.00000000000E+00 0.  1.
     999901    1    3    3    0    0  0.84583520271E-01  0.11578539535E+00 -0.29343491739E-01  0.89208837577E+00  0.88000000000E+00 0. -1.
        -11    1    4    4    0    0 -0.38212884738E-01 -0.28157376237E-01  0.85244416748E-02  0.48228514630E-01  0.51100000000E-03 0. -1.
         11    1    4    4    0    0 -0.44063823402E-01 -0.63986734696E-01  0.17363494093E-01  0.79609514494E-01  0.51100000000E-03 0.  1.
</event>
<event>
 8    1  0.1204770E+005  0.1043930E+01  0.7957747E-01            NaN
         13   -1    0    0    0    0  0.00000000000E+00  0.00000000000E+00  0.74505805969E-08  0.10566000000E+00  0.10566000000E+00 0.  1.
     999900   -1    0    0    0    0 -0.00000000000E+00 -0.00000000000E+00 -0.74505805969E-08  0.93827000000E+00  0.93827000000E+00 0.  1.
     999902    2    1    2    0    0 -0.21491608161E-01 -0.22269747125E-02  0.10950581591E-01  0.10197067906E+01  0.10194190379E+01 0.  0.
     999903    2    3    3    0    0  0.94590760831E-02 -0.11659655275E+00  0.54679640956E-01  0.13069015638E+00  0.20145064109E-01 0.  0.
         14    1    1    2    0    0  0.21491608161E-01  0.22269747125E-02 -0.10950581591E-01  0.24223209426E-01  0.00000000000E+00 0. -1.
     999901    1    3    3    0    0 -0.30950684244E-01  0.11436957803E+00 -0.43729059365E-01  0.88901663419E+00  0.88000000000E+00 0. -1.
        -11    1    4    4    0    0  0.94999760024E-02 -0.20763706774E-01  0.94155931687E-02  0.24704161163E-01  0.51100000000E-03 0. -1.
         11    1    4    4    0    0 -0.40899919319E-04 -0.95832845971E-01  0.45264047787E-01  0.10598599522E+00  0.51100000000E-03 0.  1.
</event>
<event>
 8    1  0.1204770E+005  0.1043930E+01  0.7957747E-01            NaN
         13   -1    0    0    0    0  0.00000000000E+00  0.00000000000E+00  0.74505805969E-08  0.10566000000E+00  0.10566000000E+00 0.  1.
     999900   -1    0    0    0    0 -0.00000000000E+00 -0.00000000000E+00 -0.74505805969E-08  0.93827000000E+00  0.93827000000E+00 0. -1.
     999902    2    1    2    0    0 -0.99680704906E-02  0.52545142904E-02  0.20210282425E-01  0.10207906857E+01  0.10205283907E+01 0.  0.
     999903    2    3    3    0    0 -0.12681722162E+00 -0.26718095185E-02  0.33767199827E-01  0.13292789185E+00  0.20972705641E-01 0.  0.
         14    1    1    2    0    0  0.99680704906E-02 -0.52545142904E-02 -0.20210282425E-01  0.23139314282E-01  0.00000000000E+00 0. -1.
     999901    1    3    3    0    0  0.11684915113E+00  0.79263238088E-02 -0.13556917403E-01  0.88786279387E+00  0.88000000000E+00 0. -1.
        -11    1    4    4    0    0 -0.79872079663E-01 -0.67588089586E-03  0.10729133867E-01  0.80593928798E-01  0.51100000000E-03 0.  1.
         11    1    4    4    0    0 -0.46945141956E-01 -0.19959286226E-02  0.23038065960E-01  0.52333963050E-01  0.51100000000E-03 0. -1.
</event>
<event>
 8    1  0.1204770E+005  0.1043930E+01  0.7957747E-01            NaN
         13   -1    0    0    0    0  0.00000000000E+00  0.00000000000E+00  0.74505805969E-08  0.10566000000E+00  0.10566000000E+00 0.  1.
     999900   -1    0    0    0    0 -0.00000000000E+00 -0.00000000000E+00 -0.74505805969E-08  0.93827000000E+00  0.93827000000E+00 0. -1.
     999902    2    1    2    0    0 -0.45412619209E-04 -0.21330344687E-01  0.13600168397E-01  0.10186327621E+01  0.10183185915E+01 0.  0.
     999903    2    3    3    0    0  0.26196839250E-01  0.10340253746E+00  0.67814918445E-01  0.12779821694E+00  0.18845740877E-01 0.  0.
         14    1    1    2    0    0  0.45412619209E-04  0.21330344687E-01 -0.13600168397E-01  0.25297237936E-01  0.00000000000E+00 0. -1.
     999901    1    3    3    0    0 -0.26242251870E-01 -0.12473288214E+00 -0.54214750048E-01  0.89083454513E+00  0.88000000000E+00 0.  1.
        -11    1    4    4    0    0  0.21123849707E-02  0.42430993908E-01  0.31164100819E-01  0.52690736521E-01  0.51100000000E-03 0. -1.
         11    1    4    4    0    0  0.24084454280E-01  0.60971543548E-01  0.36650817626E-01  0.75107480415E-01  0.51100000000E-03 0.  1.
</event>
<event>
 8    1  0.1204770E+005  0.1043930E+01  0.7957747E-01            NaN
         13   -1    0    0    0    0  0.00000000000E+00  0.00000000000E+00  0.74505805969E-08  0.10566000000E+00  0.10566000000E+00 0. -1.
     999900   -1    0    0    0    0 -0.00000000000E+00 -0.00000000000E+00 -0.74505805969E-08  0.93827000000E+00  0.93827000000E+00 0. -1.
     999902    2    1    2    0    0  0.10311392965E-02  0.21887739797E-01  0.74600427141E-02  0.10207828913E+01  0.10205204175E+01 0.  0.
     999903    2    3    3    0    0 -0.94424275451E-02 -0.42285039614E-01 -0.11989694262E+00  0.12924060804E+00  0.21229081548E-01 0.  0.
         14    1    1    2    0    0 -0.10311392965E-02 -0.21887739797E-01 -0.74600427141E-02  0.23147108652E-01  0.00000000000E+00 0.  1.
     999901    1    3    3    0    0  0.10473566842E-01  0.64172779411E-01  0.12735698533E+00  0.89154228331E+00  0.88000000000E+00 0.  1.
        -11    1    4    4    0    0  0.28015114060E-02 -0.89436516137E-02 -0.49579270269E-01  0.50459910144E-01  0.51100000000E-03 0. -1.
         11    1    4    4    0    0 -0.12243938951E-01 -0.33341388000E-01 -0.70317672349E-01  0.78780697892E-01  0.51100000000E-03 0.  1.
</event>
<event>
 8    1  0.1204770E+005  0.1043930E+01  0.7957747E-01            NaN
         13   -1    0    0    0    0  0.00000000000E+00  0.00000000000E+00  0.74505805969E-08  0.10566000000E+00  0.10566000000E+00 0. -1.
     999900   -1    0    0    0    0 -0.00000000000E+00 -0.00000000000E+00 -0.74505805969E-08  0.93827000000E+00  0.93827000000E+00 0. -1.
     999902    2    1    2    0    0 -0.23961403755E-01  0.94288343608E-03 -0.13598149094E-02  0.10199115280E+01  0.10196286765E+01 0.  0.
     999903    2    3    3    0    0  0.11490478578E+00  0.50400927141E-01  0.12379740017E-01  0.12754462364E+00  0.19261614790E-01 0.  0.
         14    1    1    2    0    0  0.23961403755E-01 -0.94288343608E-03  0.13598149094E-02  0.24018471968E-01  0.00000000000E+00 0.  1.
     999901    1    3    3    0    0 -0.13886618954E+00 -0.49458043705E-01 -0.13739554926E-01  0.89236690439E+00  0.88000000000E+00 0. -1.
        -11    1    4    4    0    0  0.46372108374E-01  0.16426342024E-01  0.13593108834E-01  0.51041462324E-01  0.51100000000E-03 0.  1.
         11    1    4    4    0    0  0.68532677408E-01  0.33974585117E-01 -0.12133688167E-02  0.76503161317E-01  0.51100000000E-03 0. -1.
</event>
<event>
 8    1  0.1204770E+005  0.1043930E+01  0.7957747E-01            NaN
         13   -1    0    0    0    0  0.00000000000E+00  0.00000000000E+00  0.74505805969E-08  0.10566000000E+00  0.10566000000E+00 0.  1.
     999900   -1    0    0    0    0 -0.00000000000E+00 -0.00000000000E+00 -0.74505805969E-08  0.93827000000E+00  0.93827000000E+00 0.  1.
     999902    2    1    2    0    0  0.23638380259E-01  0.69998664614E-04 -0.33799250246E-02  0.10200511011E+01  0.10197715661E+01 0.  0.
     999903    2    3    3    0    0 -0.82353632240E-01  0.82436594249E-01  0.51037120118E-01  0.12821043280E+00  0.15975438433E-01 0.  0.
         14    1    1    2    0    0 -0.23638380259E-01 -0.69998664614E-04  0.33799250246E-02  0.23878898933E-01  0.00000000000E+00 0. -1.
     999901    1    3    3    0    0  0.10599201250E+00 -0.82366595585E-01 -0.54417045143E-01  0.89184066827E+00  0.88000000000E+00 0.  1.
        -11    1    4    4    0    0 -0.60439711317E-02  0.13399665951E-01  0.64858807016E-02  0.16075086442E-01  0.51100000000E-03 0.  1.
         11    1    4    4    0    0 -0.76309661108E-01  0.69036928299E-01  0.44551239417E-01  0.11213534635E+00  0.51100000000E-03 0. -1.
</event>
<event>
 8    1  0.1204770E+005  0.1043930E+01  0.7957747E-01            NaN
         13   -1    0    0    0    0  0.00000000000E+00  0.00000000000E+00  0.74505805969E-08  0.10566000000E+00  0.10566000000E+00 0. -1.
     999900   -1    0    0    0    0 -0.00000000000E+00 -0.00000000000E+00 -0.74505805969E-08  0.93827000000E+00  0.93827000000E+00 0.  1.
     999902    2    1    2    0    0 -0.17285121192E-01 -0.90690397569E-02 -0.15267318264E-01  0.10191486783E+01  0.10188473461E+01 0.  0.
     999903    2    3    3    0    0 -0.60590778264E-01  0.39567915332E-01 -0.10838166170E+00  0.13184308594E+00  0.19978798347E-01 0.  0.
         14    1    1    2    0    0  0.17285121192E-01  0.90690397569E-02  0.15267318264E-01  0.24781321670E-01  0.00000000000E+00 0. -1.
     999901    1    3    3    0    0  0.43305657072E-01 -0.48636955089E-01  0.93114343433E-01  0.88730559239E+00  0.88000000000E+00 0. -1.
        -11    1    4    4    0    0 -0.37662882797E-01  0.18513423178E-01 -0.46961162304E-01  0.62982945821E-01  0.51100000000E-03 0.  1.
         11    1    4    4    0    0 -0.22927895467E-01  0.21054492153E-01 -0.61420499394E-01  0.68860140119E-01  0.51100000000E-03 0. -1.
</event>
<event>
 8    1  0.1204770E+005  0.1043930E+01  0.7957747E-01            NaN
         13   -1    0    0    0    0  0.00000000000E+00  0.00000000000E+00  0.74505805969E-08  0.10566000000E+00  0.10566000000E+00 0.  1.
     999900   -1    0    0    0    0 -0.00000000000E+00 -0.00000000000E+00 -0.74505805969E-08  0.93827000000E+00  0.93827000000E+00 0.  1.
     999902    2    1    2    0    0 -0.85527033586E-02  0.14661317585E-01 -0.16768965076E-01  0.10200699674E+01  0.10197908791E+01 0.  0.
     999903    2    3    3    0    0 -0.88757810603E-01 -0.90175459986E-01 -0.22132475885E-01  0.13020909261E+00  0.21330700458E-01 0.  0.
         14    1    1    2    0    0  0.85527033586E-02 -0.14661317585E-01  0.16768965076E-01  0.23860032644E-01  0.00000000000E+00 0.  1.
     999901    1    3    3    0    0  0.80205107244E-01  0.10483677757E+00  0.53635108087E-02  0.88986087475E+00  0.88000000000E+00 0.  1.
        -11    1    4    4    0    0 -0.20534990684E-01 -0.34307989033E-01 -0.97977406743E-02  0.41170144489E-01  0.51100000000E-03 0. -1.
         11    1    4    4    0    0 -0.68222819918E-01 -0.55867470953E-01 -0.12334735211E-01  0.89038948119E-01  0.51100000000E-03 0.  1.
</event>
<event>
 8    1  0.1204770E+005  0.1043930E+01  0.7957747E-01            NaN
         13   -1    0    0    0    0  0.00000000000E+00  0.00000000000E+00  0.74505805969E-08  0.10566000000E+00  0.10566000000E+00 0. -1.
     999900   -1    0    0    0    0 -0.00000000000E+00 -0.00000000000E+00 -0.74505805969E-08  0.93827000000E+00  0.93827000000E+00 0.  1.
     999902    2    1    2    0    0  0.13192883760E-01  0.18791933913E-01  0.58729611146E-02  0.10202301976E+01  0.10199548889E+01 0.  0.
     999903    2    3    3    0    0  0.60468945377E-01  0.53803886155E-02 -0.11414635730E+00  0.13072497987E+00  0.19343927762E-01 0.  0.
         14    1    1    2    0    0 -0.13192883760E-01 -0.18791933913E-01 -0.58729611146E-02  0.23699802412E-01  0.00000000000E+00 0.  1.
     999901    1    3    3    0    0 -0.47276061617E-01  0.13411545298E-01  0.12001931842E+00  0.88950521771E+00  0.88000000000E+00 0. -1.
        -11    1    4    4    0    0  0.54299039415E-02 -0.57087216369E-03 -0.26473794584E-01  0.27035766542E-01  0.51100000000E-03 0. -1.
         11    1    4    4    0    0  0.55039041435E-01  0.59512607792E-02 -0.87672562717E-01  0.10368921333E+00  0.51100000000E-03 0.  1.
</event>
<event>
 8    1  0.1204770E+005  0.1043930E+01  0.7957747E-01            NaN
         13   -1    0    0    0    0  0.00000000000E+00  0.00000000000E+00  0.74505805969E-08  0.10566000000E+00  0.10566000000E+00 0. -1.
     999900   -1    0    0    0    0 -0.00000000000E+00 -0.00000000000E+00 -0.74505805969E-08  0.93827000000E+00  0.93827000000E+00 0.  1.
     999902    2    1    2    0    0 -0.16404605548E-01 -0.10104815450E-01 -0.12513143826E-01  0.10209561639E+01  0.10206976493E+01 0.  0.
     999903    2    3    3    0    0 -0.73229588959E-01 -0.10863034428E+00  0.18830683121E-01  0.13308297806E+00  0.13905395544E-01 0.  0.
         14    1    1    2    0    0  0.16404605548E-01  0.10104815450E-01  0.12513143826E-01  0.22973836138E-01  0.00000000000E+00 0. -1.
     999901    1    3    3    0    0  0.56824983411E-01  0.98525528834E-01 -0.31343826947E-01  0.88787318580E+00  0.88000000000E+00 0. -1.
        -11    1    4    4    0    0 -0.59561769337E-01 -0.85518756598E-01  0.94874151039E-02  0.10464862284E+00  0.51100000000E-03 0. -1.
         11    1    4    4    0    0 -0.13667819622E-01 -0.23111587686E-01  0.93432680168E-02  0.28434355221E-01  0.51100000000E-03 0.  1.
</event>
<event>
 8    1  0.1204770E+005  0.1043930E+01  0.7957747E-01            NaN
         13   -1    0    0    0    0  0.00000000000E+00  0.00000000000E+00  0.74505805969E-08  0.10566000000E+00  0.10566000000E+00 0. -1.
     999900   -1    0    0    0    0 -0.00000000000E+00 -0.00000000000E+00 -0.74505805969E-08  0.93827000000E+00  0.93827000000E+00 0.  1.
     999902    2    1    2    0    0 -0.23804404958E-01 -0.49145648266E-03 -0.19288670114E-02  0.10200425189E+01  0.10197627806E+01 0.  0.
     999903    2    3    3    0    0 -0.45309058144E-02  0.11082010417E+00  0.65159394689E-01  0.13028830220E+00  0.20680192890E-01 0.  0.
         14    1    1    2    0    0  0.23804404958E-01  0.49145648266E-03  0.19288670114E-02  0.23887481090E-01  0.00000000000E+00 0. -1.
     999901    1    3    3    0    0 -0.19273499144E-01 -0.11131156065E+00 -0.67088261700E-01  0.88975421671E+00  0.88000000000E+00 0.  1.
        -11    1    4    4    0    0  0.60897619797E-02  0.20765536182E-01  0.78974077719E-02  0.23041763483E-01  0.51100000000E-03 0.  1.
         11    1    4    4    0    0 -0.10620667794E-01  0.90054567983E-01  0.57261986917E-01  0.10724653871E+00  0.51100000000E-03 0. -1.
</event>
<event>
 8    1  0.1204770E+005  0.1043930E+01  0.7957747E-01            NaN
         13   -1    0    0    0    0  0.00000000000E+00  0.00000000000E+00  0.74505805969E-08  0.10566000000E+00  0.10566000000E+00 0. -1.
     999900   -1    0    0    0    0 -0.00000000000E+00 -0.00000000000E+00 -0.74505805969E-08  0.93827000000E+00  0.93827000000E+00 0.  1.
     999902    2    1    2    0    0  0.12027919294E-02 -0.13715436136E-01  0.19491315381E-01  0.10200664028E+01  0.10197872302E+01 0.  0.
     999903    2    3    3    0    0  0.61528611531E-01 -0.10710265044E+00  0.43952916531E-01  0.13273402637E+00  0.20729571070E-01 0.  0.
         14    1    1    2    0    0 -0.12027919294E-02  0.13715436136E-01 -0.19491315381E-01  0.23863597216E-01  0.00000000000E+00 0.  1.
     999901    1    3    3    0    0 -0.60325819601E-01  0.93387214300E-01 -0.24461601150E-01  0.88733237642E+00  0.88000000000E+00 0. -1.
        -11    1    4    4    0    0  0.23779980326E-01 -0.26663470911E-01  0.18852027453E-01  0.40399111444E-01  0.51100000000E-03 0. -1.
         11    1    4    4    0    0  0.37748631205E-01 -0.80439179525E-01  0.25100889078E-01  0.92334914924E-01  0.51100000000E-03 0.  1.
</event>
<event>
 8    1  0.1204770E+005  0.1043930E+01  0.7957747E-01            NaN
         13   -1    0    0    0    0  0.00000000000E+00  0.00000000000E+00  0.74505805969E-08  0.10566000000E+00  0.10566000000E+00 0. -1.
     999900   -1    0    0    0    0 -0.00000000000E+00 -0.00000000000E+00 -0.74505805969E-08  0.93827000000E+00  0.93827000000E+00 0.  1.
     999902    2    1    2    0    0  0.10040438365E-01 -0.20125699608E-01  0.54804564859E-02  0.10207807108E+01  0.10205181870E+01 0.  0.
     999903    2    3    3    0    0  0.10975586135E+00  0.65132419593E-01  0.20149563469E-01  0.13093392895E+00  0.21192160335E-01 0.  0.
         14    1    1    2    0    0 -0.10040438365E-01  0.20125699608E-01 -0.54804564859E-02  0.23149289202E-01  0.00000000000E+00 0.  1.
     999901    1    3    3    0    0 -0.99715422981E-01 -0.85258119201E-01 -0.14669106983E-01  0.88984678185E+00  0.88000000000E+00 0.  1.
        -11    1    4    4    0    0  0.37556129875E-01  0.28212326609E-01 -0.15042541637E-02  0.46999171966E-01  0.51100000000E-03 0.  1.
         11    1    4    4    0    0  0.72199731471E-01  0.36920092984E-01  0.21653817632E-01  0.83934756981E-01  0.51100000000E-03 0. -1.
</event>
<event>
 8    1  0.1204770E+005  0.1043930E+01  0.7957747E-01            NaN
         13   -1    0    0    0    0  0.00000000000E+00  0.00000000000E+00  0.74505805969E-08  0.10566000000E+00  0.10566000000E+00 0.  1.
     999900   -1    0    0    0    0 -0.00000000000E+00 -0.00000000000E+00 -0.74505805969E-08  0.93827000000E+00  0.93827000000E+00 0.  1.
     999902    2    1    2    0    0 -0.19837177182E-01 -0.20259005014E-02 -0.13053719876E-01  0.10200968828E+01  0.10198184313E+01 0.  0.
     999903    2    3    3    0    0 -0.17622030542E-01  0.80180147686E-01 -0.10127026292E+00  0.13187117970E+00  0.19873344968E-01 0.  0.
         14    1    1    2    0    0  0.19837177182E-01  0.20259005014E-02  0.13053719876E-01  0.23833117169E-01  0.00000000000E+00 0.  1.
     999901    1    3    3    0    0 -0.22151466402E-02 -0.82206048187E-01  0.88216543046E-01  0.88822570313E+00  0.88000000000E+00 0. -1.
        -11    1    4    4    0    0 -0.20287315948E-01  0.60552288809E-01 -0.69127806108E-01  0.94112005434E-01  0.51100000000E-03 0. -1.
         11    1    4    4    0    0  0.26652854054E-02  0.19627858877E-01 -0.32142456813E-01  0.37759174267E-01  0.51100000000E-03 0.  1.
</event>
<event>
 8    1  0.1204770E+005  0.1043930E+01  0.7957747E-01            NaN
         13   -1    0    0    0    0  0.00000000000E+00  0.00000000000E+00  0.74505805969E-08  0.10566000000E+00  0.10566000000E+00 0.  1.
     999900   -1    0    0    0    0 -0.00000000000E+00 -0.00000000000E+00 -0.74505805969E-08  0.93827000000E+00  0.93827000000E+00 0.  1.
     999902    2    1    2    0    0 -0.20323356728E-01 -0.12331823585E-01 -0.32550677292E-02  0.10199360806E+01  0.10196538140E+01 0.  0.
     999903    2    3    3    0    0 -0.11258786814E+00  0.57497510708E-01 -0.31784161567E-01  0.13190298146E+00  0.20153704396E-01 0.  0.
         14    1    1    2    0    0  0.20323356728E-01  0.12331823585E-01  0.32550677292E-02  0.23993919387E-01  0.00000000000E+00 0.  1.
     999901    1    3    3    0    0  0.92264511416E-01 -0.69829334293E-01  0.28529093838E-01  0.88803309915E+00  0.88000000000E+00 0. -1.
        -11    1    4    4    0    0 -0.82126134146E-01  0.47632550229E-01 -0.30985938050E-01  0.99869671217E-01  0.51100000000E-03 0.  1.
         11    1    4    4    0    0 -0.30461733998E-01  0.98649604790E-02 -0.79822351731E-03  0.32033310244E-01  0.51100000000E-03 0. -1.
</event>
<event>
 8    1  0.1204770E+005  0.1043930E+01  0.7957747E-01            NaN
         13   -1    0    0    0    0  0.00000000000E+00  0.00000000000E+00  0.74505805969E-08  0.10566000000E+00  0.10566000000E+00 0. -1.
     999900   -1    0    0    0    0 -0.00000000000E+00 -0.00000000000E+00 -0.74505805969E-08  0.93827000000E+00  0.93827000000E+00 0.  1.
     999902    2    1    2    0    0  0.32380836257E-02 -0.19375339436E-01  0.14171676926E-01  0.10197075850E+01  0.10194198514E+01 0.  0.
     999903    2    3    3    0    0 -0.99921969944E-01  0.41076176771E-01 -0.65812435525E-01  0.12802723824E+00  0.19698849878E-01 0.  0.
         14    1    1    2    0    0 -0.32380836257E-02  0.19375339436E-01 -0.14171676926E-01  0.24222415048E-01  0.00000000000E+00 0.  1.
     999901    1    3    3    0    0  0.10316005357E+00 -0.60451516208E-01  0.79984112452E-01  0.89168034671E+00  0.88000000000E+00 0. -1.
        -11    1    4    4    0    0 -0.70065808088E-01  0.29727103571E-01 -0.35480835959E-01  0.83976597878E-01  0.51100000000E-03 0.  1.
         11    1    4    4    0    0 -0.29856161856E-01  0.11349073201E-01 -0.30331599566E-01  0.44050640365E-01  0.51100000000E-03 0. -1.
</event>
<event>
 8    1  0.1204770E+005  0.1043930E+01  0.7957747E-01            NaN
         13   -1    0    0    0    0  0.00000000000E+00  0.00000000000E+00  0.74505805969E-08  0.10566000000E+00  0.10566000000E+00 0. -1.
     999900   -1    0    0    0    0 -0.00000000000E+00 -0.00000000000E+00 -0.74505805969E-08  0.93827000000E+00  0.93827000000E+00 0. -1.
     999902    2    1    2    0    0  0.10140065010E-01 -0.15229269238E-01  0.15422484987E-01  0.10200008420E+01  0.10197201151E+01 0.  0.
     999903    2    3    3    0    0 -0.52491061091E-01 -0.57577606656E-01 -0.10148825046E+00  0.12905518725E+00  0.16878509744E-01 0.  0.
         14    1    1    2    0    0 -0.10140065010E-01  0.15229269238E-01 -0.15422484987E-01  0.23929158011E-01  0.00000000000E+00 0.  1.
     999901    1    3    3    0    0  0.62631126101E-01  0.42348337418E-01  0.11691073545E+00  0.89094565474E+00  0.88000000000E+00 0.  1.
        -11    1    4    4    0    0 -0.34225181804E-01 -0.37652605084E-01 -0.78591823602E-01  0.93627013181E-01  0.51100000000E-03 0. -1.
         11    1    4    4    0    0 -0.18265879287E-01 -0.19925001572E-01 -0.22896426859E-01  0.35428174066E-01  0.51100000000E-03 0.  1.
</event>
<event>
 8    1  0.1204770E+005  0.1043930E+01  0.7957747E-01            NaN
         13   -1    0    0    0    0  0.00000000000E+00  0.00000000000E+00  0.74505805969E-08  0.10566000000E+00  0.10566000000E+00 0.  1.
     999900   -1    0    0    0    0 -0.00000000000E+00 -0.00000000000E+00 -0.74505805969E-08  0.93827000000E+00  0.93827000000E+00 0.  1.
     999902    2    1    2    0    0 -0.34581963815E-03 -0.15271030423E-01  0.17419475785E-01  0.10207618732E+01  0.10204989171E+01 0.  0.
     999903    2    3    3    0    0 -0.39942939927E-01 -0.47568372800E-01  0.11750829450E+00  0.13361542428E+00  0.13663593547E-01 0.  0.
         14    1    1    2    0    0  0.34581963815E-03  0.15271030423E-01 -0.17419475785E-01  0.23168126770E-01  0.00000000000E+00 0.  1.
     999901    1    3    3    0    0  0.39597120289E-01  0.32297342377E-01 -0.10008881871E+00  0.88714644895E+00  0.88000000000E+00 0.  1.
        -11    1    4    4    0    0 -0.24923241334E-01 -0.37884476777E-01  0.90481872176E-01  0.10121082873E+00  0.51100000000E-03 0.  1.
         11    1    4    4    0    0 -0.15019698592E-01 -0.96838960228E-02  0.27026422320E-01  0.32404595544E-01  0.51100000000E-03 0. -1.
</event>
<event>
 8    1  0.1204770E+005  0.1043930E+01  0.7957747E-01            NaN
         13   -1    0    0    0    0  0.00000000000E+00  0.00000000000E+00  0.74505805969E-08  0.10566000000E+00  0.10566000000E+00 0.  1.
     999900   -1    0    0    0    0 -0.00000000000E+00 -0.00000000000E+00 -0.74505805969E-08  0.93827000000E+00  0.93827000000E+00 0. -1.
     999902    2    1    2    0    0  0.52681471823E-02  0.24169583889E-01 -0.11104231076E-01  0.10168149468E+01  0.10164533487E+01 0.  0.
     999903    2    3    3    0    0  0.37248783380E-02  0.12076827642E+00  0.43120699655E-01  0.12986848161E+00  0.20188523151E-01 0.  0.
         14    1    1    2    0    0 -0.52681471823E-02 -0.24169583889E-01  0.11104231076E-01  0.27115053161E-01  0.00000000000E+00 0.  1.
     999901    1    3    3    0    0  0.15432688443E-02 -0.96598692533E-01 -0.54224930731E-01  0.88694646523E+00  0.88000000000E+00 0.  1.
        -11    1    4    4    0    0 -0.71888891480E-02  0.57478246213E-01  0.25327331893E-01  0.63223126913E-01  0.51100000000E-03 0. -1.
         11    1    4    4    0    0  0.10913767486E-01  0.63290030210E-01  0.17793367762E-01  0.66645354692E-01  0.51100000000E-03 0.  1.
</event>
<event>
 8    1  0.1204770E+005  0.1043930E+01  0.7957747E-01            NaN
         13   -1    0    0    0    0  0.00000000000E+00  0.00000000000E+00  0.74505805969E-08  0.10566000000E+00  0.10566000000E+00 0. -1.
     999900   -1    0    0    0    0 -0.00000000000E+00 -0.00000000000E+00 -0.74505805969E-08  0.93827000000E+00  0.93827000000E+00 0. -1.
     999902    2    1    2    0    0  0.11491306458E-01 -0.59445181279E-02  0.19560429432E-01  0.10204779677E+01  0.10202084516E+01 0.  0.
     999903    2    3    3    0    0 -0.25867034874E-01 -0.91512080161E-01  0.90361502487E-01  0.13271096826E+00  0.20085707735E-01 0.  0.
         14    1    1    2    0    0 -0.11491306458E-01  0.59445181279E-02 -0.19560429432E-01  0.23452032310E-01  0.00000000000E+00 0. -1.
     999901    1    3    3    0    0  0.37358341332E-01  0.85567562033E-01 -0.70801073054E-01  0.88776699943E+00  0.88000000000E+00 0. -1.
        -11    1    4    4    0    0 -0.19072078499E-02 -0.43391503957E-01  0.40047070881E-01  0.59080361074E-01  0.51100000000E-03 0. -1.
         11    1    4    4    0    0 -0.23959827024E-01 -0.48120576203E-01  0.50314431606E-01  0.73630607182E-01  0.51100000000E-03 0.  1.
</event>
<event>
 8    1  0.1204770E+005  0.1043930E+01  0.7957747E-01            NaN
         13   -1    0    0    0    0  0.00000000000E+00  0.00000000000E+00  0.74505805969E-08  0.10566000000E+00  0.10566000000E+00 0. -1.
     999900   -1    0    0    0    0 -0.00000000000E+00 -0.00000000000E+00 -0.74505805969E-08  0.93827000000E+00  0.93827000000E+00 0. -1.
     999902    2    1    2    0    0  0.13115044851E-01  0.82450987570E-02 -0.17027950108E-01  0.10209096364E+01  0.10206500618E+01 0.  0.
     999903    2    3    3    0    0  0.23951301679E-02 -0.12452808039E+00 -0.35269895891E-01  0.13069819958E+00  0.18029818765E-01 0.  0.
         14    1    1    2    0    0 -0.13115044851E-01 -0.82450987570E-02  0.17027950108E-01  0.23020363590E-01  0.00000000000E+00 0. -1.
     999901    1    3    3    0    0  0.10719914683E-01  0.13277317914E+00  0.18241945783E-01  0.89021143683E+00  0.88000000000E+00 0.  1.
        -11    1    4    4    0    0  0.45719774331E-02 -0.74909225571E-02 -0.24437969632E-02  0.91241527279E-02  0.51100000000E-03 0. -1.
         11    1    4    4    0    0 -0.21768472653E-02 -0.11703715783E+00 -0.32826098928E-01  0.12157404686E+00  0.51100000000E-03 0.  1.
</event>
<event>
 8    1  0.1204770E+005  0.1043930E+01  0.7957747E-01            NaN
         13   -1    0    0    0    0  0.00000000000E+00  0.00000000000E+00  0.74505805969E-08  0.10566000000E+00  0.10566000000E+00 0.  1.
     999900   -1    0    0    0    0 -0.00000000000E+00 -0.00000000000E+00 -0.74505805969E-08  0.93827000000E+00  0.93827000000E+00 0.  1.
     999902    2    1    2    0    0  0.19621434584E-01 -0.90181905391E-02  0.96358136731E-02  0.10202830687E+01  0.10200090014E+01 0.  0.
     999903    2    3    3    0    0  0.53839517814E-01 -0.77434811747E-01 -0.89320305626E-01  0.13143886139E+00  0.20080177756E-01 0.  0.
         14    1    1    2    0    0 -0.19621434584E-01  0.90181905391E-02 -0.96358136731E-02  0.23646931321E-01  0.00000000000E+00 0. -1.
     999901    1    3    3    0    0 -0.34218083230E-01  0.68416621208E-01  0.98956119299E-01  0.88884420729E+00  0.88000000000E+00 0. -1.
        -11    1    4    4    0    0  0.31818704981E-01 -0.36398449694E-01 -0.57029347379E-01  0.74765531565E-01  0.51100000000E-03 0. -1.
         11    1    4    4    0    0  0.22020812833E-01 -0.41036362053E-01 -0.32290958247E-01  0.56673329829E-01  0.51100000000E-03 0.  1.
</event>
<event>
 8    1  0.1204770E+005  0.1043930E+01  0.7957747E-01            NaN
         13   -1    0    0    0    0  0.00000000000E+00  0.00000000000E+00  0.74505805969E-08  0.10566000000E+00  0.10566000000E+00 0.  1.
     999900   -1    0    0    0    0 -0.00000000000E+00 -0.00000000000E+00 -0.74505805969E-08  0.93827000000E+00  0.93827000000E+00 0. -1.
     999902    2    1    2    0    0 -0.11915503776E-01  0.22119582962E-01  0.18324413588E-02  0.10187384732E+01  0.10184269555E+01 0.  0.
     999903    2    3    3    0    0 -0.20684300311E-01  0.10835984140E+00  0.69666852502E-01  0.13188122353E+00  0.19222155849E-01 0.  0.
         14    1    1    2    0    0  0.11915503776E-01 -0.22119582962E-01 -0.18324413588E-02  0.25191526789E-01  0.00000000000E+00 0. -1.
     999901    1    3    3    0    0  0.87687965351E-02 -0.86240258439E-01 -0.67834411143E-01  0.88685724968E+00  0.88000000000E+00 0. -1.
        -11    1    4    4    0    0 -0.55089888433E-02  0.45030949717E-01  0.18233671016E-01  0.48896454578E-01  0.51100000000E-03 0.  1.
         11    1    4    4    0    0 -0.15175311467E-01  0.63328891684E-01  0.51433181486E-01  0.82984768957E-01  0.51100000000E-03 0. -1.
</event>
<event>
 8    1  0.1204770E+005  0.1043930E+01  0.7957747E-01            NaN
         13   -1    0    0    0    0  0.00000000000E+00  0.00000000000E+00  0.74505805969E-08  0.10566000000E+00  0.10566000000E+00 0. -1.
     999900   -1    0    0    0    0 -0.00000000000E+00 -0.00000000000E+00 -0.74505805969E-08  0.93827000000E+00  0.93827000000E+00 0. -1.
     999902    2    1    2    0    0 -0.52594695314E-02  0.19897320382E-01  0.10123589031E-01  0.10209941671E+01  0.10207365168E+01 0.  0.
     999903    2    3    3    0    0 -0.19445545461E-01  0.54711493676E-01 -0.11609079153E+00  0.13119455968E+00  0.19064727484E-01 0.  0.
         14    1    1    2    0    0  0.52594695314E-02 -0.19897320382E-01 -0.10123589031E-01  0.22935832948E-01  0.00000000000E+00 0. -1.
     999901    1    3    3    0    0  0.14186075929E-01 -0.34814173294E-01  0.12621438056E+00  0.88979960737E+00  0.88000000000E+00 0.  1.
        -11    1    4    4    0    0 -0.10084689858E-01  0.13392302974E-01 -0.19507677657E-01  0.25726744004E-01  0.51100000000E-03 0. -1.
         11    1    4    4    0    0 -0.93608556028E-02  0.41319190702E-01 -0.96583113873E-01  0.10546781568E+00  0.51100000000E-03 0.  1.
</event>
<event>
 8    1  0.1204770E+005  0.1043930E+01  0.7957747E-01            NaN
         13   -1    0    0    0    0  0.00000000000E+00  0.00000000000E+00  0.74505805969E-08  0.10566000000E+00  0.10566000000E+00 0.  1.
     999900   -1    0    0    0    0 -0.00000000000E+00 -0.00000000000E+00 -0.74505805969E-08  0.93827000000E+00  0.93827000000E+00 0.  1.
     999902    2    1    2    0    0 -0.20103950565E-01  0.17771408201E-01  0.63887118387E-02  0.10163472623E+01  0.10159729082E+01 0.  0.
     999903    2    3    3    0    0  0.11406981802E-01 -0.12227465015E+00  0.71658515105E-02  0.12471592526E+00  0.20530545089E-01 0.  0.
         14    1    1    2    0    0  0.20103950565E-01 -0.17771408201E-01 -0.63887118387E-02  0.27582737658E-01  0.00000000000E+00 0.  1.
     999901    1    3    3    0    0 -0.31510932366E-01  0.14004605836E+00 -0.77713967187E-03  0.89163133708E+00  0.88000000000E+00 0. -1.
        -11    1    4    4    0    0  0.95092591830E-02 -0.60095060933E-01  0.13046615109E-01  0.62227949070E-01  0.51100000000E-03 0.  1.
         11    1    4    4    0    0  0.18977226188E-02 -0.62179589221E-01 -0.58807635981E-02  0.62487976190E-01  0.51100000000E-03 0. -1.
</event>
<event>
 8    1  0.1204770E+005  0.1043930E+01  0.7957747E-01            NaN
         13   -1    0    0    0    0  0.00000000000E+00  0.00000000000E+00  0.74505805969E-08  0.10566000000E+00  0.10566000000E+00 0.  1.
     999900   -1    0    0    0    0 -0.00000000000E+00 -0.00000000000E+00 -0.74505805969E-08  0.93827000000E+00  0.93827000000E+00 0. -1.
     999902    2    1    2    0    0 -0.22537686861E-01  0.85454339093E-02 -0.24778513285E-02  0.10196996158E+01  0.10194116906E+01 0.  0.
     999903    2    3    3    0    0 -0.10201106396E+00  0.37310107897E-02 -0.80507247741E-01  0.13266648058E+00  0.26434835290E-01 0.  0.
         14    1    1    2    0    0  0.22537686861E-01 -0.85454339093E-02  0.24778513285E-02  0.24230384168E-01  0.00000000000E+00 0. -1.
     999901    1    3    3    0    0  0.79473377104E-01  0.48144231196E-02  0.78029396412E-01  0.88703313526E+00  0.88000000000E+00 0.  1.
        -11    1    4    4    0    0 -0.21620652333E-01 -0.85715244405E-02 -0.25305521187E-01  0.34373742335E-01  0.51100000000E-03 0.  1.
         11    1    4    4    0    0 -0.80390411632E-01  0.12302535230E-01 -0.55201726554E-01  0.98292738241E-01  0.51100000000E-03 0. -1.
</event>
<event>
 8    1  0.1204770E+005  0.1043930E+01  0.7957747E-01            NaN
         13   -1    0    0    0    0  0.00000000000E+00  0.00000000000E+00  0.74505805969E-08  0.10566000000E+00  0.10566000000E+00 0.  1.
     999900   -1    0    0    0    0 -0.00000000000E+00 -0.00000000000E+00 -0.74505805969E-08  0.93827000000E+00  0.93827000000E+00 0.  1.
     999902    2    1    2    0    0  0.99865632834E-02  0.11087701365E-01 -0.17163881241E-01  0.10211864869E+01  0.10209331877E+01 0.  0.
     999903    2    3    3    0    0 -0.69371648969E-01 -0.10085484658E+00 -0.39776840238E-01  0.13026549952E+00  0.20069319512E-01 0.  0.
         14    1    1    2    0    0 -0.99865632834E-02 -0.11087701365E-01  0.17163881241E-01  0.22743513076E-01  0.00000000000E+00 0.  1.
     999901    1    3    3    0    0  0.79358212252E-01  0.11194254794E+00  0.22612958997E-01  0.89092098741E+00  0.88000000000E+00 0. -1.
        -11    1    4    4    0    0 -0.18681568820E-01 -0.24350249283E-01 -0.19220153228E-01  0.36216171316E-01  0.51100000000E-03 0.  1.
         11    1    4    4    0    0 -0.50690080149E-01 -0.76504597295E-01 -0.20556687010E-01  0.94049328199E-01  0.51100000000E-03 0. -1.
</event>
<event>
 8    1  0.1204770E+005  0.1043930E+01  0.7957747E-01            NaN
         13   -1    0    0    0    0  0.00000000000E+00  0.00000000000E+00  0.74505805969E-08  0.10566000000E+00  0.10566000000E+00 0. -1.
     999900   -1    0    0    0    0 -0.00000000000E+00 -0.00000000000E+00 -0.74505805969E-08  0.93827000000E+00  0.93827000000E+00 0.  1.
     999902    2    1    2    0    0  0.47763389503E-02  0.21854928849E-01  0.52503996489E-02  0.10209513572E+01  0.10206927333E+01 0.  0.
     999903    2    3    3    0    0 -0.81954377224E-01 -0.96937442010E-01 -0.58254125109E-02  0.12867532473E+00  0.20248855591E-01 0.  0.
         14    1    1    2    0    0 -0.47763389503E-02 -0.21854928849E-01 -0.52503996489E-02  0.22978642806E-01  0.00000000000E+00 0.  1.
     999901    1    3    3    0    0  0.86730716174E-01  0.11879237086E+00  0.11075812160E-01  0.89227603247E+00  0.88000000000E+00 0. -1.
        -11    1    4    4    0    0 -0.32398743323E-01 -0.30608129243E-01  0.62192653428E-02  0.45005294434E-01  0.51100000000E-03 0. -1.
         11    1    4    4    0    0 -0.49555633901E-01 -0.66329312766E-01 -0.12044677854E-01  0.83670030291E-01  0.51100000000E-03 0.  1.
</event>
<event>
 8    1  0.1204770E+005  0.1043930E+01  0.7957747E-01            NaN
         13   -1    0    0    0    0  0.00000000000E+00  0.00000000000E+00  0.74505805969E-08  0.10566000000E+00  0.10566000000E+00 0. -1.
     999900   -1    0    0    0    0 -0.00000000000E+00 -0.00000000000E+00 -0.74505805969E-08  0.93827000000E+00  0.93827000000E+00 0.  1.
     999902    2    1    2    0    0 -0.55499081236E-02 -0.12359665026E-03 -0.23237314384E-01  0.10200387979E+01  0.10197589714E+01 0.  0.
     999903    2    3    3    0    0  0.93005687566E-01  0.76727121000E-01 -0.46939003718E-01  0.13089257356E+00  0.19811277754E-01 0.  0.
         14    1    1    2    0    0  0.55499081236E-02  0.12359665026E-03  0.23237314384E-01  0.23891202065E-01  0.00000000000E+00 0. -1.
     999901    1    3    3    0    0 -0.98555595690E-01 -0.76850717650E-01  0.23701689334E-01  0.88914622438E+00  0.88000000000E+00 0. -1.
        -11    1    4    4    0    0  0.68867673972E-01  0.45568522013E-01 -0.28346667927E-01  0.87310030468E-01  0.51100000000E-03 0.  1.
         11    1    4    4    0    0  0.24138013594E-01  0.31158598987E-01 -0.18592335791E-01  0.43582543091E-01  0.51100000000E-03 0. -1.
</event>
<event>
 8    1  0.1204770E+005  0.1043930E+01  0.7957747E-01            NaN
         13   -1    0    0    0    0  0.00000000000E+00  0.00000000000E+00  0.74505805969E-08  0.10566000000E+00  0.10566000000E+00 0.  1.
     999900   -1    0    0    0    0 -0.00000000000E+00 -0.00000000000E+00 -0.74505805969E-08  0.93827000000E+00  0.93827000000E+00 0.  1.
     999902    2    1    2    0    0 -0.83018002686E-02 -0.21437785076E-01 -0.59255744505E-02  0.10201895082E+01  0.10199132423E+01 0.  0.
     999903    2    3    3    0    0  0.96367667958E-01  0.77945869826E-01 -0.16939979572E-01  0.12836322158E+00  0.28772690126E-01 0.  0.
         14    1    1    2    0    0  0.83018002686E-02  0.21437785076E-01  0.59255744505E-02  0.23740491765E-01  0.00000000000E+00 0.  1.
     999901    1    3    3    0    0 -0.10466946823E+00 -0.99383654902E-01  0.11014405122E-01  0.89182628665E+00  0.88000000000E+00 0. -1.
        -11    1    4    4    0    0  0.52422567458E-01  0.60193644635E-01 -0.95331169361E-02  0.80389936390E-01  0.51100000000E-03 0. -1.
         11    1    4    4    0    0  0.43945100501E-01  0.17752225191E-01 -0.74068626363E-02  0.47973285194E-01  0.51100000000E-03 0.  1.
</event>
<event>
 8    1  0.1204770E+005  0.1043930E+01  0.7957747E-01            NaN
         13   -1    0    0    0    0  0.00000000000E+00  0.00000000000E+00  0.74505805969E-08  0.10566000000E+00  0.10566000000E+00 0.  1.
     999900   -1    0    0    0    0 -0.00000000000E+00 -0.00000000000E+00 -0.74505805969E-08  0.93827000000E+00  0.93827000000E+00 0. -1.
     999902    2    1    2    0    0  0.10059031409E-01  0.31067462642E-03  0.20972034686E-01  0.10206682961E+01  0.10204031868E+01 0.  0.
     999903    2    3    3    0    0 -0.11194590665E+00 -0.44365533716E-01 -0.41470547854E-01  0.12893950061E+00  0.20134594133E-01 0.  0.
         14    1    1    2    0    0 -0.10059031409E-01 -0.31067462642E-03 -0.20972034686E-01  0.23261703946E-01  0.00000000000E+00 0. -1.
     999901    1    3    3    0    0  0.12200493806E+00  0.44676208343E-01  0.62442582541E-01  0.89172879544E+00  0.88000000000E+00 0. -1.
        -11    1    4    4    0    0 -0.53893901575E-01 -0.28920875011E-01 -0.28510182086E-01  0.67483785029E-01  0.51100000000E-03 0. -1.
         11    1    4    4    0    0 -0.58052005078E-01 -0.15444658705E-01 -0.12960365769E-01  0.61455715584E-01  0.51100000000E-03 0.  1.
</event>
<event>
 8    1  0.1204770E+005  0.1043930E+01  0.7957747E-01            NaN
         13   -1    0    0    0    0  0.00000000000E+00  0.00000000000E+00  0.74505805969E-08  0.10566000000E+00  0.10566000000E+00 0. -1.
     999900   -1    0    0    0    0 -0.00000000000E+00 -0.00000000000E+00 -0.74505805969E-08  0.93827000000E+00  0.93827000000E+00 0. -1.
     999902    2    1    2    0    0  0.10190395280E-01  0.10949161677E-02 -0.21523080418E-01  0.10200912503E+01  0.10198126656E+01 0.  0.
     999903    2    3    3    0    0 -0.10580486153E+00  0.57947516181E-01  0.39741092240E-01  0.12855301971E+00  0.19847949724E-01 0.  0.
         14    1    1    2    0    0 -0.10190395280E-01 -0.10949161677E-02  0.21523080418E-01  0.23838749717E-01  0.00000000000E+00 0. -1.
     999901    1    3    3    0    0  0.11599525681E+00 -0.56852600013E-01 -0.61264172658E-01  0.89153823058E+00  0.88000000000E+00 0. -1.
        -11    1    4    4    0    0 -0.25838842508E-01  0.18866585361E-01  0.25835839383E-02  0.32101866805E-01  0.51100000000E-03 0.  1.
         11    1    4    4    0    0 -0.79966019020E-01  0.39080930820E-01  0.37157508302E-01  0.96451152900E-01  0.51100000000E-03 0. -1.
</event>
<event>
 8    1  0.1204770E+005  0.1043930E+01  0.7957747E-01            NaN
         13   -1    0    0    0    0  0.00000000000E+00  0.00000000000E+00  0.74505805969E-08  0.10566000000E+00  0.10566000000E+00 0. -1.
     999900   -1    0    0    0    0 -0.00000000000E+00 -0.00000000000E+00 -0.74505805969E-08  0.93827000000E+00  0.93827000000E+00 0. -1.
     999902    2    1    2    0    0 -0.11083998277E-01 -0.94628593492E-02 -0.16124872834E-01  0.10221949534E+01  0.10219638499E+01 0.  0.
     999903    2    3    3    0    0  0.85902832634E-02  0.10044766431E+00  0.79719294044E-01  0.12997664782E+00  0.19371032609E-01 0.  0.
         14    1    1    2    0    0  0.11083998277E-01  0.94628593492E-02  0.16124872834E-01  0.21735046556E-01  0.00000000000E+00 0. -1.
     999901    1    3    3    0    0 -0.19674281541E-01 -0.10991052366E+00 -0.95844166879E-01  0.89221830562E+00  0.88000000000E+00 0. -1.
        -11    1    4    4    0    0  0.12366393464E-01  0.36729073463E-01  0.27843001050E-01  0.47722597930E-01  0.51100000000E-03 0. -1.
         11    1    4    4    0    0 -0.37761102010E-02  0.63718590845E-01  0.51876292994E-01  0.82254049891E-01  0.51100000000E-03 0.  1.
</event>
<event>
 8    1  0.1204770E+005  0.1043930E+01  0.7957747E-01            NaN
         13   -1    0    0    0    0  0.00000000000E+00  0.00000000000E+00  0.74505805969E-08  0.10566000000E+00  0.10566000000E+00 0.  1.
     999900   -1    0    0    0    0 -0.00000000000E+00 -0.00000000000E+00 -0.74505805969E-08  0.93827000000E+00  0.93827000000E+00 0.  1.
     999902    2    1    2    0    0 -0.75691722213E-02  0.31057581690E-02  0.19492406331E-01  0.10227901796E+01  0.10225716892E+01 0.  0.
     999903    2    3    3    0    0  0.57247839596E-01 -0.53107519670E-01 -0.10243593824E+00  0.13025015314E+00  0.19345727337E-01 0.  0.
         14    1    1    2    0    0  0.75691722213E-02 -0.31057581690E-02 -0.19492406331E-01  0.21139820399E-01  0.00000000000E+00 0. -1.
     999901    1    3    3    0    0 -0.64817011817E-01  0.56213277839E-01  0.12192834457E+00  0.89254002646E+00  0.88000000000E+00 0. -1.
        -11    1    4    4    0    0  0.34826262868E-01 -0.32098162383E-01 -0.46200348612E-01  0.66165655340E-01  0.51100000000E-03 0.  1.
         11    1    4    4    0    0  0.22421576728E-01 -0.21009357287E-01 -0.56235589627E-01  0.64084497800E-01  0.51100000000E-03 0. -1.
</event>
<event>
 8    1  0.1204770E+005  0.1043930E+01  0.7957747E-01            NaN
         13   -1    0    0    0    0  0.00000000000E+00  0.00000000000E+00  0.74505805969E-08  0.10566000000E+00  0.10566000000E+00 0.  1.
     999900   -1    0    0    0    0 -0.00000000000E+00 -0.00000000000E+00 -0.74505805969E-08  0.93827000000E+00  0.93827000000E+00 0. -1.
     999902    2    1    2    0    0 -0.24699815461E-01  0.38239383712E-02  0.18464176513E-02  0.10188678244E+01  0.10185595372E+01 0.  0.
     999903    2    3    3    0    0  0.47783204431E-01  0.11756687250E+00  0.55822967829E-02  0.12858404938E+00  0.19937190932E-01 0.  0.
         14    1    1    2    0    0  0.24699815461E-01 -0.38239383712E-02 -0.18464176513E-02  0.25062175616E-01  0.00000000000E+00 0. -1.
     999901    1    3    3    0    0 -0.72483019892E-01 -0.11374293413E+00 -0.37358791317E-02  0.89028377500E+00  0.88000000000E+00 0. -1.
        -11    1    4    4    0    0  0.34024529717E-01  0.10140194946E+00  0.77522162778E-02  0.10723983381E+00  0.51100000000E-03 0.  1.
         11    1    4    4    0    0  0.13758674714E-01  0.16164923040E-01 -0.21699194949E-02  0.21344215572E-01  0.51100000000E-03 0. -1.
</event>
<event>
 8    1  0.1204770E+005  0.1043930E+01  0.7957747E-01            NaN
         13   -1    0    0    0    0  0.00000000000E+00  0.00000000000E+00  0.74505805969E-08  0.10566000000E+00  0.10566000000E+00 0.  1.
     999900   -1    0    0    0    0 -0.00000000000E+00 -0.00000000000E+00 -0.74505805969E-08  0.93827000000E+00  0.93827000000E+00 0. -1.
     999902    2    1    2    0    0 -0.82063278155E-02  0.23088634478E-02  0.22700081041E-01  0.10196819414E+01  0.10193935909E+01 0.  0.
     999903    2    3    3    0    0  0.21455831968E-01  0.86785552996E-01  0.95564803370E-01  0.13214297180E+00  0.18358878462E-01 0.  0.
         14    1    1    2    0    0  0.82063278155E-02 -0.23088634478E-02 -0.22700081041E-01  0.24248058601E-01  0.00000000000E+00 0. -1.
     999901    1    3    3    0    0 -0.29662159784E-01 -0.84476689548E-01 -0.72864722328E-01  0.88753896960E+00  0.88000000000E+00 0. -1.
        -11    1    4    4    0    0  0.28120712029E-02  0.44106795076E-01  0.39718302162E-01  0.59423242624E-01  0.51100000000E-03 0. -1.
         11    1    4    4    0    0  0.18643760765E-01  0.42678757920E-01  0.55846501208E-01  0.72719729174E-01  0.51100000000E-03 0.  1.
</event>
<event>
 8    1  0.1204770E+005  0.1043930E+01  0.7957747E-01            NaN
         13   -1    0    0    0    0  0.00000000000E+00  0.00000000000E+00  0.74505805969E-08  0.10566000000E+00  0.10566000000E+00 0.  1.
     999900   -1    0    0    0    0 -0.00000000000E+00 -0.00000000000E+00 -0.74505805969E-08  0.93827000000E+00  0.93827000000E+00 0. -1.
     999902    2    1    2    0    0 -0.15815069589E-01  0.15801256438E-01  0.13195944701E-01  0.10179698558E+01  0.10176387857E+01 0.  0.
     999903    2    3    3    0    0  0.79218062137E-02  0.11568181958E-01  0.12782464461E+00  0.13020800876E+00  0.20455022088E-01 0.  0.
         14    1    1    2    0    0  0.15815069589E-01 -0.15801256438E-01 -0.13195944701E-01  0.25960144216E-01  0.00000000000E+00 0. -1.
     999901    1    3    3    0    0 -0.23736875803E-01  0.42330744809E-02 -0.11462869991E+00  0.88776184703E+00  0.88000000000E+00 0. -1.
        -11    1    4    4    0    0 -0.56666105092E-02  0.14360677686E-02  0.14843241128E-01  0.15961068056E-01  0.51100000000E-03 0.  1.
         11    1    4    4    0    0  0.13588416723E-01  0.10132114189E-01  0.11298140348E+00  0.11424694070E+00  0.51100000000E-03 0. -1.
</event>
<event>
 8    1  0.1204770E+005  0.1043930E+01  0.7957747E-01            NaN
         13   -1    0    0    0    0  0.00000000000E+00  0.00000000000E+00  0.74505805969E-08  0.10566000000E+00  0.10566000000E+00 0. -1.
     999900   -1    0    0    0    0 -0.00000000000E+00 -0.00000000000E+00 -0.74505805969E-08  0.93827000000E+00  0.93827000000E+00 0. -1.
     999902    2    1    2    0    0 -0.13920916682E-01 -0.11358912869E-01 -0.16212910833E-01  0.10197292707E+01  0.10194420583E+01 0.  0.
     999903    2    3    3    0    0 -0.11730351175E+00 -0.43760410598E-03  0.54335538595E-01  0.13080614706E+00  0.19939708847E-01 0.  0.
         14    1    1    2    0    0  0.13920916682E-01  0.11358912869E-01  0.16212910833E-01  0.24200729339E-01  0.00000000000E+00 0. -1.
     999901    1    3    3    0    0  0.10338259507E+00 -0.10921308763E-01 -0.70548449428E-01  0.88892312360E+00  0.88000000000E+00 0.  1.
        -11    1    4    4    0    0 -0.17189304584E-01 -0.62073753530E-02  0.45219042373E-02  0.18833811080E-01  0.51100000000E-03 0.  1.
         11    1    4    4    0    0 -0.10011420717E+00  0.57697712470E-02  0.49813634357E-01  0.11197233598E+00  0.51100000000E-03 0. -1.
</event>
<event>
 8    1  0.1204770E+005  0.1043930E+01  0.7957747E-01            NaN
         13   -1    0    0    0    0  0.00000000000E+00  0.00000000000E+00  0.74505805969E-08  0.10566000000E+00  0.10566000000E+00 0. -1.
     999900   -1    0    0    0    0 -0.00000000000E+00 -0.00000000000E+00 -0.74505805969E-08  0.93827000000E+00  0.93827000000E+00 0. -1.
     999902    2    1    2    0    0 -0.19950857510E-01 -0.11038202942E-01  0.58077226249E-02  0.10204011181E+01  0.10201298121E+01 0.  0.
     999903    2    3    3    0    0  0.91050120185E-01  0.87425707067E-01  0.10534562844E-01  0.12796697399E+00  0.18198647643E-01 0.  0.
         14    1    1    2    0    0  0.19950857510E-01  0.11038202942E-01 -0.58077226249E-02  0.23528881862E-01  0.00000000000E+00 0.  1.
     999901    1    3    3    0    0 -0.11100097769E+00 -0.98463910009E-01 -0.47268402195E-02  0.89243414415E+00  0.88000000000E+00 0.  1.
        -11    1    4    4    0    0  0.45934655299E-01  0.54025576298E-01  0.35985423783E-03  0.70916472472E-01  0.51100000000E-03 0. -1.
         11    1    4    4    0    0  0.45115464886E-01  0.33400130768E-01  0.10174708607E-01  0.57050501518E-01  0.51100000000E-03 0.  1.
</event>
<event>
 8    1  0.1204770E+005  0.1043930E+01  0.7957747E-01            NaN
         13   -1    0    0    0    0  0.00000000000E+00  0.00000000000E+00  0.74505805969E-08  0.10566000000E+00  0.10566000000E+00 0. -1.
     999900   -1    0    0    0    0 -0.00000000000E+00 -0.00000000000E+00 -0.74505805969E-08  0.93827000000E+00  0.93827000000E+00 0. -1.
     999902    2    1    2    0    0  0.20535399180E-01  0.49768366012E-02 -0.10646858553E-01  0.10202693339E+01  0.10199949444E+01 0.  0.
     999903    2    3    3    0    0  0.10770085308E+00  0.68217657809E-01 -0.33806746534E-01  0.13340203933E+00  0.20002134730E-01 0.  0.
         14    1    1    2    0    0 -0.20535399180E-01 -0.49768366012E-02  0.10646858553E-01  0.23660666074E-01  0.00000000000E+00 0. -1.
     999901    1    3    3    0    0 -0.87165453901E-01 -0.63240821208E-01  0.23159887981E-01  0.88686729460E+00  0.88000000000E+00 0. -1.
        -11    1    4    4    0    0  0.63064890992E-01  0.30411636527E-01 -0.24441177533E-01  0.74159830045E-01  0.51100000000E-03 0. -1.
         11    1    4    4    0    0  0.44635962089E-01  0.37806021281E-01 -0.93655690006E-02  0.59242209280E-01  0.51100000000E-03 0.  1.
</event>
<event>
 8    1  0.1204770E+005  0.1043930E+01  0.7957747E-01            NaN
         13   -1    0    0    0    0  0.00000000000E+00  0.00000000000E+00  0.74505805969E-08  0.10566000000E+00  0.10566000000E+00 0.  1.
     999900   -1    0    0    0    0 -0.00000000000E+00 -0.00000000000E+00 -0.74505805969E-08  0.93827000000E+00  0.93827000000E+00 0.  1.
     999902    2    1    2    0    0  0.11190510945E-01 -0.13509930572E-01  0.15016954415E-01  0.10208376922E+01  0.10205764739E+01 0.  0.
     999903    2    3    3    0    0  0.10017756059E+00  0.79347132698E-01  0.23761317661E-01  0.13144599386E+00  0.19543233400E-01 0.  0.
         14    1    1    2    0    0 -0.11190510945E-01  0.13509930572E-01 -0.15016954415E-01  0.23092307793E-01  0.00000000000E+00 0.  1.
     999901    1    3    3    0    0 -0.88987049643E-01 -0.92857063270E-01 -0.87443632453E-02  0.88939169835E+00  0.88000000000E+00 0.  1.
        -11    1    4    4    0    0  0.43319172460E-01  0.43020969645E-01  0.18365792572E-01  0.63756709370E-01  0.51100000000E-03 0. -1.
         11    1    4    4    0    0  0.56858388128E-01  0.36326163053E-01  0.53955250887E-02  0.67689284489E-01  0.51100000000E-03 0.  1.
</event>
<event>
 8    1  0.1204770E+005  0.1043930E+01  0.7957747E-01            NaN
         13   -1    0    0    0    0  0.00000000000E+00  0.00000000000E+00  0.74505805969E-08  0.10566000000E+00  0.10566000000E+00 0. -1.
     999900   -1    0    0    0    0 -0.00000000000E+00 -0.00000000000E+00 -0.74505805969E-08  0.93827000000E+00  0.93827000000E+00 0.  1.
     999902    2    1    2    0    0 -0.21280807538E-01  0.12776831466E-02  0.48499189027E-02  0.10220661724E+01  0.10218322924E+01 0.  0.
     999903    2    3    3    0    0  0.19300674752E-01  0.12015663382E+00  0.48552413926E-01  0.13207236923E+00  0.16602443192E-01 0.  0.
         14    1    1    2    0    0  0.21280807538E-01 -0.12776831466E-02 -0.48499189027E-02  0.21863827594E-01  0.00000000000E+00 0. -1.
     999901    1    3    3    0    0 -0.40581482290E-01 -0.11887895067E+00 -0.43702495023E-01  0.88999380317E+00  0.88000000000E+00 0. -1.
        -11    1    4    4    0    0  0.14671355346E-01  0.45448114735E-01  0.22698452365E-01  0.52879680988E-01  0.51100000000E-03 0.  1.
         11    1    4    4    0    0  0.46293194057E-02  0.74708519084E-01  0.25853961561E-01  0.79192688244E-01  0.51100000000E-03 0. -1.
</event>
<event>
 8    1  0.1204770E+005  0.1043930E+01  0.7957747E-01            NaN
         13   -1    0    0    0    0  0.00000000000E+00  0.00000000000E+00  0.74505805969E-08  0.10566000000E+00  0.10566000000E+00 0. -1.
     999900   -1    0    0    0    0 -0.00000000000E+00 -0.00000000000E+00 -0.74505805969E-08  0.93827000000E+00  0.93827000000E+00 0. -1.
     999902    2    1    2    0    0  0.20204778565E-01 -0.98114789952E-02  0.61684035254E-02  0.10206373531E+01  0.10203715300E+01 0.  0.
     999903    2    3    3    0    0  0.11389060683E+00 -0.61079511825E-01 -0.26536970657E-01  0.13357755405E+00  0.20903948112E-01 0.  0.
         14    1    1    2    0    0 -0.20204778565E-01  0.98114789952E-02 -0.61684035254E-02  0.23292646887E-01  0.00000000000E+00 0.  1.
     999901    1    3    3    0    0 -0.93685828264E-01  0.51268032829E-01  0.32705374182E-01  0.88705979906E+00  0.88000000000E+00 0.  1.
        -11    1    4    4    0    0  0.37913226741E-01 -0.17367229747E-01 -0.18274357704E-01  0.45532918877E-01  0.51100000000E-03 0.  1.
         11    1    4    4    0    0  0.75977380088E-01 -0.43712282078E-01 -0.82626129522E-02  0.88044635176E-01  0.51100000000E-03 0. -1.
</event>
<event>
 8    1  0.1204770E+005  0.1043930E+01  0.7957747E-01            NaN
         13   -1    0    0    0    0  0.00000000000E+00  0.00000000000E+00  0.74505805969E-08  0.10566000000E+00  0.10566000000E+00 0.  1.
     999900   -1    0    0    0    0 -0.00000000000E+00 -0.00000000000E+00 -0.74505805969E-08  0.93827000000E+00  0.93827000000E+00 0.  1.
     999902    2    1    2    0    0  0.21299454861E-01  0.86333330861E-02 -0.50642766759E-02  0.10203960221E+01  0.10201245972E+01 0.  0.
     999903    2    3    3    0    0  0.17975917615E-01 -0.79468456036E-01  0.99120186202E-01  0.12987517818E+00  0.20109238584E-01 0.  0.
         14    1    1    2    0    0 -0.21299454861E-01 -0.86333330861E-02  0.50642766759E-02  0.23533977900E-01  0.00000000000E+00 0.  1.
     999901    1    3    3    0    0  0.33235372461E-02  0.88101789123E-01 -0.10418446288E+00  0.89052084392E+00  0.88000000000E+00 0.  1.
        -11    1    4    4    0    0  0.35877055479E-02 -0.53741183367E-01  0.56591597147E-01  0.78127180990E-01  0.51100000000E-03 0. -1.
         11    1    4    4    0    0  0.14388212067E-01 -0.25727272670E-01  0.42528589055E-01  0.51747997193E-01  0.51100000000E-03 0.  1.
</event>
<event>
 8    1  0.1204770E+005  0.1043930E+01  0.7957747E-01            NaN
         13   -1    0    0    0    0  0.00000000000E+00  0.00000000000E+00  0.74505805969E-08  0.10566000000E+00  0.10566000000E+00 0.  1.
     999900   -1    0    0    0    0 -0.00000000000E+00 -0.00000000000E+00 -0.74505805969E-08  0.93827000000E+00  0.93827000000E+00 0.  1.
     999902    2    1    2    0    0 -0.21740981550E-02  0.12693415479E-01  0.19212165254E-01  0.10208008670E+01  0.10205388054E+01 0.  0.
     999903    2    3    3    0    0  0.10830653211E+00  0.72180853503E-01  0.90382698950E-03  0.13171149006E+00  0.20167280448E-01 0.  0.
         14    1    1    2    0    0  0.21740981550E-02 -0.12693415479E-01 -0.19212165254E-01  0.23129132994E-01  0.00000000000E+00 0. -1.
     999901    1    3    3    0    0 -0.11048063027E+00 -0.59487438024E-01  0.18308338264E-01  0.88908937695E+00  0.88000000000E+00 0. -1.
        -11    1    4    4    0    0  0.21183437847E-01  0.61482589291E-02 -0.33058933763E-02  0.22309844887E-01  0.51100000000E-03 0.  1.
         11    1    4    4    0    0  0.87123094264E-01  0.66032594574E-01  0.42097203658E-02  0.10940164517E+00  0.51100000000E-03 0. -1.
</event>
<event>
 8    1  0.1204770E+005  0.1043930E+01  0.7957747E-01            NaN
         13   -1    0    0    0    0  0.00000000000E+00  0.00000000000E+00  0.74505805969E-08  0.10566000000E+00  0.10566000000E+00 0.  1.
     999900   -1    0    0    0    0 -0.00000000000E+00 -0.00000000000E+00 -0.74505805969E-08  0.93827000000E+00  0.93827000000E+00 0. -1.
     999902    2    1    2    0    0 -0.12457448305E-01 -0.57225069216E-02 -0.19286216036E-01  0.10202679368E+01  0.10199935145E+01 0.  0.
     999903    2    3    3    0    0  0.70923016269E-02  0.55725931261E-01  0.11345510704E+00  0.12797966385E+00  0.18736405444E-01 0.  0.
         14    1    1    2    0    0  0.12457448305E-01  0.57225069216E-02  0.19286216036E-01  0.23662063154E-01  0.00000000000E+00 0.  1.
     999901    1    3    3    0    0 -0.19549749932E-01 -0.61448438183E-01 -0.13274132307E+00  0.89228827300E+00  0.88000000000E+00 0. -1.
        -11    1    4    4    0    0 -0.13455383234E-02  0.82266406234E-02  0.62903439472E-02  0.10455507510E-01  0.51100000000E-03 0.  1.
         11    1    4    4    0    0  0.84378399503E-02  0.47499290637E-01  0.10716476309E+00  0.11752415634E+00  0.51100000000E-03 0. -1.
</event>
<event>
 8    1  0.1204770E+005  0.1043930E+01  0.7957747E-01            NaN
         13   -1    0    0    0    0  0.00000000000E+00  0.00000000000E+00  0.74505805969E-08  0.10566000000E+00  0.10566000000E+00 0. -1.
     999900   -1    0    0    0    0 -0.00000000000E+00 -0.00000000000E+00 -0.74505805969E-08  0.93827000000E+00  0.93827000000E+00 0.  1.
     999902    2    1    2    0    0  0.83654830883E-02 -0.15152921475E-01  0.16142751744E-01  0.10202618617E+01  0.10199872968E+01 0.  0.
     999903    2    3    3    0    0 -0.11223026638E+00 -0.81569286465E-02 -0.59433756496E-01  0.12880009174E+00  0.19872695955E-01 0.  0.
         14    1    1    2    0    0 -0.83654830883E-02  0.15152921475E-01 -0.16142751744E-01  0.23668138295E-01  0.00000000000E+00 0.  1.
     999901    1    3    3    0    0  0.12059574947E+00 -0.69959928280E-02  0.75576508240E-01  0.89146176996E+00  0.88000000000E+00 0. -1.
        -11    1    4    4    0    0 -0.73245502595E-01 -0.18751933216E-02 -0.48339684541E-01  0.87780443282E-01  0.51100000000E-03 0. -1.
         11    1    4    4    0    0 -0.38984763787E-01 -0.62817353249E-02 -0.11094071955E-01  0.41019648460E-01  0.51100000000E-03 0.  1.
</event>
<event>
 8    1  0.1204770E+005  0.1043930E+01  0.7957747E-01            NaN
         13   -1    0    0    0    0  0.00000000000E+00  0.00000000000E+00  0.74505805969E-08  0.10566000000E+00  0.10566000000E+00 0. -1.
     999900   -1    0    0    0    0 -0.00000000000E+00 -0.00000000000E+00 -0.74505805969E-08  0.93827000000E+00  0.93827000000E+00 0.  1.
     999902    2    1    2    0    0  0.23563038028E-01  0.33703232830E-02  0.54689768103E-02  0.10195069464E+01  0.10192143681E+01 0.  0.
     999903    2    3    3    0    0 -0.12772619436E-03  0.12777745890E+00  0.16212046188E-01  0.13037602170E+00  0.20198546367E-01 0.  0.
         14    1    1    2    0    0 -0.23563038028E-01 -0.33703232830E-02 -0.54689768103E-02  0.24423053607E-01  0.00000000000E+00 0. -1.
     999901    1    3    3    0    0  0.23690764223E-01 -0.12440713562E+00 -0.10743069377E-01  0.88913092469E+00  0.88000000000E+00 0.  1.
        -11    1    4    4    0    0  0.94728445567E-02  0.46732544756E-01  0.39835585825E-02  0.47851806479E-01  0.51100000000E-03 0.  1.
         11    1    4    4    0    0 -0.96005707510E-02  0.81044914148E-01  0.12228487605E-01  0.82524215222E-01  0.51100000000E-03 0. -1.
</event>
<event>
 8    1  0.1204770E+005  0.1043930E+01  0.7957747E-01            NaN
         13   -1    0    0    0    0  0.00000000000E+00  0.00000000000E+00  0.74505805969E-08  0.10566000000E+00  0.10566000000E+00 0.  1.
     999900   -1    0    0    0    0 -0.00000000000E+00 -0.00000000000E+00 -0.74505805969E-08  0.93827000000E+00  0.93827000000E+00 0.  1.
     999902    2    1    2    0    0  0.83340335166E-02 -0.18549394324E-01  0.10583232092E-01  0.10210053202E+01  0.10207479233E+01 0.  0.
     999903    2    3    3    0    0  0.14671269654E-01  0.12340088409E+00  0.29753280054E-01  0.12940140987E+00  0.20406931512E-01 0.  0.
         14    1    1    2    0    0 -0.83340335166E-02  0.18549394324E-01 -0.10583232092E-01  0.22924679844E-01  0.00000000000E+00 0.  1.
     999901    1    3    3    0    0 -0.63372361372E-02 -0.14195027842E+00 -0.19170047962E-01  0.89160391029E+00  0.88000000000E+00 0.  1.
        -11    1    4    4    0    0  0.55471203149E-02  0.16933523704E-01 -0.19657930427E-02  0.17934331102E-01  0.51100000000E-03 0. -1.
         11    1    4    4    0    0  0.91241493388E-02  0.10646736039E+00  0.31719073097E-01  0.11146707876E+00  0.51100000000E-03 0.  1.
</event>
<event>
 8    1  0.1204770E+005  0.1043930E+01  0.7957747E-01            NaN
         13   -1    0    0    0    0  0.00000000000E+00  0.00000000000E+00  0.74505805969E-08  0.10566000000E+00  0.10566000000E+00 0. -1.
     999900   -1    0    0    0    0 -0.00000000000E+00 -0.00000000000E+00 -0.74505805969E-08  0.93827000000E+00  0.93827000000E+00 0.  1.
     999902    2    1    2    0    0  0.80874580460E-02 -0.19930602118E-01  0.91955888684E-02  0.10205378062E+01  0.10202696796E+01 0.  0.
     999903    2    3    3    0    0  0.71423941017E-01  0.10991675815E-01  0.10980143379E+00  0.13200573955E+00  0.12122876067E-01 0.  0.
         14    1    1    2    0    0 -0.80874580460E-02  0.19930602118E-01 -0.91955888684E-02  0.23392193849E-01  0.00000000000E+00 0.  1.
     999901    1    3    3    0    0 -0.63336482971E-01 -0.30922277934E-01 -0.10060584492E+00  0.88853206660E+00  0.88000000000E+00 0.  1.
        -11    1    4    4    0    0  0.90086445350E-02  0.30676808127E-02  0.22118991159E-01  0.24084792563E-01  0.51100000000E-03 0.  1.
         11    1    4    4    0    0  0.62415296482E-01  0.79239950025E-02  0.87682442630E-01  0.10792094699E+00  0.51100000000E-03 0. -1.
</event>
<event>
 8    1  0.1204770E+005  0.1043930E+01  0.7957747E-01            NaN
         13   -1    0    0    0    0  0.00000000000E+00  0.00000000000E+00  0.74505805969E-08  0.10566000000E+00  0.10566000000E+00 0. -1.
     999900   -1    0    0    0    0 -0.00000000000E+00 -0.00000000000E+00 -0.74505805969E-08  0.93827000000E+00  0.93827000000E+00 0.  1.
     999902    2    1    2    0    0 -0.22606516243E-01  0.55392516557E-02  0.33945834983E-02  0.10204084974E+01  0.10201373636E+01 0.  0.
     999903    2    3    3    0    0 -0.12586301764E+00 -0.16456785505E-01 -0.35473472777E-01  0.13324647361E+00  0.19594143490E-01 0.  0.
         14    1    1    2    0    0  0.22606516243E-01 -0.55392516557E-02 -0.33945834983E-02  0.23521502560E-01  0.00000000000E+00 0.  1.
     999901    1    3    3    0    0  0.10325650140E+00  0.21996037161E-01  0.38868056276E-01  0.88716202383E+00  0.88000000000E+00 0. -1.
        -11    1    4    4    0    0 -0.26677509257E-01  0.16550881175E-02 -0.13923852437E-01  0.30142388832E-01  0.51100000000E-03 0. -1.
         11    1    4    4    0    0 -0.99185508384E-01 -0.18111873622E-01 -0.21549620340E-01  0.10310408478E+00  0.51100000000E-03 0.  1.
</event>
<event>
 8    1  0.1204770E+005  0.1043930E+01  0.7957747E-01            NaN
         13   -1    0    0    0    0  0.00000000000E+00  0.00000000000E+00  0.74505805969E-08  0.10566000000E+00  0.10566000000E+00 0. -1.
     999900   -1    0    0    0    0 -0.00000000000E+00 -0.00000000000E+00 -0.74505805969E-08  0.93827000000E+00  0.93827000000E+00 0. -1.
     999902    2    1    2    0    0  0.16939230575E-01  0.15239706539E-01  0.55248564891E-02  0.10204841000E+01  0.10202147265E+01 0.  0.
     999903    2    3    3    0    0  0.98807267280E-02 -0.52592339646E-01 -0.11619053541E+00  0.12949271643E+00  0.20113183172E-01 0.  0.
         14    1    1    2    0    0 -0.16939230575E-01 -0.15239706539E-01 -0.55248564891E-02  0.23445900006E-01  0.00000000000E+00 0.  1.
     999901    1    3    3    0    0  0.70585038470E-02  0.67832046185E-01  0.12171539190E+00  0.89099138357E+00  0.88000000000E+00 0.  1.
        -11    1    4    4    0    0 -0.13162095310E-02 -0.14041838333E-01 -0.51134614583E-01  0.53046352946E-01  0.51100000000E-03 0. -1.
         11    1    4    4    0    0  0.11196936259E-01 -0.38550501313E-01 -0.65055920832E-01  0.76446363480E-01  0.51100000000E-03 0.  1.
</event>
<event>
 8    1  0.1204770E+005  0.1043930E+01  0.7957747E-01            NaN
         13   -1    0    0    0    0  0.00000000000E+00  0.00000000000E+00  0.74505805969E-08  0.10566000000E+00  0.10566000000E+00 0.  1.
     999900   -1    0    0    0    0 -0.00000000000E+00 -0.00000000000E+00 -0.74505805969E-08  0.93827000000E+00  0.93827000000E+00 0. -1.
     999902    2    1    2    0    0  0.11451218638E-01  0.28930508464E-02 -0.20268515580E-01  0.10204712516E+01  0.10202015794E+01 0.  0.
     999903    2    3    3    0    0  0.76532986217E-01  0.65114216381E-01  0.77927867509E-01  0.13044336467E+00  0.29078509195E-01 0.  0.
         14    1    1    2    0    0 -0.11451218638E-01 -0.28930508464E-02  0.20268515580E-01  0.23458748375E-01  0.00000000000E+00 0.  1.
     999901    1    3    3    0    0 -0.65081767579E-01 -0.62221165535E-01 -0.98196383089E-01  0.89002788696E+00  0.88000000000E+00 0. -1.
        -11    1    4    4    0    0  0.82636866195E-02  0.18266204914E-03  0.17167901119E-03  0.82832648546E-02  0.51100000000E-03 0.  1.
         11    1    4    4    0    0  0.68269299597E-01  0.64931554332E-01  0.77756188498E-01  0.12216009981E+00  0.51100000000E-03 0. -1.
</event>
<event>
 8    1  0.1204770E+005  0.1043930E+01  0.7957747E-01            NaN
         13   -1    0    0    0    0  0.00000000000E+00  0.00000000000E+00  0.74505805969E-08  0.10566000000E+00  0.10566000000E+00 0. -1.
     999900   -1    0    0    0    0 -0.00000000000E+00 -0.00000000000E+00 -0.74505805969E-08  0.93827000000E+00  0.93827000000E+00 0. -1.
     999902    2    1    2    0    0 -0.19115206684E-01 -0.59665744451E-02 -0.14207156259E-01  0.10193773133E+01  0.10190815828E+01 0.  0.
     999903    2    3    3    0    0 -0.10616020190E+00  0.69319541272E-01 -0.29027044704E-01  0.13176001988E+00  0.21046288169E-01 0.  0.
         14    1    1    2    0    0  0.19115206684E-01  0.59665744451E-02  0.14207156259E-01  0.24552686740E-01  0.00000000000E+00 0. -1.
     999901    1    3    3    0    0  0.87044995214E-01 -0.75286115717E-01  0.14819888445E-01  0.88761729338E+00  0.88000000000E+00 0.  1.
        -11    1    4    4    0    0 -0.19816813099E-01  0.60303868545E-02 -0.10073581143E-01  0.23039309996E-01  0.51100000000E-03 0.  1.
         11    1    4    4    0    0 -0.86343388798E-01  0.63289154417E-01 -0.18953463561E-01  0.10872070989E+00  0.51100000000E-03 0. -1.
</event>
<event>
 8    1  0.1204770E+005  0.1043930E+01  0.7957747E-01            NaN
         13   -1    0    0    0    0  0.00000000000E+00  0.00000000000E+00  0.74505805969E-08  0.10566000000E+00  0.10566000000E+00 0. -1.
     999900   -1    0    0    0    0 -0.00000000000E+00 -0.00000000000E+00 -0.74505805969E-08  0.93827000000E+00  0.93827000000E+00 0.  1.
     999902    2    1    2    0    0 -0.56667509877E-02 -0.12549395346E-01  0.19507097271E-01  0.10200526837E+01  0.10197731862E+01 0.  0.
     999903    2    3    3    0    0 -0.23788626880E-01 -0.48204616914E-01  0.11964141161E+00  0.13347128409E+00  0.24717047639E-01 0.  0.
         14    1    1    2    0    0  0.56667509877E-02  0.12549395346E-01 -0.19507097271E-01  0.23877316312E-01  0.00000000000E+00 0.  1.
     999901    1    3    3    0    0  0.18121875893E-01  0.35655221569E-01 -0.10013431434E+00  0.88658139960E+00  0.88000000000E+00 0.  1.
        -11    1    4    4    0    0 -0.22758276780E-01 -0.19414490135E-01  0.68992348256E-01  0.75200178378E-01  0.51100000000E-03 0. -1.
         11    1    4    4    0    0 -0.10303501006E-02 -0.28790126780E-01  0.50649063350E-01  0.58271105709E-01  0.51100000000E-03 0.  1.
</event>
<event>
 8    1  0.1204770E+005  0.1043930E+01  0.7957747E-01            NaN
         13   -1    0    0    0    0  0.00000000000E+00  0.00000000000E+00  0.74505805969E-08  0.10566000000E+00  0.10566000000E+00 0. -1.
     999900   -1    0    0    0    0 -0.00000000000E+00 -0.00000000000E+00 -0.74505805969E-08  0.93827000000E+00  0.93827000000E+00 0. -1.
     999902    2    1    2    0    0  0.79534721567E-02  0.21497510401E-01  0.11811086674E-02  0.10209779698E+01  0.10207199514E+01 0.  0.
     999903    2    3    3    0    0 -0.67171628806E-01  0.86516191911E-01  0.71494201246E-01  0.13260015562E+00  0.21778459041E-01 0.  0.
         14    1    1    2    0    0 -0.79534721567E-02 -0.21497510401E-01 -0.11811086674E-02  0.22952030204E-01  0.00000000000E+00 0. -1.
     999901    1    3    3    0    0  0.75125100963E-01 -0.65018681510E-01 -0.70313092578E-01  0.88837781418E+00  0.88000000000E+00 0. -1.
        -11    1    4    4    0    0 -0.23565370464E-01  0.47816853415E-01  0.31976244876E-01  0.62165259695E-01  0.51100000000E-03 0. -1.
         11    1    4    4    0    0 -0.43606258343E-01  0.38699338497E-01  0.39517956370E-01  0.70434895921E-01  0.51100000000E-03 0.  1.
</event>
<event>
 8    1  0.1204770E+005  0.1043930E+01  0.7957747E-01            NaN
         13   -1    0    0    0    0  0.00000000000E+00  0.00000000000E+00  0.74505805969E-08  0.10566000000E+00  0.10566000000E+00 0. -1.
     999900   -1    0    0    0    0 -0.00000000000E+00 -0.00000000000E+00 -0.74505805969E-08  0.93827000000E+00  0.93827000000E+00 0.  1.
     999902    2    1    2    0    0  0.29345526310E-02 -0.42703798133E-02 -0.23225491044E-01  0.10201335470E+01  0.10198559616E+01 0.  0.
     999903    2    3    3    0    0 -0.12715651499E+00  0.16212826767E-01  0.56706386691E-02  0.12986491675E+00  0.20027616058E-01 0.  0.
         14    1    1    2    0    0 -0.29345526310E-02  0.42703798133E-02  0.23225491044E-01  0.23796453037E-01  0.00000000000E+00 0. -1.
     999901    1    3    3    0    0  0.13009106762E+00 -0.20483206581E-01 -0.28896129713E-01  0.89026863021E+00  0.88000000000E+00 0. -1.
        -11    1    4    4    0    0 -0.56675615123E-01  0.15175344054E-01  0.86663461775E-02  0.59310901981E-01  0.51100000000E-03 0.  1.
         11    1    4    4    0    0 -0.70480899863E-01  0.10374827136E-02 -0.29957075084E-02  0.70554014771E-01  0.51100000000E-03 0. -1.
</event>
<event>
 8    1  0.1204770E+005  0.1043930E+01  0.7957747E-01            NaN
         13   -1    0    0    0    0  0.00000000000E+00  0.00000000000E+00  0.74505805969E-08  0.10566000000E+00  0.10566000000E+00 0.  1.
     999900   -1    0    0    0    0 -0.00000000000E+00 -0.00000000000E+00 -0.74505805969E-08  0.93827000000E+00  0.93827000000E+00 0. -1.
     999902    2    1    2    0    0 -0.43072279966E-02  0.41265116162E-02  0.25237303511E-01  0.10179973603E+01  0.10176670005E+01 0.  0.
     999903    2    3    3    0    0 -0.11856318495E+00 -0.10558780061E-01  0.48531417675E-01  0.13018392428E+00  0.20587349957E-01 0.  0.
         14    1    1    2    0    0  0.43072279966E-02 -0.41265116162E-02 -0.25237303511E-01  0.25932639658E-01  0.00000000000E+00 0. -1.
     999901    1    3    3    0    0  0.11425595695E+00  0.14685291677E-01 -0.23294114165E-01  0.88781343606E+00  0.88000000000E+00 0. -1.
        -11    1    4    4    0    0 -0.48594291587E-01  0.41551097605E-02  0.25669910464E-01  0.55116926041E-01  0.51100000000E-03 0. -1.
         11    1    4    4    0    0 -0.69968893363E-01 -0.14713889821E-01  0.22861507212E-01  0.75066998243E-01  0.51100000000E-03 0.  1.
</event>
<event>
 8    1  0.1204770E+005  0.1043930E+01  0.7957747E-01            NaN
         13   -1    0    0    0    0  0.00000000000E+00  0.00000000000E+00  0.74505805969E-08  0.10566000000E+00  0.10566000000E+00 0. -1.
     999900   -1    0    0    0    0 -0.00000000000E+00 -0.00000000000E+00 -0.74505805969E-08  0.93827000000E+00  0.93827000000E+00 0.  1.
     999902    2    1    2    0    0 -0.16070285315E-01  0.15402117649E-01  0.84278214129E-02  0.10201285826E+01  0.10198508800E+01 0.  0.
     999903    2    3    3    0    0  0.49805929247E-01 -0.43962267253E-01 -0.10763926903E+00  0.12808857487E+00  0.20178187337E-01 0.  0.
         14    1    1    2    0    0  0.16070285315E-01 -0.15402117649E-01 -0.84278214129E-02  0.23801417435E-01  0.00000000000E+00 0.  1.
     999901    1    3    3    0    0 -0.65876214561E-01  0.59364384902E-01  0.11606709045E+00  0.89204000769E+00  0.88000000000E+00 0. -1.
        -11    1    4    4    0    0  0.28689807312E-01 -0.31452139156E-01 -0.83135620857E-01  0.93403076381E-01  0.51100000000E-03 0. -1.
         11    1    4    4    0    0  0.21116121935E-01 -0.12510128097E-01 -0.24503648178E-01  0.34685498491E-01  0.51100000000E-03 0.  1.
</event>
<event>
 8    1  0.1204770E+005  0.1043930E+01  0.7957747E-01            NaN
         13   -1    0    0    0    0  0.00000000000E+00  0.00000000000E+00  0.74505805969E-08  0.10566000000E+00  0.10566000000E+00 0. -1.
     999900   -1    0    0    0    0 -0.00000000000E+00 -0.00000000000E+00 -0.74505805969E-08  0.93827000000E+00  0.93827000000E+00 0.  1.
     999902    2    1    2    0    0 -0.14278256137E-01  0.14986601293E-01 -0.12269115453E-02  0.10231942307E+01  0.10229840965E+01 0.  0.
     999903    2    3    3    0    0 -0.96626732425E-01 -0.26493234855E-01 -0.86907608915E-01  0.13423808428E+00  0.20695745244E-01 0.  0.
         14    1    1    2    0    0  0.14278256137E-01 -0.14986601293E-01  0.12269115453E-02  0.20735769303E-01  0.00000000000E+00 0.  1.
     999901    1    3    3    0    0  0.82348476287E-01  0.41479836148E-01  0.85680697370E-01  0.88895614642E+00  0.88000000000E+00 0. -1.
        -11    1    4    4    0    0 -0.44326253528E-01 -0.10617306111E-01 -0.53043168357E-01  0.69938421281E-01  0.51100000000E-03 0.  1.
         11    1    4    4    0    0 -0.52300478896E-01 -0.15875928744E-01 -0.33864440558E-01  0.64299662997E-01  0.51100000000E-03 0. -1.
</event>
<event>
 8    1  0.1204770E+005  0.1043930E+01  0.7957747E-01            NaN
         13   -1    0    0    0    0  0.00000000000E+00  0.00000000000E+00  0.74505805969E-08  0.10566000000E+00  0.10566000000E+00 0.  1.
     999900   -1    0    0    0    0 -0.00000000000E+00 -0.00000000000E+00 -0.74505805969E-08  0.93827000000E+00  0.93827000000E+00 0. -1.
     999902    2    1    2    0    0  0.20183934119E-01 -0.19490171179E-01 -0.66923596880E-02  0.10150847985E+01  0.10146748753E+01 0.  0.
     999903    2    3    3    0    0 -0.44733715695E-01 -0.58612419413E-01 -0.10116902245E+00  0.12678828759E+00  0.20089244283E-01 0.  0.
         14    1    1    2    0    0 -0.20183934119E-01  0.19490171179E-01  0.66923596880E-02  0.28845201460E-01  0.00000000000E+00 0. -1.
     999901    1    3    3    0    0  0.64917649814E-01  0.39122248235E-01  0.94476662764E-01  0.88829651095E+00  0.88000000000E+00 0.  1.
        -11    1    4    4    0    0 -0.13959764504E-01 -0.62431479625E-02 -0.25700505032E-01  0.29910349402E-01  0.51100000000E-03 0.  1.
         11    1    4    4    0    0 -0.30773951191E-01 -0.52369271451E-01 -0.75468517420E-01  0.96877938184E-01  0.51100000000E-03 0. -1.
</event>
<event>
 8    1  0.1204770E+005  0.1043930E+01  0.7957747E-01            NaN
         13   -1    0    0    0    0  0.00000000000E+00  0.00000000000E+00  0.74505805969E-08  0.10566000000E+00  0.10566000000E+00 0.  1.
     999900   -1    0    0    0    0 -0.00000000000E+00 -0.00000000000E+00 -0.74505805969E-08  0.93827000000E+00  0.93827000000E+00 0.  1.
     999902    2    1    2    0    0  0.10216571150E-01 -0.62988980551E-02  0.20785968860E-01  0.10199276888E+01  0.10196452223E+01 0.  0.
     999903    2    3    3    0    0 -0.75192578888E-01  0.99035363492E-01  0.29899353333E-01  0.12949347821E+00  0.20314094297E-01 0.  0.
         14    1    1    2    0    0 -0.10216571150E-01  0.62988980551E-02 -0.20785968860E-01  0.24002311227E-01  0.00000000000E+00 0. -1.
     999901    1    3    3    0    0  0.85409150039E-01 -0.10533426155E+00 -0.91133844724E-02  0.89043421056E+00  0.88000000000E+00 0.  1.
        -11    1    4    4    0    0 -0.52991042396E-02  0.17770372002E-01  0.15259968556E-02  0.18613339685E-01  0.51100000000E-03 0.  1.
         11    1    4    4    0    0 -0.69893474649E-01  0.81264991491E-01  0.28373356477E-01  0.11088013852E+00  0.51100000000E-03 0. -1.
</event>
<event>
 8    1  0.1204770E+005  0.1043930E+01  0.7957747E-01            NaN
         13   -1    0    0    0    0  0.00000000000E+00  0.00000000000E+00  0.74505805969E-08  0.10566000000E+00  0.10566000000E+00 0.  1.
     999900   -1    0    0    0    0 -0.00000000000E+00 -0.00000000000E+00 -0.74505805969E-08  0.93827000000E+00  0.93827000000E+00 0.  1.
     999902    2    1    2    0    0  0.16721421446E-01  0.85787099139E-02 -0.14382707934E-01  0.10202643606E+01  0.10199898544E+01 0.  0.
     999903    2    3    3    0    0 -0.22147466847E-01  0.12682662685E+00  0.14770943306E-01  0.13102688070E+00  0.19348362576E-01 0.  0.
         14    1    1    2    0    0 -0.16721421446E-01 -0.85787099139E-02  0.14382707934E-01  0.23665639363E-01  0.00000000000E+00 0.  1.
     999901    1    3    3    0    0  0.38868888293E-01 -0.11824791694E+00 -0.29153651239E-01  0.88923747993E+00  0.88000000000E+00 0.  1.
        -11    1    4    4    0    0 -0.81852713573E-02  0.41577435238E-01  0.14018834051E-01  0.44637099114E-01  0.51100000000E-03 0. -1.
         11    1    4    4    0    0 -0.13962195490E-01  0.85249191614E-01  0.75210925413E-03  0.86389781590E-01  0.51100000000E-03 0.  1.
</event>
<event>
 8    1  0.1204770E+005  0.1043930E+01  0.7957747E-01            NaN
         13   -1    0    0    0    0  0.00000000000E+00  0.00000000000E+00  0.74505805969E-08  0.10566000000E+00  0.10566000000E+00 0.  1.
     999900   -1    0    0    0    0 -0.00000000000E+00 -0.00000000000E+00 -0.74505805969E-08  0.93827000000E+00  0.93827000000E+00 0.  1.
     999902    2    1    2    0    0 -0.44665924413E-02  0.10207376332E-01 -0.18568717445E-01  0.10222750180E+01  0.10220456321E+01 0.  0.
     999903    2    3    3    0    0 -0.10519741821E+00 -0.74292549964E-01  0.19195085573E-01  0.13170607530E+00  0.19803009445E-01 0.  0.
         14    1    1    2    0    0  0.44665924413E-02 -0.10207376332E-01  0.18568717445E-01  0.21654982040E-01  0.00000000000E+00 0.  1.
     999901    1    3    3    0    0  0.10073082577E+00  0.84499926296E-01 -0.37763803018E-01  0.89056894266E+00  0.88000000000E+00 0.  1.
        -11    1    4    4    0    0 -0.21860733420E-01 -0.23154949730E-01  0.10539780125E-01  0.33546854528E-01  0.51100000000E-03 0. -1.
         11    1    4    4    0    0 -0.83336684792E-01 -0.51137600235E-01  0.86553054480E-02  0.98159220776E-01  0.51100000000E-03 0.  1.
</event>
<event>
 8    1  0.1204770E+005  0.1043930E+01  0.7957747E-01            NaN
         13   -1    0    0    0    0  0.00000000000E+00  0.00000000000E+00  0.74505805969E-08  0.10566000000E+00  0.10566000000E+00 0. -1.
     999900   -1    0    0    0    0 -0.00000000000E+00 -0.00000000000E+00 -0.74505805969E-08  0.93827000000E+00  0.93827000000E+00 0. -1.
     999902    2    1    2    0    0 -0.22428971944E-01  0.96583079775E-03  0.84340949652E-02  0.10199482242E+01  0.10196662466E+01 0.  0.
     999903    2    3    3    0    0 -0.56645785045E-01 -0.76510298963E-01  0.89437780855E-01  0.13217858174E+00  0.20235859662E-01 0.  0.
         14    1    1    2    0    0  0.22428971944E-01 -0.96583079775E-03 -0.84340949652E-02  0.23981775778E-01  0.00000000000E+00 0. -1.
     999901    1    3    3    0    0  0.34216813101E-01  0.77476129761E-01 -0.81003685889E-01  0.88776964248E+00  0.88000000000E+00 0.  1.
        -11    1    4    4    0    0 -0.22791561077E-01 -0.38303553677E-01  0.54066215841E-01  0.70071636893E-01  0.51100000000E-03 0. -1.
         11    1    4    4    0    0 -0.33854223968E-01 -0.38206745286E-01  0.35371565014E-01  0.62106944848E-01  0.51100000000E-03 0.  1.
</event>
<event>
 8    1  0.1204770E+005  0.1043930E+01  0.7957747E-01            NaN
         13   -1    0    0    0    0  0.00000000000E+00  0.00000000000E+00  0.74505805969E-08  0.10566000000E+00  0.10566000000E+00 0.  1.
     999900   -1    0    0    0    0 -0.00000000000E+00 -0.00000000000E+00 -0.74505805969E-08  0.93827000000E+00  0.93827000000E+00 0.  1.
     999902    2    1    2    0    0 -0.30978087293E-02  0.22369799210E-01  0.84033276124E-02  0.10198339370E+01  0.10195492332E+01 0.  0.
     999903    2    3    3    0    0  0.23170605029E-01 -0.80386287167E-01 -0.93922358667E-01  0.12757871070E+00  0.21356166873E-01 0.  0.
         14    1    1    2    0    0  0.30978087293E-02 -0.22369799210E-01 -0.84033276124E-02  0.24096062969E-01  0.00000000000E+00 0.  1.
     999901    1    3    3    0    0 -0.26268413758E-01  0.10275608638E+00  0.10232568628E+00  0.89225522633E+00  0.88000000000E+00 0. -1.
        -11    1    4    4    0    0  0.21777843714E-01 -0.42946373868E-01 -0.60867470721E-01  0.77612986144E-01  0.51100000000E-03 0. -1.
         11    1    4    4    0    0  0.13927613147E-02 -0.37439913299E-01 -0.33054887946E-01  0.49965724552E-01  0.51100000000E-03 0.  1.
</event>
<event>
 8    1  0.1204770E+005  0.1043930E+01  0.7957747E-01            NaN
         13   -1    0    0    0    0  0.00000000000E+00  0.00000000000E+00  0.74505805969E-08  0.10566000000E+00  0.10566000000E+00 0.  1.
     999900   -1    0    0    0    0 -0.00000000000E+00 -0.00000000000E+00 -0.74505805969E-08  0.93827000000E+00  0.93827000000E+00 0. -1.
     999902    2    1    2    0    0 -0.22562382861E-01 -0.24668095958E-02 -0.76338253771E-02  0.10199837778E+01  0.10197026455E+01 0.  0.
     999903    2    3    3    0    0 -0.10982203930E+00 -0.65284419833E-01  0.29405224625E-01  0.13266636497E+00  0.20316529506E-01 0.  0.
         14    1    1    2    0    0  0.22562382861E-01  0.24668095958E-02  0.76338253771E-02  0.23946222246E-01  0.00000000000E+00 0.  1.
     999901    1    3    3    0    0  0.87259656438E-01  0.62817610238E-01 -0.37039050002E-01  0.88731741278E+00  0.88000000000E+00 0. -1.
        -11    1    4    4    0    0 -0.19003465674E-01 -0.37279650775E-02  0.75719753948E-02  0.20799648161E-01  0.51100000000E-03 0. -1.
         11    1    4    4    0    0 -0.90818573626E-01 -0.61556454756E-01  0.21833249230E-01  0.11186671681E+00  0.51100000000E-03 0.  1.
</event>
<event>
 8    1  0.1204770E+005  0.1043930E+01  0.7957747E-01            NaN
         13   -1    0    0    0    0  0.00000000000E+00  0.00000000000E+00  0.74505805969E-08  0.10566000000E+00  0.10566000000E+00 0. -1.
     999900   -1    0    0    0    0 -0.00000000000E+00 -0.00000000000E+00 -0.74505805969E-08  0.93827000000E+00  0.93827000000E+00 0. -1.
     999902    2    1    2    0    0  0.22389159804E-01  0.10098795895E-01  0.50120079490E-02  0.10188624836E+01  0.10185540634E+01 0.  0.
     999903    2    3    3    0    0 -0.25180532254E-01  0.12558293676E+00  0.10704828077E-01  0.13002511343E+00  0.19667322333E-01 0.  0.
         14    1    1    2    0    0 -0.22389159804E-01 -0.10098795895E-01 -0.50120079490E-02  0.25067516410E-01  0.00000000000E+00 0.  1.
     999901    1    3    3    0    0  0.47569692058E-01 -0.11548414087E+00 -0.56928201284E-02  0.88883737016E+00  0.88000000000E+00 0. -1.
        -11    1    4    4    0    0 -0.47089036395E-02  0.62173579121E-01 -0.10479508335E-02  0.62362545139E-01  0.51100000000E-03 0.  1.
         11    1    4    4    0    0 -0.20471628614E-01  0.63409357641E-01  0.11752778911E-01  0.67662568290E-01  0.51100000000E-03 0. -1.
</event>
<event>
 8    1  0.1204770E+005  0.1043930E+01  0.7957747E-01            NaN
         13   -1    0    0    0    0  0.00000000000E+00  0.00000000000E+00  0.74505805969E-08  0.10566000000E+00  0.10566000000E+00 0. -1.
     999900   -1    0    0    0    0 -0.00000000000E+00 -0.00000000000E+00 -0.74505805969E-08  0.93827000000E+00  0.93827000000E+00 0. -1.
     999902    2    1    2    0    0  0.53301030951E-02 -0.61931462445E-02 -0.15917593119E-01  0.10260376880E+01  0.10258816707E+01 0.  0.
     999903    2    3    3    0    0 -0.78297280979E-01 -0.57719532411E-01  0.90342720638E-01  0.13421945417E+00  0.19774884973E-01 0.  0.
         14    1    1    2    0    0 -0.53301030951E-02  0.61931462445E-02  0.15917593119E-01  0.17892312039E-01  0.00000000000E+00 0. -1.
     999901    1    3    3    0    0  0.83627384074E-01  0.51526386166E-01 -0.10626031376E+00  0.89181823379E+00  0.88000000000E+00 0. -1.
        -11    1    4    4    0    0 -0.38645212657E-01 -0.30107532851E-01  0.58704817786E-01  0.76461969292E-01  0.51100000000E-03 0. -1.
         11    1    4    4    0    0 -0.39652068322E-01 -0.27611999559E-01  0.31637902852E-01  0.57757484881E-01  0.51100000000E-03 0.  1.
</event>
<event>
 8    1  0.1204770E+005  0.1043930E+01  0.7957747E-01            NaN
         13   -1    0    0    0    0  0.00000000000E+00  0.00000000000E+00  0.74505805969E-08  0.10566000000E+00  0.10566000000E+00 0.  1.
     999900   -1    0    0    0    0 -0.00000000000E+00 -0.00000000000E+00 -0.74505805969E-08  0.93827000000E+00  0.93827000000E+00 0. -1.
     999902    2    1    2    0    0 -0.14595043411E-02 -0.77169706571E-02  0.23740009680E-01  0.10189246036E+01  0.10186177291E+01 0.  0.
     999903    2    3    3    0    0 -0.54415488835E-02 -0.12008497253E+00 -0.43067930782E-01  0.12925852837E+00  0.20072603514E-01 0.  0.
         14    1    1    2    0    0  0.14595043411E-02  0.77169706571E-02 -0.23740009680E-01  0.25005396391E-01  0.00000000000E+00 0. -1.
     999901    1    3    3    0    0  0.39820445423E-02  0.11236800188E+00  0.66807940462E-01  0.88966607524E+00  0.88000000000E+00 0. -1.
        -11    1    4    4    0    0  0.10004953724E-02 -0.79619860934E-01 -0.19477314417E-01  0.81975302037E-01  0.51100000000E-03 0. -1.
         11    1    4    4    0    0 -0.64420442559E-02 -0.40465111599E-01 -0.23590616365E-01  0.47283226332E-01  0.51100000000E-03 0.  1.
</event>
<event>
 8    1  0.1204770E+005  0.1043930E+01  0.7957747E-01            NaN
         13   -1    0    0    0    0  0.00000000000E+00  0.00000000000E+00  0.74505805969E-08  0.10566000000E+00  0.10566000000E+00 0.  1.
     999900   -1    0    0    0    0 -0.00000000000E+00 -0.00000000000E+00 -0.74505805969E-08  0.93827000000E+00  0.93827000000E+00 0.  1.
     999902    2    1    2    0    0  0.13130014305E-01 -0.19222887540E-01  0.21811958258E-02  0.10205489330E+01  0.10202810643E+01 0.  0.
     999903    2    3    3    0    0 -0.28655655419E-01  0.45958830320E-01  0.11616992210E+00  0.12982555937E+00  0.20636482076E-01 0.  0.
         14    1    1    2    0    0 -0.13130014305E-01  0.19222887540E-01 -0.21811958258E-02  0.23381067047E-01  0.00000000000E+00 0.  1.
     999901    1    3    3    0    0  0.41785669724E-01 -0.65181717860E-01 -0.11398872627E+00  0.89072337359E+00  0.88000000000E+00 0.  1.
        -11    1    4    4    0    0 -0.17626219284E-01  0.32357980732E-01  0.55058010332E-01  0.66252306722E-01  0.51100000000E-03 0.  1.
         11    1    4    4    0    0 -0.11029436135E-01  0.13600849588E-01  0.61111911766E-01  0.63573252644E-01  0.51100000000E-03 0. -1.
</event>
<event>
 8    1  0.1204770E+005  0.1043930E+01  0.7957747E-01            NaN
         13   -1    0    0    0    0  0.00000000000E+00  0.00000000000E+00  0.74505805969E-08  0.10566000000E+00  0.10566000000E+00 0.  1.
     999900   -1    0    0    0    0 -0.00000000000E+00 -0.00000000000E+00 -0.74505805969E-08  0.93827000000E+00  0.93827000000E+00 0. -1.
     999902    2    1    2    0    0  0.33007174839E-02 -0.20078900798E-01  0.12676964274E-01  0.10199557969E+01  0.10196739994E+01 0.  0.
     999903    2    3    3    0    0 -0.11319104161E+00  0.25264433883E-02 -0.58473189908E-01  0.12914511216E+00  0.20994076319E-01 0.  0.
         14    1    1    2    0    0 -0.33007174839E-02  0.20078900798E-01 -0.12676964274E-01  0.23974203143E-01  0.00000000000E+00 0.  1.
     999901    1    3    3    0    0  0.11649175910E+00 -0.22605344186E-01  0.71150154181E-01  0.89081068469E+00  0.88000000000E+00 0.  1.
        -11    1    4    4    0    0 -0.75408595817E-01  0.83213619650E-02 -0.46942086743E-01  0.89216153341E-01  0.51100000000E-03 0.  1.
         11    1    4    4    0    0 -0.37782445794E-01 -0.57949185768E-02 -0.11531103164E-01  0.39928958823E-01  0.51100000000E-03 0. -1.
</event>
<event>
 8    1  0.1204770E+005  0.1043930E+01  0.7957747E-01            NaN
         13   -1    0    0    0    0  0.00000000000E+00  0.00000000000E+00  0.74505805969E-08  0.10566000000E+00  0.10566000000E+00 0.  1.
     999900   -1    0    0    0    0 -0.00000000000E+00 -0.00000000000E+00 -0.74505805969E-08  0.93827000000E+00  0.93827000000E+00 0.  1.
     999902    2    1    2    0    0  0.23822204979E-01 -0.39671695209E-02  0.84662049122E-03  0.10197648877E+01  0.10194785302E+01 0.  0.
     999903    2    3    3    0    0  0.89362136444E-01  0.84390095516E-01  0.43669385478E-01  0.13188185598E+00  0.19455823204E-01 0.  0.
         14    1    1    2    0    0 -0.23822204979E-01  0.39671695209E-02 -0.84662049122E-03  0.24165112256E-01  0.00000000000E+00 0.  1.
     999901    1    3    3    0    0 -0.65539931465E-01 -0.88357265037E-01 -0.42822764987E-01  0.88788303177E+00  0.88000000000E+00 0.  1.
        -11    1    4    4    0    0  0.85545454676E-01  0.77043733749E-01  0.36101621100E-01  0.12065384326E+00  0.51100000000E-03 0. -1.
         11    1    4    4    0    0  0.38166817687E-02  0.73463617672E-02  0.75677643780E-02  0.11228012719E-01  0.51100000000E-03 0.  1.
</event>
<event>
 8    1  0.1204770E+005  0.1043930E+01  0.7957747E-01            NaN
         13   -1    0    0    0    0  0.00000000000E+00  0.00000000000E+00  0.74505805969E-08  0.10566000000E+00  0.10566000000E+00 0. -1.
     999900   -1    0    0    0    0 -0.00000000000E+00 -0.00000000000E+00 -0.74505805969E-08  0.93827000000E+00  0.93827000000E+00 0. -1.
     999902    2    1    2    0    0  0.10962115485E-01  0.19176679675E-01 -0.77770407433E-02  0.10205121568E+01  0.10202434350E+01 0.  0.
     999903    2    3    3    0    0 -0.70248369790E-02 -0.37447727037E-02  0.12779959355E+00  0.12965305050E+00  0.20342215608E-01 0.  0.
         14    1    1    2    0    0 -0.10962115485E-01 -0.19176679675E-01  0.77770407433E-02  0.23417843240E-01  0.00000000000E+00 0.  1.
     999901    1    3    3    0    0  0.17986952464E-01  0.22921452379E-01 -0.13557663429E+00  0.89085910626E+00  0.88000000000E+00 0. -1.
        -11    1    4    4    0    0  0.59016237993E-02 -0.60430861358E-02  0.59790653452E-01  0.60386516829E-01  0.51100000000E-03 0. -1.
         11    1    4    4    0    0 -0.12926460778E-01  0.22983134320E-02  0.68008940097E-01  0.69266533672E-01  0.51100000000E-03 0.  1.
</event>
<event>
 8    1  0.1204770E+005  0.1043930E+01  0.7957747E-01            NaN
         13   -1    0    0    0    0  0.00000000000E+00  0.00000000000E+00  0.74505805969E-08  0.10566000000E+00  0.10566000000E+00 0.  1.
     999900   -1    0    0    0    0 -0.00000000000E+00 -0.00000000000E+00 -0.74505805969E-08  0.93827000000E+00  0.93827000000E+00 0.  1.
     999902    2    1    2    0    0  0.19494819137E-01 -0.81103587789E-02  0.11849539308E-01  0.10197176586E+01  0.10194301672E+01 0.  0.
     999903    2    3    3    0    0  0.12142814126E+00  0.44363844292E-01  0.19646910407E-01  0.13224667705E+00  0.19754450977E-01 0.  0.
         14    1    1    2    0    0 -0.19494819137E-01  0.81103587789E-02 -0.11849539308E-01  0.24212341368E-01  0.00000000000E+00 0. -1.
     999901    1    3    3    0    0 -0.10193332212E+00 -0.52474203071E-01 -0.77973710988E-02  0.88747098158E+00  0.88000000000E+00 0.  1.
        -11    1    4    4    0    0  0.54996458518E-01  0.27845858480E-01  0.26067352442E-02  0.61701365249E-01  0.51100000000E-03 0. -1.
         11    1    4    4    0    0  0.66431682741E-01  0.16517985813E-01  0.17040175163E-01  0.70545311805E-01  0.51100000000E-03 0.  1.
</event>
<event>
 8    1  0.1204770E+005  0.1043930E+01  0.7957747E-01            NaN
         13   -1    0    0    0    0  0.00000000000E+00  0.00000000000E+00  0.74505805969E-08  0.10566000000E+00  0.10566000000E+00 0. -1.
     999900   -1    0    0    0    0 -0.00000000000E+00 -0.00000000000E+00 -0.74505805969E-08  0.93827000000E+00  0.93827000000E+00 0.  1.
     999902    2    1    2    0    0  0.70267792552E-02  0.18358039852E-01  0.12882216531E-01  0.10204279840E+01  0.10201573044E+01 0.  0.
     999903    2    3    3    0    0 -0.13178183509E-02  0.10729821721E+00 -0.73744202305E-01  0.13167373005E+00  0.19624468137E-01 0.  0.
         14    1    1    2    0    0 -0.70267792552E-02 -0.18358039852E-01 -0.12882216531E-01  0.23502016013E-01  0.00000000000E+00 0.  1.
     999901    1    3    3    0    0  0.83445976061E-02 -0.88940177356E-01  0.86626418836E-01  0.88875425394E+00  0.88000000000E+00 0. -1.
        -11    1    4    4    0    0 -0.40591632597E-02  0.39439821834E-01 -0.38026058766E-01  0.54938316491E-01  0.51100000000E-03 0. -1.
         11    1    4    4    0    0  0.27413449088E-02  0.67858395374E-01 -0.35718143539E-01  0.76735413555E-01  0.51100000000E-03 0.  1.
</event>
<event>
 8    1  0.1204770E+005  0.1043930E+01  0.7957747E-01            NaN
         13   -1    0    0    0    0  0.00000000000E+00  0.00000000000E+00  0.74505805969E-08  0.10566000000E+00  0.10566000000E+00 0.  1.
     999900   -1    0    0    0    0 -0.00000000000E+00 -0.00000000000E+00 -0.74505805969E-08  0.93827000000E+00  0.93827000000E+00 0.  1.
     999902    2    1    2    0    0 -0.22765906731E-01 -0.88786567740E-03  0.47041357527E-02  0.10206662147E+01  0.10204010575E+01 0.  0.
     999903    2    3    3    0    0 -0.12783780794E+00  0.19806172479E-01  0.27997144558E-01  0.13386809114E+00  0.20050838265E-01 0.  0.
         14    1    1    2    0    0  0.22765906731E-01  0.88786567740E-03 -0.47041357527E-02  0.23263785331E-01  0.00000000000E+00 0. -1.
     999901    1    3    3    0    0  0.10507190121E+00 -0.20694038157E-01 -0.23293008806E-01  0.88679812353E+00  0.88000000000E+00 0. -1.
        -11    1    4    4    0    0 -0.35976098116E-01 -0.34551175585E-02  0.77439605696E-02  0.36965490925E-01  0.51100000000E-03 0.  1.
         11    1    4    4    0    0 -0.91861709821E-01  0.23261290038E-01  0.20253183989E-01  0.96902600214E-01  0.51100000000E-03 0. -1.
</event>
<event>
 8    1  0.1204770E+005  0.1043930E+01  0.7957747E-01            NaN
         13   -1    0    0    0    0  0.00000000000E+00  0.00000000000E+00  0.74505805969E-08  0.10566000000E+00  0.10566000000E+00 0. -1.
     999900   -1    0    0    0    0 -0.00000000000E+00 -0.00000000000E+00 -0.74505805969E-08  0.93827000000E+00  0.93827000000E+00 0. -1.
     999902    2    1    2    0    0 -0.17392245112E-01 -0.14246979441E-01 -0.53309276618E-02  0.10208240397E+01  0.10205625089E+01 0.  0.
     999903    2    3    3    0    0 -0.12877754982E-01 -0.10066580891E+00  0.82170325125E-01  0.13226055631E+00  0.21010729811E-01 0.  0.
         14    1    1    2    0    0  0.17392245112E-01  0.14246979441E-01  0.53309276618E-02  0.23105960335E-01  0.00000000000E+00 0. -1.
     999901    1    3    3    0    0 -0.45144901301E-02  0.86418829473E-01 -0.87501252787E-01  0.88856348335E+00  0.88000000000E+00 0. -1.
        -11    1    4    4    0    0 -0.10385754964E-01 -0.69937710233E-01  0.68793401377E-01  0.98650597631E-01  0.51100000000E-03 0. -1.
         11    1    4    4    0    0 -0.24920000181E-02 -0.30728098681E-01  0.13376923748E-01  0.33609958682E-01  0.51100000000E-03 0.  1.
</event>
<event>
 8    1  0.1204770E+005  0.1043930E+01  0.7957747E-01            NaN
         13   -1    0    0    0    0  0.00000000000E+00  0.00000000000E+00  0.74505805969E-08  0.10566000000E+00  0.10566000000E+00 0. -1.
     999900   -1    0    0    0    0 -0.00000000000E+00 -0.00000000000E+00 -0.74505805969E-08  0.93827000000E+00  0.93827000000E+00 0.  1.
     999902    2    1    2    0    0 -0.51719858404E-02 -0.16237349204E-01 -0.17096834306E-01  0.10197907645E+01  0.10195050273E+01 0.  0.
     999903    2    3    3    0    0  0.94785186155E-01 -0.88092363670E-01  0.46857501602E-02  0.13095497522E+00  0.19564080071E-01 0.  0.
         14    1    1    2    0    0  0.51719858404E-02  0.16237349204E-01  0.17096834306E-01  0.24139235489E-01  0.00000000000E+00 0. -1.
     999901    1    3    3    0    0 -0.99957171996E-01  0.71855014467E-01 -0.21782584466E-01  0.88883578929E+00  0.88000000000E+00 0.  1.
        -11    1    4    4    0    0  0.67345926341E-01 -0.54126482488E-01 -0.37333386978E-02  0.86483228664E-01  0.51100000000E-03 0. -1.
         11    1    4    4    0    0  0.27439259814E-01 -0.33965881183E-01  0.84190888579E-02  0.44471746557E-01  0.51100000000E-03 0.  1.
</event>
<event>
 8    1  0.1204770E+005  0.1043930E+01  0.7957747E-01            NaN
         13   -1    0    0    0    0  0.00000000000E+00  0.00000000000E+00  0.74505805969E-08  0.10566000000E+00  0.10566000000E+00 0. -1.
     999900   -1    0    0    0    0 -0.00000000000E+00 -0.00000000000E+00 -0.74505805969E-08  0.93827000000E+00  0.93827000000E+00 0. -1.
     999902    2    1    2    0    0  0.20521618125E-01  0.20863985936E-02 -0.16760946442E-02  0.10232346101E+01  0.10230253018E+01 0.  0.
     999903    2    3    3    0    0 -0.28877717981E-01  0.89807927101E-01  0.91157303131E-01  0.13264300858E+00  0.19624664192E-01 0.  0.
         14    1    1    2    0    0 -0.20521618125E-01 -0.20863985936E-02  0.16760946442E-02  0.20695389892E-01  0.00000000000E+00 0.  1.
     999901    1    3    3    0    0  0.49399336105E-01 -0.87721528508E-01 -0.92833397775E-01  0.89059160153E+00  0.88000000000E+00 0. -1.
        -11    1    4    4    0    0 -0.14631064571E-01  0.46564929217E-01  0.60571656832E-01  0.77791692460E-01  0.51100000000E-03 0. -1.
         11    1    4    4    0    0 -0.14246653409E-01  0.43242997884E-01  0.30585646300E-01  0.54851316119E-01  0.51100000000E-03 0.  1.
</event>
<event>
 8    1  0.1204770E+005  0.1043930E+01  0.7957747E-01            NaN
         13   -1    0    0    0    0  0.00000000000E+00  0.00000000000E+00  0.74505805969E-08  0.10566000000E+00  0.10566000000E+00 0. -1.
     999900   -1    0    0    0    0 -0.00000000000E+00 -0.00000000000E+00 -0.74505805969E-08  0.93827000000E+00  0.93827000000E+00 0. -1.
     999902    2    1    2    0    0  0.74413174384E-02  0.45088918084E-02 -0.21418947268E-01  0.10208112930E+01  0.10205494703E+01 0.  0.
     999903    2    3    3    0    0  0.11573743562E+00 -0.35808766014E-01 -0.50378322009E-01  0.13278414921E+00  0.20401794684E-01 0.  0.
         14    1    1    2    0    0 -0.74413174384E-02 -0.45088918084E-02  0.21418947268E-01  0.23118706985E-01  0.00000000000E+00 0. -1.
     999901    1    3    3    0    0 -0.10829611818E+00  0.40317657822E-01  0.28959374741E-01  0.88802714380E+00  0.88000000000E+00 0.  1.
        -11    1    4    4    0    0  0.87460964147E-01 -0.17978768760E-01 -0.33882958296E-01  0.95503781912E-01  0.51100000000E-03 0. -1.
         11    1    4    4    0    0  0.28276471473E-01 -0.17829997253E-01 -0.16495363713E-01  0.37280367300E-01  0.51100000000E-03 0.  1.
</event>
<event>
 8    1  0.1204770E+005  0.1043930E+01  0.7957747E-01            NaN
         13   -1    0    0    0    0  0.00000000000E+00  0.00000000000E+00  0.74505805969E-08  0.10566000000E+00  0.10566000000E+00 0.  1.
     999900   -1    0    0    0    0 -0.00000000000E+00 -0.00000000000E+00 -0.74505805969E-08  0.93827000000E+00  0.93827000000E+00 0. -1.
     999902    2    1    2    0    0 -0.12777605642E-01 -0.72789786405E-02 -0.18980155652E-01  0.10199196471E+01  0.10196369891E+01 0.  0.
     999903    2    3    3    0    0  0.78143347888E-01  0.47902903148E-01  0.86247613790E-01  0.12729176088E+00  0.19064903713E-01 0.  0.
         14    1    1    2    0    0  0.12777605642E-01  0.72789786405E-02  0.18980155652E-01  0.24010352862E-01  0.00000000000E+00 0.  1.
     999901    1    3    3    0    0 -0.90920953530E-01 -0.55181881788E-01 -0.10522776944E+00  0.89262788626E+00  0.88000000000E+00 0. -1.
        -11    1    4    4    0    0  0.42307775211E-01  0.34766030381E-01  0.58279296339E-01  0.79971008588E-01  0.51100000000E-03 0.  1.
         11    1    4    4    0    0  0.35835572678E-01  0.13136872766E-01  0.27968317451E-01  0.47320752289E-01  0.51100000000E-03 0. -1.
</event>
<event>
 8    1  0.1204770E+005  0.1043930E+01  0.7957747E-01            NaN
         13   -1    0    0    0    0  0.00000000000E+00  0.00000000000E+00  0.74505805969E-08  0.10566000000E+00  0.10566000000E+00 0.  1.
     999900   -1    0    0    0    0 -0.00000000000E+00 -0.00000000000E+00 -0.74505805969E-08  0.93827000000E+00  0.93827000000E+00 0.  1.
     999902    2    1    2    0    0 -0.37027452091E-02 -0.22943050775E-01  0.39286346679E-02  0.10203603570E+01  0.10200880992E+01 0.  0.
     999903    2    3    3    0    0 -0.75172037185E-01  0.83982272414E-02  0.10480701084E+00  0.13116601256E+00  0.22330426170E-01 0.  0.
         14    1    1    2    0    0  0.37027452091E-02  0.22943050775E-01 -0.39286346679E-02  0.23569643003E-01  0.00000000000E+00 0.  1.
     999901    1    3    3    0    0  0.71469291976E-01 -0.31341278016E-01 -0.10087837618E+00  0.88919434444E+00  0.88000000000E+00 0. -1.
        -11    1    4    4    0    0 -0.38488044425E-02  0.64342439524E-02  0.10030281742E-01  0.12533174526E-01  0.51100000000E-03 0.  1.
         11    1    4    4    0    0 -0.71323232742E-01  0.19639832890E-02  0.94776729101E-01  0.11863283803E+00  0.51100000000E-03 0. -1.
</event>
<event>
 8    1  0.1204770E+005  0.1043930E+01  0.7957747E-01            NaN
         13   -1    0    0    0    0  0.00000000000E+00  0.00000000000E+00  0.74505805969E-08  0.10566000000E+00  0.10566000000E+00 0.  1.
     999900   -1    0    0    0    0 -0.00000000000E+00 -0.00000000000E+00 -0.74505805969E-08  0.93827000000E+00  0.93827000000E+00 0.  1.
     999902    2    1    2    0    0 -0.83108069158E-02 -0.72247092244E-02 -0.21146296423E-01  0.10200881924E+01  0.10198095354E+01 0.  0.
     999903    2    3    3    0    0  0.82592813536E-01 -0.39917298299E-01 -0.92680979671E-01  0.13191620207E+00  0.19928793827E-01 0.  0.
         14    1    1    2    0    0  0.83108069158E-02  0.72247092244E-02  0.21146296423E-01  0.23841807553E-01  0.00000000000E+00 0.  1.
     999901    1    3    3    0    0 -0.90903620451E-01  0.32692589074E-01  0.71534683247E-01  0.88817199038E+00  0.88000000000E+00 0. -1.
        -11    1    4    4    0    0  0.61875457140E-01 -0.20036589349E-01 -0.61248518386E-01  0.89340244205E-01  0.51100000000E-03 0. -1.
         11    1    4    4    0    0  0.20717356396E-01 -0.19880708950E-01 -0.31432461284E-01  0.42575957861E-01  0.51100000000E-03 0.  1.
</event>
<event>
 8    1  0.1204770E+005  0.1043930E+01  0.7957747E-01            NaN
         13   -1    0    0    0    0  0.00000000000E+00  0.00000000000E+00  0.74505805969E-08  0.10566000000E+00  0.10566000000E+00 0.  1.
     999900   -1    0    0    0    0 -0.00000000000E+00 -0.00000000000E+00 -0.74505805969E-08  0.93827000000E+00  0.93827000000E+00 0. -1.
     999902    2    1    2    0    0  0.26024185017E-02 -0.18274625173E-01 -0.16498531137E-01  0.10191724549E+01  0.10188717078E+01 0.  0.
     999903    2    3    3    0    0  0.10824949022E+00  0.56869307481E-01  0.30383585985E-01  0.12843913499E+00  0.24927471444E-01 0.  0.
         14    1    1    2    0    0 -0.26024185017E-02  0.18274625173E-01  0.16498531137E-01  0.24757545051E-01  0.00000000000E+00 0.  1.
     999901    1    3    3    0    0 -0.10564707172E+00 -0.75143932654E-01 -0.46882117122E-01  0.89073331996E+00  0.88000000000E+00 0. -1.
        -11    1    4    4    0    0  0.31528415737E-01  0.18483548047E-01  0.20959093220E-01  0.42133445823E-01  0.51100000000E-03 0. -1.
         11    1    4    4    0    0  0.76721074487E-01  0.38385759434E-01  0.94244927648E-02  0.86305689168E-01  0.51100000000E-03 0.  1.
</event>
<event>
 8    1  0.1204770E+005  0.1043930E+01  0.7957747E-01            NaN
         13   -1    0    0    0    0  0.00000000000E+00  0.00000000000E+00  0.74505805969E-08  0.10566000000E+00  0.10566000000E+00 0. -1.
     999900   -1    0    0    0    0 -0.00000000000E+00 -0.00000000000E+00 -0.74505805969E-08  0.93827000000E+00  0.93827000000E+00 0. -1.
     999902    2    1    2    0    0 -0.16062026252E-02 -0.12432409565E-01 -0.21148260612E-01  0.10193455817E+01  0.10190490770E+01 0.  0.
     999903    2    3    3    0    0 -0.79274645444E-01  0.46596126571E-01 -0.91334814211E-01  0.13117729397E+00  0.20242671380E-01 0.  0.
         14    1    1    2    0    0  0.16062026252E-02  0.12432409565E-01  0.21148260612E-01  0.24584418263E-01  0.00000000000E+00 0. -1.
     999901    1    3    3    0    0  0.77668442819E-01 -0.59028536136E-01  0.70186553600E-01  0.88816828777E+00  0.88000000000E+00 0. -1.
        -11    1    4    4    0    0 -0.76037757974E-01  0.41915569142E-01 -0.90477344023E-01  0.12539962710E+00  0.51100000000E-03 0.  1.
         11    1    4    4    0    0 -0.32368874696E-02  0.46805574294E-02 -0.85747018806E-03  0.57776668703E-02  0.51100000000E-03 0. -1.
</event>
<event>
 8    1  0.1204770E+005  0.1043930E+01  0.7957747E-01            NaN
         13   -1    0    0    0    0  0.00000000000E+00  0.00000000000E+00  0.74505805969E-08  0.10566000000E+00  0.10566000000E+00 0.  1.
     999900   -1    0    0    0    0 -0.00000000000E+00 -0.00000000000E+00 -0.74505805969E-08  0.93827000000E+00  0.93827000000E+00 0. -1.
     999902    2    1    2    0    0  0.12445683290E-01 -0.15050154331E-01  0.14307189616E-01  0.10197205421E+01  0.10194331200E+01 0.  0.
     999903    2    3    3    0    0 -0.10387087693E-01  0.39094498669E-01 -0.11935974648E+00  0.12768924853E+00  0.20531042135E-01 0.  0.
         14    1    1    2    0    0 -0.12445683290E-01  0.15050154331E-01 -0.14307189616E-01  0.24209457917E-01  0.00000000000E+00 0. -1.
     999901    1    3    3    0    0  0.22832770983E-01 -0.54144653000E-01  0.13366693610E+00  0.89203129356E+00  0.88000000000E+00 0.  1.
        -11    1    4    4    0    0 -0.12440304238E-01  0.95016012190E-02 -0.43558880784E-01  0.46289078749E-01  0.51100000000E-03 0. -1.
         11    1    4    4    0    0  0.20532165454E-02  0.29592897450E-01 -0.75800865701E-01  0.81400169777E-01  0.51100000000E-03 0.  1.
</event>
<event>
 8    1  0.1204770E+005  0.1043930E+01  0.7957747E-01            NaN
         13   -1    0    0    0    0  0.00000000000E+00  0.00000000000E+00  0.74505805969E-08  0.10566000000E+00  0.10566000000E+00 0. -1.
     999900   -1    0    0    0    0 -0.00000000000E+00 -0.00000000000E+00 -0.74505805969E-08  0.93827000000E+00  0.93827000000E+00 0. -1.
     999902    2    1    2    0    0 -0.29403712439E-01 -0.20308457166E-02 -0.58775029142E-02  0.10138759207E+01  0.10134303799E+01 0.  0.
     999903    2    3    3    0    0  0.11378232731E+00  0.25452778672E-01 -0.28269993756E-01  0.12159848898E+00  0.19817619020E-01 0.  0.
         14    1    1    2    0    0  0.29403712439E-01  0.20308457166E-02  0.58775029142E-02  0.30054079258E-01  0.00000000000E+00 0. -1.
     999901    1    3    3    0    0 -0.14318603975E+00 -0.27483624389E-01  0.22392490842E-01  0.89227743176E+00  0.88000000000E+00 0.  1.
        -11    1    4    4    0    0  0.61622298644E-01  0.21378583804E-01 -0.90193898202E-02  0.65848022365E-01  0.51100000000E-03 0.  1.
         11    1    4    4    0    0  0.52160028669E-01  0.40741948682E-02 -0.19250603936E-01  0.55750466612E-01  0.51100000000E-03 0. -1.
</event>
<event>
 8    1  0.1204770E+005  0.1043930E+01  0.7957747E-01            NaN
         13   -1    0    0    0    0  0.00000000000E+00  0.00000000000E+00  0.74505805969E-08  0.10566000000E+00  0.10566000000E+00 0.  1.
     999900   -1    0    0    0    0 -0.00000000000E+00 -0.00000000000E+00 -0.74505805969E-08  0.93827000000E+00  0.93827000000E+00 0.  1.
     999902    2    1    2    0    0 -0.58004911032E-02 -0.18126418086E-01 -0.12941555370E-01  0.10209148618E+01  0.10206554064E+01 0.  0.
     999903    2    3    3    0    0  0.26625243383E-01  0.96602570211E-01 -0.80695062847E-01  0.13029445627E+00  0.20591066298E-01 0.  0.
         14    1    1    2    0    0  0.58004911032E-02  0.18126418086E-01  0.12941555370E-01  0.23015138172E-01  0.00000000000E+00 0. -1.
     999901    1    3    3    0    0 -0.32425734486E-01 -0.11472898830E+00  0.67753507477E-01  0.89062040555E+00  0.88000000000E+00 0. -1.
        -11    1    4    4    0    0  0.25403368655E-01  0.54116680107E-01 -0.46402795437E-01  0.75679764470E-01  0.51100000000E-03 0. -1.
         11    1    4    4    0    0  0.12218747284E-02  0.42485890104E-01 -0.34292267410E-01  0.54614691804E-01  0.51100000000E-03 0.  1.
</event>
<event>
 8    1  0.1204770E+005  0.1043930E+01  0.7957747E-01            NaN
         13   -1    0    0    0    0  0.00000000000E+00  0.00000000000E+00  0.74505805969E-08  0.10566000000E+00  0.10566000000E+00 0.  1.
     999900   -1    0    0    0    0 -0.00000000000E+00 -0.00000000000E+00 -0.74505805969E-08  0.93827000000E+00  0.93827000000E+00 0.  1.
     999902    2    1    2    0    0 -0.10419398026E-02 -0.22149738066E-01 -0.11623547884E-01  0.10188939580E+01  0.10185863214E+01 0.  0.
     999903    2    3    3    0    0  0.11135230760E+00  0.94351144288E-02 -0.62772507107E-01  0.12971102641E+00  0.19904897151E-01 0.  0.
         14    1    1    2    0    0  0.10419398026E-02  0.22149738066E-01  0.11623547884E-01  0.25036042027E-01  0.00000000000E+00 0. -1.
     999901    1    3    3    0    0 -0.11239424741E+00 -0.31584852495E-01  0.51148959223E-01  0.88918293157E+00  0.88000000000E+00 0. -1.
        -11    1    4    4    0    0  0.50959947602E-01 -0.91776352700E-03 -0.38180443451E-01  0.63684895639E-01  0.51100000000E-03 0. -1.
         11    1    4    4    0    0  0.60392360001E-01  0.10352877956E-01 -0.24592063657E-01  0.66026130769E-01  0.51100000000E-03 0.  1.
</event>
<event>
 8    1  0.1204770E+005  0.1043930E+01  0.7957747E-01            NaN
         13   -1    0    0    0    0  0.00000000000E+00  0.00000000000E+00  0.74505805969E-08  0.10566000000E+00  0.10566000000E+00 0.  1.
     999900   -1    0    0    0    0 -0.00000000000E+00 -0.00000000000E+00 -0.74505805969E-08  0.93827000000E+00  0.93827000000E+00 0.  1.
     999902    2    1    2    0    0 -0.21530658285E-01  0.94131033831E-02  0.50932408600E-02  0.10198859391E+01  0.10196024774E+01 0.  0.
     999903    2    3    3    0    0 -0.12318735193E+00 -0.18316944349E-01 -0.36073073897E-01  0.13264431228E+00  0.27975217509E-01 0.  0.
         14    1    1    2    0    0  0.21530658285E-01 -0.94131033831E-02 -0.50932408600E-02  0.24044060887E-01  0.00000000000E+00 0.  1.
     999901    1    3    3    0    0  0.10165669365E+00  0.27730047732E-01  0.41166314757E-01  0.88724162683E+00  0.88000000000E+00 0. -1.
        -11    1    4    4    0    0 -0.55287898310E-01 -0.12140014268E-01 -0.30330994511E-01  0.64221195839E-01  0.51100000000E-03 0.  1.
         11    1    4    4    0    0 -0.67899453621E-01 -0.61769300810E-02 -0.57420793858E-02  0.68423116444E-01  0.51100000000E-03 0. -1.
</event>
<event>
 8    1  0.1204770E+005  0.1043930E+01  0.7957747E-01            NaN
         13   -1    0    0    0    0  0.00000000000E+00  0.00000000000E+00  0.74505805969E-08  0.10566000000E+00  0.10566000000E+00 0.  1.
     999900   -1    0    0    0    0 -0.00000000000E+00 -0.00000000000E+00 -0.74505805969E-08  0.93827000000E+00  0.93827000000E+00 0.  1.
     999902    2    1    2    0    0  0.47586268719E-02 -0.11074933257E-01  0.20936696637E-01  0.10197712761E+01  0.10194850718E+01 0.  0.
     999903    2    3    3    0    0 -0.49182483578E-02  0.58237778692E-01  0.11649358585E+00  0.13183602334E+00  0.19853298738E-01 0.  0.
         14    1    1    2    0    0 -0.47586268719E-02  0.11074933257E-01 -0.20936696637E-01  0.24158723941E-01  0.00000000000E+00 0. -1.
     999901    1    3    3    0    0  0.96768752298E-02 -0.69312711949E-01 -0.95556889214E-01  0.88793525272E+00  0.88000000000E+00 0.  1.
        -11    1    4    4    0    0 -0.10608934932E-01  0.49543042618E-01  0.88596940061E-01  0.10206243913E+00  0.51100000000E-03 0.  1.
         11    1    4    4    0    0  0.56906865739E-02  0.86947360738E-02  0.27896645790E-01  0.29773584205E-01  0.51100000000E-03 0. -1.
</event>
<event>
 8    1  0.1204770E+005  0.1043930E+01  0.7957747E-01            NaN
         13   -1    0    0    0    0  0.00000000000E+00  0.00000000000E+00  0.74505805969E-08  0.10566000000E+00  0.10566000000E+00 0.  1.
     999900   -1    0    0    0    0 -0.00000000000E+00 -0.00000000000E+00 -0.74505805969E-08  0.93827000000E+00  0.93827000000E+00 0. -1.
     999902    2    1    2    0    0  0.24491823003E-01  0.43998178593E-02  0.77944867982E-02  0.10178539225E+01  0.10175198503E+01 0.  0.
     999903    2    3    3    0    0  0.55310205950E-01  0.42310631301E-01  0.10932783553E+00  0.13066959930E+00  0.16509395966E-01 0.  0.
         14    1    1    2    0    0 -0.24491823003E-01 -0.43998178593E-02 -0.77944867982E-02  0.26076077459E-01  0.00000000000E+00 0. -1.
     999901    1    3    3    0    0 -0.30818382948E-01 -0.37910813442E-01 -0.10153334873E+00  0.88718432324E+00  0.88000000000E+00 0. -1.
        -11    1    4    4    0    0  0.15484260924E-01  0.21280054695E-01  0.45178005558E-01  0.52286866146E-01  0.51100000000E-03 0.  1.
         11    1    4    4    0    0  0.39825945026E-01  0.21030576606E-01  0.64149829975E-01  0.78382733152E-01  0.51100000000E-03 0. -1.
</event>
<event>
 8    1  0.1204770E+005  0.1043930E+01  0.7957747E-01            NaN
         13   -1    0    0    0    0  0.00000000000E+00  0.00000000000E+00  0.74505805969E-08  0.10566000000E+00  0.10566000000E+00 0. -1.
     999900   -1    0    0    0    0 -0.00000000000E+00 -0.00000000000E+00 -0.74505805969E-08  0.93827000000E+00  0.93827000000E+00 0. -1.
     999902    2    1    2    0    0  0.17411124953E-01 -0.23418337325E-02  0.13847814033E-01  0.10215605250E+01  0.10213155795E+01 0.  0.
     999903    2    3    3    0    0  0.10879223199E+00  0.44530896237E-01 -0.57909505566E-01  0.13268670245E+00  0.20820655885E-01 0.  0.
         14    1    1    2    0    0 -0.17411124953E-01  0.23418337325E-02 -0.13847814033E-01  0.22369474980E-01  0.00000000000E+00 0. -1.
     999901    1    3    3    0    0 -0.91381107033E-01 -0.46872729970E-01  0.71757319599E-01  0.88887382257E+00  0.88000000000E+00 0.  1.
        -11    1    4    4    0    0  0.72042992101E-01  0.23293689005E-01 -0.27861700819E-01  0.80680382695E-01  0.51100000000E-03 0.  1.
         11    1    4    4    0    0  0.36749239886E-01  0.21237207232E-01 -0.30047804747E-01  0.52006319754E-01  0.51100000000E-03 0. -1.
</event>
<event>
 8    1  0.1204770E+005  0.1043930E+01  0.7957747E-01            NaN
         13   -1    0    0    0    0  0.00000000000E+00  0.00000000000E+00  0.74505805969E-08  0.10566000000E+00  0.10566000000E+00 0. -1.
     999900   -1    0    0    0    0 -0.00000000000E+00 -0.00000000000E+00 -0.74505805969E-08  0.93827000000E+00  0.93827000000E+00 0. -1.
     999902    2    1    2    0    0 -0.21343586873E-01  0.99690003778E-02 -0.26220853236E-02  0.10202275740E+01  0.10199522036E+01 0.  0.
     999903    2    3    3    0    0 -0.59709788737E-01 -0.89114594162E-01  0.72093860175E-01  0.13069286599E+00  0.19401824207E-01 0.  0.
         14    1    1    2    0    0  0.21343586873E-01 -0.99690003778E-02  0.26220853236E-02  0.23702426049E-01  0.00000000000E+00 0. -1.
     999901    1    3    3    0    0  0.38366201864E-01  0.99083594540E-01 -0.74715945499E-01  0.88953470796E+00  0.88000000000E+00 0.  1.
        -11    1    4    4    0    0 -0.48147154253E-01 -0.82892559856E-01  0.62919343100E-01  0.11466660281E+00  0.51100000000E-03 0.  1.
         11    1    4    4    0    0 -0.11562634484E-01 -0.62220343063E-02  0.91745170750E-02  0.16026263185E-01  0.51100000000E-03 0. -1.
</event>
<event>
 8    1  0.1204770E+005  0.1043930E+01  0.7957747E-01            NaN
         13   -1    0    0    0    0  0.00000000000E+00  0.00000000000E+00  0.74505805969E-08  0.10566000000E+00  0.10566000000E+00 0. -1.
     999900   -1    0    0    0    0 -0.00000000000E+00 -0.00000000000E+00 -0.74505805969E-08  0.93827000000E+00  0.93827000000E+00 0. -1.
     999902    2    1    2    0    0  0.10867727167E-01  0.20439102658E-01  0.55360457734E-02  0.10201284829E+01  0.10198507781E+01 0.  0.
     999903    2    3    3    0    0 -0.57723696468E-01 -0.90154549055E-01  0.68331946199E-01  0.12834428018E+00  0.18523809923E-01 0.  0.
         14    1    1    2    0    0 -0.10867727167E-01 -0.20439102658E-01 -0.55360457734E-02  0.23801517053E-01  0.00000000000E+00 0.  1.
     999901    1    3    3    0    0  0.68591423635E-01  0.11059365171E+00 -0.62795900426E-01  0.89178420277E+00  0.88000000000E+00 0. -1.
        -11    1    4    4    0    0 -0.10105698525E-01 -0.10887199629E-01  0.31095988578E-02  0.15185090862E-01  0.51100000000E-03 0.  1.
         11    1    4    4    0    0 -0.47617997944E-01 -0.79267349426E-01  0.65222347342E-01  0.11315918932E+00  0.51100000000E-03 0. -1.
</event>
<event>
 8    1  0.1204770E+005  0.1043930E+01  0.7957747E-01            NaN
         13   -1    0    0    0    0  0.00000000000E+00  0.00000000000E+00  0.74505805969E-08  0.10566000000E+00  0.10566000000E+00 0. -1.
     999900   -1    0    0    0    0 -0.00000000000E+00 -0.00000000000E+00 -0.74505805969E-08  0.93827000000E+00  0.93827000000E+00 0. -1.
     999902    2    1    2    0    0  0.18736195483E-01  0.28663807720E-02 -0.13128855064E-01  0.10208729404E+01  0.10206125281E+01 0.  0.
     999903    2    3    3    0    0  0.13956340189E-02  0.36304532269E-01 -0.12624815106E+00  0.13283308764E+00  0.19648579288E-01 0.  0.
         14    1    1    2    0    0 -0.18736195483E-01 -0.28663807720E-02  0.13128855064E-01  0.23057059553E-01  0.00000000000E+00 0. -1.
     999901    1    3    3    0    0  0.17340561464E-01 -0.33438151497E-01  0.11311929600E+00  0.88803985281E+00  0.88000000000E+00 0.  1.
        -11    1    4    4    0    0  0.99386530624E-02  0.13794816287E-01 -0.45742110339E-01  0.48802413469E-01  0.51100000000E-03 0.  1.
         11    1    4    4    0    0 -0.85430190435E-02  0.22509715981E-01 -0.80506040722E-01  0.84030674171E-01  0.51100000000E-03 0. -1.
</event>
<event>
 8    1  0.1204770E+005  0.1043930E+01  0.7957747E-01            NaN
         13   -1    0    0    0    0  0.00000000000E+00  0.00000000000E+00  0.74505805969E-08  0.10566000000E+00  0.10566000000E+00 0.  1.
     999900   -1    0    0    0    0 -0.00000000000E+00 -0.00000000000E+00 -0.74505805969E-08  0.93827000000E+00  0.93827000000E+00 0.  1.
     999902    2    1    2    0    0 -0.18981389634E-01 -0.42746183942E-02  0.16287453430E-01  0.10185558664E+01  0.10182397588E+01 0.  0.
     999903    2    3    3    0    0 -0.85391744196E-01 -0.27642649659E-01 -0.91021783004E-01  0.12924620591E+00  0.19072249593E-01 0.  0.
         14    1    1    2    0    0  0.18981389634E-01  0.42746183942E-02 -0.16287453430E-01  0.25374133563E-01  0.00000000000E+00 0. -1.
     999901    1    3    3    0    0  0.66410354562E-01  0.23368031265E-01  0.10730923643E+00  0.88930966052E+00  0.88000000000E+00 0. -1.
        -11    1    4    4    0    0 -0.62637772794E-01 -0.14689560759E-01 -0.73777085472E-01  0.97890720896E-01  0.51100000000E-03 0. -1.
         11    1    4    4    0    0 -0.22753971402E-01 -0.12953088900E-01 -0.17244697532E-01  0.31355485016E-01  0.51100000000E-03 0.  1.
</event>
<event>
 8    1  0.1204770E+005  0.1043930E+01  0.7957747E-01            NaN
         13   -1    0    0    0    0  0.00000000000E+00  0.00000000000E+00  0.74505805969E-08  0.10566000000E+00  0.10566000000E+00 0.  1.
     999900   -1    0    0    0    0 -0.00000000000E+00 -0.00000000000E+00 -0.74505805969E-08  0.93827000000E+00  0.93827000000E+00 0.  1.
     999902    2    1    2    0    0 -0.36501860493E-03 -0.20010546120E-01  0.14079804472E-01  0.10194596897E+01  0.10191659643E+01 0.  0.
     999903    2    3    3    0    0  0.70428953386E-01  0.63738840260E-03  0.10931565658E+00  0.13125476330E+00  0.17811692087E-01 0.  0.
         14    1    1    2    0    0  0.36501860493E-03  0.20010546120E-01 -0.14079804472E-01  0.24470310349E-01  0.00000000000E+00 0. -1.
     999901    1    3    3    0    0 -0.70793971991E-01 -0.20647934522E-01 -0.95235852112E-01  0.88820492635E+00  0.88000000000E+00 0.  1.
        -11    1    4    4    0    0  0.26736863392E-01 -0.20598501582E-03  0.57881506490E-01  0.63760741907E-01  0.51100000000E-03 0. -1.
         11    1    4    4    0    0  0.43692089994E-01  0.84337341842E-03  0.51434150094E-01  0.67494021392E-01  0.51100000000E-03 0.  1.
</event>
<event>
 8    1  0.1204770E+005  0.1043930E+01  0.7957747E-01            NaN
         13   -1    0    0    0    0  0.00000000000E+00  0.00000000000E+00  0.74505805969E-08  0.10566000000E+00  0.10566000000E+00 0. -1.
     999900   -1    0    0    0    0 -0.00000000000E+00 -0.00000000000E+00 -0.74505805969E-08  0.93827000000E+00  0.93827000000E+00 0.  1.
     999902    2    1    2    0    0 -0.23675771337E-01 -0.25948100744E-03 -0.38539969792E-02  0.10199411949E+01  0.10196590500E+01 0.  0.
     999903    2    3    3    0    0  0.54007647833E-01 -0.66797901420E-01  0.93917481825E-01  0.12863802699E+00  0.18667162006E-01 0.  0.
         14    1    1    2    0    0  0.23675771337E-01  0.25948100744E-03  0.38539969792E-02  0.23988805129E-01  0.00000000000E+00 0.  1.
     999901    1    3    3    0    0 -0.77683419170E-01  0.66538420413E-01 -0.97771478804E-01  0.89130316788E+00  0.88000000000E+00 0. -1.
        -11    1    4    4    0    0  0.38791795071E-01 -0.42694864565E-01  0.74145897228E-01  0.93944292119E-01  0.51100000000E-03 0.  1.
         11    1    4    4    0    0  0.15215852762E-01 -0.24103036855E-01  0.19771584597E-01  0.34693734872E-01  0.51100000000E-03 0. -1.
</event>
<event>
 8    1  0.1204770E+005  0.1043930E+01  0.7957747E-01            NaN
         13   -1    0    0    0    0  0.00000000000E+00  0.00000000000E+00  0.74505805969E-08  0.10566000000E+00  0.10566000000E+00 0. -1.
     999900   -1    0    0    0    0 -0.00000000000E+00 -0.00000000000E+00 -0.74505805969E-08  0.93827000000E+00  0.93827000000E+00 0.  1.
     999902    2    1    2    0    0  0.17185753848E-01 -0.11231945783E-01 -0.16442624090E-01  0.10176266423E+01  0.10172866442E+01 0.  0.
     999903    2    3    3    0    0 -0.57381671055E-01 -0.32115702232E-01  0.10545000371E+00  0.12585635522E+00  0.19900863378E-01 0.  0.
         14    1    1    2    0    0 -0.17185753848E-01  0.11231945783E-01  0.16442624090E-01  0.26303357739E-01  0.00000000000E+00 0.  1.
     999901    1    3    3    0    0  0.74567424903E-01  0.20883756449E-01 -0.12189262780E+00  0.89177028704E+00  0.88000000000E+00 0.  1.
        -11    1    4    4    0    0 -0.25442972277E-01 -0.15557584944E-01  0.30194681635E-01  0.42442469387E-01  0.51100000000E-03 0.  1.
         11    1    4    4    0    0 -0.31938698778E-01 -0.16558117287E-01  0.75255322076E-01  0.83413885831E-01  0.51100000000E-03 0. -1.
</event>
<event>
 8    1  0.1204770E+005  0.1043930E+01  0.7957747E-01            NaN
         13   -1    0    0    0    0  0.00000000000E+00  0.00000000000E+00  0.74505805969E-08  0.10566000000E+00  0.10566000000E+00 0.  1.
     999900   -1    0    0    0    0 -0.00000000000E+00 -0.00000000000E+00 -0.74505805969E-08  0.93827000000E+00  0.93827000000E+00 0. -1.
     999902    2    1    2    0    0 -0.11923370767E-01 -0.13703577613E-01  0.14728686253E-01  0.10205443418E+01  0.10202763668E+01 0.  0.
     999903    2    3    3    0    0 -0.75489215694E-01 -0.51934572293E-02  0.10785030163E+00  0.13331005819E+00  0.20354124148E-01 0.  0.
         14    1    1    2    0    0  0.11923370767E-01  0.13703577613E-01 -0.14728686253E-01  0.23385658182E-01  0.00000000000E+00 0. -1.
     999901    1    3    3    0    0  0.63565844927E-01 -0.85101203837E-02 -0.93121615375E-01  0.88723428363E+00  0.88000000000E+00 0. -1.
        -11    1    4    4    0    0 -0.59090359257E-01 -0.10547448217E-01  0.92164597685E-01  0.10998860581E+00  0.51100000000E-03 0.  1.
         11    1    4    4    0    0 -0.16398856437E-01  0.53539909874E-02  0.15685703943E-01  0.23321452380E-01  0.51100000000E-03 0. -1.
</event>
<event>
 8    1  0.1204770E+005  0.1043930E+01  0.7957747E-01            NaN
         13   -1    0    0    0    0  0.00000000000E+00  0.00000000000E+00  0.74505805969E-08  0.10566000000E+00  0.10566000000E+00 0.  1.
     999900   -1    0    0    0    0 -0.00000000000E+00 -0.00000000000E+00 -0.74505805969E-08  0.93827000000E+00  0.93827000000E+00 0. -1.
     999902    2    1    2    0    0  0.18452336639E-01 -0.80311957105E-02 -0.86828222665E-02  0.10220124218E+01  0.10217773779E+01 0.  0.
     999903    2    3    3    0    0  0.56633258383E-01 -0.11015567993E+00 -0.47856140241E-01  0.13441919181E+00  0.20897588232E-01 0.  0.
         14    1    1    2    0    0 -0.18452336639E-01  0.80311957105E-02  0.86828222665E-02  0.21917578208E-01  0.00000000000E+00 0. -1.
     999901    1    3    3    0    0 -0.38180921744E-01  0.10212448422E+00  0.39173317975E-01  0.88759322998E+00  0.88000000000E+00 0. -1.
        -11    1    4    4    0    0  0.10615818471E-01 -0.26558076280E-01 -0.23653590127E-02  0.28703363248E-01  0.51100000000E-03 0.  1.
         11    1    4    4    0    0  0.46017439911E-01 -0.83597603647E-01 -0.45490781229E-01  0.10571582857E+00  0.51100000000E-03 0. -1.
</event>
<event>
 8    1  0.1204770E+005  0.1043930E+01  0.7957747E-01            NaN
         13   -1    0    0    0    0  0.00000000000E+00  0.00000000000E+00  0.74505805969E-08  0.10566000000E+00  0.10566000000E+00 0.  1.
     999900   -1    0    0    0    0 -0.00000000000E+00 -0.00000000000E+00 -0.74505805969E-08  0.93827000000E+00  0.93827000000E+00 0.  1.
     999902    2    1    2    0    0  0.21755914439E-01  0.81468508581E-02 -0.17646612661E-02  0.10206318236E+01  0.10203658728E+01 0.  0.
     999903    2    3    3    0    0 -0.39527589901E-01  0.80825987886E-01  0.92404284788E-01  0.13051626078E+00  0.20016787932E-01 0.  0.
         14    1    1    2    0    0 -0.21755914439E-01 -0.81468508581E-02  0.17646612661E-02  0.23298176352E-01  0.00000000000E+00 0. -1.
     999901    1    3    3    0    0  0.61283504339E-01 -0.72679137028E-01 -0.94168946054E-01  0.89011556287E+00  0.88000000000E+00 0.  1.
        -11    1    4    4    0    0 -0.24279793006E-01  0.59290601926E-01  0.76157970712E-01  0.99524778066E-01  0.51100000000E-03 0.  1.
         11    1    4    4    0    0 -0.15247796895E-01  0.21535385960E-01  0.16246314075E-01  0.30991482711E-01  0.51100000000E-03 0. -1.
</event>
<event>
 8    1  0.1204770E+005  0.1043930E+01  0.7957747E-01            NaN
         13   -1    0    0    0    0  0.00000000000E+00  0.00000000000E+00  0.74505805969E-08  0.10566000000E+00  0.10566000000E+00 0.  1.
     999900   -1    0    0    0    0 -0.00000000000E+00 -0.00000000000E+00 -0.74505805969E-08  0.93827000000E+00  0.93827000000E+00 0. -1.
     999902    2    1    2    0    0 -0.40273302987E-02  0.14546772081E-01 -0.17978210288E-01  0.10204556733E+01  0.10201856386E+01 0.  0.
     999903    2    3    3    0    0  0.61067835413E-01 -0.48348435518E-03 -0.11587912675E+00  0.13250979736E+00  0.20033973677E-01 0.  0.
         14    1    1    2    0    0  0.40273302987E-02 -0.14546772081E-01  0.17978210288E-01  0.23474326667E-01  0.00000000000E+00 0.  1.
     999901    1    3    3    0    0 -0.65095165712E-01  0.15030256436E-01  0.97900916464E-01  0.88794587597E+00  0.88000000000E+00 0.  1.
        -11    1    4    4    0    0  0.28643213549E-01 -0.75388488695E-02 -0.40772522506E-01  0.50397694761E-01  0.51100000000E-03 0. -1.
         11    1    4    4    0    0  0.32424621864E-01  0.70553645144E-02 -0.75106604246E-01  0.82112102602E-01  0.51100000000E-03 0.  1.
</event>
<event>
 8    1  0.1204770E+005  0.1043930E+01  0.7957747E-01            NaN
         13   -1    0    0    0    0  0.00000000000E+00  0.00000000000E+00  0.74505805969E-08  0.10566000000E+00  0.10566000000E+00 0.  1.
     999900   -1    0    0    0    0 -0.00000000000E+00 -0.00000000000E+00 -0.74505805969E-08  0.93827000000E+00  0.93827000000E+00 0. -1.
     999902    2    1    2    0    0  0.12920309399E-01 -0.18304931945E-01 -0.69442946380E-02  0.10204730574E+01  0.10202034271E+01 0.  0.
     999903    2    3    3    0    0 -0.29178974898E-01 -0.83636123756E-01  0.94814012375E-01  0.13120635532E+00  0.19467844298E-01 0.  0.
         14    1    1    2    0    0 -0.12920309399E-01  0.18304931945E-01  0.69442946380E-02  0.23456942608E-01  0.00000000000E+00 0.  1.
     999901    1    3    3    0    0  0.42099284297E-01  0.65331191811E-01 -0.10175830701E+00  0.88926670207E+00  0.88000000000E+00 0. -1.
        -11    1    4    4    0    0 -0.24027732951E-01 -0.45120041573E-01  0.45646580665E-01  0.68534819980E-01  0.51100000000E-03 0. -1.
         11    1    4    4    0    0 -0.51512419469E-02 -0.38516082183E-01  0.49167431710E-01  0.62671535343E-01  0.51100000000E-03 0.  1.
</event>
<event>
 8    1  0.1204770E+005  0.1043930E+01  0.7957747E-01            NaN
         13   -1    0    0    0    0  0.00000000000E+00  0.00000000000E+00  0.74505805969E-08  0.10566000000E+00  0.10566000000E+00 0.  1.
     999900   -1    0    0    0    0 -0.00000000000E+00 -0.00000000000E+00 -0.74505805969E-08  0.93827000000E+00  0.93827000000E+00 0.  1.
     999902    2    1    2    0    0 -0.21377103434E-01  0.35635078153E-02  0.10172341722E-01  0.10199893301E+01  0.10197083298E+01 0.  0.
     999903    2    3    3    0    0  0.72291911652E-01  0.94644981707E-01  0.46681545483E-01  0.12959467534E+00  0.20780282336E-01 0.  0.
         14    1    1    2    0    0  0.21377103434E-01 -0.35635078153E-02 -0.10172341722E-01  0.23940669901E-01  0.00000000000E+00 0. -1.
     999901    1    3    3    0    0 -0.93669015086E-01 -0.91081473891E-01 -0.36509203761E-01  0.89039465476E+00  0.88000000000E+00 0.  1.
        -11    1    4    4    0    0  0.21589041432E-01  0.40418583280E-01  0.25257547960E-01  0.52325456848E-01  0.51100000000E-03 0.  1.
         11    1    4    4    0    0  0.50702870219E-01  0.54226398427E-01  0.21423997523E-01  0.77269218488E-01  0.51100000000E-03 0. -1.
</event>
<event>
 8    1  0.1204770E+005  0.1043930E+01  0.7957747E-01            NaN
         13   -1    0    0    0    0  0.00000000000E+00  0.00000000000E+00  0.74505805969E-08  0.10566000000E+00  0.10566000000E+00 0. -1.
     999900   -1    0    0    0    0 -0.00000000000E+00 -0.00000000000E+00 -0.74505805969E-08  0.93827000000E+00  0.93827000000E+00 0.  1.
     999902    2    1    2    0    0  0.16750487109E-01 -0.11892453663E-01 -0.13577237761E-01  0.10193058115E+01  0.10190083350E+01 0.  0.
     999903    2    3    3    0    0  0.12699883490E+00 -0.26738400761E-01  0.11351053392E-01  0.13195215034E+00  0.20949401502E-01 0.  0.
         14    1    1    2    0    0 -0.16750487109E-01  0.11892453663E-01  0.13577237761E-01  0.24624188468E-01  0.00000000000E+00 0. -1.
     999901    1    3    3    0    0 -0.11024834779E+00  0.14845947098E-01 -0.24928291154E-01  0.88735366120E+00  0.88000000000E+00 0.  1.
        -11    1    4    4    0    0  0.77571379214E-01 -0.60740026743E-02  0.45042592384E-02  0.77940758618E-01  0.51100000000E-03 0.  1.
         11    1    4    4    0    0  0.49427455689E-01 -0.20664398087E-01  0.68467941541E-02  0.54011391718E-01  0.51100000000E-03 0. -1.
</event>
<event>
 8    1  0.1204770E+005  0.1043930E+01  0.7957747E-01            NaN
         13   -1    0    0    0    0  0.00000000000E+00  0.00000000000E+00  0.74505805969E-08  0.10566000000E+00  0.10566000000E+00 0. -1.
     999900   -1    0    0    0    0 -0.00000000000E+00 -0.00000000000E+00 -0.74505805969E-08  0.93827000000E+00  0.93827000000E+00 0.  1.
     999902    2    1    2    0    0  0.95148176620E-02  0.20499273414E-01  0.84468071929E-02  0.10198032406E+01  0.10195178022E+01 0.  0.
     999903    2    3    3    0    0  0.10281684852E+00  0.77153857679E-02  0.79736567905E-01  0.13191195972E+00  0.20298111702E-01 0.  0.
         14    1    1    2    0    0 -0.95148176620E-02 -0.20499273414E-01 -0.84468071929E-02  0.24126759364E-01  0.00000000000E+00 0. -1.
     999901    1    3    3    0    0 -0.93302030858E-01  0.12783887646E-01 -0.71289760712E-01  0.88789128092E+00  0.88000000000E+00 0.  1.
        -11    1    4    4    0    0  0.58808692520E-01  0.14447959955E-01  0.46376497585E-01  0.76277431210E-01  0.51100000000E-03 0. -1.
         11    1    4    4    0    0  0.44008156000E-01 -0.67325741873E-02  0.33360070321E-01  0.55634528509E-01  0.51100000000E-03 0.  1.
</event>
<event>
 8    1  0.1204770E+005  0.1043930E+01  0.7957747E-01            NaN
         13   -1    0    0    0    0  0.00000000000E+00  0.00000000000E+00  0.74505805969E-08  0.10566000000E+00  0.10566000000E+00 0.  1.
     999900   -1    0    0    0    0 -0.00000000000E+00 -0.00000000000E+00 -0.74505805969E-08  0.93827000000E+00  0.93827000000E+00 0. -1.
     999902    2    1    2    0    0  0.22744405844E-01 -0.44833570709E-02  0.33949573090E-02  0.10205006547E+01  0.10202316658E+01 0.  0.
     999903    2    3    3    0    0 -0.39684756286E-01  0.12085859143E+00  0.11159808612E-01  0.12939555578E+00  0.20904294366E-01 0.  0.
         14    1    1    2    0    0 -0.22744405844E-01  0.44833570709E-02 -0.33949573090E-02  0.23429345338E-01  0.00000000000E+00 0. -1.
     999901    1    3    3    0    0  0.62429162130E-01 -0.12534194850E+00 -0.77648513034E-02  0.89110509888E+00  0.88000000000E+00 0. -1.
        -11    1    4    4    0    0 -0.29398825305E-02  0.20183921866E-01 -0.50130979535E-02  0.21010137631E-01  0.51100000000E-03 0. -1.
         11    1    4    4    0    0 -0.36744873755E-01  0.10067466957E+00  0.16172906566E-01  0.10838541815E+00  0.51100000000E-03 0.  1.
</event>
<event>
 8    1  0.1204770E+005  0.1043930E+01  0.7957747E-01            NaN
         13   -1    0    0    0    0  0.00000000000E+00  0.00000000000E+00  0.74505805969E-08  0.10566000000E+00  0.10566000000E+00 0. -1.
     999900   -1    0    0    0    0 -0.00000000000E+00 -0.00000000000E+00 -0.74505805969E-08  0.93827000000E+00  0.93827000000E+00 0.  1.
     999902    2    1    2    0    0  0.12919666661E-01 -0.13227451859E-01  0.14688642939E-01  0.10203156082E+01  0.10200423034E+01 0.  0.
     999903    2    3    3    0    0  0.10985985941E+00 -0.71666620582E-01  0.88238161962E-02  0.13304623894E+00  0.20448685716E-01 0.  0.
         14    1    1    2    0    0 -0.12919666661E-01  0.13227451859E-01 -0.14688642939E-01  0.23614391813E-01  0.00000000000E+00 0.  1.
     999901    1    3    3    0    0 -0.96940192753E-01  0.58439168722E-01  0.58648267428E-02  0.88726936925E+00  0.88000000000E+00 0.  1.
        -11    1    4    4    0    0  0.15719634153E-01 -0.19412908334E-01  0.36602545058E-02  0.25251267135E-01  0.51100000000E-03 0.  1.
         11    1    4    4    0    0  0.94140225261E-01 -0.52253712248E-01  0.51635616904E-02  0.10779497180E+00  0.51100000000E-03 0. -1.
</event>
<event>
 8    1  0.1204770E+005  0.1043930E+01  0.7957747E-01            NaN
         13   -1    0    0    0    0  0.00000000000E+00  0.00000000000E+00  0.74505805969E-08  0.10566000000E+00  0.10566000000E+00 0. -1.
     999900   -1    0    0    0    0 -0.00000000000E+00 -0.00000000000E+00 -0.74505805969E-08  0.93827000000E+00  0.93827000000E+00 0.  1.
     999902    2    1    2    0    0  0.19938196749E-01 -0.10147323120E-01 -0.25515608516E-02  0.10214131104E+01  0.10211648896E+01 0.  0.
     999903    2    3    3    0    0  0.46739693026E-01 -0.10355511620E+00 -0.67532924478E-01  0.13368234395E+00  0.20050241927E-01 0.  0.
         14    1    1    2    0    0 -0.19938196749E-01  0.10147323120E-01  0.25515608516E-02  0.22516889636E-01  0.00000000000E+00 0. -1.
     999901    1    3    3    0    0 -0.26801496277E-01  0.93407793080E-01  0.64981363626E-01  0.88773076641E+00  0.88000000000E+00 0. -1.
        -11    1    4    4    0    0  0.10967845520E-01 -0.46384312483E-01 -0.23553653872E-01  0.53167977314E-01  0.51100000000E-03 0.  1.
         11    1    4    4    0    0  0.35771847506E-01 -0.57170803716E-01 -0.43979270605E-01  0.80514366641E-01  0.51100000000E-03 0. -1.
</event>
<event>
 8    1  0.1204770E+005  0.1043930E+01  0.7957747E-01            NaN
         13   -1    0    0    0    0  0.00000000000E+00  0.00000000000E+00  0.74505805969E-08  0.10566000000E+00  0.10566000000E+00 0.  1.
     999900   -1    0    0    0    0 -0.00000000000E+00 -0.00000000000E+00 -0.74505805969E-08  0.93827000000E+00  0.93827000000E+00 0.  1.
     999902    2    1    2    0    0  0.13697219369E-01 -0.18431425869E-01 -0.64269151876E-03  0.10209573134E+01  0.10206988250E+01 0.  0.
     999903    2    3    3    0    0  0.26782480762E-01 -0.33185775894E-01  0.12334539525E+00  0.13204676638E+00  0.20091415673E-01 0.  0.
         14    1    1    2    0    0 -0.13697219369E-01  0.18431425869E-01  0.64269151876E-03  0.22972686617E-01  0.00000000000E+00 0.  1.
     999901    1    3    3    0    0 -0.13085261393E-01  0.14754350025E-01 -0.12398808677E+00  0.88891054700E+00  0.88000000000E+00 0.  1.
        -11    1    4    4    0    0  0.14193227932E-01 -0.61675638874E-02  0.61088941003E-01  0.63020682298E-01  0.51100000000E-03 0.  1.
         11    1    4    4    0    0  0.12589252830E-01 -0.27018212007E-01  0.62256454251E-01  0.69026084083E-01  0.51100000000E-03 0. -1.
</event>
<event>
 8    1  0.1204770E+005  0.1043930E+01  0.7957747E-01            NaN
         13   -1    0    0    0    0  0.00000000000E+00  0.00000000000E+00  0.74505805969E-08  0.10566000000E+00  0.10566000000E+00 0.  1.
     999900   -1    0    0    0    0 -0.00000000000E+00 -0.00000000000E+00 -0.74505805969E-08  0.93827000000E+00  0.93827000000E+00 0. -1.
     999902    2    1    2    0    0 -0.21747448050E-01 -0.14369584332E-02 -0.11947442062E-01  0.10190752677E+01  0.10187721254E+01 0.  0.
     999903    2    3    3    0    0 -0.63529401148E-01  0.74411743400E-01  0.82953338870E-01  0.12974691697E+00  0.19491374195E-01 0.  0.
         14    1    1    2    0    0  0.21747448050E-01  0.14369584332E-02  0.11947442062E-01  0.24854732307E-01  0.00000000000E+00 0.  1.
     999901    1    3    3    0    0  0.41781953097E-01 -0.75848701833E-01 -0.94900780932E-01  0.88932835072E+00  0.88000000000E+00 0. -1.
        -11    1    4    4    0    0 -0.21873688023E-01  0.12696940697E-01  0.20295836174E-01  0.32432277407E-01  0.51100000000E-03 0.  1.
         11    1    4    4    0    0 -0.41655713124E-01  0.61714802702E-01  0.62657502696E-01  0.97314639565E-01  0.51100000000E-03 0. -1.
</event>
<event>
 8    1  0.1204770E+005  0.1043930E+01  0.7957747E-01            NaN
         13   -1    0    0    0    0  0.00000000000E+00  0.00000000000E+00  0.74505805969E-08  0.10566000000E+00  0.10566000000E+00 0. -1.
     999900   -1    0    0    0    0 -0.00000000000E+00 -0.00000000000E+00 -0.74505805969E-08  0.93827000000E+00  0.93827000000E+00 0. -1.
     999902    2    1    2    0    0  0.53160599065E-02  0.23123093609E-01 -0.22369963894E-02  0.10200984641E+01  0.10198200500E+01 0.  0.
     999903    2    3    3    0    0  0.12568131203E+00 -0.23117046610E-01 -0.17954352255E-01  0.13056320354E+00  0.19854503665E-01 0.  0.
         14    1    1    2    0    0 -0.53160599065E-02 -0.23123093609E-01  0.22369963894E-02  0.23831535909E-01  0.00000000000E+00 0.  1.
     999901    1    3    3    0    0 -0.12036525213E+00  0.46240140219E-01  0.15717355865E-01  0.88953526055E+00  0.88000000000E+00 0. -1.
        -11    1    4    4    0    0  0.71835592407E-01 -0.15209681618E-01 -0.58185318290E-03  0.73432189301E-01  0.51100000000E-03 0. -1.
         11    1    4    4    0    0  0.53845719625E-01 -0.79073649922E-02 -0.17372499072E-01  0.57131014240E-01  0.51100000000E-03 0.  1.
</event>
<event>
 8    1  0.1204770E+005  0.1043930E+01  0.7957747E-01            NaN
         13   -1    0    0    0    0  0.00000000000E+00  0.00000000000E+00  0.74505805969E-08  0.10566000000E+00  0.10566000000E+00 0.  1.
     999900   -1    0    0    0    0 -0.00000000000E+00 -0.00000000000E+00 -0.74505805969E-08  0.93827000000E+00  0.93827000000E+00 0.  1.
     999902    2    1    2    0    0 -0.13055864489E-01 -0.16737027216E-01  0.10938875775E-01  0.10200502454E+01  0.10197706901E+01 0.  0.
     999903    2    3    3    0    0 -0.69584504372E-01 -0.68476920898E-01 -0.85691830788E-01  0.13145022446E+00  0.20124107492E-01 0.  0.
         14    1    1    2    0    0  0.13055864489E-01  0.16737027216E-01 -0.10938875775E-01  0.23879754622E-01  0.00000000000E+00 0. -1.
     999901    1    3    3    0    0  0.56528639883E-01  0.51739893682E-01  0.96630706562E-01  0.88860002092E+00  0.88000000000E+00 0. -1.
        -11    1    4    4    0    0 -0.43312237455E-01 -0.50077224304E-01 -0.67588753535E-01  0.94615955488E-01  0.51100000000E-03 0. -1.
         11    1    4    4    0    0 -0.26272266916E-01 -0.18399696594E-01 -0.18103077252E-01  0.36834268972E-01  0.51100000000E-03 0.  1.
</event>
<event>
 8    1  0.1204770E+005  0.1043930E+01  0.7957747E-01            NaN
         13   -1    0    0    0    0  0.00000000000E+00  0.00000000000E+00  0.74505805969E-08  0.10566000000E+00  0.10566000000E+00 0.  1.
     999900   -1    0    0    0    0 -0.00000000000E+00 -0.00000000000E+00 -0.74505805969E-08  0.93827000000E+00  0.93827000000E+00 0.  1.
     999902    2    1    2    0    0  0.15967074485E-02  0.22905590062E-01  0.70192096728E-02  0.10199199014E+01  0.10196372494E+01 0.  0.
     999903    2    3    3    0    0 -0.89407522857E-01  0.19318557557E-01 -0.89973037839E-01  0.12991870318E+00  0.20415927338E-01 0.  0.
         14    1    1    2    0    0 -0.15967074485E-02 -0.22905590062E-01 -0.70192096728E-02  0.24010098609E-01  0.00000000000E+00 0. -1.
     999901    1    3    3    0    0  0.91004230305E-01  0.35870325052E-02  0.96992247512E-01  0.89000119821E+00  0.88000000000E+00 0. -1.
        -11    1    4    4    0    0 -0.52800305152E-01  0.45595153309E-02 -0.61849238360E-01  0.81450910437E-01  0.51100000000E-03 0. -1.
         11    1    4    4    0    0 -0.36607217705E-01  0.14759042226E-01 -0.28123799479E-01  0.48467792746E-01  0.51100000000E-03 0.  1.
</event>
<event>
 8    1  0.1204770E+005  0.1043930E+01  0.7957747E-01            NaN
         13   -1    0    0    0    0  0.00000000000E+00  0.00000000000E+00  0.74505805969E-08  0.10566000000E+00  0.10566000000E+00 0.  1.
     999900   -1    0    0    0    0 -0.00000000000E+00 -0.00000000000E+00 -0.74505805969E-08  0.93827000000E+00  0.93827000000E+00 0.  1.
     999902    2    1    2    0    0 -0.13790560396E-01  0.61791553965E-02 -0.18022278729E-01  0.10204105602E+01  0.10201394745E+01 0.  0.
     999903    2    3    3    0    0  0.12107213343E+00 -0.35768596792E-01  0.14215642662E-01  0.12856593043E+00  0.19729672071E-01 0.  0.
         14    1    1    2    0    0  0.13790560396E-01 -0.61791553965E-02  0.18022278729E-01  0.23519439790E-01  0.00000000000E+00 0. -1.
     999901    1    3    3    0    0 -0.13486269383E+00  0.41947752188E-01 -0.32237921391E-01  0.89184462978E+00  0.88000000000E+00 0.  1.
        -11    1    4    4    0    0  0.23920846649E-01 -0.46761646158E-04 -0.97108337123E-03  0.23946048003E-01  0.51100000000E-03 0.  1.
         11    1    4    4    0    0  0.97151286782E-01 -0.35721835145E-01  0.15186726033E-01  0.10461988242E+00  0.51100000000E-03 0. -1.
</event>
<event>
 8    1  0.1204770E+005  0.1043930E+01  0.7957747E-01            NaN
         13   -1    0    0    0    0  0.00000000000E+00  0.00000000000E+00  0.74505805969E-08  0.10566000000E+00  0.10566000000E+00 0.  1.
     999900   -1    0    0    0    0 -0.00000000000E+00 -0.00000000000E+00 -0.74505805969E-08  0.93827000000E+00  0.93827000000E+00 0.  1.
     999902    2    1    2    0    0 -0.13444618127E-01 -0.19403466658E-01  0.19119118022E-02  0.10202465104E+01  0.10199715850E+01 0.  0.
     999903    2    3    3    0    0  0.12088007611E+00  0.12202289164E-01 -0.36418183659E-01  0.12866855891E+00  0.21643134943E-01 0.  0.
         14    1    1    2    0    0  0.13444618127E-01  0.19403466658E-01 -0.19119118022E-02  0.23683489642E-01  0.00000000000E+00 0.  1.
     999901    1    3    3    0    0 -0.13432469424E+00 -0.31605755822E-01  0.38330095461E-01  0.89157795144E+00  0.88000000000E+00 0. -1.
        -11    1    4    4    0    0  0.96664445496E-01  0.18246631500E-01 -0.30781832361E-01  0.10307636445E+00  0.51100000000E-03 0.  1.
         11    1    4    4    0    0  0.24215630616E-01 -0.60443423355E-02 -0.56363512973E-02  0.25592194462E-01  0.51100000000E-03 0. -1.
</event>
<event>
 8    1  0.1204770E+005  0.1043930E+01  0.7957747E-01            NaN
         13   -1    0    0    0    0  0.00000000000E+00  0.00000000000E+00  0.74505805969E-08  0.10566000000E+00  0.10566000000E+00 0. -1.
     999900   -1    0    0    0    0 -0.00000000000E+00 -0.00000000000E+00 -0.74505805969E-08  0.93827000000E+00  0.93827000000E+00 0. -1.
     999902    2    1    2    0    0  0.63085666968E-02 -0.14400677889E-01  0.67193889852E-02  0.10268324058E+01  0.10266900516E+01 0.  0.
     999903    2    3    3    0    0 -0.64746326849E-01  0.96646523493E-01  0.65705186748E-01  0.13505911450E+00  0.19777651508E-01 0.  0.
         14    1    1    2    0    0 -0.63085666968E-02  0.14400677889E-01 -0.67193889852E-02  0.17097594151E-01  0.00000000000E+00 0.  1.
     999901    1    3    3    0    0  0.71054893546E-01 -0.11104720138E+00 -0.58985797763E-01  0.89177329135E+00  0.88000000000E+00 0. -1.
        -11    1    4    4    0    0 -0.43500844126E-01  0.77471469007E-01  0.55017520210E-01  0.10450521806E+00  0.51100000000E-03 0.  1.
         11    1    4    4    0    0 -0.21245482723E-01  0.19175054486E-01  0.10687666538E-01  0.30553896441E-01  0.51100000000E-03 0. -1.
</event>
<event>
 8    1  0.1204770E+005  0.1043930E+01  0.7957747E-01            NaN
         13   -1    0    0    0    0  0.00000000000E+00  0.00000000000E+00  0.74505805969E-08  0.10566000000E+00  0.10566000000E+00 0.  1.
     999900   -1    0    0    0    0 -0.00000000000E+00 -0.00000000000E+00 -0.74505805969E-08  0.93827000000E+00  0.93827000000E+00 0.  1.
     999902    2    1    2    0    0 -0.10895800998E-01 -0.51579667101E-02 -0.18550723505E-01  0.10218064279E+01  0.10215668963E+01 0.  0.
     999903    2    3    3    0    0  0.12236414678E+00  0.10236436140E-01 -0.42054554293E-01  0.13133035782E+00  0.20032680980E-01 0.  0.
         14    1    1    2    0    0  0.10895800998E-01  0.51579667101E-02  0.18550723505E-01  0.22123572102E-01  0.00000000000E+00 0.  1.
     999901    1    3    3    0    0 -0.13325994777E+00 -0.15394402850E-01  0.23503830788E-01  0.89047607008E+00  0.88000000000E+00 0.  1.
        -11    1    4    4    0    0  0.82324918962E-01 -0.24269573223E-02 -0.29701355695E-01  0.87554063613E-01  0.51100000000E-03 0. -1.
         11    1    4    4    0    0  0.40039227815E-01  0.12663393462E-01 -0.12353198597E-01  0.43776294208E-01  0.51100000000E-03 0.  1.
</event>
<event>
 8    1  0.1204770E+005  0.1043930E+01  0.7957747E-01            NaN
         13   -1    0    0    0    0  0.00000000000E+00  0.00000000000E+00  0.74505805969E-08  0.10566000000E+00  0.10566000000E+00 0.  1.
     999900   -1    0    0    0    0 -0.00000000000E+00 -0.00000000000E+00 -0.74505805969E-08  0.93827000000E+00  0.93827000000E+00 0.  1.
     999902    2    1    2    0    0 -0.20293978352E-01  0.98363244840E-04 -0.11923875770E-01  0.10203920722E+01  0.10201205551E+01 0.  0.
     999903    2    3    3    0    0  0.61335983856E-01  0.10562322769E+00  0.37651258142E-01  0.12895691377E+00  0.17143489359E-01 0.  0.
         14    1    1    2    0    0  0.20293978352E-01 -0.98363244840E-04  0.11923875770E-01  0.23537927820E-01  0.00000000000E+00 0.  1.
     999901    1    3    3    0    0 -0.81629962208E-01 -0.10552486444E+00 -0.49575133912E-01  0.89143515841E+00  0.88000000000E+00 0.  1.
        -11    1    4    4    0    0  0.52674164333E-01  0.76355227054E-01  0.26767454269E-01  0.96547635992E-01  0.51100000000E-03 0. -1.
         11    1    4    4    0    0  0.86618195235E-02  0.29268000631E-01  0.10883803873E-01  0.32409277779E-01  0.51100000000E-03 0.  1.
</event>
<event>
 8    1  0.1204770E+005  0.1043930E+01  0.7957747E-01            NaN
         13   -1    0    0    0    0  0.00000000000E+00  0.00000000000E+00  0.74505805969E-08  0.10566000000E+00  0.10566000000E+00 0.  1.
     999900   -1    0    0    0    0 -0.00000000000E+00 -0.00000000000E+00 -0.74505805969E-08  0.93827000000E+00  0.93827000000E+00 0. -1.
     999902    2    1    2    0    0 -0.22642458470E-01 -0.75679884582E-02  0.18668057811E-02  0.10199833857E+01  0.10197022441E+01 0.  0.
     999903    2    3    3    0    0  0.10077806012E+00  0.67221100106E-01 -0.34167827249E-01  0.12750115784E+00  0.20352177544E-01 0.  0.
         14    1    1    2    0    0  0.22642458470E-01  0.75679884582E-02 -0.18668057811E-02  0.23946614348E-01  0.00000000000E+00 0.  1.
     999901    1    3    3    0    0 -0.12342051859E+00 -0.74789088564E-01  0.36034633030E-01  0.89248222781E+00  0.88000000000E+00 0. -1.
        -11    1    4    4    0    0  0.50962252343E-01  0.40585209130E-01 -0.27126267242E-01  0.70571990616E-01  0.51100000000E-03 0.  1.
         11    1    4    4    0    0  0.49815807780E-01  0.26635890976E-01 -0.70415600074E-02  0.56929167227E-01  0.51100000000E-03 0. -1.
</event>
<event>
 8    1  0.1204770E+005  0.1043930E+01  0.7957747E-01            NaN
         13   -1    0    0    0    0  0.00000000000E+00  0.00000000000E+00  0.74505805969E-08  0.10566000000E+00  0.10566000000E+00 0. -1.
     999900   -1    0    0    0    0 -0.00000000000E+00 -0.00000000000E+00 -0.74505805969E-08  0.93827000000E+00  0.93827000000E+00 0. -1.
     999902    2    1    2    0    0  0.69003029727E-03 -0.93356420863E-02 -0.21339538989E-01  0.10206275049E+01  0.10203614543E+01 0.  0.
     999903    2    3    3    0    0  0.10970805234E+00 -0.30867289917E-01  0.61281831489E-01  0.12979933297E+00  0.10186149140E-01 0.  0.
         14    1    1    2    0    0 -0.69003029727E-03  0.93356420863E-02  0.21339538989E-01  0.23302495129E-01  0.00000000000E+00 0.  1.
     999901    1    3    3    0    0 -0.10901802204E+00  0.21531647830E-01 -0.82621370477E-01  0.89082817190E+00  0.88000000000E+00 0. -1.
        -11    1    4    4    0    0  0.62936330927E-01 -0.19274696639E-01  0.29931227091E-01  0.72309302011E-01  0.51100000000E-03 0. -1.
         11    1    4    4    0    0  0.46771721413E-01 -0.11592593278E-01  0.31350604397E-01  0.57490030962E-01  0.51100000000E-03 0.  1.
</event>
<event>
 8    1  0.1204770E+005  0.1043930E+01  0.7957747E-01            NaN
         13   -1    0    0    0    0  0.00000000000E+00  0.00000000000E+00  0.74505805969E-08  0.10566000000E+00  0.10566000000E+00 0.  1.
     999900   -1    0    0    0    0 -0.00000000000E+00 -0.00000000000E+00 -0.74505805969E-08  0.93827000000E+00  0.93827000000E+00 0.  1.
     999902    2    1    2    0    0 -0.20198134345E-01 -0.51341192033E-02 -0.14322581663E-01  0.10186424506E+01  0.10183285236E+01 0.  0.
     999903    2    3    3    0    0 -0.12867813958E+00 -0.18566456084E-01  0.45372293543E-02  0.13167907382E+00  0.20396449075E-01 0.  0.
         14    1    1    2    0    0  0.20198134345E-01  0.51341192033E-02  0.14322581663E-01  0.25287549436E-01  0.00000000000E+00 0. -1.
     999901    1    3    3    0    0  0.10848000524E+00  0.13432336881E-01 -0.18859811017E-01  0.88696337674E+00  0.88000000000E+00 0.  1.
        -11    1    4    4    0    0 -0.88560285991E-01 -0.33160374530E-02  0.12665949229E-02  0.88632870555E-01  0.51100000000E-03 0. -1.
         11    1    4    4    0    0 -0.40117853590E-01 -0.15250418631E-01  0.32706344314E-02  0.43046203267E-01  0.51100000000E-03 0.  1.
</event>
<event>
 8    1  0.1204770E+005  0.1043930E+01  0.7957747E-01            NaN
         13   -1    0    0    0    0  0.00000000000E+00  0.00000000000E+00  0.74505805969E-08  0.10566000000E+00  0.10566000000E+00 0.  1.
     999900   -1    0    0    0    0 -0.00000000000E+00 -0.00000000000E+00 -0.74505805969E-08  0.93827000000E+00  0.93827000000E+00 0.  1.
     999902    2    1    2    0    0 -0.30758430462E-02 -0.46302570978E-02  0.23355201155E-01  0.10199223864E+01  0.10196397936E+01 0.  0.
     999903    2    3    3    0    0  0.16076058926E-01  0.83333591215E-01 -0.93222739000E-01  0.12768091116E+00  0.20223968742E-01 0.  0.
         14    1    1    2    0    0  0.30758430462E-02  0.46302570978E-02 -0.23355201155E-01  0.24007613631E-01  0.00000000000E+00 0. -1.
     999901    1    3    3    0    0 -0.19151901973E-01 -0.87963848312E-01  0.11657794016E+00  0.89224147521E+00  0.88000000000E+00 0.  1.
        -11    1    4    4    0    0  0.10798220930E-01  0.75407468916E-01 -0.73902939739E-01  0.10613573181E+00  0.51100000000E-03 0. -1.
         11    1    4    4    0    0  0.52778379961E-02  0.79261222983E-02 -0.19319799261E-01  0.21545179347E-01  0.51100000000E-03 0.  1.
</event>
<event>
 8    1  0.1204770E+005  0.1043930E+01  0.7957747E-01            NaN
         13   -1    0    0    0    0  0.00000000000E+00  0.00000000000E+00  0.74505805969E-08  0.10566000000E+00  0.10566000000E+00 0.  1.
     999900   -1    0    0    0    0 -0.00000000000E+00 -0.00000000000E+00 -0.74505805969E-08  0.93827000000E+00  0.93827000000E+00 0.  1.
     999902    2    1    2    0    0 -0.14157048352E-01  0.13848320875E-01 -0.11866936136E-01  0.10208427268E+01  0.10205816238E+01 0.  0.
     999903    2    3    3    0    0  0.43924954325E-01  0.31065532355E-01  0.11607257990E+00  0.12952994718E+00  0.20265598901E-01 0.  0.
         14    1    1    2    0    0  0.14157048352E-01 -0.13848320875E-01  0.11866936136E-01  0.23087273169E-01  0.00000000000E+00 0.  1.
     999901    1    3    3    0    0 -0.58082002677E-01 -0.17217211480E-01 -0.12793951604E+00  0.89131277965E+00  0.88000000000E+00 0. -1.
        -11    1    4    4    0    0  0.41956223781E-01  0.29581142186E-01  0.92237571471E-01  0.10556230103E+00  0.51100000000E-03 0.  1.
         11    1    4    4    0    0  0.19687305445E-02  0.14843901689E-02  0.23835008430E-01  0.23967646150E-01  0.51100000000E-03 0. -1.
</event>
<event>
 8    1  0.1204770E+005  0.1043930E+01  0.7957747E-01            NaN
         13   -1    0    0    0    0  0.00000000000E+00  0.00000000000E+00  0.74505805969E-08  0.10566000000E+00  0.10566000000E+00 0.  1.
     999900   -1    0    0    0    0 -0.00000000000E+00 -0.00000000000E+00 -0.74505805969E-08  0.93827000000E+00  0.93827000000E+00 0. -1.
     999902    2    1    2    0    0 -0.10099173407E-01  0.11957823123E-01  0.17602480237E-01  0.10203751672E+01  0.10201032554E+01 0.  0.
     999903    2    3    3    0    0 -0.10873013772E+00 -0.56043947399E-01  0.45008694742E-01  0.13183512393E+00  0.19787632778E-01 0.  0.
         14    1    1    2    0    0  0.10099173407E-01 -0.11957823123E-01 -0.17602480237E-01  0.23554832792E-01  0.00000000000E+00 0. -1.
     999901    1    3    3    0    0  0.98630964312E-01  0.68001770522E-01 -0.27406214504E-01  0.88854004328E+00  0.88000000000E+00 0.  1.
        -11    1    4    4    0    0 -0.10279462843E+00 -0.47119029742E-01  0.42592100498E-01  0.12083578420E+00  0.51100000000E-03 0.  1.
         11    1    4    4    0    0 -0.59355092863E-02 -0.89249176571E-02  0.24165942437E-02  0.10999339726E-01  0.51100000000E-03 0. -1.
</event>
<event>
 8    1  0.1204770E+005  0.1043930E+01  0.7957747E-01            NaN
         13   -1    0    0    0    0  0.00000000000E+00  0.00000000000E+00  0.74505805969E-08  0.10566000000E+00  0.10566000000E+00 0.  1.
     999900   -1    0    0    0    0 -0.00000000000E+00 -0.00000000000E+00 -0.74505805969E-08  0.93827000000E+00  0.93827000000E+00 0.  1.
     999902    2    1    2    0    0 -0.12074550051E-01 -0.88295501953E-02  0.18678681807E-01  0.10199999171E+01  0.10197191682E+01 0.  0.
     999903    2    3    3    0    0 -0.34076751445E-01  0.42819969592E-01 -0.11429721739E+00  0.12824077944E+00  0.19674064758E-01 0.  0.
         14    1    1    2    0    0  0.12074550051E-01  0.88295501953E-02 -0.18678681807E-01  0.23930082942E-01  0.00000000000E+00 0. -1.
     999901    1    3    3    0    0  0.22002201394E-01 -0.51649519787E-01  0.13297589919E+00  0.89175913762E+00  0.88000000000E+00 0. -1.
        -11    1    4    4    0    0 -0.14456321786E-01  0.26277349878E-01 -0.42711363361E-01  0.52192011241E-01  0.51100000000E-03 0. -1.
         11    1    4    4    0    0 -0.19620429658E-01  0.16542619713E-01 -0.71585854025E-01  0.76048768198E-01  0.51100000000E-03 0.  1.
</event>
<event>
 8    1  0.1204770E+005  0.1043930E+01  0.7957747E-01            NaN
         13   -1    0    0    0    0  0.00000000000E+00  0.00000000000E+00  0.74505805969E-08  0.10566000000E+00  0.10566000000E+00 0. -1.
     999900   -1    0    0    0    0 -0.00000000000E+00 -0.00000000000E+00 -0.74505805969E-08  0.93827000000E+00  0.93827000000E+00 0. -1.
     999902    2    1    2    0    0 -0.20813912569E-01 -0.10094770139E-01 -0.60732495306E-02  0.10200133175E+01  0.10197328867E+01 0.  0.
     999903    2    3    3    0    0  0.11792446056E+00 -0.24773708715E-01 -0.39662793133E-01  0.12839004234E+00  0.19772475129E-01 0.  0.
         14    1    1    2    0    0  0.20813912569E-01  0.10094770139E-01  0.60732495306E-02  0.23916682471E-01  0.00000000000E+00 0. -1.
     999901    1    3    3    0    0 -0.13873837312E+00  0.14678938577E-01  0.33589543602E-01  0.89162327519E+00  0.88000000000E+00 0. -1.
        -11    1    4    4    0    0  0.83974156242E-01 -0.20825946306E-01 -0.19452137769E-01  0.88679342245E-01  0.51100000000E-03 0.  1.
         11    1    4    4    0    0  0.33950304313E-01 -0.39477624091E-02 -0.20210655364E-01  0.39710700098E-01  0.51100000000E-03 0. -1.
</event>
<event>
 8    1  0.1204770E+005  0.1043930E+01  0.7957747E-01            NaN
         13   -1    0    0    0    0  0.00000000000E+00  0.00000000000E+00  0.74505805969E-08  0.10566000000E+00  0.10566000000E+00 0. -1.
     999900   -1    0    0    0    0 -0.00000000000E+00 -0.00000000000E+00 -0.74505805969E-08  0.93827000000E+00  0.93827000000E+00 0.  1.
     999902    2    1    2    0    0  0.59621763202E-02 -0.21822012810E-01  0.23388224095E-02  0.10211875753E+01  0.10209343006E+01 0.  0.
     999903    2    3    3    0    0  0.89029602812E-01 -0.32039618131E-01  0.91036836634E-01  0.13277779683E+00  0.19733991005E-01 0.  0.
         14    1    1    2    0    0 -0.59621763202E-02  0.21822012810E-01 -0.23388224095E-02  0.22742424669E-01  0.00000000000E+00 0. -1.
     999901    1    3    3    0    0 -0.83067426491E-01  0.10217605321E-01 -0.88698014224E-01  0.88840977850E+00  0.88000000000E+00 0. -1.
        -11    1    4    4    0    0  0.37475400449E-01 -0.20889610227E-01  0.50403756115E-01  0.66193513321E-01  0.51100000000E-03 0. -1.
         11    1    4    4    0    0  0.51554202362E-01 -0.11150007904E-01  0.40633080519E-01  0.66584283513E-01  0.51100000000E-03 0.  1.
</event>
<event>
 8    1  0.1204770E+005  0.1043930E+01  0.7957747E-01            NaN
         13   -1    0    0    0    0  0.00000000000E+00  0.00000000000E+00  0.74505805969E-08  0.10566000000E+00  0.10566000000E+00 0. -1.
     999900   -1    0    0    0    0 -0.00000000000E+00 -0.00000000000E+00 -0.74505805969E-08  0.93827000000E+00  0.93827000000E+00 0.  1.
     999902    2    1    2    0    0  0.15359903513E-01  0.18419175331E-01  0.28692900357E-02  0.10197757979E+01  0.10194897020E+01 0.  0.
     999903    2    3    3    0    0  0.96090530430E-01  0.21250387928E-02 -0.87117932926E-01  0.13136112367E+00  0.20695524824E-01 0.  0.
         14    1    1    2    0    0 -0.15359903513E-01 -0.18419175331E-01 -0.28692900357E-02  0.24154202142E-01  0.00000000000E+00 0.  1.
     999901    1    3    3    0    0 -0.80730626917E-01  0.16294136539E-01  0.89987222961E-01  0.88841467418E+00  0.88000000000E+00 0. -1.
        -11    1    4    4    0    0  0.27180112966E-01 -0.55287660122E-02 -0.15942989399E-01  0.31996340829E-01  0.51100000000E-03 0.  1.
         11    1    4    4    0    0  0.68910417464E-01  0.76538048050E-02 -0.71174943526E-01  0.99364782846E-01  0.51100000000E-03 0. -1.
</event>
<event>
 8    1  0.1204770E+005  0.1043930E+01  0.7957747E-01            NaN
         13   -1    0    0    0    0  0.00000000000E+00  0.00000000000E+00  0.74505805969E-08  0.10566000000E+00  0.10566000000E+00 0. -1.
     999900   -1    0    0    0    0 -0.00000000000E+00 -0.00000000000E+00 -0.74505805969E-08  0.93827000000E+00  0.93827000000E+00 0.  1.
     999902    2    1    2    0    0  0.13094410719E-01 -0.17311194158E-02 -0.19567504167E-01  0.10203217899E+01  0.10200486299E+01 0.  0.
     999903    2    3    3    0    0  0.47085855276E-01  0.74608510254E-01  0.92316030582E-01  0.12931052018E+00  0.20382677854E-01 0.  0.
         14    1    1    2    0    0 -0.13094410719E-01  0.17311194158E-02  0.19567504167E-01  0.23608210136E-01  0.00000000000E+00 0. -1.
     999901    1    3    3    0    0 -0.33991444557E-01 -0.76339629670E-01 -0.11188353475E+00  0.89101126969E+00  0.88000000000E+00 0.  1.
        -11    1    4    4    0    0  0.36010173264E-01  0.43104291134E-01  0.66824818584E-01  0.87295647042E-01  0.51100000000E-03 0. -1.
         11    1    4    4    0    0  0.11075682012E-01  0.31504219120E-01  0.25491211998E-01  0.42014873135E-01  0.51100000000E-03 0.  1.
</event>
<event>
 8    1  0.1204770E+005  0.1043930E+01  0.7957747E-01            NaN
         13   -1    0    0    0    0  0.00000000000E+00  0.00000000000E+00  0.74505805969E-08  0.10566000000E+00  0.10566000000E+00 0. -1.
     999900   -1    0    0    0    0 -0.00000000000E+00 -0.00000000000E+00 -0.74505805969E-08  0.93827000000E+00  0.93827000000E+00 0. -1.
     999902    2    1    2    0    0  0.10399513529E-01 -0.48646768966E-02  0.55772783294E-02  0.10311659491E+01  0.10310869476E+01 0.  0.
     999903    2    3    3    0    0  0.80507963625E-01 -0.94411001167E-01  0.65715683931E-01  0.14181204492E+00  0.19928261913E-01 0.  0.
         14    1    1    2    0    0 -0.10399513529E-01  0.48646768966E-02 -0.55772783294E-02  0.12764050944E-01  0.00000000000E+00 0. -1.
     999901    1    3    3    0    0 -0.70108450097E-01  0.89546324270E-01 -0.60138405602E-01  0.88935390413E+00  0.88000000000E+00 0. -1.
        -11    1    4    4    0    0  0.79335198704E-01 -0.86903434616E-01  0.58888797363E-01  0.13158431623E+00  0.51100000000E-03 0. -1.
         11    1    4    4    0    0  0.11727649210E-02 -0.75075665502E-02  0.68268865675E-02  0.10227728696E-01  0.51100000000E-03 0.  1.
</event>
<event>
 8    1  0.1204770E+005  0.1043930E+01  0.7957747E-01            NaN
         13   -1    0    0    0    0  0.00000000000E+00  0.00000000000E+00  0.74505805969E-08  0.10566000000E+00  0.10566000000E+00 0.  1.
     999900   -1    0    0    0    0 -0.00000000000E+00 -0.00000000000E+00 -0.74505805969E-08  0.93827000000E+00  0.93827000000E+00 0. -1.
     999902    2    1    2    0    0  0.23278757566E-01 -0.47151155828E-02  0.25911084665E-02  0.10200376014E+01  0.10197577465E+01 0.  0.
     999903    2    3    3    0    0  0.53428138727E-01  0.11146112982E+00  0.38958863516E-01  0.13114586512E+00  0.20082216577E-01 0.  0.
         14    1    1    2    0    0 -0.23278757566E-01  0.47151155828E-02 -0.25911084665E-02  0.23892398621E-01  0.00000000000E+00 0.  1.
     999901    1    3    3    0    0 -0.30149381161E-01 -0.11617624541E+00 -0.36367755049E-01  0.88889173626E+00  0.88000000000E+00 0. -1.
        -11    1    4    4    0    0  0.16733786841E-01  0.58024637319E-01  0.19604923426E-01  0.63494033591E-01  0.51100000000E-03 0.  1.
         11    1    4    4    0    0  0.36694351885E-01  0.53436492504E-01  0.19353940090E-01  0.67651831530E-01  0.51100000000E-03 0. -1.
</event>
<event>
 8    1  0.1204770E+005  0.1043930E+01  0.7957747E-01            NaN
         13   -1    0    0    0    0  0.00000000000E+00  0.00000000000E+00  0.74505805969E-08  0.10566000000E+00  0.10566000000E+00 0.  1.
     999900   -1    0    0    0    0 -0.00000000000E+00 -0.00000000000E+00 -0.74505805969E-08  0.93827000000E+00  0.93827000000E+00 0.  1.
     999902    2    1    2    0    0  0.86583981138E-02  0.24973882654E-02 -0.19631253972E-01  0.10223292838E+01  0.10221010584E+01 0.  0.
     999903    2    3    3    0    0  0.11607799334E+00  0.57166681911E-01 -0.28571763792E-01  0.13406826712E+00  0.20391775403E-01 0.  0.
         14    1    1    2    0    0 -0.86583981138E-02 -0.24973882654E-02  0.19631253972E-01  0.21600716158E-01  0.00000000000E+00 0.  1.
     999901    1    3    3    0    0 -0.10741959523E+00 -0.54669293646E-01  0.89405098200E-02  0.88826101672E+00  0.88000000000E+00 0. -1.
        -11    1    4    4    0    0  0.49256494505E-01  0.33784710976E-01 -0.18679989996E-01  0.62584439711E-01  0.51100000000E-03 0.  1.
         11    1    4    4    0    0  0.66821498837E-01  0.23381970935E-01 -0.98917737958E-02  0.71483827412E-01  0.51100000000E-03 0. -1.
</event>
<event>
 8    1  0.1204770E+005  0.1043930E+01  0.7957747E-01            NaN
         13   -1    0    0    0    0  0.00000000000E+00  0.00000000000E+00  0.74505805969E-08  0.10566000000E+00  0.10566000000E+00 0.  1.
     999900   -1    0    0    0    0 -0.00000000000E+00 -0.00000000000E+00 -0.74505805969E-08  0.93827000000E+00  0.93827000000E+00 0. -1.
     999902    2    1    2    0    0 -0.15971278051E-01  0.14991769598E-01 -0.11484152075E-01  0.10191970134E+01  0.10188968699E+01 0.  0.
     999903    2    3    3    0    0 -0.31115391214E-01 -0.11637102197E+00  0.35712978567E-01  0.12806677805E+00  0.24805251022E-01 0.  0.
         14    1    1    2    0    0  0.15971278051E-01 -0.14991769598E-01  0.11484152075E-01  0.24732986620E-01  0.00000000000E+00 0.  1.
     999901    1    3    3    0    0  0.15144113163E-01  0.13136279157E+00 -0.47197130641E-01  0.89113023533E+00  0.88000000000E+00 0. -1.
        -11    1    4    4    0    0 -0.14819297519E-01 -0.64125345511E-01  0.32070631976E-01  0.73215149199E-01  0.51100000000E-03 0.  1.
         11    1    4    4    0    0 -0.16296093695E-01 -0.52245676459E-01  0.36423465907E-02  0.54851628855E-01  0.51100000000E-03 0. -1.
</event>
<event>
 8    1  0.1204770E+005  0.1043930E+01  0.7957747E-01            NaN
         13   -1    0    0    0    0  0.00000000000E+00  0.00000000000E+00  0.74505805969E-08  0.10566000000E+00  0.10566000000E+00 0. -1.
     999900   -1    0    0    0    0 -0.00000000000E+00 -0.00000000000E+00 -0.74505805969E-08  0.93827000000E+00  0.93827000000E+00 0.  1.
     999902    2    1    2    0    0  0.19210160636E-02 -0.19386457604E-01 -0.14877411484E-01  0.10194175049E+01  0.10191227536E+01 0.  0.
     999903    2    3    3    0    0  0.21832364934E-01 -0.69233489650E-01 -0.10930779713E+00  0.13273927349E+00  0.20039759601E-01 0.  0.
         14    1    1    2    0    0 -0.19210160636E-02  0.19386457604E-01  0.14877411484E-01  0.24512495051E-01  0.00000000000E+00 0. -1.
     999901    1    3    3    0    0 -0.19911348870E-01  0.49847032046E-01  0.94430385644E-01  0.88667823146E+00  0.88000000000E+00 0. -1.
        -11    1    4    4    0    0  0.14862647442E-01 -0.34941622310E-01 -0.40351379760E-01  0.55410380148E-01  0.51100000000E-03 0. -1.
         11    1    4    4    0    0  0.69697174916E-02 -0.34291867340E-01 -0.68956417369E-01  0.77328893338E-01  0.51100000000E-03 0.  1.
</event>
<event>
 8    1  0.1204770E+005  0.1043930E+01  0.7957747E-01            NaN
         13   -1    0    0    0    0  0.00000000000E+00  0.00000000000E+00  0.74505805969E-08  0.10566000000E+00  0.10566000000E+00 0. -1.
     999900   -1    0    0    0    0 -0.00000000000E+00 -0.00000000000E+00 -0.74505805969E-08  0.93827000000E+00  0.93827000000E+00 0. -1.
     999902    2    1    2    0    0  0.13269812197E-01 -0.19944228137E-01  0.13491032556E-02  0.10199366628E+01  0.10196544100E+01 0.  0.
     999903    2    3    3    0    0 -0.58140186326E-01 -0.10915601135E+00  0.40679716397E-01  0.13167711327E+00  0.19715647384E-01 0.  0.
         14    1    1    2    0    0 -0.13269812197E-01  0.19944228137E-01 -0.13491032556E-02  0.23993337228E-01  0.00000000000E+00 0.  1.
     999901    1    3    3    0    0  0.71409998523E-01  0.89211783217E-01 -0.39330613142E-01  0.88825954950E+00  0.88000000000E+00 0.  1.
        -11    1    4    4    0    0 -0.15884005955E-01 -0.42454030533E-01  0.71517598311E-02  0.45891776424E-01  0.51100000000E-03 0. -1.
         11    1    4    4    0    0 -0.42256180371E-01 -0.66701980822E-01  0.33527956566E-01  0.85785336845E-01  0.51100000000E-03 0.  1.
</event>
<event>
 8    1  0.1204770E+005  0.1043930E+01  0.7957747E-01            NaN
         13   -1    0    0    0    0  0.00000000000E+00  0.00000000000E+00  0.74505805969E-08  0.10566000000E+00  0.10566000000E+00 0.  1.
     999900   -1    0    0    0    0 -0.00000000000E+00 -0.00000000000E+00 -0.74505805969E-08  0.93827000000E+00  0.93827000000E+00 0.  1.
     999902    2    1    2    0    0 -0.73199022876E-02  0.19309838385E-01 -0.12198985985E-01  0.10199452947E+01  0.10196632474E+01 0.  0.
     999903    2    3    3    0    0 -0.83426597266E-01 -0.87089943064E-01 -0.43947002128E-01  0.12970876490E+00  0.18664655934E-01 0.  0.
         14    1    1    2    0    0  0.73199022876E-02 -0.19309838385E-01  0.12198985985E-01  0.23984705273E-01  0.00000000000E+00 0.  1.
     999901    1    3    3    0    0  0.76106694978E-01  0.10639978145E+00  0.31748016143E-01  0.89023652983E+00  0.88000000000E+00 0.  1.
        -11    1    4    4    0    0 -0.28690609556E-01 -0.42440592062E-01 -0.21833071854E-01  0.55689308479E-01  0.51100000000E-03 0. -1.
         11    1    4    4    0    0 -0.54735987710E-01 -0.44649351002E-01 -0.22113930274E-01  0.74019456420E-01  0.51100000000E-03 0.  1.
</event>
<event>
 7    1  0.1204770E+005  0.1043930E+01  0.7957747E-01            NaN
         13   -1    0    0    0    0  0.00000000000E+00  0.00000000000E+00  0.74505805969E-08  0.10566000000E+00  0.10566000000E+00 0.  1.
     999900   -1    0    0    0    0 -0.00000000000E+00 -0.00000000000E+00 -0.74505805969E-08  0.93827000000E+00  0.93827000000E+00 0.  1.
     999902    2    1    2    0    0 -0.71943784816E-02 -0.21172501006E-01  0.33596558377E-02  0.10213175882E+01  0.10210672332E+01 0.  0.
         14    1    1    2    0    0  0.71943784816E-02  0.21172501006E-01 -0.33596558377E-02  0.22612411811E-01  0.00000000000E+00 0. -1.
     999901    1    3    3    0    0  0.11612240373E+00 -0.35904073604E-01  0.30206206971E-01  0.88886777987E+00  0.88000000000E+00 0. -1.
        -11    1    3    3    0    0 -0.51964254229E-01  0.12339811530E-01  0.62143587992E-02  0.53772056335E-01  0.51100000000E-03 0. -1.
         11    1    3    3    0    0 -0.71352527984E-01  0.23917610680E-02 -0.33060909933E-01  0.78677751985E-01  0.51100000000E-03 0.  1.
</event>
<event>
 8    1  0.1204770E+005  0.1043930E+01  0.7957747E-01            NaN
         13   -1    0    0    0    0  0.00000000000E+00  0.00000000000E+00  0.74505805969E-08  0.10566000000E+00  0.10566000000E+00 0. -1.
     999900   -1    0    0    0    0 -0.00000000000E+00 -0.00000000000E+00 -0.74505805969E-08  0.93827000000E+00  0.93827000000E+00 0.  1.
     999902    2    1    2    0    0  0.66596886470E-02 -0.50909648676E-02 -0.21633425887E-01  0.10207292567E+01  0.10204655511E+01 0.  0.
     999903    2    3    3    0    0 -0.83391328163E-01 -0.96903496081E-01 -0.23051415537E-01  0.13138076635E+00  0.19624903627E-01 0.  0.
         14    1    1    2    0    0 -0.66596886470E-02  0.50909648676E-02  0.21633425887E-01  0.23200743345E-01  0.00000000000E+00 0. -1.
     999901    1    3    3    0    0  0.90051016810E-01  0.91812531213E-01  0.14179896498E-02  0.88934849031E+00  0.88000000000E+00 0.  1.
        -11    1    4    4    0    0 -0.63974217358E-01 -0.67992955481E-01 -0.88886778768E-02  0.93781726349E-01  0.51100000000E-03 0.  1.
         11    1    4    4    0    0 -0.19417110805E-01 -0.28910540600E-01 -0.14162737660E-01  0.37599039999E-01  0.51100000000E-03 0. -1.
</event>
<event>
 8    1  0.1204770E+005  0.1043930E+01  0.7957747E-01            NaN
         13   -1    0    0    0    0  0.00000000000E+00  0.00000000000E+00  0.74505805969E-08  0.10566000000E+00  0.10566000000E+00 0. -1.
     999900   -1    0    0    0    0 -0.00000000000E+00 -0.00000000000E+00 -0.74505805969E-08  0.93827000000E+00  0.93827000000E+00 0. -1.
     999902    2    1    2    0    0 -0.66862777162E-02 -0.78807785306E-02  0.21943546478E-01  0.10196744396E+01  0.10193859085E+01 0.  0.
     999903    2    3    3    0    0  0.58214754890E-01 -0.44590996585E-01  0.10824468750E+00  0.13231449508E+00  0.20319905804E-01 0.  0.
         14    1    1    2    0    0  0.66862777162E-02  0.78807785306E-02 -0.21943546478E-01  0.24255560435E-01  0.00000000000E+00 0.  1.
     999901    1    3    3    0    0 -0.64901032606E-01  0.36710218054E-01 -0.86301141022E-01  0.88735994449E+00  0.88000000000E+00 0. -1.
        -11    1    4    4    0    0  0.25260470437E-01 -0.27805001027E-01  0.67758788185E-01  0.77477247926E-01  0.51100000000E-03 0.  1.
         11    1    4    4    0    0  0.32954284453E-01 -0.16785995558E-01  0.40485899315E-01  0.54837247150E-01  0.51100000000E-03 0. -1.
</event>
<event>
 8    1  0.1204770E+005  0.1043930E+01  0.7957747E-01            NaN
         13   -1    0    0    0    0  0.00000000000E+00  0.00000000000E+00  0.74505805969E-08  0.10566000000E+00  0.10566000000E+00 0. -1.
     999900   -1    0    0    0    0 -0.00000000000E+00 -0.00000000000E+00 -0.74505805969E-08  0.93827000000E+00  0.93827000000E+00 0. -1.
     999902    2    1    2    0    0 -0.19686659267E-01 -0.11992011766E-01  0.36217418636E-03  0.10208756280E+01  0.10206152770E+01 0.  0.
     999903    2    3    3    0    0 -0.22280769978E-01 -0.55150126120E-01 -0.11612289826E+00  0.13214725308E+00  0.20985706403E-01 0.  0.
         14    1    1    2    0    0  0.19686659267E-01  0.11992011766E-01 -0.36217418636E-03  0.23054372024E-01  0.00000000000E+00 0.  1.
     999901    1    3    3    0    0  0.25941107112E-02  0.43158114354E-01  0.11648507245E+00  0.88872837490E+00  0.88000000000E+00 0.  1.
        -11    1    4    4    0    0 -0.22237602618E-01 -0.29863309712E-01 -0.77475065655E-01  0.85959148183E-01  0.51100000000E-03 0.  1.
         11    1    4    4    0    0 -0.43167359754E-04 -0.25286816408E-01 -0.38647832608E-01  0.46188104895E-01  0.51100000000E-03 0. -1.
</event>
<event>
 8    1  0.1204770E+005  0.1043930E+01  0.7957747E-01            NaN
         13   -1    0    0    0    0  0.00000000000E+00  0.00000000000E+00  0.74505805969E-08  0.10566000000E+00  0.10566000000E+00 0.  1.
     999900   -1    0    0    0    0 -0.00000000000E+00 -0.00000000000E+00 -0.74505805969E-08  0.93827000000E+00  0.93827000000E+00 0.  1.
     999902    2    1    2    0    0 -0.13601742879E-01  0.59390676964E-03 -0.19866797202E-01  0.10198457777E+01  0.10195613569E+01 0.  0.
     999903    2    3    3    0    0  0.76052476882E-01 -0.19096857878E-02  0.99949530466E-01  0.12720917777E+00  0.20115668711E-01 0.  0.
         14    1    1    2    0    0  0.13601742879E-01 -0.59390676964E-03  0.19866797202E-01  0.24084222339E-01  0.00000000000E+00 0.  1.
     999901    1    3    3    0    0 -0.89654219761E-01  0.25035925575E-02 -0.11981632767E+00  0.89263659990E+00  0.88000000000E+00 0.  1.
        -11    1    4    4    0    0  0.63465898860E-01 -0.68700782903E-02  0.72484995493E-01  0.96589098693E-01  0.51100000000E-03 0.  1.
         11    1    4    4    0    0  0.12586578022E-01  0.49603925025E-02  0.27464534973E-01  0.30620079072E-01  0.51100000000E-03 0. -1.
</event>
<event>
 8    1  0.1204770E+005  0.1043930E+01  0.7957747E-01            NaN
         13   -1    0    0    0    0  0.00000000000E+00  0.00000000000E+00  0.74505805969E-08  0.10566000000E+00  0.10566000000E+00 0.  1.
     999900   -1    0    0    0    0 -0.00000000000E+00 -0.00000000000E+00 -0.74505805969E-08  0.93827000000E+00  0.93827000000E+00 0.  1.
     999902    2    1    2    0    0 -0.37330203372E-02  0.16769307936E-01  0.16851122070E-01  0.10198653902E+01  0.10195814380E+01 0.  0.
     999903    2    3    3    0    0  0.73465308581E-01 -0.96425606857E-01  0.39325312399E-01  0.12897944916E+00  0.19853687010E-01 0.  0.
         14    1    1    2    0    0  0.37330203372E-02 -0.16769307936E-01 -0.16851122070E-01  0.24064609793E-01  0.00000000000E+00 0. -1.
     999901    1    3    3    0    0 -0.77198328918E-01  0.11319491479E+00 -0.22474190329E-01  0.89088594105E+00  0.88000000000E+00 0. -1.
        -11    1    4    4    0    0  0.43790873162E-01 -0.57452224613E-01  0.33556529490E-01  0.79653628152E-01  0.51100000000E-03 0.  1.
         11    1    4    4    0    0  0.29674435419E-01 -0.38973382244E-01  0.57687829084E-02  0.49325821009E-01  0.51100000000E-03 0. -1.
</event>
<event>
 8    1  0.1204770E+005  0.1043930E+01  0.7957747E-01            NaN
         13   -1    0    0    0    0  0.00000000000E+00  0.00000000000E+00  0.74505805969E-08  0.10566000000E+00  0.10566000000E+00 0.  1.
     999900   -1    0    0    0    0 -0.00000000000E+00 -0.00000000000E+00 -0.74505805969E-08  0.93827000000E+00  0.93827000000E+00 0.  1.
     999902    2    1    2    0    0 -0.20055141619E-01 -0.10993393795E-01 -0.73740537796E-02  0.10199000170E+01  0.10196168911E+01 0.  0.
     999903    2    3    3    0    0  0.18144257575E-01  0.10800618211E+00  0.63728638016E-01  0.12822985046E+00  0.19672462705E-01 0.  0.
         14    1    1    2    0    0  0.20055141619E-01  0.10993393795E-01  0.73740537796E-02  0.24029982972E-01  0.00000000000E+00 0. -1.
     999901    1    3    3    0    0 -0.38199399194E-01 -0.11899957591E+00 -0.71102691796E-01  0.89167016657E+00  0.88000000000E+00 0.  1.
        -11    1    4    4    0    0  0.13085390827E-02  0.63116604616E-01  0.39960746840E-01  0.74716400220E-01  0.51100000000E-03 0. -1.
         11    1    4    4    0    0  0.16835718493E-01  0.44889577494E-01  0.23767891176E-01  0.53513450241E-01  0.51100000000E-03 0.  1.
</event>
<event>
 8    1  0.1204770E+005  0.1043930E+01  0.7957747E-01            NaN
         13   -1    0    0    0    0  0.00000000000E+00  0.00000000000E+00  0.74505805969E-08  0.10566000000E+00  0.10566000000E+00 0. -1.
     999900   -1    0    0    0    0 -0.00000000000E+00 -0.00000000000E+00 -0.74505805969E-08  0.93827000000E+00  0.93827000000E+00 0.  1.
     999902    2    1    2    0    0 -0.21014508484E-01 -0.10672030584E-02  0.11666213416E-01  0.10198707185E+01  0.10195868936E+01 0.  0.
     999903    2    3    3    0    0  0.38866896640E-01  0.13270103242E-01 -0.11972605826E+00  0.12798772728E+00  0.18968342420E-01 0.  0.
         14    1    1    2    0    0  0.21014508484E-01  0.10672030584E-02 -0.11666213416E-01  0.24059281466E-01  0.00000000000E+00 0. -1.
     999901    1    3    3    0    0 -0.59881405123E-01 -0.14337306300E-01  0.13139227167E+00  0.89188299125E+00  0.88000000000E+00 0. -1.
        -11    1    4    4    0    0  0.28638170250E-01  0.10280693629E-01 -0.59571681699E-01  0.66894572562E-01  0.51100000000E-03 0.  1.
         11    1    4    4    0    0  0.10228726390E-01  0.29894096128E-02 -0.60154376558E-01  0.61093154719E-01  0.51100000000E-03 0. -1.
</event>
<event>
 8    1  0.1204770E+005  0.1043930E+01  0.7957747E-01            NaN
         13   -1    0    0    0    0  0.00000000000E+00  0.00000000000E+00  0.74505805969E-08  0.10566000000E+00  0.10566000000E+00 0.  1.
     999900   -1    0    0    0    0 -0.00000000000E+00 -0.00000000000E+00 -0.74505805969E-08  0.93827000000E+00  0.93827000000E+00 0. -1.
     999902    2    1    2    0    0 -0.21489269371E-01 -0.10186134130E-01 -0.14252163132E-02  0.10201061198E+01  0.10198278866E+01 0.  0.
     999903    2    3    3    0    0  0.10956066777E-01 -0.12933731965E+00  0.52600511547E-02  0.13145860944E+00  0.20137532276E-01 0.  0.
         14    1    1    2    0    0  0.21489269371E-01  0.10186134130E-01  0.14252163132E-02  0.23823880208E-01  0.00000000000E+00 0. -1.
     999901    1    3    3    0    0 -0.32445336147E-01  0.11915118552E+00 -0.66852674679E-02  0.88864751035E+00  0.88000000000E+00 0. -1.
        -11    1    4    4    0    0 -0.35319290254E-03 -0.98440349208E-01  0.34280172094E-02  0.98501977241E-01  0.51100000000E-03 0.  1.
         11    1    4    4    0    0  0.11309259679E-01 -0.30896970439E-01  0.18320339453E-02  0.32956632203E-01  0.51100000000E-03 0. -1.
</event>
<event>
 8    1  0.1204770E+005  0.1043930E+01  0.7957747E-01            NaN
         13   -1    0    0    0    0  0.00000000000E+00  0.00000000000E+00  0.74505805969E-08  0.10566000000E+00  0.10566000000E+00 0. -1.
     999900   -1    0    0    0    0 -0.00000000000E+00 -0.00000000000E+00 -0.74505805969E-08  0.93827000000E+00  0.93827000000E+00 0. -1.
     999902    2    1    2    0    0  0.19605529178E-01 -0.50166585383E-02  0.11212628506E-01  0.10207941690E+01  0.10205319538E+01 0.  0.
     999903    2    3    3    0    0  0.52799179763E-01  0.74397436610E-01 -0.91107819238E-01  0.13069423588E+00  0.21391975310E-01 0.  0.
         14    1    1    2    0    0 -0.19605529178E-01  0.50166585383E-02 -0.11212628506E-01  0.23135830983E-01  0.00000000000E+00 0. -1.
     999901    1    3    3    0    0 -0.33193650585E-01 -0.79414095148E-01  0.10232044774E+00  0.89009993314E+00  0.88000000000E+00 0.  1.
        -11    1    4    4    0    0  0.28840322383E-01  0.27896938195E-01 -0.29108055617E-01  0.49573615751E-01  0.51100000000E-03 0.  1.
         11    1    4    4    0    0  0.23958857381E-01  0.46500498415E-01 -0.61999763621E-01  0.81120620127E-01  0.51100000000E-03 0. -1.
</event>
<event>
 8    1  0.1204770E+005  0.1043930E+01  0.7957747E-01            NaN
         13   -1    0    0    0    0  0.00000000000E+00  0.00000000000E+00  0.74505805969E-08  0.10566000000E+00  0.10566000000E+00 0.  1.
     999900   -1    0    0    0    0 -0.00000000000E+00 -0.00000000000E+00 -0.74505805969E-08  0.93827000000E+00  0.93827000000E+00 0. -1.
     999902    2    1    2    0    0  0.98764927233E-02 -0.44276770251E-02 -0.23200190238E-01  0.10183292528E+01  0.10180074011E+01 0.  0.
     999903    2    3    3    0    0 -0.16633655149E-01  0.35041416581E-01 -0.12384401417E+00  0.13131754112E+00  0.20059346932E-01 0.  0.
         14    1    1    2    0    0 -0.98764927233E-02  0.44276770251E-02  0.23200190238E-01  0.25600747244E-01  0.00000000000E+00 0.  1.
     999901    1    3    3    0    0  0.26510147872E-01 -0.39469093606E-01  0.10064382393E+00  0.88701171164E+00  0.88000000000E+00 0.  1.
        -11    1    4    4    0    0 -0.98655548779E-02  0.54601913787E-02 -0.53956640459E-01  0.55124613682E-01  0.51100000000E-03 0.  1.
         11    1    4    4    0    0 -0.67681002708E-02  0.29581225202E-01 -0.69887373712E-01  0.76192927435E-01  0.51100000000E-03 0. -1.
</event>
<event>
 8    1  0.1204770E+005  0.1043930E+01  0.7957747E-01            NaN
         13   -1    0    0    0    0  0.00000000000E+00  0.00000000000E+00  0.74505805969E-08  0.10566000000E+00  0.10566000000E+00 0. -1.
     999900   -1    0    0    0    0 -0.00000000000E+00 -0.00000000000E+00 -0.74505805969E-08  0.93827000000E+00  0.93827000000E+00 0. -1.
     999902    2    1    2    0    0  0.41118146246E-02  0.22214665730E-01  0.13838315263E-01  0.10174366544E+01  0.10170916617E+01 0.  0.
     999903    2    3    3    0    0  0.19394952711E-01 -0.50599255810E-01 -0.11134120621E+00  0.12546952826E+00  0.20230903143E-01 0.  0.
         14    1    1    2    0    0 -0.41118146246E-02 -0.22214665730E-01 -0.13838315263E-01  0.26493345624E-01  0.00000000000E+00 0.  1.
     999901    1    3    3    0    0 -0.15283138087E-01  0.72813921541E-01  0.12517952147E+00  0.89196712612E+00  0.88000000000E+00 0.  1.
        -11    1    4    4    0    0  0.10717121275E-01 -0.99471365074E-02 -0.43604061283E-01  0.45993233138E-01  0.51100000000E-03 0.  1.
         11    1    4    4    0    0  0.86778314361E-02 -0.40652119303E-01 -0.67737144925E-01  0.79476295119E-01  0.51100000000E-03 0. -1.
</event>
<event>
 8    1  0.1204770E+005  0.1043930E+01  0.7957747E-01            NaN
         13   -1    0    0    0    0  0.00000000000E+00  0.00000000000E+00  0.74505805969E-08  0.10566000000E+00  0.10566000000E+00 0. -1.
     999900   -1    0    0    0    0 -0.00000000000E+00 -0.00000000000E+00 -0.74505805969E-08  0.93827000000E+00  0.93827000000E+00 0.  1.
     999902    2    1    2    0    0 -0.18346225149E-01  0.12554070505E-01  0.71078310073E-02  0.10205909785E+01  0.10203240835E+01 0.  0.
     999903    2    3    3    0    0  0.29971435787E-01 -0.83547968374E-01 -0.90932918070E-01  0.12863683913E+00  0.20002270143E-01 0.  0.
         14    1    1    2    0    0  0.18346225149E-01 -0.12554070505E-01 -0.71078310073E-02  0.23339021511E-01  0.00000000000E+00 0.  1.
     999901    1    3    3    0    0 -0.48317660936E-01  0.96102038879E-01  0.98040749077E-01  0.89195413936E+00  0.88000000000E+00 0.  1.
        -11    1    4    4    0    0 -0.17531402419E-02 -0.72740771061E-02 -0.32669107813E-02  0.81804355328E-02  0.51100000000E-03 0.  1.
         11    1    4    4    0    0  0.31724576029E-01 -0.76273891268E-01 -0.87666007289E-01  0.12045640360E+00  0.51100000000E-03 0. -1.
</event>
<event>
 8    1  0.1204770E+005  0.1043930E+01  0.7957747E-01            NaN
         13   -1    0    0    0    0  0.00000000000E+00  0.00000000000E+00  0.74505805969E-08  0.10566000000E+00  0.10566000000E+00 0.  1.
     999900   -1    0    0    0    0 -0.00000000000E+00 -0.00000000000E+00 -0.74505805969E-08  0.93827000000E+00  0.93827000000E+00 0. -1.
     999902    2    1    2    0    0  0.18492119063E-01  0.13861295249E-01 -0.39366442401E-02  0.10204866397E+01  0.10202173252E+01 0.  0.
     999903    2    3    3    0    0 -0.11241190507E+00  0.56577965621E-01  0.13030620131E-01  0.12961714000E+00  0.28165640893E-01 0.  0.
         14    1    1    2    0    0 -0.18492119063E-01 -0.13861295249E-01  0.39366442401E-02  0.23443360282E-01  0.00000000000E+00 0. -1.
     999901    1    3    3    0    0  0.13090402413E+00 -0.42716670372E-01 -0.16967264371E-01  0.89086949971E+00  0.88000000000E+00 0.  1.
        -11    1    4    4    0    0 -0.96893796886E-01  0.43810160064E-01  0.20265399879E-01  0.10825287780E+00  0.51100000000E-03 0. -1.
         11    1    4    4    0    0 -0.15518108182E-01  0.12767805557E-01 -0.72347797483E-02  0.21364262199E-01  0.51100000000E-03 0.  1.
</event>
<event>
 8    1  0.1204770E+005  0.1043930E+01  0.7957747E-01            NaN
         13   -1    0    0    0    0  0.00000000000E+00  0.00000000000E+00  0.74505805969E-08  0.10566000000E+00  0.10566000000E+00 0. -1.
     999900   -1    0    0    0    0 -0.00000000000E+00 -0.00000000000E+00 -0.74505805969E-08  0.93827000000E+00  0.93827000000E+00 0. -1.
     999902    2    1    2    0    0 -0.13485688126E-01  0.49824702801E-03 -0.21147417041E-01  0.10188436435E+01  0.10185347538E+01 0.  0.
     999903    2    3    3    0    0  0.46900025953E-03  0.70173296671E-01  0.10410595145E+00  0.12713867426E+00  0.20042001874E-01 0.  0.
         14    1    1    2    0    0  0.13485688126E-01 -0.49824702801E-03  0.21147417041E-01  0.25086356488E-01  0.00000000000E+00 0. -1.
     999901    1    3    3    0    0 -0.13954688386E-01 -0.69675049643E-01 -0.12525336849E+00  0.89170496925E+00  0.88000000000E+00 0. -1.
        -11    1    4    4    0    0 -0.88622099281E-02  0.48855535202E-01  0.68679743628E-01  0.84750046552E-01  0.51100000000E-03 0.  1.
         11    1    4    4    0    0  0.93312101876E-02  0.21317761468E-01  0.35426207819E-01  0.42388627709E-01  0.51100000000E-03 0. -1.
</event>
<event>
 8    1  0.1204770E+005  0.1043930E+01  0.7957747E-01            NaN
         13   -1    0    0    0    0  0.00000000000E+00  0.00000000000E+00  0.74505805969E-08  0.10566000000E+00  0.10566000000E+00 0.  1.
     999900   -1    0    0    0    0 -0.00000000000E+00 -0.00000000000E+00 -0.74505805969E-08  0.93827000000E+00  0.93827000000E+00 0. -1.
     999902    2    1    2    0    0  0.10433943731E-02  0.36446331027E-02 -0.23708329545E-01  0.10199204829E+01  0.10196378448E+01 0.  0.
     999903    2    3    3    0    0 -0.53056465848E-01 -0.96346692955E-01  0.63248016973E-01  0.12835642665E+00  0.19426445910E-01 0.  0.
         14    1    1    2    0    0 -0.10433943731E-02 -0.36446331027E-02  0.23708329545E-01  0.24009517115E-01  0.00000000000E+00 0.  1.
     999901    1    3    3    0    0  0.54099860221E-01  0.99991326058E-01 -0.86956346518E-01  0.89156405623E+00  0.88000000000E+00 0. -1.
        -11    1    4    4    0    0 -0.18223050336E-01 -0.47203470663E-01  0.21034785962E-01  0.54799366306E-01  0.51100000000E-03 0.  1.
         11    1    4    4    0    0 -0.34833415513E-01 -0.49143222292E-01  0.42213231011E-01  0.73557060348E-01  0.51100000000E-03 0. -1.
</event>
<event>
 8    1  0.1204770E+005  0.1043930E+01  0.7957747E-01            NaN
         13   -1    0    0    0    0  0.00000000000E+00  0.00000000000E+00  0.74505805969E-08  0.10566000000E+00  0.10566000000E+00 0. -1.
     999900   -1    0    0    0    0 -0.00000000000E+00 -0.00000000000E+00 -0.74505805969E-08  0.93827000000E+00  0.93827000000E+00 0.  1.
     999902    2    1    2    0    0 -0.24575609388E-01 -0.18796921606E-03  0.28646102639E-02  0.10191872859E+01  0.10188869034E+01 0.  0.
     999903    2    3    3    0    0 -0.12538500624E+00  0.29451314102E-02 -0.40009458868E-01  0.13238937396E+00  0.14004140476E-01 0.  0.
         14    1    1    2    0    0  0.24575609388E-01  0.18796921606E-03 -0.28646102639E-02  0.24742714103E-01  0.00000000000E+00 0.  1.
     999901    1    3    3    0    0  0.10080939685E+00 -0.31331006263E-02  0.42874069132E-01  0.88679791194E+00  0.88000000000E+00 0.  1.
        -11    1    4    4    0    0 -0.54347259037E-01  0.19925890934E-02 -0.10157367732E-01  0.55326559774E-01  0.51100000000E-03 0.  1.
         11    1    4    4    0    0 -0.71037747200E-01  0.95254231679E-03 -0.29852091136E-01  0.77062814186E-01  0.51100000000E-03 0. -1.
</event>
<event>
 8    1  0.1204770E+005  0.1043930E+01  0.7957747E-01            NaN
         13   -1    0    0    0    0  0.00000000000E+00  0.00000000000E+00  0.74505805969E-08  0.10566000000E+00  0.10566000000E+00 0. -1.
     999900   -1    0    0    0    0 -0.00000000000E+00 -0.00000000000E+00 -0.74505805969E-08  0.93827000000E+00  0.93827000000E+00 0.  1.
     999902    2    1    2    0    0  0.10776865249E-01  0.13900514795E-01  0.15724926820E-01  0.10203368133E+01  0.10200640049E+01 0.  0.
     999903    2    3    3    0    0 -0.55347951087E-01  0.91111841139E-01 -0.71836061965E-01  0.13016772428E+00  0.20456132584E-01 0.  0.
         14    1    1    2    0    0 -0.10776865249E-01 -0.13900514795E-01 -0.15724926820E-01  0.23593186721E-01  0.00000000000E+00 0. -1.
     999901    1    3    3    0    0  0.66124816336E-01 -0.77211326344E-01  0.87560988785E-01  0.89016908900E+00  0.88000000000E+00 0. -1.
        -11    1    4    4    0    0 -0.33665006042E-01  0.38384699165E-01 -0.27862826823E-01  0.58166278902E-01  0.51100000000E-03 0.  1.
         11    1    4    4    0    0 -0.21682945045E-01  0.52727141974E-01 -0.43973235142E-01  0.72001445378E-01  0.51100000000E-03 0. -1.
</event>
<event>
 8    1  0.1204770E+005  0.1043930E+01  0.7957747E-01            NaN
         13   -1    0    0    0    0  0.00000000000E+00  0.00000000000E+00  0.74505805969E-08  0.10566000000E+00  0.10566000000E+00 0. -1.
     999900   -1    0    0    0    0 -0.00000000000E+00 -0.00000000000E+00 -0.74505805969E-08  0.93827000000E+00  0.93827000000E+00 0. -1.
     999902    2    1    2    0    0  0.99651940602E-03 -0.20307523743E-01  0.12468901048E-01  0.10200791706E+01  0.10198003001E+01 0.  0.
     999903    2    3    3    0    0  0.39324785713E-01  0.11988768009E+00  0.11251326752E-01  0.12815695778E+00  0.19445278703E-01 0.  0.
         14    1    1    2    0    0 -0.99651940602E-03  0.20307523743E-01 -0.12468901048E-01  0.23850829437E-01  0.00000000000E+00 0.  1.
     999901    1    3    3    0    0 -0.38328266307E-01 -0.14019520383E+00  0.12175742956E-02  0.89192221279E+00  0.88000000000E+00 0. -1.
        -11    1    4    4    0    0  0.19325692745E-01  0.35325491260E-01  0.88330391556E-02  0.41226889703E-01  0.51100000000E-03 0.  1.
         11    1    4    4    0    0  0.19999092969E-01  0.84562188830E-01  0.24182875967E-02  0.86930068073E-01  0.51100000000E-03 0. -1.
</event>
<event>
 8    1  0.1204770E+005  0.1043930E+01  0.7957747E-01            NaN
         13   -1    0    0    0    0  0.00000000000E+00  0.00000000000E+00  0.74505805969E-08  0.10566000000E+00  0.10566000000E+00 0.  1.
     999900   -1    0    0    0    0 -0.00000000000E+00 -0.00000000000E+00 -0.74505805969E-08  0.93827000000E+00  0.93827000000E+00 0.  1.
     999902    2    1    2    0    0  0.18078014548E-01 -0.10235376443E-01 -0.13759389187E-01  0.10190121684E+01  0.10187074659E+01 0.  0.
     999903    2    3    3    0    0  0.16687833284E-01 -0.11733531026E+00 -0.53241790025E-01  0.13163897272E+00  0.21167714137E-01 0.  0.
         14    1    1    2    0    0 -0.18078014548E-01  0.10235376443E-01  0.13759389187E-01  0.24917831602E-01  0.00000000000E+00 0.  1.
     999901    1    3    3    0    0  0.13901812641E-02  0.10709993381E+00  0.39482400838E-01  0.88737319568E+00  0.88000000000E+00 0. -1.
        -11    1    4    4    0    0  0.18414992105E-01 -0.57293620645E-01 -0.29823660442E-01  0.67166827705E-01  0.51100000000E-03 0.  1.
         11    1    4    4    0    0 -0.17271588211E-02 -0.60041689612E-01 -0.23418129584E-01  0.64472145018E-01  0.51100000000E-03 0. -1.
</event>
<event>
 8    1  0.1204770E+005  0.1043930E+01  0.7957747E-01            NaN
         13   -1    0    0    0    0  0.00000000000E+00  0.00000000000E+00  0.74505805969E-08  0.10566000000E+00  0.10566000000E+00 0.  1.
     999900   -1    0    0    0    0 -0.00000000000E+00 -0.00000000000E+00 -0.74505805969E-08  0.93827000000E+00  0.93827000000E+00 0. -1.
     999902    2    1    2    0    0  0.20926042067E-03  0.43551800225E-03  0.23628462112E-01  0.10202965981E+01  0.10200228479E+01 0.  0.
     999903    2    3    3    0    0  0.49227564554E-01  0.11000787108E+00 -0.35644713389E-01  0.13017177308E+00  0.33897789060E-01 0.  0.
         14    1    1    2    0    0 -0.20926042067E-03 -0.43551800225E-03 -0.23628462112E-01  0.23633401948E-01  0.00000000000E+00 0. -1.
     999901    1    3    3    0    0 -0.49018304134E-01 -0.10957235307E+00  0.59273175501E-01  0.89012482497E+00  0.88000000000E+00 0.  1.
        -11    1    4    4    0    0  0.25219502037E-01  0.46962523926E-01 -0.32918451180E-01  0.62652912825E-01  0.51100000000E-03 0.  1.
         11    1    4    4    0    0  0.24008062518E-01  0.63045347152E-01 -0.27262622087E-02  0.67518860254E-01  0.51100000000E-03 0. -1.
</event>
<event>
 8    1  0.1204770E+005  0.1043930E+01  0.7957747E-01            NaN
         13   -1    0    0    0    0  0.00000000000E+00  0.00000000000E+00  0.74505805969E-08  0.10566000000E+00  0.10566000000E+00 0.  1.
     999900   -1    0    0    0    0 -0.00000000000E+00 -0.00000000000E+00 -0.74505805969E-08  0.93827000000E+00  0.93827000000E+00 0.  1.
     999902    2    1    2    0    0 -0.23182084420E-01  0.53608038593E-02 -0.29168384650E-02  0.10199580330E+01  0.10196762888E+01 0.  0.
     999903    2    3    3    0    0 -0.29982350509E-01  0.27233148306E-01  0.12260596063E+00  0.13075579718E+00  0.20597844647E-01 0.  0.
         14    1    1    2    0    0  0.23182084420E-01 -0.53608038593E-02  0.29168384650E-02  0.23971967018E-01  0.00000000000E+00 0.  1.
     999901    1    3    3    0    0  0.68002660891E-02 -0.21872344447E-01 -0.12552279910E+00  0.88920223581E+00  0.88000000000E+00 0.  1.
        -11    1    4    4    0    0 -0.25107160579E-01  0.18212607839E-01  0.62453848051E-01  0.69733871641E-01  0.51100000000E-03 0.  1.
         11    1    4    4    0    0 -0.48751899304E-02  0.90205404677E-02  0.60152112579E-01  0.61021925535E-01  0.51100000000E-03 0. -1.
</event>
<event>
 8    1  0.1204770E+005  0.1043930E+01  0.7957747E-01            NaN
         13   -1    0    0    0    0  0.00000000000E+00  0.00000000000E+00  0.74505805969E-08  0.10566000000E+00  0.10566000000E+00 0.  1.
     999900   -1    0    0    0    0 -0.00000000000E+00 -0.00000000000E+00 -0.74505805969E-08  0.93827000000E+00  0.93827000000E+00 0.  1.
     999902    2    1    2    0    0  0.99327084854E-02  0.22387686799E-01  0.36309662616E-02  0.10191701306E+01  0.10188693262E+01 0.  0.
     999903    2    3    3    0    0 -0.80934301931E-01 -0.10209270836E-01 -0.96891820246E-01  0.12820200217E+00  0.19827710126E-01 0.  0.
         14    1    1    2    0    0 -0.99327084854E-02 -0.22387686799E-01 -0.36309662616E-02  0.24759869427E-01  0.00000000000E+00 0. -1.
     999901    1    3    3    0    0  0.90867010416E-01  0.32596957634E-01  0.10052278651E+00  0.89096812841E+00  0.88000000000E+00 0. -1.
        -11    1    4    4    0    0 -0.32273361148E-01 -0.10689213283E-01 -0.29118593985E-01  0.44765865982E-01  0.51100000000E-03 0.  1.
         11    1    4    4    0    0 -0.48660940782E-01  0.47994244764E-03 -0.67773226261E-01  0.83436136184E-01  0.51100000000E-03 0. -1.
</event>
<event>
 8    1  0.1204770E+005  0.1043930E+01  0.7957747E-01            NaN
         13   -1    0    0    0    0  0.00000000000E+00  0.00000000000E+00  0.74505805969E-08  0.10566000000E+00  0.10566000000E+00 0. -1.
     999900   -1    0    0    0    0 -0.00000000000E+00 -0.00000000000E+00 -0.74505805969E-08  0.93827000000E+00  0.93827000000E+00 0.  1.
     999902    2    1    2    0    0 -0.11320569962E-01 -0.19002432250E-01 -0.41400178991E-02  0.10214269450E+01  0.10211790325E+01 0.  0.
     999903    2    3    3    0    0  0.31929650934E-02 -0.22218364084E-01 -0.12916120739E+00  0.13246615693E+00  0.18995118030E-01 0.  0.
         14    1    1    2    0    0  0.11320569962E-01  0.19002432250E-01  0.41400178991E-02  0.22503054990E-01  0.00000000000E+00 0. -1.
     999901    1    3    3    0    0 -0.14513535056E-01  0.32159318340E-02  0.12502118949E+00  0.88896078808E+00  0.88000000000E+00 0. -1.
        -11    1    4    4    0    0  0.18014782697E-02 -0.22432278913E-01 -0.75505623853E-01  0.78789674550E-01  0.51100000000E-03 0. -1.
         11    1    4    4    0    0  0.13914868237E-02  0.21391482950E-03 -0.53655583538E-01  0.53676482383E-01  0.51100000000E-03 0.  1.
</event>
<event>
 8    1  0.1204770E+005  0.1043930E+01  0.7957747E-01            NaN
         13   -1    0    0    0    0  0.00000000000E+00  0.00000000000E+00  0.74505805969E-08  0.10566000000E+00  0.10566000000E+00 0.  1.
     999900   -1    0    0    0    0 -0.00000000000E+00 -0.00000000000E+00 -0.74505805969E-08  0.93827000000E+00  0.93827000000E+00 0. -1.
     999902    2    1    2    0    0 -0.12695020121E-01  0.12754864274E-01  0.17541393998E-01  0.10187993295E+01  0.10184893338E+01 0.  0.
     999903    2    3    3    0    0 -0.12820790093E+00  0.18543907029E-01  0.26285269100E-02  0.13110617738E+00  0.20019446637E-01 0.  0.
         14    1    1    2    0    0  0.12695020121E-01 -0.12754864274E-01 -0.17541393998E-01  0.25130670542E-01  0.00000000000E+00 0.  1.
     999901    1    3    3    0    0  0.11551288081E+00 -0.57890427552E-02  0.14912867088E-01  0.88769315208E+00  0.88000000000E+00 0.  1.
        -11    1    4    4    0    0 -0.73763107638E-02  0.23704011231E-02 -0.45236371313E-02  0.89862770859E-02  0.51100000000E-03 0. -1.
         11    1    4    4    0    0 -0.12083159017E+00  0.16173505906E-01  0.71521640413E-02  0.12211990029E+00  0.51100000000E-03 0.  1.
</event>
<event>
 8    1  0.1204770E+005  0.1043930E+01  0.7957747E-01            NaN
         13   -1    0    0    0    0  0.00000000000E+00  0.00000000000E+00  0.74505805969E-08  0.10566000000E+00  0.10566000000E+00 0. -1.
     999900   -1    0    0    0    0 -0.00000000000E+00 -0.00000000000E+00 -0.74505805969E-08  0.93827000000E+00  0.93827000000E+00 0.  1.
     999902    2    1    2    0    0  0.17748955520E-01  0.23311461831E-02  0.14683773506E-01  0.10207767525E+01  0.10205141379E+01 0.  0.
     999903    2    3    3    0    0 -0.91910167491E-01  0.12387928552E-01  0.89890308956E-01  0.13073052613E+00  0.20230253488E-01 0.  0.
         14    1    1    2    0    0 -0.17748955520E-01 -0.23311461831E-02 -0.14683773506E-01  0.23153247482E-01  0.00000000000E+00 0.  1.
     999901    1    3    3    0    0  0.10965912301E+00 -0.10056782369E-01 -0.75206535450E-01  0.89004622639E+00  0.88000000000E+00 0.  1.
        -11    1    4    4    0    0 -0.15474574846E-01  0.51759350865E-02  0.70490564056E-02  0.17782100211E-01  0.51100000000E-03 0.  1.
         11    1    4    4    0    0 -0.76435592645E-01  0.72119934653E-02  0.82841252551E-01  0.11294842592E+00  0.51100000000E-03 0. -1.
</event>
<event>
 8    1  0.1204770E+005  0.1043930E+01  0.7957747E-01            NaN
         13   -1    0    0    0    0  0.00000000000E+00  0.00000000000E+00  0.74505805969E-08  0.10566000000E+00  0.10566000000E+00 0. -1.
     999900   -1    0    0    0    0 -0.00000000000E+00 -0.00000000000E+00 -0.74505805969E-08  0.93827000000E+00  0.93827000000E+00 0. -1.
     999902    2    1    2    0    0 -0.23063584289E-01 -0.95164682612E-02  0.16343834915E-01  0.10141036186E+01  0.10136649033E+01 0.  0.
     999903    2    3    3    0    0 -0.52438001076E-01  0.19931295020E-01 -0.10940009750E+00  0.12419263222E+00  0.17562120743E-01 0.  0.
         14    1    1    2    0    0  0.23063584289E-01  0.95164682612E-02 -0.16343834915E-01  0.29826381412E-01  0.00000000000E+00 0.  1.
     999901    1    3    3    0    0  0.29374416787E-01 -0.29447763281E-01  0.12574393242E+00  0.88991098637E+00  0.88000000000E+00 0.  1.
        -11    1    4    4    0    0 -0.21095771642E-01  0.80405636130E-02 -0.63175168963E-01  0.67089830368E-01  0.51100000000E-03 0.  1.
         11    1    4    4    0    0 -0.31342229433E-01  0.11890731407E-01 -0.46224928541E-01  0.57102801848E-01  0.51100000000E-03 0. -1.
</event>
<event>
 8    1  0.1204770E+005  0.1043930E+01  0.7957747E-01            NaN
         13   -1    0    0    0    0  0.00000000000E+00  0.00000000000E+00  0.74505805969E-08  0.10566000000E+00  0.10566000000E+00 0.  1.
     999900   -1    0    0    0    0 -0.00000000000E+00 -0.00000000000E+00 -0.74505805969E-08  0.93827000000E+00  0.93827000000E+00 0.  1.
     999902    2    1    2    0    0 -0.12380413938E-01  0.78984033766E-02  0.17453434544E-01  0.10211203134E+01  0.10208655213E+01 0.  0.
     999903    2    3    3    0    0 -0.22152742148E-01 -0.96580306468E-01 -0.80381627045E-01  0.12950212243E+00  0.22160644487E-01 0.  0.
         14    1    1    2    0    0  0.12380413938E-01 -0.78984033766E-02 -0.17453434544E-01  0.22809686595E-01  0.00000000000E+00 0.  1.
     999901    1    3    3    0    0  0.97723282106E-02  0.10447870985E+00  0.97835061589E-01  0.89161819098E+00  0.88000000000E+00 0. -1.
        -11    1    4    4    0    0  0.52289748757E-03 -0.19702039707E-01 -0.26047470831E-01  0.32667654463E-01  0.51100000000E-03 0. -1.
         11    1    4    4    0    0 -0.22675639636E-01 -0.76878266762E-01 -0.54334156214E-01  0.96834467963E-01  0.51100000000E-03 0.  1.
</event>
<event>
 8    1  0.1204770E+005  0.1043930E+01  0.7957747E-01            NaN
         13   -1    0    0    0    0  0.00000000000E+00  0.00000000000E+00  0.74505805969E-08  0.10566000000E+00  0.10566000000E+00 0. -1.
     999900   -1    0    0    0    0 -0.00000000000E+00 -0.00000000000E+00 -0.74505805969E-08  0.93827000000E+00  0.93827000000E+00 0. -1.
     999902    2    1    2    0    0  0.21102582251E-01  0.25516972317E-02  0.90744968892E-02  0.10208177385E+01  0.10205560635E+01 0.  0.
     999903    2    3    3    0    0 -0.88155992906E-01 -0.72684801452E-01  0.57714231422E-01  0.12954685336E+00  0.19922230276E-01 0.  0.
         14    1    1    2    0    0 -0.21102582251E-01 -0.25516972317E-02 -0.90744968892E-02  0.23112261469E-01  0.00000000000E+00 0.  1.
     999901    1    3    3    0    0  0.10925857516E+00  0.75236498684E-01 -0.48639734533E-01  0.89127088517E+00  0.88000000000E+00 0. -1.
        -11    1    4    4    0    0 -0.87287669103E-01 -0.71680913234E-01  0.53270646049E-01  0.12488119695E+00  0.51100000000E-03 0. -1.
         11    1    4    4    0    0 -0.86832380233E-03 -0.10038882180E-02  0.44435853730E-02  0.46656564112E-02  0.51100000000E-03 0.  1.
</event>
<event>
 8    1  0.1204770E+005  0.1043930E+01  0.7957747E-01            NaN
         13   -1    0    0    0    0  0.00000000000E+00  0.00000000000E+00  0.74505805969E-08  0.10566000000E+00  0.10566000000E+00 0.  1.
     999900   -1    0    0    0    0 -0.00000000000E+00 -0.00000000000E+00 -0.74505805969E-08  0.93827000000E+00  0.93827000000E+00 0.  1.
     999902    2    1    2    0    0  0.20252721777E-01  0.66527712279E-02 -0.99652339838E-02  0.10203983619E+01  0.10201269916E+01 0.  0.
     999903    2    3    3    0    0 -0.22137832729E-03 -0.72053332864E-01 -0.10784778072E+00  0.13124436366E+00  0.20055109072E-01 0.  0.
         14    1    1    2    0    0 -0.20252721777E-01 -0.66527712279E-02  0.99652339838E-02  0.23531638123E-01  0.00000000000E+00 0.  1.
     999901    1    3    3    0    0  0.20474100104E-01  0.78706104091E-01  0.97882546738E-01  0.88915399822E+00  0.88000000000E+00 0.  1.
        -11    1    4    4    0    0 -0.10031000007E-01 -0.31420579286E-01 -0.47033142801E-01  0.57447814637E-01  0.51100000000E-03 0.  1.
         11    1    4    4    0    0  0.98096216796E-02 -0.40632753577E-01 -0.60814637921E-01  0.73796549020E-01  0.51100000000E-03 0. -1.
</event>
<event>
 7    1  0.1204770E+005  0.1043930E+01  0.7957747E-01            NaN
         13   -1    0    0    0    0  0.00000000000E+00  0.00000000000E+00  0.74505805969E-08  0.10566000000E+00  0.10566000000E+00 0. -1.
     999900   -1    0    0    0    0 -0.00000000000E+00 -0.00000000000E+00 -0.74505805969E-08  0.93827000000E+00  0.93827000000E+00 0.  1.
     999903    2    1    2    0    0 -0.19678366375E-01 -0.35686741387E-01  0.10160397444E+00  0.11128900818E+00  0.20027333980E-01 0.  0.
         14    1    1    2    0    0 -0.51340301803E-02  0.45368790561E-01 -0.14665847244E-01  0.47955943305E-01  0.00000000000E+00 0.  1.
     999901    1    1    2    0    0  0.24812396555E-01 -0.96820491748E-02 -0.86938127197E-01  0.88468504851E+00  0.88000000000E+00 0.  1.
        -11    1    3    3    0    0 -0.12832546322E-03 -0.20840134512E-01  0.47651907071E-01  0.52012431614E-01  0.51100000000E-03 0.  1.
         11    1    3    3    0    0 -0.19550040911E-01 -0.14846606875E-01  0.53952067370E-01  0.59276576570E-01  0.51100000000E-03 0. -1.
</event>
<event>
 8    1  0.1204770E+005  0.1043930E+01  0.7957747E-01            NaN
         13   -1    0    0    0    0  0.00000000000E+00  0.00000000000E+00  0.74505805969E-08  0.10566000000E+00  0.10566000000E+00 0.  1.
     999900   -1    0    0    0    0 -0.00000000000E+00 -0.00000000000E+00 -0.74505805969E-08  0.93827000000E+00  0.93827000000E+00 0.  1.
     999902    2    1    2    0    0  0.26835011789E-02 -0.14354374425E-01  0.18274168786E-01  0.10205378114E+01  0.10202696849E+01 0.  0.
     999903    2    3    3    0    0  0.12092693828E+00 -0.20649433133E-01  0.47046970591E-01  0.13214093368E+00  0.14074282275E-01 0.  0.
         14    1    1    2    0    0 -0.26835011789E-02  0.14354374425E-01 -0.18274168786E-01  0.23392188622E-01  0.00000000000E+00 0. -1.
     999901    1    3    3    0    0 -0.11824343710E+00  0.62950587073E-02 -0.28772801806E-01  0.88839687770E+00  0.88000000000E+00 0. -1.
        -11    1    4    4    0    0  0.64678360432E-01 -0.16190625750E-01  0.20317269201E-01  0.69702792047E-01  0.51100000000E-03 0.  1.
         11    1    4    4    0    0  0.56248577847E-01 -0.44588073830E-02  0.26729701390E-01  0.62438141632E-01  0.51100000000E-03 0. -1.
</event>
<event>
 8    1  0.1204770E+005  0.1043930E+01  0.7957747E-01            NaN
         13   -1    0    0    0    0  0.00000000000E+00  0.00000000000E+00  0.74505805969E-08  0.10566000000E+00  0.10566000000E+00 0. -1.
     999900   -1    0    0    0    0 -0.00000000000E+00 -0.00000000000E+00 -0.74505805969E-08  0.93827000000E+00  0.93827000000E+00 0. -1.
     999902    2    1    2    0    0 -0.14109982744E-01  0.21434252317E-01 -0.70232891840E-02  0.10173246363E+01  0.10169766813E+01 0.  0.
     999903    2    3    3    0    0 -0.13942979468E-02 -0.11536732240E+00  0.43636823395E-01  0.12522441410E+00  0.21573557571E-01 0.  0.
         14    1    1    2    0    0  0.14109982744E-01 -0.21434252317E-01  0.70232891840E-02  0.26605363677E-01  0.00000000000E+00 0. -1.
     999901    1    3    3    0    0 -0.12715684797E-01  0.13680157472E+00 -0.50660112579E-01  0.89210022222E+00  0.88000000000E+00 0.  1.
        -11    1    4    4    0    0  0.95209739746E-02 -0.37866952389E-01  0.16411914219E-01  0.42357609446E-01  0.51100000000E-03 0.  1.
         11    1    4    4    0    0 -0.10915271921E-01 -0.77500370010E-01  0.27224909175E-01  0.82866804653E-01  0.51100000000E-03 0. -1.
</event>
<event>
 8    1  0.1204770E+005  0.1043930E+01  0.7957747E-01            NaN
         13   -1    0    0    0    0  0.00000000000E+00  0.00000000000E+00  0.74505805969E-08  0.10566000000E+00  0.10566000000E+00 0. -1.
     999900   -1    0    0    0    0 -0.00000000000E+00 -0.00000000000E+00 -0.74505805969E-08  0.93827000000E+00  0.93827000000E+00 0.  1.
     999902    2    1    2    0    0 -0.10328388319E-01 -0.15738218530E-01  0.12860665567E-01  0.10211316701E+01  0.10208771345E+01 0.  0.
     999903    2    3    3    0    0  0.18874718749E-01  0.96195565317E-01 -0.80865462222E-01  0.12862588274E+00  0.19888512652E-01 0.  0.
         14    1    1    2    0    0  0.10328388319E-01  0.15738218530E-01 -0.12860665567E-01  0.22798329908E-01  0.00000000000E+00 0.  1.
     999901    1    3    3    0    0 -0.29203107068E-01 -0.11193378385E+00  0.93726127789E-01  0.89250578735E+00  0.88000000000E+00 0. -1.
        -11    1    4    4    0    0  0.17877702345E-01  0.53919618882E-01 -0.54893021310E-01  0.78996471131E-01  0.51100000000E-03 0.  1.
         11    1    4    4    0    0  0.99701640389E-03  0.42275946434E-01 -0.25972440912E-01  0.49629411608E-01  0.51100000000E-03 0. -1.
</event>
<event>
 8    1  0.1204770E+005  0.1043930E+01  0.7957747E-01            NaN
         13   -1    0    0    0    0  0.00000000000E+00  0.00000000000E+00  0.74505805969E-08  0.10566000000E+00  0.10566000000E+00 0.  1.
     999900   -1    0    0    0    0 -0.00000000000E+00 -0.00000000000E+00 -0.74505805969E-08  0.93827000000E+00  0.93827000000E+00 0. -1.
     999902    2    1    2    0    0  0.22837781228E-01  0.21478363066E-02  0.26089302578E-02  0.10208435544E+01  0.10205824703E+01 0.  0.
     999903    2    3    3    0    0 -0.73671499254E-01 -0.71825001987E-01  0.76037932568E-01  0.12945259620E+00  0.19745550414E-01 0.  0.
         14    1    1    2    0    0 -0.22837781228E-01 -0.21478363066E-02 -0.26089302578E-02  0.23086445575E-01  0.00000000000E+00 0.  1.
     999901    1    3    3    0    0  0.96509280482E-01  0.73972838293E-01 -0.73429002310E-01  0.89139095822E+00  0.88000000000E+00 0. -1.
        -11    1    4    4    0    0 -0.12880278978E-01 -0.16295299009E-01  0.67651362395E-02  0.21851007887E-01  0.51100000000E-03 0.  1.
         11    1    4    4    0    0 -0.60791220276E-01 -0.55529702978E-01  0.69272796328E-01  0.10760158831E+00  0.51100000000E-03 0. -1.
</event>
<event>
 8    1  0.1204770E+005  0.1043930E+01  0.7957747E-01            NaN
         13   -1    0    0    0    0  0.00000000000E+00  0.00000000000E+00  0.74505805969E-08  0.10566000000E+00  0.10566000000E+00 0.  1.
     999900   -1    0    0    0    0 -0.00000000000E+00 -0.00000000000E+00 -0.74505805969E-08  0.93827000000E+00  0.93827000000E+00 0.  1.
     999902    2    1    2    0    0 -0.17754060417E-01  0.20830396437E-02  0.11603119300E-01  0.10226185455E+01  0.10223964552E+01 0.  0.
     999903    2    3    3    0    0 -0.37890963248E-01  0.20024318702E-02 -0.12479918390E+00  0.13188228281E+00  0.19451616616E-01 0.  0.
         14    1    1    2    0    0  0.17754060417E-01 -0.20830396437E-02 -0.11603119300E-01  0.21311454501E-01  0.00000000000E+00 0. -1.
     999901    1    3    3    0    0  0.20136902832E-01  0.80607773463E-04  0.13640230320E+00  0.89073626269E+00  0.88000000000E+00 0. -1.
        -11    1    4    4    0    0 -0.15695939300E-01 -0.86403646527E-02 -0.56962989653E-01  0.59716511310E-01  0.51100000000E-03 0. -1.
         11    1    4    4    0    0 -0.22195023948E-01  0.10642796523E-01 -0.67836194242E-01  0.72165771500E-01  0.51100000000E-03 0.  1.
</event>
<event>
 8    1  0.1204770E+005  0.1043930E+01  0.7957747E-01            NaN
         13   -1    0    0    0    0  0.00000000000E+00  0.00000000000E+00  0.74505805969E-08  0.10566000000E+00  0.10566000000E+00 0.  1.
     999900   -1    0    0    0    0 -0.00000000000E+00 -0.00000000000E+00 -0.74505805969E-08  0.93827000000E+00  0.93827000000E+00 0.  1.
     999902    2    1    2    0    0 -0.11229762066E-01 -0.22345587800E-01 -0.43835468897E-02  0.10185400742E+01  0.10182235680E+01 0.  0.
     999903    2    3    3    0    0  0.26656776683E-01  0.12165220065E+00 -0.17151195764E-02  0.12602796030E+00  0.19242231593E-01 0.  0.
         14    1    1    2    0    0  0.11229762066E-01  0.22345587800E-01  0.43835468897E-02  0.25389925827E-01  0.00000000000E+00 0. -1.
     999901    1    3    3    0    0 -0.37886538749E-01 -0.14399778845E+00 -0.26684273133E-02  0.89251211387E+00  0.88000000000E+00 0.  1.
        -11    1    4    4    0    0  0.19059240377E-01  0.87562337214E-01  0.74274363971E-02  0.89921329364E-01  0.51100000000E-03 0. -1.
         11    1    4    4    0    0  0.75975363054E-02  0.34089863438E-01 -0.91425559735E-02  0.36106630941E-01  0.51100000000E-03 0.  1.
</event>
<event>
 8    1  0.1204770E+005  0.1043930E+01  0.7957747E-01            NaN
         13   -1    0    0    0    0  0.00000000000E+00  0.00000000000E+00  0.74505805969E-08  0.10566000000E+00  0.10566000000E+00 0. -1.
     999900   -1    0    0    0    0 -0.00000000000E+00 -0.00000000000E+00 -0.74505805969E-08  0.93827000000E+00  0.93827000000E+00 0. -1.
     999902    2    1    2    0    0  0.10170032255E-01  0.34397929824E-03  0.12694728773E-01  0.10276602730E+01  0.10275314753E+01 0.  0.
     999903    2    3    3    0    0  0.70254557489E-02  0.29031562228E-01 -0.13049158343E+00  0.13562037156E+00  0.21740358828E-01 0.  0.
         14    1    1    2    0    0 -0.10170032255E-01 -0.34397929824E-03 -0.12694728773E-01  0.16269726994E-01  0.00000000000E+00 0.  1.
     999901    1    3    3    0    0  0.31445765063E-02 -0.28687582930E-01  0.14318631220E+00  0.89203990145E+00  0.88000000000E+00 0.  1.
        -11    1    4    4    0    0  0.14843517238E-02  0.34409975244E-04 -0.47621167348E-01  0.47647048017E-01  0.51100000000E-03 0.  1.
         11    1    4    4    0    0  0.55411040251E-02  0.28997152253E-01 -0.82870416079E-01  0.87973323540E-01  0.51100000000E-03 0. -1.
</event>
<event>
 8    1  0.1204770E+005  0.1043930E+01  0.7957747E-01            NaN
         13   -1    0    0    0    0  0.00000000000E+00  0.00000000000E+00  0.74505805969E-08  0.10566000000E+00  0.10566000000E+00 0.  1.
     999900   -1    0    0    0    0 -0.00000000000E+00 -0.00000000000E+00 -0.74505805969E-08  0.93827000000E+00  0.93827000000E+00 0.  1.
     999902    2    1    2    0    0  0.23304839992E-01 -0.28880714701E-02 -0.26661364619E-02  0.10202960243E+01  0.10200222607E+01 0.  0.
     999903    2    3    3    0    0 -0.89052293507E-01 -0.66602452693E-02  0.89868892863E-01  0.12833129047E+00  0.20440948181E-01 0.  0.
         14    1    1    2    0    0 -0.23304839992E-01  0.28880714701E-02  0.26661364619E-02  0.23633975703E-01  0.00000000000E+00 0. -1.
     999901    1    3    3    0    0  0.11235713350E+00  0.37721737992E-02 -0.92535029325E-01  0.89196473383E+00  0.88000000000E+00 0.  1.
        -11    1    4    4    0    0 -0.68334477044E-01 -0.12884606617E-01  0.73621566732E-01  0.10127196083E+00  0.51100000000E-03 0. -1.
         11    1    4    4    0    0 -0.20717816464E-01  0.62243613478E-02  0.16247326132E-01  0.27059329642E-01  0.51100000000E-03 0.  1.
</event>
<event>
 8    1  0.1204770E+005  0.1043930E+01  0.7957747E-01            NaN
         13   -1    0    0    0    0  0.00000000000E+00  0.00000000000E+00  0.74505805969E-08  0.10566000000E+00  0.10566000000E+00 0. -1.
     999900   -1    0    0    0    0 -0.00000000000E+00 -0.00000000000E+00 -0.74505805969E-08  0.93827000000E+00  0.93827000000E+00 0.  1.
     999902    2    1    2    0    0  0.21410579266E-01 -0.56745271446E-02 -0.77502628001E-02  0.10204634336E+01  0.10201935795E+01 0.  0.
     999903    2    3    3    0    0  0.70917327496E-01  0.10842569554E+00 -0.12797888678E-01  0.13170291615E+00  0.19911639220E-01 0.  0.
         14    1    1    2    0    0 -0.21410579266E-01  0.56745271446E-02  0.77502628001E-02  0.23466566351E-01  0.00000000000E+00 0.  1.
     999901    1    3    3    0    0 -0.49506748230E-01 -0.11410022268E+00  0.50476258779E-02  0.88876051750E+00  0.88000000000E+00 0.  1.
        -11    1    4    4    0    0  0.53970381146E-01  0.70454172746E-01 -0.21551080788E-02  0.88777801900E-01  0.51100000000E-03 0.  1.
         11    1    4    4    0    0  0.16946946351E-01  0.37971522791E-01 -0.10642780599E-01  0.42925114252E-01  0.51100000000E-03 0. -1.
</event>
<event>
 8    1  0.1204770E+005  0.1043930E+01  0.7957747E-01            NaN
         13   -1    0    0    0    0  0.00000000000E+00  0.00000000000E+00  0.74505805969E-08  0.10566000000E+00  0.10566000000E+00 0. -1.
     999900   -1    0    0    0    0 -0.00000000000E+00 -0.00000000000E+00 -0.74505805969E-08  0.93827000000E+00  0.93827000000E+00 0.  1.
     999902    2    1    2    0    0 -0.93046759016E-02  0.10426894218E-01 -0.18230699325E-01  0.10209592465E+01  0.10207008022E+01 0.  0.
     999903    2    3    3    0    0 -0.54401192964E-01 -0.74442817536E-01  0.88341398735E-01  0.12933478753E+00  0.20544139204E-01 0.  0.
         14    1    1    2    0    0  0.93046759016E-02 -0.10426894218E-01  0.18230699325E-01  0.22970753461E-01  0.00000000000E+00 0. -1.
     999901    1    3    3    0    0  0.45096517062E-01  0.84869711754E-01 -0.10657209806E+00  0.89162445901E+00  0.88000000000E+00 0.  1.
        -11    1    4    4    0    0 -0.45395992664E-01 -0.46399772114E-01  0.58119571334E-01  0.87131399020E-01  0.51100000000E-03 0.  1.
         11    1    4    4    0    0 -0.90052002993E-02 -0.28043045422E-01  0.30221827402E-01  0.42203388507E-01  0.51100000000E-03 0. -1.
</event>
<event>
 8    1  0.1204770E+005  0.1043930E+01  0.7957747E-01            NaN
         13   -1    0    0    0    0  0.00000000000E+00  0.00000000000E+00  0.74505805969E-08  0.10566000000E+00  0.10566000000E+00 0.  1.
     999900   -1    0    0    0    0 -0.00000000000E+00 -0.00000000000E+00 -0.74505805969E-08  0.93827000000E+00  0.93827000000E+00 0.  1.
     999902    2    1    2    0    0 -0.17717707897E-02  0.18792159992E-01  0.65022134669E-02  0.10239659516E+01  0.10237713157E+01 0.  0.
     999903    2    3    3    0    0  0.64561773118E-01 -0.58124591548E-01 -0.99057479961E-01  0.13185655550E+00  0.52034797761E-02 0.  0.
         14    1    1    2    0    0  0.17717707897E-02 -0.18792159992E-01 -0.65022134669E-02  0.19964048409E-01  0.00000000000E+00 0.  1.
     999901    1    3    3    0    0 -0.66333543908E-01  0.76916751540E-01  0.10555969343E+00  0.89210939609E+00  0.88000000000E+00 0. -1.
        -11    1    4    4    0    0  0.40892923155E-01 -0.36082409399E-01 -0.65777220303E-01  0.85446329728E-01  0.51100000000E-03 0. -1.
         11    1    4    4    0    0  0.23668849963E-01 -0.22042182149E-01 -0.33280259658E-01  0.46410225774E-01  0.51100000000E-03 0.  1.
</event>
<event>
 8    1  0.1204770E+005  0.1043930E+01  0.7957747E-01            NaN
         13   -1    0    0    0    0  0.00000000000E+00  0.00000000000E+00  0.74505805969E-08  0.10566000000E+00  0.10566000000E+00 0.  1.
     999900   -1    0    0    0    0 -0.00000000000E+00 -0.00000000000E+00 -0.74505805969E-08  0.93827000000E+00  0.93827000000E+00 0.  1.
     999902    2    1    2    0    0 -0.12343455912E-01 -0.19508197608E-01 -0.79011771847E-02  0.10195300148E+01  0.10192379956E+01 0.  0.
     999903    2    3    3    0    0  0.58128275926E-01 -0.26514358306E-01 -0.11213347969E+00  0.13055322984E+00  0.19705859436E-01 0.  0.
         14    1    1    2    0    0  0.12343455912E-01  0.19508197608E-01  0.79011771847E-02  0.24399985218E-01  0.00000000000E+00 0. -1.
     999901    1    3    3    0    0 -0.70471731838E-01  0.70061606976E-02  0.10423230251E+00  0.88897678494E+00  0.88000000000E+00 0. -1.
        -11    1    4    4    0    0  0.25267933272E-01 -0.11451551066E-01 -0.30270479347E-01  0.41062994467E-01  0.51100000000E-03 0.  1.
         11    1    4    4    0    0  0.32860342654E-01 -0.15062807240E-01 -0.81863000343E-01  0.89490235375E-01  0.51100000000E-03 0. -1.
</event>
<event>
 8    1  0.1204770E+005  0.1043930E+01  0.7957747E-01            NaN
         13   -1    0    0    0    0  0.00000000000E+00  0.00000000000E+00  0.74505805969E-08  0.10566000000E+00  0.10566000000E+00 0.  1.
     999900   -1    0    0    0    0 -0.00000000000E+00 -0.00000000000E+00 -0.74505805969E-08  0.93827000000E+00  0.93827000000E+00 0. -1.
     999902    2    1    2    0    0 -0.88551934619E-04  0.16493332410E-01  0.16966735991E-01  0.10202676251E+01  0.10199931955E+01 0.  0.
     999903    2    3    3    0    0 -0.11293257817E+00  0.55934738283E-01  0.33997661000E-01  0.13202247248E+00  0.19789647000E-01 0.  0.
         14    1    1    2    0    0  0.88551934619E-04 -0.16493332410E-01 -0.16966735991E-01  0.23662374894E-01  0.00000000000E+00 0. -1.
     999901    1    3    3    0    0  0.11284402623E+00 -0.39441405873E-01 -0.17030925009E-01  0.88824515262E+00  0.88000000000E+00 0. -1.
        -11    1    4    4    0    0 -0.72208170430E-01  0.43027354116E-01  0.29405815535E-01  0.89052435045E-01  0.51100000000E-03 0. -1.
         11    1    4    4    0    0 -0.40724407737E-01  0.12907384167E-01  0.45918454653E-02  0.42970037437E-01  0.51100000000E-03 0.  1.
</event>
<event>
 8    1  0.1204770E+005  0.1043930E+01  0.7957747E-01            NaN
         13   -1    0    0    0    0  0.00000000000E+00  0.00000000000E+00  0.74505805969E-08  0.10566000000E+00  0.10566000000E+00 0. -1.
     999900   -1    0    0    0    0 -0.00000000000E+00 -0.00000000000E+00 -0.74505805969E-08  0.93827000000E+00  0.93827000000E+00 0.  1.
     999902    2    1    2    0    0  0.52169568375E-02  0.16085546533E-01  0.17133454126E-01  0.10198568470E+01  0.10195726907E+01 0.  0.
     999903    2    3    3    0    0 -0.24669828213E-01  0.12261366598E+00  0.39202334388E-01  0.13265422321E+00  0.20435469251E-01 0.  0.
         14    1    1    2    0    0 -0.52169568375E-02 -0.16085546533E-01 -0.17133454126E-01  0.24073153018E-01  0.00000000000E+00 0.  1.
     999901    1    3    3    0    0  0.29886785051E-01 -0.10652811945E+00 -0.22068880262E-01  0.88720262377E+00  0.88000000000E+00 0. -1.
        -11    1    4    4    0    0 -0.14777152593E-01  0.96640453084E-01  0.37808508009E-01  0.10482120878E+00  0.51100000000E-03 0.  1.
         11    1    4    4    0    0 -0.98926756202E-02  0.25973212900E-01  0.13938263799E-02  0.27833014430E-01  0.51100000000E-03 0. -1.
</event>
<event>
 8    1  0.1204770E+005  0.1043930E+01  0.7957747E-01            NaN
         13   -1    0    0    0    0  0.00000000000E+00  0.00000000000E+00  0.74505805969E-08  0.10566000000E+00  0.10566000000E+00 0.  1.
     999900   -1    0    0    0    0 -0.00000000000E+00 -0.00000000000E+00 -0.74505805969E-08  0.93827000000E+00  0.93827000000E+00 0. -1.
     999902    2    1    2    0    0  0.14653360830E-01  0.13526143583E-01 -0.10903219843E-01  0.10212020932E+01  0.10209491454E+01 0.  0.
     999903    2    3    3    0    0  0.81871007118E-01  0.10073428945E+00 -0.27414033743E-01  0.13418682860E+00  0.20107631588E-01 0.  0.
         14    1    1    2    0    0 -0.14653360830E-01 -0.13526143583E-01  0.10903219843E-01  0.22727906784E-01  0.00000000000E+00 0.  1.
     999901    1    3    3    0    0 -0.67217646288E-01 -0.87208145864E-01  0.16510813900E-01  0.88701526461E+00  0.88000000000E+00 0.  1.
        -11    1    4    4    0    0  0.33016234291E-01  0.55618789271E-01 -0.10076021561E-01  0.65462269883E-01  0.51100000000E-03 0. -1.
         11    1    4    4    0    0  0.48854772827E-01  0.45115500176E-01 -0.17338012182E-01  0.68724558722E-01  0.51100000000E-03 0.  1.
</event>
<event>
 8    1  0.1204770E+005  0.1043930E+01  0.7957747E-01            NaN
         13   -1    0    0    0    0  0.00000000000E+00  0.00000000000E+00  0.74505805969E-08  0.10566000000E+00  0.10566000000E+00 0. -1.
     999900   -1    0    0    0    0 -0.00000000000E+00 -0.00000000000E+00 -0.74505805969E-08  0.93827000000E+00  0.93827000000E+00 0.  1.
     999902    2    1    2    0    0 -0.12178014447E-02  0.19005370125E-01  0.12753389375E-01  0.10210097890E+01  0.10207524935E+01 0.  0.
     999903    2    3    3    0    0 -0.27602251627E-01  0.84125274729E-01 -0.95456608225E-01  0.13160203951E+00  0.19188189240E-01 0.  0.
         14    1    1    2    0    0  0.12178014447E-02 -0.19005370125E-01 -0.12753389375E-01  0.22920211048E-01  0.00000000000E+00 0.  1.
     999901    1    3    3    0    0  0.26384450182E-01 -0.65119904604E-01  0.10820999760E+00  0.88940774944E+00  0.88000000000E+00 0. -1.
        -11    1    4    4    0    0 -0.46990696132E-03  0.15476795787E-01 -0.25879983001E-01  0.30162670000E-01  0.51100000000E-03 0.  1.
         11    1    4    4    0    0 -0.27132344665E-01  0.68648478942E-01 -0.69576625224E-01  0.10143936951E+00  0.51100000000E-03 0. -1.
</event>
<event>
 8    1  0.1204770E+005  0.1043930E+01  0.7957747E-01            NaN
         13   -1    0    0    0    0  0.00000000000E+00  0.00000000000E+00  0.74505805969E-08  0.10566000000E+00  0.10566000000E+00 0. -1.
     999900   -1    0    0    0    0 -0.00000000000E+00 -0.00000000000E+00 -0.74505805969E-08  0.93827000000E+00  0.93827000000E+00 0. -1.
     999902    2    1    2    0    0  0.78985103392E-02  0.15284513689E-01 -0.16350853946E-01  0.10201949363E+01  0.10199187981E+01 0.  0.
     999903    2    3    3    0    0  0.49528901749E-01  0.11816147610E+00 -0.30388262189E-01  0.13311331225E+00  0.19505406372E-01 0.  0.
         14    1    1    2    0    0 -0.78985103392E-02 -0.15284513689E-01  0.16350853946E-01  0.23735063704E-01  0.00000000000E+00 0.  1.
     999901    1    3    3    0    0 -0.41630391410E-01 -0.10287696241E+00  0.14037408243E-01  0.88708162404E+00  0.88000000000E+00 0.  1.
        -11    1    4    4    0    0  0.20243398100E-01  0.49007784229E-01 -0.22488315870E-01  0.57598121092E-01  0.51100000000E-03 0.  1.
         11    1    4    4    0    0  0.29285503649E-01  0.69153691870E-01 -0.78999463192E-02  0.75515191161E-01  0.51100000000E-03 0. -1.
</event>
<event>
 8    1  0.1204770E+005  0.1043930E+01  0.7957747E-01            NaN
         13   -1    0    0    0    0  0.00000000000E+00  0.00000000000E+00  0.74505805969E-08  0.10566000000E+00  0.10566000000E+00 0. -1.
     999900   -1    0    0    0    0 -0.00000000000E+00 -0.00000000000E+00 -0.74505805969E-08  0.93827000000E+00  0.93827000000E+00 0.  1.
     999902    2    1    2    0    0 -0.14919730944E-01 -0.10721312700E-01 -0.15271712778E-01  0.10200392041E+01  0.10197593872E+01 0.  0.
     999903    2    3    3    0    0  0.11098426836E+00  0.40606530649E-01  0.43754421773E-01  0.12764330031E+00  0.20296909463E-01 0.  0.
         14    1    1    2    0    0  0.14919730944E-01  0.10721312700E-01  0.15271712778E-01  0.23890795898E-01  0.00000000000E+00 0.  1.
     999901    1    3    3    0    0 -0.12590399931E+00 -0.51327843349E-01 -0.59026134552E-01  0.89239590379E+00  0.88000000000E+00 0.  1.
        -11    1    4    4    0    0  0.28121890187E-01  0.13878187718E-01  0.20684880067E-01  0.37570868854E-01  0.51100000000E-03 0. -1.
         11    1    4    4    0    0  0.82862378177E-01  0.26728342931E-01  0.23069541706E-01  0.90072431456E-01  0.51100000000E-03 0.  1.
</event>
<event>
 8    1  0.1204770E+005  0.1043930E+01  0.7957747E-01            NaN
         13   -1    0    0    0    0  0.00000000000E+00  0.00000000000E+00  0.74505805969E-08  0.10566000000E+00  0.10566000000E+00 0.  1.
     999900   -1    0    0    0    0 -0.00000000000E+00 -0.00000000000E+00 -0.74505805969E-08  0.93827000000E+00  0.93827000000E+00 0. -1.
     999902    2    1    2    0    0 -0.11710848434E-01  0.47112133063E-02  0.20375618279E-01  0.10199611594E+01  0.10196794895E+01 0.  0.
     999903    2    3    3    0    0 -0.11225860972E+00 -0.65254265760E-01  0.24167922889E-02  0.13129500157E+00  0.19298235565E-01 0.  0.
         14    1    1    2    0    0  0.11710848434E-01 -0.47112133063E-02 -0.20375618279E-01  0.23968840650E-01  0.00000000000E+00 0. -1.
     999901    1    3    3    0    0  0.10054776128E+00  0.69965479066E-01  0.17958825990E-01  0.88866615778E+00  0.88000000000E+00 0. -1.
        -11    1    4    4    0    0 -0.80549019614E-01 -0.43564341759E-01 -0.66517974883E-02  0.91817775863E-01  0.51100000000E-03 0. -1.
         11    1    4    4    0    0 -0.31709590103E-01 -0.21689924001E-01  0.90685897772E-02  0.39477225703E-01  0.51100000000E-03 0.  1.
</event>
<event>
 8    1  0.1204770E+005  0.1043930E+01  0.7957747E-01            NaN
         13   -1    0    0    0    0  0.00000000000E+00  0.00000000000E+00  0.74505805969E-08  0.10566000000E+00  0.10566000000E+00 0.  1.
     999900   -1    0    0    0    0 -0.00000000000E+00 -0.00000000000E+00 -0.74505805969E-08  0.93827000000E+00  0.93827000000E+00 0. -1.
     999902    2    1    2    0    0 -0.77755621124E-02  0.21911323918E-01 -0.52211622830E-02  0.10201008998E+01  0.10198225432E+01 0.  0.
     999903    2    3    3    0    0  0.73107214753E-01 -0.68704659529E-01  0.77267823996E-01  0.12793627768E+00  0.18231276224E-01 0.  0.
         14    1    1    2    0    0  0.77755621124E-02 -0.21911323918E-01  0.52211622830E-02  0.23829100226E-01  0.00000000000E+00 0.  1.
     999901    1    3    3    0    0 -0.80882776866E-01  0.90615983447E-01 -0.82488986279E-01  0.89216462209E+00  0.88000000000E+00 0. -1.
        -11    1    4    4    0    0  0.41940241125E-01 -0.35604463852E-01  0.31377936032E-01  0.63336384981E-01  0.51100000000E-03 0. -1.
         11    1    4    4    0    0  0.31166973628E-01 -0.33100195677E-01  0.45889887964E-01  0.64599892704E-01  0.51100000000E-03 0.  1.
</event>
<event>
 8    1  0.1204770E+005  0.1043930E+01  0.7957747E-01            NaN
         13   -1    0    0    0    0  0.00000000000E+00  0.00000000000E+00  0.74505805969E-08  0.10566000000E+00  0.10566000000E+00 0. -1.
     999900   -1    0    0    0    0 -0.00000000000E+00 -0.00000000000E+00 -0.74505805969E-08  0.93827000000E+00  0.93827000000E+00 0. -1.
     999902    2    1    2    0    0 -0.14203313335E-01 -0.18961570252E-01  0.51959796895E-02  0.10196756507E+01  0.10193871488E+01 0.  0.
     999903    2    3    3    0    0  0.12608389342E+00 -0.14054765638E-01  0.42383556289E-02  0.12854968082E+00  0.20306948670E-01 0.  0.
         14    1    1    2    0    0  0.14203313335E-01  0.18961570252E-01 -0.51959796895E-02  0.24254349322E-01  0.00000000000E+00 0.  1.
     999901    1    3    3    0    0 -0.14028720675E+00 -0.49068046145E-02  0.95762406057E-03  0.89112596986E+00  0.88000000000E+00 0.  1.
        -11    1    4    4    0    0  0.33564455809E-01  0.83225426939E-04 -0.69752893495E-02  0.34285498432E-01  0.51100000000E-03 0. -1.
         11    1    4    4    0    0  0.92519437608E-01 -0.14137991065E-01  0.11213644978E-01  0.94264182389E-01  0.51100000000E-03 0.  1.
</event>
<event>
 8    1  0.1204770E+005  0.1043930E+01  0.7957747E-01            NaN
         13   -1    0    0    0    0  0.00000000000E+00  0.00000000000E+00  0.74505805969E-08  0.10566000000E+00  0.10566000000E+00 0. -1.
     999900   -1    0    0    0    0 -0.00000000000E+00 -0.00000000000E+00 -0.74505805969E-08  0.93827000000E+00  0.93827000000E+00 0.  1.
     999902    2    1    2    0    0  0.12415635774E-01 -0.20243907762E-01  0.36215583433E-02  0.10199075210E+01  0.10196245740E+01 0.  0.
     999903    2    3    3    0    0 -0.33460731775E-01  0.11840751162E+00 -0.25640186849E-01  0.12739135479E+00  0.20764843225E-01 0.  0.
         14    1    1    2    0    0 -0.12415635774E-01  0.20243907762E-01 -0.36215583433E-02  0.24022479014E-01  0.00000000000E+00 0.  1.
     999901    1    3    3    0    0  0.45876367549E-01 -0.13865141938E+00  0.29261745193E-01  0.89251616620E+00  0.88000000000E+00 0.  1.
        -11    1    4    4    0    0  0.24241323131E-02  0.31989942809E-02 -0.89989914917E-04  0.40471225662E-02  0.51100000000E-03 0.  1.
         11    1    4    4    0    0 -0.35884864088E-01  0.11520851734E+00 -0.25550196934E-01  0.12334423222E+00  0.51100000000E-03 0. -1.
</event>
<event>
 8    1  0.1204770E+005  0.1043930E+01  0.7957747E-01            NaN
         13   -1    0    0    0    0  0.00000000000E+00  0.00000000000E+00  0.74505805969E-08  0.10566000000E+00  0.10566000000E+00 0. -1.
     999900   -1    0    0    0    0 -0.00000000000E+00 -0.00000000000E+00 -0.74505805969E-08  0.93827000000E+00  0.93827000000E+00 0. -1.
     999902    2    1    2    0    0 -0.17424657872E-01  0.31368587142E-02 -0.14665744529E-01  0.10209399446E+01  0.10206810608E+01 0.  0.
     999903    2    3    3    0    0  0.23632432641E-01 -0.12111494183E+00  0.35206608346E-01  0.12986674548E+00  0.19963599473E-01 0.  0.
         14    1    1    2    0    0  0.17424657872E-01 -0.31368587142E-02  0.14665744529E-01  0.22990055396E-01  0.00000000000E+00 0.  1.
     999901    1    3    3    0    0 -0.41057090513E-01  0.12425180054E+00 -0.49872352874E-01  0.89107319913E+00  0.88000000000E+00 0.  1.
        -11    1    4    4    0    0  0.55529854646E-02 -0.17870954590E-01  0.12811105164E-01  0.22684624794E-01  0.51100000000E-03 0. -1.
         11    1    4    4    0    0  0.18079447176E-01 -0.10324398724E+00  0.22395503181E-01  0.10718212068E+00  0.51100000000E-03 0.  1.
</event>
<event>
 8    1  0.1204770E+005  0.1043930E+01  0.7957747E-01            NaN
         13   -1    0    0    0    0  0.00000000000E+00  0.00000000000E+00  0.74505805969E-08  0.10566000000E+00  0.10566000000E+00 0.  1.
     999900   -1    0    0    0    0 -0.00000000000E+00 -0.00000000000E+00 -0.74505805969E-08  0.93827000000E+00  0.93827000000E+00 0. -1.
     999902    2    1    2    0    0  0.14432734470E-01 -0.79354082916E-02  0.17996814490E-01  0.10195341016E+01  0.10192421814E+01 0.  0.
     999903    2    3    3    0    0 -0.49137531564E-01 -0.21682531098E-01 -0.11359629663E+00  0.12737553437E+00  0.20875320032E-01 0.  0.
         14    1    1    2    0    0 -0.14432734470E-01  0.79354082916E-02 -0.17996814490E-01  0.24395898443E-01  0.00000000000E+00 0. -1.
     999901    1    3    3    0    0  0.63570266035E-01  0.13747122807E-01  0.13159311112E+00  0.89215856719E+00  0.88000000000E+00 0.  1.
        -11    1    4    4    0    0 -0.44488267434E-01 -0.10813352731E-01 -0.89677161739E-01  0.10068956746E+00  0.51100000000E-03 0. -1.
         11    1    4    4    0    0 -0.46492641302E-02 -0.10869178368E-01 -0.23919134887E-01  0.26685966913E-01  0.51100000000E-03 0.  1.
</event>
<event>
 8    1  0.1204770E+005  0.1043930E+01  0.7957747E-01            NaN
         13   -1    0    0    0    0  0.00000000000E+00  0.00000000000E+00  0.74505805969E-08  0.10566000000E+00  0.10566000000E+00 0.  1.
     999900   -1    0    0    0    0 -0.00000000000E+00 -0.00000000000E+00 -0.74505805969E-08  0.93827000000E+00  0.93827000000E+00 0. -1.
     999902    2    1    2    0    0  0.16109699350E-01 -0.35298572209E-02 -0.16777061085E-01  0.10204044377E+01  0.10201332091E+01 0.  0.
     999903    2    3    3    0    0 -0.74992843388E-01  0.10114616712E+00  0.22114380572E-01  0.12868178593E+00  0.14679322830E-01 0.  0.
         14    1    1    2    0    0 -0.16109699350E-01  0.35298572209E-02  0.16777061085E-01  0.23525562348E-01  0.00000000000E+00 0. -1.
     999901    1    3    3    0    0  0.91102542737E-01 -0.10467602434E+00 -0.38891441657E-01  0.89172265172E+00  0.88000000000E+00 0.  1.
        -11    1    4    4    0    0 -0.39076211129E-01  0.45554114053E-01  0.44863684221E-02  0.60187342573E-01  0.51100000000E-03 0. -1.
         11    1    4    4    0    0 -0.35916632259E-01  0.55592053067E-01  0.17628012150E-01  0.68494443354E-01  0.51100000000E-03 0.  1.
</event>
<event>
 8    1  0.1204770E+005  0.1043930E+01  0.7957747E-01            NaN
         13   -1    0    0    0    0  0.00000000000E+00  0.00000000000E+00  0.74505805969E-08  0.10566000000E+00  0.10566000000E+00 0.  1.
     999900   -1    0    0    0    0 -0.00000000000E+00 -0.00000000000E+00 -0.74505805969E-08  0.93827000000E+00  0.93827000000E+00 0.  1.
     999902    2    1    2    0    0  0.53037766792E-02 -0.10470636508E-01 -0.20053900360E-01  0.10206937525E+01  0.10204292299E+01 0.  0.
     999903    2    3    3    0    0  0.32141742481E-01  0.49319496621E-01 -0.11753318996E+00  0.13288896076E+00  0.19491556950E-01 0.  0.
         14    1    1    2    0    0 -0.53037766792E-02  0.10470636508E-01  0.20053900360E-01  0.23236247451E-01  0.00000000000E+00 0.  1.
     999901    1    3    3    0    0 -0.26837965802E-01 -0.59790133128E-01  0.97479289600E-01  0.88780479179E+00  0.88000000000E+00 0.  1.
        -11    1    4    4    0    0  0.28513695651E-01  0.26598807783E-01 -0.73917036594E-01  0.83573421822E-01  0.51100000000E-03 0. -1.
         11    1    4    4    0    0  0.36280468302E-02  0.22720688837E-01 -0.43616153365E-01  0.49315538935E-01  0.51100000000E-03 0.  1.
</event>
<event>
 8    1  0.1204770E+005  0.1043930E+01  0.7957747E-01            NaN
         13   -1    0    0    0    0  0.00000000000E+00  0.00000000000E+00  0.74505805969E-08  0.10566000000E+00  0.10566000000E+00 0. -1.
     999900   -1    0    0    0    0 -0.00000000000E+00 -0.00000000000E+00 -0.74505805969E-08  0.93827000000E+00  0.93827000000E+00 0.  1.
     999902    2    1    2    0    0 -0.51267527534E-02 -0.18506666666E-01 -0.14223368013E-01  0.10200326256E+01  0.10197526528E+01 0.  0.
     999903    2    3    3    0    0  0.86550387416E-01 -0.94196842179E-01 -0.25761230864E-01  0.13196347122E+00  0.19664742149E-01 0.  0.
         14    1    1    2    0    0  0.51267527534E-02  0.18506666666E-01  0.14223368013E-01  0.23897374386E-01  0.00000000000E+00 0. -1.
     999901    1    3    3    0    0 -0.91677140169E-01  0.75690175513E-01  0.11537862851E-01  0.88806915439E+00  0.88000000000E+00 0. -1.
        -11    1    4    4    0    0  0.79919768191E-01 -0.78323212651E-01 -0.19157403243E-01  0.11352956535E+00  0.51100000000E-03 0.  1.
         11    1    4    4    0    0  0.66306192246E-02 -0.15873629528E-01 -0.66038276215E-02  0.18433905879E-01  0.51100000000E-03 0. -1.
</event>
<event>
 8    1  0.1204770E+005  0.1043930E+01  0.7957747E-01            NaN
         13   -1    0    0    0    0  0.00000000000E+00  0.00000000000E+00  0.74505805969E-08  0.10566000000E+00  0.10566000000E+00 0. -1.
     999900   -1    0    0    0    0 -0.00000000000E+00 -0.00000000000E+00 -0.74505805969E-08  0.93827000000E+00  0.93827000000E+00 0. -1.
     999902    2    1    2    0    0  0.39605983761E-02  0.10310686130E-02  0.28872837044E-01  0.10147685501E+01  0.10143494566E+01 0.  0.
     999903    2    3    3    0    0 -0.94209689425E-01  0.17548965046E-01 -0.74532579855E-01  0.12313918395E+00  0.20608770205E-01 0.  0.
         14    1    1    2    0    0 -0.39605983761E-02 -0.10310686130E-02 -0.28872837044E-01  0.29161449911E-01  0.00000000000E+00 0.  1.
     999901    1    3    3    0    0  0.98170287801E-01 -0.16517896433E-01  0.10340541690E+00  0.89162936613E+00  0.88000000000E+00 0.  1.
        -11    1    4    4    0    0 -0.34702138922E-01 -0.30385480854E-02 -0.22714962724E-01  0.41589684692E-01  0.51100000000E-03 0.  1.
         11    1    4    4    0    0 -0.59507550503E-01  0.20587513132E-01 -0.51817617131E-01  0.81549499262E-01  0.51100000000E-03 0. -1.
</event>
<event>
 8    1  0.1204770E+005  0.1043930E+01  0.7957747E-01            NaN
         13   -1    0    0    0    0  0.00000000000E+00  0.00000000000E+00  0.74505805969E-08  0.10566000000E+00  0.10566000000E+00 0. -1.
     999900   -1    0    0    0    0 -0.00000000000E+00 -0.00000000000E+00 -0.74505805969E-08  0.93827000000E+00  0.93827000000E+00 0.  1.
     999902    2    1    2    0    0 -0.19907030641E-01  0.28458020138E-02  0.11983700302E-01  0.10205206529E+01  0.10202521284E+01 0.  0.
     999903    2    3    3    0    0 -0.22634394411E-01 -0.12038286379E+00 -0.41511317514E-01  0.13032154063E+00  0.16005148059E-01 0.  0.
         14    1    1    2    0    0  0.19907030641E-01 -0.28458020138E-02 -0.11983700302E-01  0.23409347085E-01  0.00000000000E+00 0. -1.
     999901    1    3    3    0    0  0.27273637708E-02  0.12322866580E+00  0.53495017816E-01  0.89019911229E+00  0.88000000000E+00 0.  1.
        -11    1    4    4    0    0 -0.22122603637E-01 -0.83735448003E-01 -0.25200865772E-01  0.90201882467E-01  0.51100000000E-03 0. -1.
         11    1    4    4    0    0 -0.51179077461E-03 -0.36647415788E-01 -0.16310451742E-01  0.40119658159E-01  0.51100000000E-03 0.  1.
</event>
<event>
 8    1  0.1204770E+005  0.1043930E+01  0.7957747E-01            NaN
         13   -1    0    0    0    0  0.00000000000E+00  0.00000000000E+00  0.74505805969E-08  0.10566000000E+00  0.10566000000E+00 0.  1.
     999900   -1    0    0    0    0 -0.00000000000E+00 -0.00000000000E+00 -0.74505805969E-08  0.93827000000E+00  0.93827000000E+00 0.  1.
     999902    2    1    2    0    0  0.22352415112E-01 -0.46948541698E-02  0.71707941778E-02  0.10199906515E+01  0.10197096826E+01 0.  0.
     999903    2    3    3    0    0  0.37427200299E-01 -0.12104393967E+00 -0.28829911293E-01  0.13147480492E+00  0.20050683039E-01 0.  0.
         14    1    1    2    0    0 -0.22352415112E-01  0.46948541698E-02 -0.71707941778E-02  0.23939348491E-01  0.00000000000E+00 0. -1.
     999901    1    3    3    0    0 -0.15074785187E-01  0.11634908550E+00  0.36000705470E-01  0.88851584659E+00  0.88000000000E+00 0. -1.
        -11    1    4    4    0    0  0.30425144112E-01 -0.11424173551E+00 -0.28871796629E-01  0.12169924112E+00  0.51100000000E-03 0. -1.
         11    1    4    4    0    0  0.70020561866E-02 -0.68022041567E-02  0.41885336478E-04  0.97755638002E-02  0.51100000000E-03 0.  1.
</event>
<event>
 8    1  0.1204770E+005  0.1043930E+01  0.7957747E-01            NaN
         13   -1    0    0    0    0  0.00000000000E+00  0.00000000000E+00  0.74505805969E-08  0.10566000000E+00  0.10566000000E+00 0.  1.
     999900   -1    0    0    0    0 -0.00000000000E+00 -0.00000000000E+00 -0.74505805969E-08  0.93827000000E+00  0.93827000000E+00 0.  1.
     999902    2    1    2    0    0 -0.23245526604E-01 -0.10789988799E-02 -0.40861241202E-02  0.10203034227E+01  0.10200298325E+01 0.  0.
     999903    2    3    3    0    0 -0.83052643061E-01 -0.81314339987E-01 -0.61144440797E-01  0.13279553390E+00  0.19653187428E-01 0.  0.
         14    1    1    2    0    0  0.23245526604E-01  0.10789988799E-02  0.40861241202E-02  0.23626577323E-01  0.00000000000E+00 0. -1.
     999901    1    3    3    0    0  0.59807116457E-01  0.80235341107E-01  0.57058316677E-01  0.88750788878E+00  0.88000000000E+00 0. -1.
        -11    1    4    4    0    0 -0.17266100864E-01 -0.15332438559E-01 -0.38551175413E-02  0.23416339669E-01  0.51100000000E-03 0.  1.
         11    1    4    4    0    0 -0.65786542196E-01 -0.65981901428E-01 -0.57289323256E-01  0.10937919423E+00  0.51100000000E-03 0. -1.
</event>
<event>
 8    1  0.1204770E+005  0.1043930E+01  0.7957747E-01            NaN
         13   -1    0    0    0    0  0.00000000000E+00  0.00000000000E+00  0.74505805969E-08  0.10566000000E+00  0.10566000000E+00 0. -1.
     999900   -1    0    0    0    0 -0.00000000000E+00 -0.00000000000E+00 -0.74505805969E-08  0.93827000000E+00  0.93827000000E+00 0.  1.
     999902    2    1    2    0    0 -0.16031561090E-01  0.11667713403E-01 -0.13990536150E-01  0.10196631174E+01  0.10193743137E+01 0.  0.
     999903    2    3    3    0    0 -0.46289268808E-01  0.79224249853E-02  0.11818948322E+00  0.12926932053E+00  0.23159060044E-01 0.  0.
         14    1    1    2    0    0  0.16031561090E-01 -0.11667713403E-01  0.13990536150E-01  0.24266882552E-01  0.00000000000E+00 0.  1.
     999901    1    3    3    0    0  0.30257707718E-01  0.37452884181E-02 -0.13218001937E+00  0.89039379691E+00  0.88000000000E+00 0.  1.
        -11    1    4    4    0    0 -0.26654645526E-01 -0.17682449625E-02  0.40247517647E-01  0.48308597745E-01  0.51100000000E-03 0.  1.
         11    1    4    4    0    0 -0.19634623282E-01  0.96906699478E-02  0.77941965577E-01  0.80960722788E-01  0.51100000000E-03 0. -1.
</event>
<event>
 8    1  0.1204770E+005  0.1043930E+01  0.7957747E-01            NaN
         13   -1    0    0    0    0  0.00000000000E+00  0.00000000000E+00  0.74505805969E-08  0.10566000000E+00  0.10566000000E+00 0.  1.
     999900   -1    0    0    0    0 -0.00000000000E+00 -0.00000000000E+00 -0.74505805969E-08  0.93827000000E+00  0.93827000000E+00 0.  1.
     999902    2    1    2    0    0 -0.16881370937E-01 -0.82607513141E-02 -0.80570603437E-02  0.10234816035E+01  0.10232773113E+01 0.  0.
     999903    2    3    3    0    0  0.11229491135E+00  0.58344749625E-01  0.26518437068E-01  0.13089084081E+00  0.20369776136E-01 0.  0.
         14    1    1    2    0    0  0.16881370937E-01  0.82607513141E-02  0.80570603437E-02  0.20448396474E-01  0.00000000000E+00 0. -1.
     999901    1    3    3    0    0 -0.12917628229E+00 -0.66605500939E-01 -0.34575497412E-01  0.89259076271E+00  0.88000000000E+00 0.  1.
        -11    1    4    4    0    0  0.63406231359E-01  0.36284548626E-01  0.54341476548E-02  0.73257830475E-01  0.51100000000E-03 0. -1.
         11    1    4    4    0    0  0.48888679991E-01  0.22060200999E-01  0.21084289413E-01  0.57633010337E-01  0.51100000000E-03 0.  1.
</event>
<event>
 8    1  0.1204770E+005  0.1043930E+01  0.7957747E-01            NaN
         13   -1    0    0    0    0  0.00000000000E+00  0.00000000000E+00  0.74505805969E-08  0.10566000000E+00  0.10566000000E+00 0.  1.
     999900   -1    0    0    0    0 -0.00000000000E+00 -0.00000000000E+00 -0.74505805969E-08  0.93827000000E+00  0.93827000000E+00 0. -1.
     999902    2    1    2    0    0 -0.12014253811E-01 -0.12059986149E-02  0.20250332095E-01  0.10203530478E+01  0.10200806191E+01 0.  0.
     999903    2    3    3    0    0 -0.34149926253E-01  0.10088865192E+00 -0.71088266665E-01  0.12947929391E+00  0.19147019224E-01 0.  0.
         14    1    1    2    0    0  0.12014253811E-01  0.12059986149E-02 -0.20250332095E-01  0.23576952247E-01  0.00000000000E+00 0. -1.
     999901    1    3    3    0    0  0.22135672442E-01 -0.10209465053E+00  0.91338598761E-01  0.89087375384E+00  0.88000000000E+00 0. -1.
        -11    1    4    4    0    0 -0.24120867505E-01  0.78738196401E-01 -0.45125441713E-01  0.93904666723E-01  0.51100000000E-03 0. -1.
         11    1    4    4    0    0 -0.10029058748E-01  0.22150455517E-01 -0.25962824952E-01  0.35574627187E-01  0.51100000000E-03 0.  1.
</event>
<event>
 8    1  0.1204770E+005  0.1043930E+01  0.7957747E-01            NaN
         13   -1    0    0    0    0  0.00000000000E+00  0.00000000000E+00  0.74505805969E-08  0.10566000000E+00  0.10566000000E+00 0. -1.
     999900   -1    0    0    0    0 -0.00000000000E+00 -0.00000000000E+00 -0.74505805969E-08  0.93827000000E+00  0.93827000000E+00 0. -1.
     999902    2    1    2    0    0  0.18675462684E-01 -0.83454244422E-02  0.10162340416E-01  0.10210894182E+01  0.10208339276E+01 0.  0.
     999903    2    3    3    0    0 -0.12609507195E+00 -0.19170598842E-01  0.23265558414E-02  0.12916055799E+00  0.20237535646E-01 0.  0.
         14    1    1    2    0    0 -0.18675462684E-01  0.83454244422E-02 -0.10162340416E-01  0.22840581830E-01  0.00000000000E+00 0. -1.
     999901    1    3    3    0    0  0.14477053463E+00  0.10825174400E-01  0.78357845749E-02  0.89192886018E+00  0.88000000000E+00 0.  1.
        -11    1    4    4    0    0 -0.84252827289E-01 -0.10477510533E-01  0.10807467511E-01  0.85588431508E-01  0.51100000000E-03 0.  1.
         11    1    4    4    0    0 -0.41842244660E-01 -0.86930883093E-02 -0.84809116697E-02  0.43572126484E-01  0.51100000000E-03 0. -1.
</event>
<event>
 8    1  0.1204770E+005  0.1043930E+01  0.7957747E-01            NaN
         13   -1    0    0    0    0  0.00000000000E+00  0.00000000000E+00  0.74505805969E-08  0.10566000000E+00  0.10566000000E+00 0. -1.
     999900   -1    0    0    0    0 -0.00000000000E+00 -0.00000000000E+00 -0.74505805969E-08  0.93827000000E+00  0.93827000000E+00 0. -1.
     999902    2    1    2    0    0  0.40947384067E-02 -0.18300199153E-01  0.14255043435E-01  0.10203743120E+01  0.10201023803E+01 0.  0.
     999903    2    3    3    0    0  0.10808585786E+00 -0.68727311926E-01 -0.24271560960E-01  0.13198174911E+00  0.20593138533E-01 0.  0.
         14    1    1    2    0    0 -0.40947384067E-02  0.18300199153E-01 -0.14255043435E-01  0.23555687954E-01  0.00000000000E+00 0.  1.
     999901    1    3    3    0    0 -0.10399111945E+00  0.50427112773E-01  0.38526604394E-01  0.88839256293E+00  0.88000000000E+00 0. -1.
        -11    1    4    4    0    0  0.23916052151E-01 -0.18222157830E-01 -0.14352417410E-01  0.33320828216E-01  0.51100000000E-03 0.  1.
         11    1    4    4    0    0  0.84169805705E-01 -0.50505154096E-01 -0.99191435496E-02  0.98660920898E-01  0.51100000000E-03 0. -1.
</event>
<event>
 8    1  0.1204770E+005  0.1043930E+01  0.7957747E-01            NaN
         13   -1    0    0    0    0  0.00000000000E+00  0.00000000000E+00  0.74505805969E-08  0.10566000000E+00  0.10566000000E+00 0. -1.
     999900   -1    0    0    0    0 -0.00000000000E+00 -0.00000000000E+00 -0.74505805969E-08  0.93827000000E+00  0.93827000000E+00 0. -1.
     999902    2    1    2    0    0 -0.63942167535E-02 -0.22686754425E-01 -0.57278123280E-02  0.10196733995E+01  0.10193848434E+01 0.  0.
     999903    2    3    3    0    0 -0.82625789100E-01 -0.97484738338E-01 -0.30109269195E-01  0.13288117667E+00  0.20507164308E-01 0.  0.
         14    1    1    2    0    0  0.63942167535E-02  0.22686754425E-01  0.57278123280E-02  0.24256600510E-01  0.00000000000E+00 0. -1.
     999901    1    3    3    0    0  0.76231572347E-01  0.74797983913E-01  0.24381456867E-01  0.88679222282E+00  0.88000000000E+00 0.  1.
        -11    1    4    4    0    0 -0.36104138484E-01 -0.31868409280E-01 -0.18593927778E-01  0.51624602632E-01  0.51100000000E-03 0.  1.
         11    1    4    4    0    0 -0.46521650616E-01 -0.65616329057E-01 -0.11515341418E-01  0.81256574035E-01  0.51100000000E-03 0. -1.
</event>
<event>
 8    1  0.1204770E+005  0.1043930E+01  0.7957747E-01            NaN
         13   -1    0    0    0    0  0.00000000000E+00  0.00000000000E+00  0.74505805969E-08  0.10566000000E+00  0.10566000000E+00 0.  1.
     999900   -1    0    0    0    0 -0.00000000000E+00 -0.00000000000E+00 -0.74505805969E-08  0.93827000000E+00  0.93827000000E+00 0. -1.
     999902    2    1    2    0    0  0.88426827630E-02  0.10451182008E-01 -0.14492351128E-01  0.10239938899E+01  0.10237998037E+01 0.  0.
     999903    2    3    3    0    0 -0.34107099150E-01 -0.25814100649E-01  0.12278316809E+00  0.13157895130E+00  0.20190395146E-01 0.  0.
         14    1    1    2    0    0 -0.88426827630E-02 -0.10451182008E-01  0.14492351128E-01  0.19936110078E-01  0.00000000000E+00 0.  1.
     999901    1    3    3    0    0  0.42949781913E-01  0.36265282657E-01 -0.13727551921E+00  0.89241493862E+00  0.88000000000E+00 0. -1.
        -11    1    4    4    0    0 -0.19713070229E-01 -0.19917074125E-01  0.51665597731E-01  0.58778313088E-01  0.51100000000E-03 0. -1.
         11    1    4    4    0    0 -0.14394028922E-01 -0.58970265240E-02  0.71117570356E-01  0.72800638217E-01  0.51100000000E-03 0.  1.
</event>
<event>
 8    1  0.1204770E+005  0.1043930E+01  0.7957747E-01            NaN
         13   -1    0    0    0    0  0.00000000000E+00  0.00000000000E+00  0.74505805969E-08  0.10566000000E+00  0.10566000000E+00 0.  1.
     999900   -1    0    0    0    0 -0.00000000000E+00 -0.00000000000E+00 -0.74505805969E-08  0.93827000000E+00  0.93827000000E+00 0.  1.
     999902    2    1    2    0    0  0.51160868166E-02  0.60527637799E-02  0.28550194489E-01  0.10143002194E+01  0.10138673538E+01 0.  0.
     999903    2    3    3    0    0  0.14855078300E-01 -0.81213660067E-01  0.95397706164E-01  0.12740740371E+00  0.17764916159E-01 0.  0.
         14    1    1    2    0    0 -0.51160868166E-02 -0.60527637799E-02 -0.28550194489E-01  0.29629780611E-01  0.00000000000E+00 0. -1.
     999901    1    3    3    0    0 -0.97389914833E-02  0.87266423847E-01 -0.66847511675E-01  0.88689281568E+00  0.88000000000E+00 0.  1.
        -11    1    4    4    0    0  0.64113370927E-02 -0.13492355095E-01  0.26532883601E-01  0.30453307250E-01  0.51100000000E-03 0. -1.
         11    1    4    4    0    0  0.84437412073E-02 -0.67721304972E-01  0.68864822563E-01  0.96954096460E-01  0.51100000000E-03 0.  1.
</event>
<event>
 8    1  0.1204770E+005  0.1043930E+01  0.7957747E-01            NaN
         13   -1    0    0    0    0  0.00000000000E+00  0.00000000000E+00  0.74505805969E-08  0.10566000000E+00  0.10566000000E+00 0. -1.
     999900   -1    0    0    0    0 -0.00000000000E+00 -0.00000000000E+00 -0.74505805969E-08  0.93827000000E+00  0.93827000000E+00 0. -1.
     999902    2    1    2    0    0 -0.48407719419E-02 -0.10171034800E-01 -0.17345530608E-01  0.10232478711E+01  0.10230388337E+01 0.  0.
     999903    2    3    3    0    0  0.76042965698E-02  0.97208730013E-01 -0.88256100165E-01  0.13380219968E+00  0.24627766938E-01 0.  0.
         14    1    1    2    0    0  0.48407719419E-02  0.10171034800E-01  0.17345530608E-01  0.20682128855E-01  0.00000000000E+00 0. -1.
     999901    1    3    3    0    0 -0.12445068512E-01 -0.10737976481E+00  0.70910569557E-01  0.88944567147E+00  0.88000000000E+00 0.  1.
        -11    1    4    4    0    0  0.46289043988E-02  0.38983683556E-01 -0.51957020739E-01  0.65122557263E-01  0.51100000000E-03 0. -1.
         11    1    4    4    0    0  0.29753921711E-02  0.58225046457E-01 -0.36299079427E-01  0.68679642412E-01  0.51100000000E-03 0.  1.
</event>
<event>
 8    1  0.1204770E+005  0.1043930E+01  0.7957747E-01            NaN
         13   -1    0    0    0    0  0.00000000000E+00  0.00000000000E+00  0.74505805969E-08  0.10566000000E+00  0.10566000000E+00 0.  1.
     999900   -1    0    0    0    0 -0.00000000000E+00 -0.00000000000E+00 -0.74505805969E-08  0.93827000000E+00  0.93827000000E+00 0. -1.
     999902    2    1    2    0    0 -0.50056933966E-02  0.21233376315E-01 -0.73316183943E-02  0.10209155292E+01  0.10206560890E+01 0.  0.
     999903    2    3    3    0    0 -0.10064400999E+00  0.57910552798E-01 -0.62436896609E-01  0.13326216527E+00  0.19431669057E-01 0.  0.
         14    1    1    2    0    0  0.50056933966E-02 -0.21233376315E-01  0.73316183943E-02  0.23014470761E-01  0.00000000000E+00 0.  1.
     999901    1    3    3    0    0  0.95638316594E-01 -0.36677176483E-01  0.55105278214E-01  0.88765336397E+00  0.88000000000E+00 0.  1.
        -11    1    4    4    0    0 -0.72748146521E-01  0.38070847523E-01 -0.53076074589E-01  0.97770205421E-01  0.51100000000E-03 0. -1.
         11    1    4    4    0    0 -0.27895863470E-01  0.19839705275E-01 -0.93608220200E-02  0.35491959850E-01  0.51100000000E-03 0.  1.
</event>
<event>
 8    1  0.1204770E+005  0.1043930E+01  0.7957747E-01            NaN
         13   -1    0    0    0    0  0.00000000000E+00  0.00000000000E+00  0.74505805969E-08  0.10566000000E+00  0.10566000000E+00 0.  1.
     999900   -1    0    0    0    0 -0.00000000000E+00 -0.00000000000E+00 -0.74505805969E-08  0.93827000000E+00  0.93827000000E+00 0. -1.
     999902    2    1    2    0    0  0.88992188250E-02  0.12758121491E-01 -0.17927187946E-01  0.10201950084E+01  0.10199188719E+01 0.  0.
     999903    2    3    3    0    0 -0.64008068924E-01 -0.90524123629E-01 -0.66931463913E-01  0.12981075772E+00  0.89085414550E-02 0.  0.
         14    1    1    2    0    0 -0.88992188250E-02 -0.12758121491E-01  0.17927187946E-01  0.23734991623E-01  0.00000000000E+00 0.  1.
     999901    1    3    3    0    0  0.72907287749E-01  0.10328224512E+00  0.49004275966E-01  0.89038425066E+00  0.88000000000E+00 0.  1.
        -11    1    4    4    0    0 -0.47739824963E-01 -0.64479668633E-01 -0.52464686118E-01  0.95861999588E-01  0.51100000000E-03 0.  1.
         11    1    4    4    0    0 -0.16268243961E-01 -0.26044454996E-01 -0.14466777795E-01  0.33948758128E-01  0.51100000000E-03 0. -1.
</event>
<event>
 8    1  0.1204770E+005  0.1043930E+01  0.7957747E-01            NaN
         13   -1    0    0    0    0  0.00000000000E+00  0.00000000000E+00  0.74505805969E-08  0.10566000000E+00  0.10566000000E+00 0.  1.
     999900   -1    0    0    0    0 -0.00000000000E+00 -0.00000000000E+00 -0.74505805969E-08  0.93827000000E+00  0.93827000000E+00 0. -1.
     999902    2    1    2    0    0 -0.64092098272E-02  0.23838818839E-02 -0.22479210173E-01  0.10204337077E+01  0.10201631615E+01 0.  0.
     999903    2    3    3    0    0 -0.90285493444E-03 -0.96007256331E-01 -0.89022299821E-01  0.13243645609E+00  0.19905693193E-01 0.  0.
         14    1    1    2    0    0  0.64092098272E-02 -0.23838818839E-02  0.22479210173E-01  0.23496292334E-01  0.00000000000E+00 0.  1.
     999901    1    3    3    0    0 -0.55063548928E-02  0.98391138215E-01  0.66543089648E-01  0.88799725157E+00  0.88000000000E+00 0.  1.
        -11    1    4    4    0    0  0.91330724210E-03 -0.47844005770E-01 -0.57656071222E-01  0.74929077721E-01  0.51100000000E-03 0.  1.
         11    1    4    4    0    0 -0.18161621765E-02 -0.48163250560E-01 -0.31366228599E-01  0.57507378371E-01  0.51100000000E-03 0. -1.
</event>
<event>
 8    1  0.1204770E+005  0.1043930E+01  0.7957747E-01            NaN
         13   -1    0    0    0    0  0.00000000000E+00  0.00000000000E+00  0.74505805969E-08  0.10566000000E+00  0.10566000000E+00 0. -1.
     999900   -1    0    0    0    0 -0.00000000000E+00 -0.00000000000E+00 -0.74505805969E-08  0.93827000000E+00  0.93827000000E+00 0. -1.
     999902    2    1    2    0    0  0.11043801571E-01  0.21055490547E-01 -0.38938659800E-02  0.10198372329E+01  0.10195526078E+01 0.  0.
     999903    2    3    3    0    0 -0.10161268583E+00  0.69875606729E-01 -0.40449869210E-01  0.13056155612E+00  0.14226372728E-01 0.  0.
         14    1    1    2    0    0 -0.11043801571E-01 -0.21055490547E-01  0.38938659800E-02  0.24092767122E-01  0.00000000000E+00 0.  1.
     999901    1    3    3    0    0  0.11265648740E+00 -0.48820116182E-01  0.36556003230E-01  0.88927567676E+00  0.88000000000E+00 0.  1.
        -11    1    4    4    0    0 -0.16701797540E-01  0.15647806450E-01 -0.30588500807E-02  0.23095921124E-01  0.51100000000E-03 0.  1.
         11    1    4    4    0    0 -0.84910888289E-01  0.54227800279E-01 -0.37391019129E-01  0.10746563500E+00  0.51100000000E-03 0. -1.
</event>
<event>
 8    1  0.1204770E+005  0.1043930E+01  0.7957747E-01            NaN
         13   -1    0    0    0    0  0.00000000000E+00  0.00000000000E+00  0.74505805969E-08  0.10566000000E+00  0.10566000000E+00 0. -1.
     999900   -1    0    0    0    0 -0.00000000000E+00 -0.00000000000E+00 -0.74505805969E-08  0.93827000000E+00  0.93827000000E+00 0.  1.
     999902    2    1    2    0    0  0.40844455519E-02 -0.20480194542E-01 -0.95396764595E-02  0.10209707646E+01  0.10207125823E+01 0.  0.
     999903    2    3    3    0    0 -0.82652985722E-01  0.96372262729E-01  0.82059322421E-02  0.12884253087E+00  0.20345303281E-01 0.  0.
         14    1    1    2    0    0 -0.40844455519E-02  0.20480194542E-01  0.95396764595E-02  0.22959235417E-01  0.00000000000E+00 0. -1.
     999901    1    3    3    0    0  0.86737431274E-01 -0.11685245727E+00 -0.17745608702E-01  0.89212823371E+00  0.88000000000E+00 0.  1.
        -11    1    4    4    0    0 -0.14748460843E-01  0.28494055927E-01 -0.27441012444E-02  0.32205892831E-01  0.51100000000E-03 0. -1.
         11    1    4    4    0    0 -0.67904524880E-01  0.67878206802E-01  0.10950033487E-01  0.96636638042E-01  0.51100000000E-03 0.  1.
</event>
<event>
 7    1  0.1204770E+005  0.1043930E+01  0.7957747E-01            NaN
         13   -1    0    0    0    0  0.00000000000E+00  0.00000000000E+00  0.74505805969E-08  0.10566000000E+00  0.10566000000E+00 0.  1.
     999900   -1    0    0    0    0 -0.00000000000E+00 -0.00000000000E+00 -0.74505805969E-08  0.93827000000E+00  0.93827000000E+00 0. -1.
     999903    2    1    2    0    0  0.10158960228E+00 -0.15474113297E-01 -0.50426479829E-01  0.11618977759E+00  0.19933365831E-01 0.  0.
         14    1    1    2    0    0  0.30953017250E-02  0.38568982574E-01 -0.72256843542E-02  0.39361882881E-01  0.00000000000E+00 0. -1.
     999901    1    1    2    0    0 -0.10468490401E+00 -0.23094869277E-01  0.57652164183E-01  0.88837833953E+00  0.88000000000E+00 0. -1.
        -11    1    3    3    0    0  0.23972820782E-01  0.48003671870E-02 -0.11726629993E-01  0.27120373031E-01  0.51100000000E-03 0.  1.
         11    1    3    3    0    0  0.77616781502E-01 -0.20274480484E-01 -0.38699849836E-01  0.89069404556E-01  0.51100000000E-03 0. -1.
</event>
<event>
 8    1  0.1204770E+005  0.1043930E+01  0.7957747E-01            NaN
         13   -1    0    0    0    0  0.00000000000E+00  0.00000000000E+00  0.74505805969E-08  0.10566000000E+00  0.10566000000E+00 0.  1.
     999900   -1    0    0    0    0 -0.00000000000E+00 -0.00000000000E+00 -0.74505805969E-08  0.93827000000E+00  0.93827000000E+00 0. -1.
     999902    2    1    2    0    0 -0.22866664359E-01  0.15311114907E-02  0.12348694608E-02  0.10209788880E+01  0.10207208904E+01 0.  0.
     999903    2    3    3    0    0  0.68766563044E-01  0.66581487066E-01  0.86116818626E-01  0.12978129762E+00  0.16283247517E-01 0.  0.
         14    1    1    2    0    0  0.22866664359E-01 -0.15311114907E-02 -0.12348694608E-02  0.22951112041E-01  0.00000000000E+00 0. -1.
     999901    1    3    3    0    0 -0.91633227403E-01 -0.65050375575E-01 -0.84881949165E-01  0.89119759034E+00  0.88000000000E+00 0. -1.
        -11    1    4    4    0    0  0.14957901120E-01  0.23613578600E-01  0.29393963603E-01  0.40566071014E-01  0.51100000000E-03 0.  1.
         11    1    4    4    0    0  0.53808661924E-01  0.42967908466E-01  0.56722855023E-01  0.89215226609E-01  0.51100000000E-03 0. -1.
</event>
<event>
 8    1  0.1204770E+005  0.1043930E+01  0.7957747E-01            NaN
         13   -1    0    0    0    0  0.00000000000E+00  0.00000000000E+00  0.74505805969E-08  0.10566000000E+00  0.10566000000E+00 0.  1.
     999900   -1    0    0    0    0 -0.00000000000E+00 -0.00000000000E+00 -0.74505805969E-08  0.93827000000E+00  0.93827000000E+00 0.  1.
     999902    2    1    2    0    0  0.43195719036E-03 -0.36686296402E-02  0.22671529175E-01  0.10209595045E+01  0.10207010660E+01 0.  0.
     999903    2    3    3    0    0  0.31858275958E-01 -0.29935498809E-01  0.12531193037E+00  0.13404766335E+00  0.18831152986E-01 0.  0.
         14    1    1    2    0    0 -0.43195719036E-03  0.36686296402E-02 -0.22671529175E-01  0.22970495545E-01  0.00000000000E+00 0. -1.
     999901    1    3    3    0    0 -0.31426318767E-01  0.26266869169E-01 -0.10264040119E+00  0.88691184110E+00  0.88000000000E+00 0.  1.
        -11    1    4    4    0    0  0.32190317673E-02 -0.14892320592E-01  0.39780134172E-01  0.42601215639E-01  0.51100000000E-03 0. -1.
         11    1    4    4    0    0  0.28639244190E-01 -0.15043178217E-01  0.85531796194E-01  0.91446447716E-01  0.51100000000E-03 0.  1.
</event>
<event>
 7    1  0.1204770E+005  0.1043930E+01  0.7957747E-01            NaN
         13   -1    0    0    0    0  0.00000000000E+00  0.00000000000E+00  0.74505805969E-08  0.10566000000E+00  0.10566000000E+00 0. -1.
     999900   -1    0    0    0    0 -0.00000000000E+00 -0.00000000000E+00 -0.74505805969E-08  0.93827000000E+00  0.93827000000E+00 0.  1.
     999903    2    1    2    0    0 -0.94700073523E-01  0.16898832954E-01  0.58446311854E-01  0.11415142739E+00  0.18997434693E-01 0.  0.
         14    1    1    2    0    0 -0.33190769498E-01  0.83900301566E-02 -0.19329631524E-01  0.39314811976E-01  0.00000000000E+00 0. -1.
     999901    1    1    2    0    0  0.12789084302E+00 -0.25288863111E-01 -0.39116680330E-01  0.89046376064E+00  0.88000000000E+00 0.  1.
        -11    1    3    3    0    0 -0.34684729853E-01  0.47123569340E-02  0.32050504187E-01  0.47462961691E-01  0.51100000000E-03 0. -1.
         11    1    3    3    0    0 -0.60015343670E-01  0.12186476020E-01  0.26395807667E-01  0.66688465697E-01  0.51100000000E-03 0.  1.
</event>
<event>
 8    1  0.1204770E+005  0.1043930E+01  0.7957747E-01            NaN
         13   -1    0    0    0    0  0.00000000000E+00  0.00000000000E+00  0.74505805969E-08  0.10566000000E+00  0.10566000000E+00 0.  1.
     999900   -1    0    0    0    0 -0.00000000000E+00 -0.00000000000E+00 -0.74505805969E-08  0.93827000000E+00  0.93827000000E+00 0. -1.
     999902    2    1    2    0    0 -0.55966219487E-02 -0.19005263741E-01 -0.10822186110E-01  0.10213547494E+01  0.10211052258E+01 0.  0.
     999903    2    3    3    0    0  0.11205223876E+00 -0.65704857442E-01  0.12129194457E-01  0.13200168546E+00  0.20112063680E-01 0.  0.
         14    1    1    2    0    0  0.55966219487E-02  0.19005263741E-01  0.10822186110E-01  0.22575250592E-01  0.00000000000E+00 0. -1.
     999901    1    3    3    0    0 -0.11764886070E+00  0.46699593700E-01 -0.22951380567E-01  0.88935306394E+00  0.88000000000E+00 0.  1.
        -11    1    4    4    0    0  0.28429454870E-01 -0.24387708080E-01 -0.26933520329E-02  0.37556750070E-01  0.51100000000E-03 0. -1.
         11    1    4    4    0    0  0.83622783885E-01 -0.41317149361E-01  0.14822546490E-01  0.94444935394E-01  0.51100000000E-03 0.  1.
</event>
<event>
 8    1  0.1204770E+005  0.1043930E+01  0.7957747E-01            NaN
         13   -1    0    0    0    0  0.00000000000E+00  0.00000000000E+00  0.74505805969E-08  0.10566000000E+00  0.10566000000E+00 0.  1.
     999900   -1    0    0    0    0 -0.00000000000E+00 -0.00000000000E+00 -0.74505805969E-08  0.93827000000E+00  0.93827000000E+00 0. -1.
     999902    2    1    2    0    0  0.63216484397E-02  0.21673345024E-01 -0.14130864698E-02  0.10213093471E+01  0.10210588076E+01 0.  0.
     999903    2    3    3    0    0 -0.10969200916E+00 -0.13509307818E-01  0.66461687622E-01  0.13040869454E+00  0.19350282111E-01 0.  0.
         14    1    1    2    0    0 -0.63216484397E-02 -0.21673345024E-01  0.14130864698E-02  0.22620652884E-01  0.00000000000E+00 0. -1.
     999901    1    3    3    0    0  0.11601365760E+00  0.35182652842E-01 -0.67874774092E-01  0.89090065258E+00  0.88000000000E+00 0. -1.
        -11    1    4    4    0    0 -0.85361104814E-01 -0.18505930815E-01  0.50933747005E-01  0.10111130202E+00  0.51100000000E-03 0.  1.
         11    1    4    4    0    0 -0.24330904345E-01  0.49966229970E-02  0.15527940617E-01  0.29297392519E-01  0.51100000000E-03 0. -1.
</event>
<event>
 8    1  0.1204770E+005  0.1043930E+01  0.7957747E-01            NaN
         13   -1    0    0    0    0  0.00000000000E+00  0.00000000000E+00  0.74505805969E-08  0.10566000000E+00  0.10566000000E+00 0. -1.
     999900   -1    0    0    0    0 -0.00000000000E+00 -0.00000000000E+00 -0.74505805969E-08  0.93827000000E+00  0.93827000000E+00 0.  1.
     999902    2    1    2    0    0 -0.14794052018E-03 -0.20816599762E-01  0.25896713338E-01  0.10107036178E+01  0.10101573197E+01 0.  0.
     999903    2    3    3    0    0  0.68378547977E-01 -0.58534364182E-01 -0.78431457739E-01  0.12109534634E+00  0.20265530554E-01 0.  0.
         14    1    1    2    0    0  0.14794052018E-03  0.20816599762E-01 -0.25896713338E-01  0.33226382195E-01  0.00000000000E+00 0.  1.
     999901    1    3    3    0    0 -0.68526488497E-01  0.37717764420E-01  0.10432817108E+00  0.88960827146E+00  0.88000000000E+00 0. -1.
        -11    1    4    4    0    0  0.75281387203E-02 -0.14950686480E-01 -0.90546640400E-02  0.19037961043E-01  0.51100000000E-03 0.  1.
         11    1    4    4    0    0  0.60850409256E-01 -0.43583677702E-01 -0.69376793699E-01  0.10205738530E+00  0.51100000000E-03 0. -1.
</event>
<event>
 8    1  0.1204770E+005  0.1043930E+01  0.7957747E-01            NaN
         13   -1    0    0    0    0  0.00000000000E+00  0.00000000000E+00  0.74505805969E-08  0.10566000000E+00  0.10566000000E+00 0. -1.
     999900   -1    0    0    0    0 -0.00000000000E+00 -0.00000000000E+00 -0.74505805969E-08  0.93827000000E+00  0.93827000000E+00 0.  1.
     999902    2    1    2    0    0  0.85955284730E-02 -0.21313089534E-01 -0.22750507844E-02  0.10208365648E+01  0.10205753207E+01 0.  0.
     999903    2    3    3    0    0  0.12718513005E+00 -0.33599429156E-01 -0.37587081197E-04  0.13279408042E+00  0.18146278835E-01 0.  0.
         14    1    1    2    0    0 -0.85955284730E-02  0.21313089534E-01  0.22750507844E-02  0.23093435243E-01  0.00000000000E+00 0. -1.
     999901    1    3    3    0    0 -0.11858960158E+00  0.12286339621E-01 -0.22374637032E-02  0.88804248434E+00  0.88000000000E+00 0. -1.
        -11    1    4    4    0    0  0.20273693465E-01 -0.62765937842E-02  0.66401043522E-02  0.22243434605E-01  0.51100000000E-03 0. -1.
         11    1    4    4    0    0  0.10691143659E+00 -0.27322835371E-01 -0.66776914334E-02  0.11055064581E+00  0.51100000000E-03 0.  1.
</event>
<event>
 8    1  0.1204770E+005  0.1043930E+01  0.7957747E-01            NaN
         13   -1    0    0    0    0  0.00000000000E+00  0.00000000000E+00  0.74505805969E-08  0.10566000000E+00  0.10566000000E+00 0. -1.
     999900   -1    0    0    0    0 -0.00000000000E+00 -0.00000000000E+00 -0.74505805969E-08  0.93827000000E+00  0.93827000000E+00 0. -1.
     999902    2    1    2    0    0 -0.15832240623E-01 -0.17477459316E-01  0.87847587061E-03  0.10203314164E+01  0.10200584817E+01 0.  0.
     999903    2    3    3    0    0  0.90150072705E-02  0.11739977381E+00 -0.46897680680E-01  0.12842793796E+00  0.20745253646E-01 0.  0.
         14    1    1    2    0    0  0.15832240623E-01  0.17477459316E-01 -0.87847587061E-03  0.23598583584E-01  0.00000000000E+00 0.  1.
     999901    1    3    3    0    0 -0.24847247894E-01 -0.13487723313E+00  0.47776156551E-01  0.89190347845E+00  0.88000000000E+00 0. -1.
        -11    1    4    4    0    0  0.13832258047E-02  0.90870378303E-01 -0.28486136864E-01  0.95242112960E-01  0.51100000000E-03 0.  1.
         11    1    4    4    0    0  0.76317814657E-02  0.26529395509E-01 -0.18411543816E-01  0.33185825002E-01  0.51100000000E-03 0. -1.
</event>
<event>
 8    1  0.1204770E+005  0.1043930E+01  0.7957747E-01            NaN
         13   -1    0    0    0    0  0.00000000000E+00  0.00000000000E+00  0.74505805969E-08  0.10566000000E+00  0.10566000000E+00 0.  1.
     999900   -1    0    0    0    0 -0.00000000000E+00 -0.00000000000E+00 -0.74505805969E-08  0.93827000000E+00  0.93827000000E+00 0.  1.
     999902    2    1    2    0    0 -0.81188333540E-03  0.70744427655E-02 -0.22106526960E-01  0.10207048966E+01  0.10204406305E+01 0.  0.
     999903    2    3    3    0    0 -0.10885249832E+00 -0.58614123267E-01  0.34500800265E-01  0.12986700352E+00  0.19764907011E-01 0.  0.
         14    1    1    2    0    0  0.81188333540E-03 -0.70744427655E-02  0.22106526960E-01  0.23225103428E-01  0.00000000000E+00 0.  1.
     999901    1    3    3    0    0  0.10804061498E+00  0.65688566032E-01 -0.56607327225E-01  0.89083789305E+00  0.88000000000E+00 0.  1.
        -11    1    4    4    0    0 -0.52793271769E-01 -0.39543338797E-01  0.16984641547E-01  0.68114200845E-01  0.51100000000E-03 0. -1.
         11    1    4    4    0    0 -0.56059226549E-01 -0.19070784470E-01  0.17516158717E-01  0.61752802680E-01  0.51100000000E-03 0.  1.
</event>
<event>
 8    1  0.1204770E+005  0.1043930E+01  0.7957747E-01            NaN
         13   -1    0    0    0    0  0.00000000000E+00  0.00000000000E+00  0.74505805969E-08  0.10566000000E+00  0.10566000000E+00 0.  1.
     999900   -1    0    0    0    0 -0.00000000000E+00 -0.00000000000E+00 -0.74505805969E-08  0.93827000000E+00  0.93827000000E+00 0. -1.
     999902    2    1    2    0    0  0.30491612448E-02  0.16192126393E-01 -0.17231015358E-01  0.10200890640E+01  0.10198104276E+01 0.  0.
     999903    2    3    3    0    0 -0.11795333198E+00  0.27757212634E-01  0.41739144229E-01  0.12977853705E+00  0.20417177587E-01 0.  0.
         14    1    1    2    0    0 -0.30491612448E-02 -0.16192126393E-01  0.17231015358E-01  0.23840936049E-01  0.00000000000E+00 0.  1.
     999901    1    3    3    0    0  0.12100249322E+00 -0.11565086241E-01 -0.58970159587E-01  0.89031052690E+00  0.88000000000E+00 0. -1.
        -11    1    4    4    0    0 -0.42882094418E-01  0.91539101720E-02  0.49454952399E-02  0.44129209570E-01  0.51100000000E-03 0. -1.
         11    1    4    4    0    0 -0.75071237559E-01  0.18603302462E-01  0.36793648989E-01  0.85649327482E-01  0.51100000000E-03 0.  1.
</event>
<event>
 8    1  0.1204770E+005  0.1043930E+01  0.7957747E-01            NaN
         13   -1    0    0    0    0  0.00000000000E+00  0.00000000000E+00  0.74505805969E-08  0.10566000000E+00  0.10566000000E+00 0. -1.
     999900   -1    0    0    0    0 -0.00000000000E+00 -0.00000000000E+00 -0.74505805969E-08  0.93827000000E+00  0.93827000000E+00 0.  1.
     999902    2    1    2    0    0  0.13067054155E-01  0.22268825117E-01 -0.16814568312E-02  0.10180557701E+01  0.10177269158E+01 0.  0.
     999903    2    3    3    0    0  0.71189553956E-01 -0.10340378221E+00  0.65753914419E-02  0.12719101899E+00  0.19339720005E-01 0.  0.
         14    1    1    2    0    0 -0.13067054155E-01 -0.22268825117E-01  0.16814568312E-02  0.25874229910E-01  0.00000000000E+00 0.  1.
     999901    1    3    3    0    0 -0.58122499801E-01  0.12567260733E+00 -0.82568482731E-02  0.89086475110E+00  0.88000000000E+00 0. -1.
        -11    1    4    4    0    0  0.44145590302E-02 -0.14504585493E-01  0.50711670771E-02  0.15995286439E-01  0.51100000000E-03 0. -1.
         11    1    4    4    0    0  0.66774994926E-01 -0.88899196719E-01  0.15042243648E-02  0.11119573255E+00  0.51100000000E-03 0.  1.
</event>
<event>
 8    1  0.1204770E+005  0.1043930E+01  0.7957747E-01            NaN
         13   -1    0    0    0    0  0.00000000000E+00  0.00000000000E+00  0.74505805969E-08  0.10566000000E+00  0.10566000000E+00 0.  1.
     999900   -1    0    0    0    0 -0.00000000000E+00 -0.00000000000E+00 -0.74505805969E-08  0.93827000000E+00  0.93827000000E+00 0.  1.
     999902    2    1    2    0    0  0.10738477992E-01  0.54123565719E-03  0.44539663001E-02  0.10322918875E+01  0.10322262811E+01 0.  0.
     999903    2    3    3    0    0 -0.56724056168E-01 -0.72650578020E-01  0.10474059667E+00  0.14101996309E+00  0.20501520987E-01 0.  0.
         14    1    1    2    0    0 -0.10738477992E-01 -0.54123565719E-03 -0.44539663001E-02  0.11638112451E-01  0.00000000000E+00 0. -1.
     999901    1    3    3    0    0  0.67462534160E-01  0.73191813677E-01 -0.10028663037E+00  0.89127192446E+00  0.88000000000E+00 0.  1.
        -11    1    4    4    0    0 -0.18251105244E-01 -0.32659787566E-01  0.54843094019E-01  0.66391194062E-01  0.51100000000E-03 0. -1.
         11    1    4    4    0    0 -0.38472950924E-01 -0.39990790454E-01  0.49897502653E-01  0.74628769023E-01  0.51100000000E-03 0.  1.
</event>
<event>
 8    1  0.1204770E+005  0.1043930E+01  0.7957747E-01            NaN
         13   -1    0    0    0    0  0.00000000000E+00  0.00000000000E+00  0.74505805969E-08  0.10566000000E+00  0.10566000000E+00 0.  1.
     999900   -1    0    0    0    0 -0.00000000000E+00 -0.00000000000E+00 -0.74505805969E-08  0.93827000000E+00  0.93827000000E+00 0. -1.
     999902    2    1    2    0    0  0.48967770612E-02  0.18474059205E-01 -0.13937292630E-01  0.10202758795E+01  0.10200016436E+01 0.  0.
     999903    2    3    3    0    0  0.65806387319E-01  0.11314062556E+00  0.78937912529E-02  0.13283667845E+00  0.21260043153E-01 0.  0.
         14    1    1    2    0    0 -0.48967770612E-02 -0.18474059205E-01  0.13937292630E-01  0.23654120465E-01  0.00000000000E+00 0.  1.
     999901    1    3    3    0    0 -0.60909610258E-01 -0.94666566359E-01 -0.21831083883E-01  0.88743920109E+00  0.88000000000E+00 0. -1.
        -11    1    4    4    0    0  0.36241410965E-01  0.63655810755E-01 -0.61352401783E-02  0.73507852673E-01  0.51100000000E-03 0. -1.
         11    1    4    4    0    0  0.29564976354E-01  0.49484814810E-01  0.14029031431E-01  0.59328825772E-01  0.51100000000E-03 0.  1.
</event>
<event>
 8    1  0.1204770E+005  0.1043930E+01  0.7957747E-01            NaN
         13   -1    0    0    0    0  0.00000000000E+00  0.00000000000E+00  0.74505805969E-08  0.10566000000E+00  0.10566000000E+00 0.  1.
     999900   -1    0    0    0    0 -0.00000000000E+00 -0.00000000000E+00 -0.74505805969E-08  0.93827000000E+00  0.93827000000E+00 0.  1.
     999902    2    1    2    0    0 -0.77256143714E-02 -0.17749693333E-01 -0.14630447271E-01  0.10196650723E+01  0.10193763156E+01 0.  0.
     999903    2    3    3    0    0 -0.85861486763E-01  0.58691088570E-01 -0.76306004401E-01  0.13075996932E+00  0.21417854269E-01 0.  0.
         14    1    1    2    0    0  0.77256143714E-02  0.17749693333E-01  0.14630447271E-01  0.24264927739E-01  0.00000000000E+00 0.  1.
     999901    1    3    3    0    0  0.78135872391E-01 -0.76440781903E-01  0.61675557130E-01  0.88890510294E+00  0.88000000000E+00 0. -1.
        -11    1    4    4    0    0 -0.23819896551E-01  0.25045143998E-01 -0.33925398726E-01  0.48433877702E-01  0.51100000000E-03 0.  1.
         11    1    4    4    0    0 -0.62041590212E-01  0.33645944572E-01 -0.42380605675E-01  0.82326091615E-01  0.51100000000E-03 0. -1.
</event>
<event>
 8    1  0.1204770E+005  0.1043930E+01  0.7957747E-01            NaN
         13   -1    0    0    0    0  0.00000000000E+00  0.00000000000E+00  0.74505805969E-08  0.10566000000E+00  0.10566000000E+00 0. -1.
     999900   -1    0    0    0    0 -0.00000000000E+00 -0.00000000000E+00 -0.74505805969E-08  0.93827000000E+00  0.93827000000E+00 0.  1.
     999902    2    1    2    0    0 -0.93807927060E-02  0.15107400937E-01  0.14151041647E-01  0.10212036977E+01  0.10209507860E+01 0.  0.
     999903    2    3    3    0    0 -0.52935150729E-01  0.11512326651E+00  0.39575270027E-01  0.13410362060E+00  0.19028462481E-01 0.  0.
         14    1    1    2    0    0  0.93807927060E-02 -0.15107400937E-01 -0.14151041647E-01  0.22726302263E-01  0.00000000000E+00 0.  1.
     999901    1    3    3    0    0  0.43554358023E-01 -0.10001586558E+00 -0.25424228379E-01  0.88710007714E+00  0.88000000000E+00 0.  1.
        -11    1    4    4    0    0 -0.21155893630E-01  0.56072887819E-01  0.27596268421E-01  0.65981480246E-01  0.51100000000E-03 0. -1.
         11    1    4    4    0    0 -0.31779257098E-01  0.59050378695E-01  0.11979001606E-01  0.68122140353E-01  0.51100000000E-03 0.  1.
</event>
<event>
 8    1  0.1204770E+005  0.1043930E+01  0.7957747E-01            NaN
         13   -1    0    0    0    0  0.00000000000E+00  0.00000000000E+00  0.74505805969E-08  0.10566000000E+00  0.10566000000E+00 0. -1.
     999900   -1    0    0    0    0 -0.00000000000E+00 -0.00000000000E+00 -0.74505805969E-08  0.93827000000E+00  0.93827000000E+00 0.  1.
     999902    2    1    2    0    0  0.17163311923E-01  0.10158797723E-02  0.16796237414E-01  0.10198940919E+01  0.10196108247E+01 0.  0.
     999903    2    3    3    0    0  0.27003452677E-01 -0.97180537282E-01  0.82720505994E-01  0.13192710270E+00  0.19718900352E-01 0.  0.
         14    1    1    2    0    0 -0.17163311923E-01 -0.10158797723E-02 -0.16796237414E-01  0.24035908120E-01  0.00000000000E+00 0.  1.
     999901    1    3    3    0    0 -0.98401407547E-02  0.98196417054E-01 -0.65924268580E-01  0.88796698918E+00  0.88000000000E+00 0. -1.
        -11    1    4    4    0    0  0.17703142717E-01 -0.51284043357E-01  0.56159791705E-01  0.78087372157E-01  0.51100000000E-03 0. -1.
         11    1    4    4    0    0  0.93003099603E-02 -0.45896493925E-01  0.26560714289E-01  0.53839730539E-01  0.51100000000E-03 0.  1.
</event>
<event>
 8    1  0.1204770E+005  0.1043930E+01  0.7957747E-01            NaN
         13   -1    0    0    0    0  0.00000000000E+00  0.00000000000E+00  0.74505805969E-08  0.10566000000E+00  0.10566000000E+00 0. -1.
     999900   -1    0    0    0    0 -0.00000000000E+00 -0.00000000000E+00 -0.74505805969E-08  0.93827000000E+00  0.93827000000E+00 0.  1.
     999902    2    1    2    0    0 -0.80965210788E-02 -0.50217122098E-02  0.21435383205E-01  0.10204726579E+01  0.10202030183E+01 0.  0.
     999903    2    3    3    0    0  0.11725480116E-01  0.77927942597E-01 -0.99819842812E-01  0.12807342725E+00  0.15117890934E-01 0.  0.
         14    1    1    2    0    0  0.80965210788E-02  0.50217122098E-02 -0.21435383205E-01  0.23457342140E-01  0.00000000000E+00 0.  1.
     999901    1    3    3    0    0 -0.19822001194E-01 -0.82949654807E-01  0.12125522602E+00  0.89239923061E+00  0.88000000000E+00 0. -1.
        -11    1    4    4    0    0  0.11632993709E-01  0.49826954884E-01 -0.54589576732E-01  0.74822022055E-01  0.51100000000E-03 0. -1.
         11    1    4    4    0    0  0.92486407021E-04  0.28100987713E-01 -0.45230266080E-01  0.53251405191E-01  0.51100000000E-03 0.  1.
</event>
<event>
 8    1  0.1204770E+005  0.1043930E+01  0.7957747E-01            NaN
         13   -1    0    0    0    0  0.00000000000E+00  0.00000000000E+00  0.74505805969E-08  0.10566000000E+00  0.10566000000E+00 0.  1.
     999900   -1    0    0    0    0 -0.00000000000E+00 -0.00000000000E+00 -0.74505805969E-08  0.93827000000E+00  0.93827000000E+00 0.  1.
     999902    2    1    2    0    0  0.22020668507E-01  0.62553134194E-02 -0.53776059234E-02  0.10204149531E+01  0.10201439697E+01 0.  0.
     999903    2    3    3    0    0  0.31412769153E-01  0.78187867437E-01 -0.10008693597E+00  0.13236520159E+00  0.20076034416E-01 0.  0.
         14    1    1    2    0    0 -0.22020668507E-01 -0.62553134194E-02  0.53776059234E-02  0.23515046947E-01  0.00000000000E+00 0. -1.
     999901    1    3    3    0    0 -0.93921006469E-02 -0.71932554017E-01  0.94709330051E-01  0.88804975147E+00  0.88000000000E+00 0. -1.
        -11    1    4    4    0    0  0.18372925920E-01  0.43999564155E-01 -0.41116547444E-01  0.62963145152E-01  0.51100000000E-03 0.  1.
         11    1    4    4    0    0  0.13039843233E-01  0.34188303282E-01 -0.58970388530E-01  0.69402056434E-01  0.51100000000E-03 0. -1.
</event>
<event>
 8    1  0.1204770E+005  0.1043930E+01  0.7957747E-01            NaN
         13   -1    0    0    0    0  0.00000000000E+00  0.00000000000E+00  0.74505805969E-08  0.10566000000E+00  0.10566000000E+00 0.  1.
     999900   -1    0    0    0    0 -0.00000000000E+00 -0.00000000000E+00 -0.74505805969E-08  0.93827000000E+00  0.93827000000E+00 0.  1.
     999902    2    1    2    0    0 -0.17399196017E-01 -0.56178737620E-03 -0.15200487139E-01  0.10208193437E+01  0.10205577054E+01 0.  0.
     999903    2    3    3    0    0  0.80360781561E-01 -0.37965124798E-01  0.90438143278E-01  0.12834214894E+00  0.19835410770E-01 0.  0.
         14    1    1    2    0    0  0.17399196017E-01  0.56178737620E-03  0.15200487139E-01  0.23110656338E-01  0.00000000000E+00 0. -1.
     999901    1    3    3    0    0 -0.97759977578E-01  0.37403337422E-01 -0.10563863042E+00  0.89247719472E+00  0.88000000000E+00 0.  1.
        -11    1    4    4    0    0  0.45279955605E-01 -0.29281898117E-01  0.44673005860E-01  0.70026013098E-01  0.51100000000E-03 0. -1.
         11    1    4    4    0    0  0.35080825956E-01 -0.86832266815E-02  0.45765137418E-01  0.58316135840E-01  0.51100000000E-03 0.  1.
</event>
<event>
 8    1  0.1204770E+005  0.1043930E+01  0.7957747E-01            NaN
         13   -1    0    0    0    0  0.00000000000E+00  0.00000000000E+00  0.74505805969E-08  0.10566000000E+00  0.10566000000E+00 0. -1.
     999900   -1    0    0    0    0 -0.00000000000E+00 -0.00000000000E+00 -0.74505805969E-08  0.93827000000E+00  0.93827000000E+00 0.  1.
     999902    2    1    2    0    0  0.37859044764E-02  0.15183992726E-01  0.19306473892E-01  0.10190779047E+01  0.10187748275E+01 0.  0.
     999903    2    3    3    0    0  0.99059976286E-01 -0.74219046576E-01  0.31322774251E-01  0.12935073095E+00  0.20715927056E-01 0.  0.
         14    1    1    2    0    0 -0.37859044764E-02 -0.15183992726E-01 -0.19306473892E-01  0.24852095323E-01  0.00000000000E+00 0.  1.
     999901    1    3    3    0    0 -0.95274071810E-01  0.89403039301E-01 -0.12016300359E-01  0.88972717373E+00  0.88000000000E+00 0.  1.
        -11    1    4    4    0    0  0.42475996999E-01 -0.29530012299E-01  0.28038346065E-02  0.51810757155E-01  0.51100000000E-03 0.  1.
         11    1    4    4    0    0  0.56583979287E-01 -0.44689034277E-01  0.28518939644E-01  0.77539973794E-01  0.51100000000E-03 0. -1.
</event>
<event>
 8    1  0.1204770E+005  0.1043930E+01  0.7957747E-01            NaN
         13   -1    0    0    0    0  0.00000000000E+00  0.00000000000E+00  0.74505805969E-08  0.10566000000E+00  0.10566000000E+00 0. -1.
     999900   -1    0    0    0    0 -0.00000000000E+00 -0.00000000000E+00 -0.74505805969E-08  0.93827000000E+00  0.93827000000E+00 0.  1.
     999902    2    1    2    0    0 -0.26546861131E-02  0.42479276058E-02 -0.22681490420E-01  0.10207019511E+01  0.10204376173E+01 0.  0.
     999903    2    3    3    0    0  0.60684133321E-01  0.78937061162E-01 -0.86061843979E-01  0.13300417488E+00  0.19231377597E-01 0.  0.
         14    1    1    2    0    0  0.26546861131E-02 -0.42479276058E-02  0.22681490420E-01  0.23228048884E-01  0.00000000000E+00 0. -1.
     999901    1    3    3    0    0 -0.63338819434E-01 -0.74689133557E-01  0.63380353560E-01  0.88769777624E+00  0.88000000000E+00 0. -1.
        -11    1    4    4    0    0  0.15583521352E-01  0.34387616628E-01 -0.27621693544E-01  0.46782190952E-01  0.51100000000E-03 0.  1.
         11    1    4    4    0    0  0.45100611969E-01  0.44549444534E-01 -0.58440150436E-01  0.86221983927E-01  0.51100000000E-03 0. -1.
</event>
<event>
 8    1  0.1204770E+005  0.1043930E+01  0.7957747E-01            NaN
         13   -1    0    0    0    0  0.00000000000E+00  0.00000000000E+00  0.74505805969E-08  0.10566000000E+00  0.10566000000E+00 0. -1.
     999900   -1    0    0    0    0 -0.00000000000E+00 -0.00000000000E+00 -0.74505805969E-08  0.93827000000E+00  0.93827000000E+00 0.  1.
     999902    2    1    2    0    0  0.18041715536E-01 -0.23243813166E-02  0.10912471997E-01  0.10227170725E+01  0.10224970524E+01 0.  0.
     999903    2    3    3    0    0  0.28095031244E-01  0.49484188951E-01  0.12008154512E+00  0.13440232893E+00  0.20159186688E-01 0.  0.
         14    1    1    2    0    0 -0.18041715536E-01  0.23243813166E-02 -0.10912471997E-01  0.21212927499E-01  0.00000000000E+00 0. -1.
     999901    1    3    3    0    0 -0.10053315708E-01 -0.51808570267E-01 -0.10916907312E+00  0.88831474357E+00  0.88000000000E+00 0.  1.
        -11    1    4    4    0    0  0.21936232328E-01  0.49077210365E-01  0.10216847968E+00  0.11544882081E+00  0.51100000000E-03 0.  1.
         11    1    4    4    0    0  0.61587989159E-02  0.40697858564E-03  0.17913065443E-01  0.18953508124E-01  0.51100000000E-03 0. -1.
</event>
<event>
 8    1  0.1204770E+005  0.1043930E+01  0.7957747E-01            NaN
         13   -1    0    0    0    0  0.00000000000E+00  0.00000000000E+00  0.74505805969E-08  0.10566000000E+00  0.10566000000E+00 0.  1.
     999900   -1    0    0    0    0 -0.00000000000E+00 -0.00000000000E+00 -0.74505805969E-08  0.93827000000E+00  0.93827000000E+00 0. -1.
     999902    2    1    2    0    0  0.52027211746E-02  0.15234084195E-01  0.17135621564E-01  0.10204188291E+01  0.10201479362E+01 0.  0.
     999903    2    3    3    0    0  0.11074010788E-01  0.36682104810E-01 -0.12056336647E+00  0.12943313849E+00  0.27371545016E-01 0.  0.
         14    1    1    2    0    0 -0.52027211746E-02 -0.15234084195E-01 -0.17135621564E-01  0.23511170861E-01  0.00000000000E+00 0. -1.
     999901    1    3    3    0    0 -0.58712896133E-02 -0.21448020615E-01  0.13769898804E+00  0.89098569065E+00  0.88000000000E+00 0.  1.
        -11    1    4    4    0    0  0.23449659101E-02 -0.20010494044E-03 -0.43358295210E-01  0.43425128574E-01  0.51100000000E-03 0.  1.
         11    1    4    4    0    0  0.87290448778E-02  0.36882209751E-01 -0.77205071263E-01  0.86008009919E-01  0.51100000000E-03 0. -1.
</event>
<event>
 8    1  0.1204770E+005  0.1043930E+01  0.7957747E-01            NaN
         13   -1    0    0    0    0  0.00000000000E+00  0.00000000000E+00  0.74505805969E-08  0.10566000000E+00  0.10566000000E+00 0. -1.
     999900   -1    0    0    0    0 -0.00000000000E+00 -0.00000000000E+00 -0.74505805969E-08  0.93827000000E+00  0.93827000000E+00 0.  1.
     999902    2    1    2    0    0 -0.20317194665E-01 -0.11264955773E-01 -0.30369310145E-02  0.10205011593E+01  0.10202321822E+01 0.  0.
     999903    2    3    3    0    0 -0.94832719891E-01  0.84206302223E-01  0.28817961017E-01  0.13163555709E+00  0.20334672791E-01 0.  0.
         14    1    1    2    0    0  0.20317194665E-01  0.11264955773E-01  0.30369310145E-02  0.23428840723E-01  0.00000000000E+00 0. -1.
     999901    1    3    3    0    0  0.74515525226E-01 -0.95471257996E-01 -0.31854892031E-01  0.88886560219E+00  0.88000000000E+00 0. -1.
        -11    1    4    4    0    0 -0.62614745559E-01  0.67697675445E-01  0.19615036139E-01  0.94279331700E-01  0.51100000000E-03 0.  1.
         11    1    4    4    0    0 -0.32217974332E-01  0.16508626778E-01  0.92029248775E-02  0.37356225391E-01  0.51100000000E-03 0. -1.
</event>
<event>
 8    1  0.1204770E+005  0.1043930E+01  0.7957747E-01            NaN
         13   -1    0    0    0    0  0.00000000000E+00  0.00000000000E+00  0.74505805969E-08  0.10566000000E+00  0.10566000000E+00 0. -1.
     999900   -1    0    0    0    0 -0.00000000000E+00 -0.00000000000E+00 -0.74505805969E-08  0.93827000000E+00  0.93827000000E+00 0. -1.
     999902    2    1    2    0    0 -0.15945378713E-01 -0.15325335422E-01  0.76363479932E-02  0.10205326750E+01  0.10202644294E+01 0.  0.
     999903    2    3    3    0    0  0.19223718678E-01 -0.11025956698E+00  0.68069043512E-01  0.13266923703E+00  0.21000197619E-01 0.  0.
         14    1    1    2    0    0  0.15945378713E-01  0.15325335422E-01 -0.76363479932E-02  0.23397325034E-01  0.00000000000E+00 0. -1.
     999901    1    3    3    0    0 -0.35169097391E-01  0.94934231556E-01 -0.60432695519E-01  0.88786343793E+00  0.88000000000E+00 0. -1.
        -11    1    4    4    0    0  0.72844363420E-02 -0.76620600577E-02  0.62325404506E-02  0.12283153448E-01  0.51100000000E-03 0.  1.
         11    1    4    4    0    0  0.11939282336E-01 -0.10259750692E+00  0.61836503061E-01  0.12038608358E+00  0.51100000000E-03 0. -1.
</event>
<event>
 8    1  0.1204770E+005  0.1043930E+01  0.7957747E-01            NaN
         13   -1    0    0    0    0  0.00000000000E+00  0.00000000000E+00  0.74505805969E-08  0.10566000000E+00  0.10566000000E+00 0. -1.
     999900   -1    0    0    0    0 -0.00000000000E+00 -0.00000000000E+00 -0.74505805969E-08  0.93827000000E+00  0.93827000000E+00 0. -1.
     999902    2    1    2    0    0 -0.20478702058E-02 -0.24024999663E-01  0.17751809181E-02  0.10197526211E+01  0.10194659694E+01 0.  0.
     999903    2    3    3    0    0  0.12465656383E+00 -0.19710864532E-01  0.25825206153E-01  0.13034212588E+00  0.19858283413E-01 0.  0.
         14    1    1    2    0    0  0.20478702058E-02  0.24024999663E-01 -0.17751809181E-02  0.24177378859E-01  0.00000000000E+00 0.  1.
     999901    1    3    3    0    0 -0.12670443403E+00 -0.43141351315E-02 -0.24050025235E-01  0.88941049526E+00  0.88000000000E+00 0.  1.
        -11    1    4    4    0    0  0.85793835282E-01 -0.21696902400E-01  0.22321008083E-01  0.91267881914E-01  0.51100000000E-03 0.  1.
         11    1    4    4    0    0  0.38862728546E-01  0.19860378679E-02  0.35041980701E-02  0.39074243966E-01  0.51100000000E-03 0. -1.
</event>
<event>
 8    1  0.1204770E+005  0.1043930E+01  0.7957747E-01            NaN
         13   -1    0    0    0    0  0.00000000000E+00  0.00000000000E+00  0.74505805969E-08  0.10566000000E+00  0.10566000000E+00 0.  1.
     999900   -1    0    0    0    0 -0.00000000000E+00 -0.00000000000E+00 -0.74505805969E-08  0.93827000000E+00  0.93827000000E+00 0. -1.
     999902    2    1    2    0    0 -0.17234511691E-02 -0.21429742477E-01  0.86030873017E-02  0.10207736346E+01  0.10205109484E+01 0.  0.
     999903    2    3    3    0    0  0.81178691246E-01 -0.10087039559E+00 -0.21735414032E-01  0.13279615335E+00  0.19939245276E-01 0.  0.
         14    1    1    2    0    0  0.17234511691E-02  0.21429742477E-01 -0.86030873017E-02  0.23156365381E-01  0.00000000000E+00 0. -1.
     999901    1    3    3    0    0 -0.82902142415E-01  0.79440653110E-01  0.30338501334E-01  0.88797748127E+00  0.88000000000E+00 0. -1.
        -11    1    4    4    0    0  0.61169331293E-01 -0.88123307408E-01 -0.18024804245E-01  0.10877756703E+00  0.51100000000E-03 0.  1.
         11    1    4    4    0    0  0.20009359953E-01 -0.12747088179E-01 -0.37106097873E-02  0.24018586319E-01  0.51100000000E-03 0. -1.
</event>
<event>
 8    1  0.1204770E+005  0.1043930E+01  0.7957747E-01            NaN
         13   -1    0    0    0    0  0.00000000000E+00  0.00000000000E+00  0.74505805969E-08  0.10566000000E+00  0.10566000000E+00 0.  1.
     999900   -1    0    0    0    0 -0.00000000000E+00 -0.00000000000E+00 -0.74505805969E-08  0.93827000000E+00  0.93827000000E+00 0.  1.
     999902    2    1    2    0    0 -0.17393831449E-01 -0.16418940998E-02 -0.15597513639E-01  0.10205094189E+01  0.10202406336E+01 0.  0.
     999903    2    3    3    0    0 -0.70966089092E-02 -0.12017363339E+00  0.45819058199E-01  0.13038144981E+00  0.20195849593E-01 0.  0.
         14    1    1    2    0    0  0.17393831449E-01  0.16418940998E-02  0.15597513639E-01  0.23420581129E-01  0.00000000000E+00 0.  1.
     999901    1    3    3    0    0 -0.10297222540E-01  0.11853173929E+00 -0.61416571838E-01  0.89012796906E+00  0.88000000000E+00 0.  1.
        -11    1    4    4    0    0  0.59989299708E-02 -0.19375588239E-01  0.54192177720E-02  0.21000705290E-01  0.51100000000E-03 0. -1.
         11    1    4    4    0    0 -0.13095538880E-01 -0.10079804515E+00  0.40399840427E-01  0.10938074452E+00  0.51100000000E-03 0.  1.
</event>
<event>
 8    1  0.1204770E+005  0.1043930E+01  0.7957747E-01            NaN
         13   -1    0    0    0    0  0.00000000000E+00  0.00000000000E+00  0.74505805969E-08  0.10566000000E+00  0.10566000000E+00 0.  1.
     999900   -1    0    0    0    0 -0.00000000000E+00 -0.00000000000E+00 -0.74505805969E-08  0.93827000000E+00  0.93827000000E+00 0.  1.
     999902    2    1    2    0    0 -0.42521485702E-02  0.26708800048E-01 -0.96934799009E-02  0.10152001493E+01  0.10147935449E+01 0.  0.
     999903    2    3    3    0    0  0.31906269051E-01  0.10753176632E+00  0.58254061595E-01  0.12815074177E+00  0.21165683323E-01 0.  0.
         14    1    1    2    0    0  0.42521485702E-02 -0.26708800048E-01  0.96934799009E-02  0.28729850679E-01  0.00000000000E+00 0.  1.
     999901    1    3    3    0    0 -0.36158417622E-01 -0.80822966275E-01 -0.67947541496E-01  0.88704940755E+00  0.88000000000E+00 0.  1.
        -11    1    4    4    0    0  0.34226415826E-01  0.95651494813E-01  0.48391420227E-01  0.11252842607E+00  0.51100000000E-03 0. -1.
         11    1    4    4    0    0 -0.23201467742E-02  0.11880271510E-01  0.98626413682E-02  0.15622315704E-01  0.51100000000E-03 0.  1.
</event>
<event>
 8    1  0.1204770E+005  0.1043930E+01  0.7957747E-01            NaN
         13   -1    0    0    0    0  0.00000000000E+00  0.00000000000E+00  0.74505805969E-08  0.10566000000E+00  0.10566000000E+00 0.  1.
     999900   -1    0    0    0    0 -0.00000000000E+00 -0.00000000000E+00 -0.74505805969E-08  0.93827000000E+00  0.93827000000E+00 0. -1.
     999902    2    1    2    0    0  0.12181868922E-01 -0.20937741017E-01  0.65084310694E-04  0.10197062273E+01  0.10194184611E+01 0.  0.
     999903    2    3    3    0    0 -0.45755721155E-01 -0.78446738520E-01 -0.92020601874E-01  0.13114344235E+00  0.21984869804E-01 0.  0.
         14    1    1    2    0    0 -0.12181868922E-01  0.20937741017E-01 -0.65084310694E-04  0.24223772730E-01  0.00000000000E+00 0. -1.
     999901    1    3    3    0    0  0.57937590077E-01  0.57508997503E-01  0.92085686185E-01  0.88856278492E+00  0.88000000000E+00 0.  1.
        -11    1    4    4    0    0 -0.17902413099E-01 -0.51870678478E-01 -0.56417426887E-01  0.78703563186E-01  0.51100000000E-03 0. -1.
         11    1    4    4    0    0 -0.27853308056E-01 -0.26576060041E-01 -0.35603174987E-01  0.52439879168E-01  0.51100000000E-03 0.  1.
</event>
<event>
 8    1  0.1204770E+005  0.1043930E+01  0.7957747E-01            NaN
         13   -1    0    0    0    0  0.00000000000E+00  0.00000000000E+00  0.74505805969E-08  0.10566000000E+00  0.10566000000E+00 0.  1.
     999900   -1    0    0    0    0 -0.00000000000E+00 -0.00000000000E+00 -0.74505805969E-08  0.93827000000E+00  0.93827000000E+00 0.  1.
     999902    2    1    2    0    0 -0.13739095684E-01 -0.13605365882E-01  0.14261883043E-01  0.10199035554E+01  0.10196205139E+01 0.  0.
     999903    2    3    3    0    0 -0.11174352903E+00  0.36375144770E-02 -0.63630073893E-01  0.13087636639E+00  0.24082964623E-01 0.  0.
         14    1    1    2    0    0  0.13739095684E-01  0.13605365882E-01 -0.14261883043E-01  0.24026444575E-01  0.00000000000E+00 0. -1.
     999901    1    3    3    0    0  0.98004433348E-01 -0.17242880359E-01  0.77891956937E-01  0.88902718903E+00  0.88000000000E+00 0. -1.
        -11    1    4    4    0    0 -0.44818776873E-01 -0.28062338048E-02 -0.38312824218E-01  0.59031612964E-01  0.51100000000E-03 0.  1.
         11    1    4    4    0    0 -0.66924752159E-01  0.64437482819E-02 -0.25317249675E-01  0.71844753431E-01  0.51100000000E-03 0. -1.
</event>
<event>
 8    1  0.1204770E+005  0.1043930E+01  0.7957747E-01            NaN
         13   -1    0    0    0    0  0.00000000000E+00  0.00000000000E+00  0.74505805969E-08  0.10566000000E+00  0.10566000000E+00 0. -1.
     999900   -1    0    0    0    0 -0.00000000000E+00 -0.00000000000E+00 -0.74505805969E-08  0.93827000000E+00  0.93827000000E+00 0. -1.
     999902    2    1    2    0    0 -0.24518537376E-02 -0.23279677606E-01  0.27540350570E-02  0.10203601106E+01  0.10200878470E+01 0.  0.
     999903    2    3    3    0    0  0.11695679129E+00 -0.55287197062E-01  0.17454464682E-01  0.13159748290E+00  0.16663552420E-01 0.  0.
         14    1    1    2    0    0  0.24518537376E-02  0.23279677606E-01 -0.27540350570E-02  0.23569889377E-01  0.00000000000E+00 0. -1.
     999901    1    3    3    0    0 -0.11940864503E+00  0.32007519457E-01 -0.14700429625E-01  0.88876262773E+00  0.88000000000E+00 0.  1.
        -11    1    4    4    0    0  0.42381421058E-01 -0.15113734632E-01  0.12693172028E-01  0.46754545903E-01  0.51100000000E-03 0. -1.
         11    1    4    4    0    0  0.74575370234E-01 -0.40173462430E-01  0.47612926541E-02  0.84842936995E-01  0.51100000000E-03 0.  1.
</event>
<event>
 8    1  0.1204770E+005  0.1043930E+01  0.7957747E-01            NaN
         13   -1    0    0    0    0  0.00000000000E+00  0.00000000000E+00  0.74505805969E-08  0.10566000000E+00  0.10566000000E+00 0. -1.
     999900   -1    0    0    0    0 -0.00000000000E+00 -0.00000000000E+00 -0.74505805969E-08  0.93827000000E+00  0.93827000000E+00 0. -1.
     999902    2    1    2    0    0 -0.21543803310E-01 -0.81689485975E-02  0.62583659497E-02  0.10200546083E+01  0.10197751564E+01 0.  0.
     999903    2    3    3    0    0  0.59633915512E-02 -0.68007216530E-01  0.11054418860E+00  0.13145301208E+00  0.19983323371E-01 0.  0.
         14    1    1    2    0    0  0.21543803310E-01  0.81689485975E-02 -0.62583659497E-02  0.23875391653E-01  0.00000000000E+00 0.  1.
     999901    1    3    3    0    0 -0.27507194861E-01  0.59838267933E-01 -0.10428582265E+00  0.88860159626E+00  0.88000000000E+00 0. -1.
        -11    1    4    4    0    0  0.70833091143E-02 -0.48416401237E-01  0.93170050228E-01  0.10523896881E+00  0.51100000000E-03 0.  1.
         11    1    4    4    0    0 -0.11199175631E-02 -0.19590815293E-01  0.17374138374E-01  0.26214043267E-01  0.51100000000E-03 0. -1.
</event>
<event>
 8    1  0.1204770E+005  0.1043930E+01  0.7957747E-01            NaN
         13   -1    0    0    0    0  0.00000000000E+00  0.00000000000E+00  0.74505805969E-08  0.10566000000E+00  0.10566000000E+00 0.  1.
     999900   -1    0    0    0    0 -0.00000000000E+00 -0.00000000000E+00 -0.74505805969E-08  0.93827000000E+00  0.93827000000E+00 0. -1.
     999902    2    1    2    0    0  0.13242585481E-01 -0.12330820414E-01 -0.15738133383E-01  0.10199486730E+01  0.10196667061E+01 0.  0.
     999903    2    3    3    0    0 -0.48896089060E-01  0.11689521229E+00 -0.38169385151E-02  0.12826336007E+00  0.19534644486E-01 0.  0.
         14    1    1    2    0    0 -0.13242585481E-01  0.12330820414E-01  0.15738133383E-01  0.23981327000E-01  0.00000000000E+00 0.  1.
     999901    1    3    3    0    0  0.62138674541E-01 -0.12922603271E+00 -0.11921194868E-01  0.89168531293E+00  0.88000000000E+00 0. -1.
        -11    1    4    4    0    0 -0.19970090079E-01  0.60378104378E-01  0.65413955955E-02  0.63932550109E-01  0.51100000000E-03 0.  1.
         11    1    4    4    0    0 -0.28925998981E-01  0.56517107914E-01 -0.10358334111E-01  0.64330809964E-01  0.51100000000E-03 0. -1.
</event>
<event>
 8    1  0.1204770E+005  0.1043930E+01  0.7957747E-01            NaN
         13   -1    0    0    0    0  0.00000000000E+00  0.00000000000E+00  0.74505805969E-08  0.10566000000E+00  0.10566000000E+00 0. -1.
     999900   -1    0    0    0    0 -0.00000000000E+00 -0.00000000000E+00 -0.74505805969E-08  0.93827000000E+00  0.93827000000E+00 0.  1.
     999902    2    1    2    0    0  0.14307677390E-01  0.14596803791E-01 -0.12004625287E-01  0.10202258370E+01  0.10199504259E+01 0.  0.
     999903    2    3    3    0    0  0.53543120886E-01 -0.11527484314E+00  0.98287250977E-02  0.12956161305E+00  0.23118228397E-01 0.  0.
         14    1    1    2    0    0 -0.14307677390E-01 -0.14596803791E-01  0.12004625287E-01  0.23704162957E-01  0.00000000000E+00 0. -1.
     999901    1    3    3    0    0 -0.39235443496E-01  0.12987164694E+00 -0.21833350385E-01  0.89066422399E+00  0.88000000000E+00 0.  1.
        -11    1    4    4    0    0  0.22404702893E-01 -0.44600627179E-01  0.15105579322E-01  0.52150036473E-01  0.51100000000E-03 0.  1.
         11    1    4    4    0    0  0.31138417993E-01 -0.70674215965E-01 -0.52768542242E-02  0.77411576582E-01  0.51100000000E-03 0. -1.
</event>
<event>
 8    1  0.1204770E+005  0.1043930E+01  0.7957747E-01            NaN
         13   -1    0    0    0    0  0.00000000000E+00  0.00000000000E+00  0.74505805969E-08  0.10566000000E+00  0.10566000000E+00 0. -1.
     999900   -1    0    0    0    0 -0.00000000000E+00 -0.00000000000E+00 -0.74505805969E-08  0.93827000000E+00  0.93827000000E+00 0. -1.
     999902    2    1    2    0    0  0.60355356152E-02 -0.13873862016E-01 -0.16527304154E-01  0.10215232260E+01  0.10212774539E+01 0.  0.
     999903    2    3    3    0    0 -0.34743811907E-01 -0.28109142692E-01 -0.12460355062E+00  0.13385996022E+00  0.19879329861E-01 0.  0.
         14    1    1    2    0    0 -0.60355356152E-02  0.13873862016E-01  0.16527304154E-01  0.22406773975E-01  0.00000000000E+00 0. -1.
     999901    1    3    3    0    0  0.40779347523E-01  0.14235280676E-01  0.10807624647E+00  0.88766326580E+00  0.88000000000E+00 0.  1.
        -11    1    4    4    0    0 -0.84719345339E-02 -0.16072933192E-02 -0.46529502079E-01  0.47324547027E-01  0.51100000000E-03 0.  1.
         11    1    4    4    0    0 -0.26271877373E-01 -0.26501849373E-01 -0.78074048540E-01  0.86535413198E-01  0.51100000000E-03 0. -1.
</event>
<event>
 8    1  0.1204770E+005  0.1043930E+01  0.7957747E-01            NaN
         13   -1    0    0    0    0  0.00000000000E+00  0.00000000000E+00  0.74505805969E-08  0.10566000000E+00  0.10566000000E+00 0. -1.
     999900   -1    0    0    0    0 -0.00000000000E+00 -0.00000000000E+00 -0.74505805969E-08  0.93827000000E+00  0.93827000000E+00 0. -1.
     999902    2    1    2    0    0 -0.12451493581E-01  0.11056907887E-01 -0.16161870980E-01  0.10207243762E+01  0.10204605583E+01 0.  0.
     999903    2    3    3    0    0  0.77783543673E-03 -0.12034778385E+00  0.41917967585E-01  0.12897582650E+00  0.19835667630E-01 0.  0.
         14    1    1    2    0    0  0.12451493581E-01 -0.11056907887E-01  0.16161870980E-01  0.23205623845E-01  0.00000000000E+00 0. -1.
     999901    1    3    3    0    0 -0.13229329018E-01  0.13140469174E+00 -0.58079838565E-01  0.89174854965E+00  0.88000000000E+00 0. -1.
        -11    1    4    4    0    0 -0.54053026549E-02 -0.55378521022E-01  0.27797408678E-01  0.62200923929E-01  0.51100000000E-03 0.  1.
         11    1    4    4    0    0  0.61831380916E-02 -0.64969262828E-01  0.14120558907E-01  0.66774902575E-01  0.51100000000E-03 0. -1.
</event>
<event>
 8    1  0.1204770E+005  0.1043930E+01  0.7957747E-01            NaN
         13   -1    0    0    0    0  0.00000000000E+00  0.00000000000E+00  0.74505805969E-08  0.10566000000E+00  0.10566000000E+00 0.  1.
     999900   -1    0    0    0    0 -0.00000000000E+00 -0.00000000000E+00 -0.74505805969E-08  0.93827000000E+00  0.93827000000E+00 0.  1.
     999902    2    1    2    0    0  0.11807966019E-02 -0.20281319393E-01 -0.11129643124E-01  0.10207654764E+01  0.10205026030E+01 0.  0.
     999903    2    3    3    0    0  0.43530600933E-02  0.87360064791E-01 -0.94365907719E-01  0.13030211019E+00  0.20566607094E-01 0.  0.
         14    1    1    2    0    0 -0.11807966019E-02  0.20281319393E-01  0.11129643124E-01  0.23164523587E-01  0.00000000000E+00 0.  1.
     999901    1    3    3    0    0 -0.31722634914E-02 -0.10764138418E+00  0.83236264595E-01  0.89046336622E+00  0.88000000000E+00 0.  1.
        -11    1    4    4    0    0 -0.23560744311E-03  0.83628772727E-01 -0.90463834075E-01  0.12319818804E+00  0.51100000000E-03 0. -1.
         11    1    4    4    0    0  0.45886675364E-02  0.37312920635E-02 -0.39020736443E-02  0.71039221525E-02  0.51100000000E-03 0.  1.
</event>
<event>
 8    1  0.1204770E+005  0.1043930E+01  0.7957747E-01            NaN
         13   -1    0    0    0    0  0.00000000000E+00  0.00000000000E+00  0.74505805969E-08  0.10566000000E+00  0.10566000000E+00 0.  1.
     999900   -1    0    0    0    0 -0.00000000000E+00 -0.00000000000E+00 -0.74505805969E-08  0.93827000000E+00  0.93827000000E+00 0. -1.
     999902    2    1    2    0    0  0.64524847889E-03 -0.20182950005E-01 -0.11049428088E-01  0.10209113624E+01  0.10206518271E+01 0.  0.
     999903    2    3    3    0    0  0.69265955657E-01 -0.10598705627E+00 -0.38642880858E-01  0.13365010168E+00  0.18386101544E-01 0.  0.
         14    1    1    2    0    0 -0.64524847889E-03  0.20182950005E-01  0.11049428088E-01  0.23018637614E-01  0.00000000000E+00 0. -1.
     999901    1    3    3    0    0 -0.68620707178E-01  0.85804106262E-01  0.27593452770E-01  0.88726126070E+00  0.88000000000E+00 0. -1.
        -11    1    4    4    0    0  0.51735830767E-01 -0.84293016253E-01 -0.22543178298E-01  0.10144143524E+00  0.51100000000E-03 0. -1.
         11    1    4    4    0    0  0.17530124890E-01 -0.21694040015E-01 -0.16099702560E-01  0.32208666448E-01  0.51100000000E-03 0.  1.
</event>
<event>
 8    1  0.1204770E+005  0.1043930E+01  0.7957747E-01            NaN
         13   -1    0    0    0    0  0.00000000000E+00  0.00000000000E+00  0.74505805969E-08  0.10566000000E+00  0.10566000000E+00 0. -1.
     999900   -1    0    0    0    0 -0.00000000000E+00 -0.00000000000E+00 -0.74505805969E-08  0.93827000000E+00  0.93827000000E+00 0. -1.
     999902    2    1    2    0    0 -0.13002669311E-01 -0.18878121834E-01 -0.32337484801E-02  0.10207802695E+01  0.10205177355E+01 0.  0.
     999903    2    3    3    0    0 -0.81259922473E-01 -0.16334249196E-01 -0.10165401575E+00  0.13266311906E+00  0.19899284984E-01 0.  0.
         14    1    1    2    0    0  0.13002669311E-01  0.18878121834E-01  0.32337484801E-02  0.23149730504E-01  0.00000000000E+00 0. -1.
     999901    1    3    3    0    0  0.68257253162E-01 -0.25438726377E-02  0.98420267267E-01  0.88811715044E+00  0.88000000000E+00 0.  1.
        -11    1    4    4    0    0 -0.10236699720E-01 -0.43709157033E-02 -0.25581628087E-01  0.27902970125E-01  0.51100000000E-03 0. -1.
         11    1    4    4    0    0 -0.71023222753E-01 -0.11963333493E-01 -0.76072387660E-01  0.10476014893E+00  0.51100000000E-03 0.  1.
</event>
<event>
 8    1  0.1204770E+005  0.1043930E+01  0.7957747E-01            NaN
         13   -1    0    0    0    0  0.00000000000E+00  0.00000000000E+00  0.74505805969E-08  0.10566000000E+00  0.10566000000E+00 0.  1.
     999900   -1    0    0    0    0 -0.00000000000E+00 -0.00000000000E+00 -0.74505805969E-08  0.93827000000E+00  0.93827000000E+00 0.  1.
     999902    2    1    2    0    0  0.16643190723E-01  0.36649946634E-03  0.16845669160E-01  0.10202465313E+01  0.10199716065E+01 0.  0.
     999903    2    3    3    0    0 -0.92343058345E-02 -0.93132621088E-01  0.90672814665E-01  0.13184224397E+00  0.20046457539E-01 0.  0.
         14    1    1    2    0    0 -0.16643190723E-01 -0.36649946634E-03 -0.16845669160E-01  0.23683468681E-01  0.00000000000E+00 0. -1.
     999901    1    3    3    0    0  0.25877496557E-01  0.93499120554E-01 -0.73827145505E-01  0.88840428735E+00  0.88000000000E+00 0.  1.
        -11    1    4    4    0    0  0.86755762307E-03 -0.54803081242E-01  0.62946704593E-01  0.83466634711E-01  0.51100000000E-03 0. -1.
         11    1    4    4    0    0 -0.10101863458E-01 -0.38329539846E-01  0.27726110072E-01  0.48375609256E-01  0.51100000000E-03 0.  1.
</event>
<event>
 8    1  0.1204770E+005  0.1043930E+01  0.7957747E-01            NaN
         13   -1    0    0    0    0  0.00000000000E+00  0.00000000000E+00  0.74505805969E-08  0.10566000000E+00  0.10566000000E+00 0. -1.
     999900   -1    0    0    0    0 -0.00000000000E+00 -0.00000000000E+00 -0.74505805969E-08  0.93827000000E+00  0.93827000000E+00 0. -1.
     999902    2    1    2    0    0  0.18496269262E-01  0.42001700698E-02 -0.13086442980E-01  0.10208863806E+01  0.10206262752E+01 0.  0.
     999903    2    3    3    0    0 -0.81423992478E-01 -0.40836702351E-01 -0.91484954440E-01  0.13062871836E+00  0.19921404576E-01 0.  0.
         14    1    1    2    0    0 -0.18496269262E-01 -0.42001700698E-02  0.13086442980E-01  0.23043619401E-01  0.00000000000E+00 0. -1.
     999901    1    3    3    0    0  0.99920261740E-01  0.45036872421E-01  0.78398511460E-01  0.89025766224E+00  0.88000000000E+00 0.  1.
        -11    1    4    4    0    0 -0.12365821042E-01 -0.14770722509E-01 -0.15950258936E-01  0.25015188478E-01  0.51100000000E-03 0.  1.
         11    1    4    4    0    0 -0.69058171436E-01 -0.26065979843E-01 -0.75534695504E-01  0.10561352988E+00  0.51100000000E-03 0. -1.
</event>
<event>
 8    1  0.1204770E+005  0.1043930E+01  0.7957747E-01            NaN
         13   -1    0    0    0    0  0.00000000000E+00  0.00000000000E+00  0.74505805969E-08  0.10566000000E+00  0.10566000000E+00 0. -1.
     999900   -1    0    0    0    0 -0.00000000000E+00 -0.00000000000E+00 -0.74505805969E-08  0.93827000000E+00  0.93827000000E+00 0. -1.
     999902    2    1    2    0    0 -0.10642544519E-01 -0.21341039879E-01  0.18968883386E-03  0.10200817355E+01  0.10198029258E+01 0.  0.
     999903    2    3    3    0    0 -0.81617275462E-01 -0.95275158347E-01 -0.40259761271E-01  0.13321093077E+00  0.19635891785E-01 0.  0.
         14    1    1    2    0    0  0.10642544519E-01  0.21341039879E-01 -0.18968883386E-03  0.23848264482E-01  0.00000000000E+00 0. -1.
     999901    1    3    3    0    0  0.70974730943E-01  0.73934118468E-01  0.40449450105E-01  0.88687080475E+00  0.88000000000E+00 0.  1.
        -11    1    4    4    0    0 -0.64058240720E-01 -0.70487011555E-01 -0.21969150730E-01  0.97748563708E-01  0.51100000000E-03 0. -1.
         11    1    4    4    0    0 -0.17559034742E-01 -0.24788146792E-01 -0.18290610541E-01  0.35462367059E-01  0.51100000000E-03 0.  1.
</event>
<event>
 8    1  0.1204770E+005  0.1043930E+01  0.7957747E-01            NaN
         13   -1    0    0    0    0  0.00000000000E+00  0.00000000000E+00  0.74505805969E-08  0.10566000000E+00  0.10566000000E+00 0.  1.
     999900   -1    0    0    0    0 -0.00000000000E+00 -0.00000000000E+00 -0.74505805969E-08  0.93827000000E+00  0.93827000000E+00 0.  1.
     999902    2    1    2    0    0 -0.15559676480E-01 -0.13738962109E-01 -0.10725168262E-01  0.10205656715E+01  0.10202981907E+01 0.  0.
     999903    2    3    3    0    0 -0.12657717581E+00  0.29759083870E-01 -0.16129938475E-01  0.13250814144E+00  0.19769879161E-01 0.  0.
         14    1    1    2    0    0  0.15559676480E-01  0.13738962109E-01  0.10725168262E-01  0.23364328500E-01  0.00000000000E+00 0. -1.
     999901    1    3    3    0    0  0.11101749933E+00 -0.43498045979E-01  0.54047702124E-02  0.88805753006E+00  0.88000000000E+00 0. -1.
        -11    1    4    4    0    0 -0.18230648073E-01 -0.77564168916E-03  0.24463179267E-02  0.18417484670E-01  0.51100000000E-03 0. -1.
         11    1    4    4    0    0 -0.10834652774E+00  0.30534725559E-01 -0.18576256401E-01  0.11409065677E+00  0.51100000000E-03 0.  1.
</event>
<event>
 8    1  0.1204770E+005  0.1043930E+01  0.7957747E-01            NaN
         13   -1    0    0    0    0  0.00000000000E+00  0.00000000000E+00  0.74505805969E-08  0.10566000000E+00  0.10566000000E+00 0.  1.
     999900   -1    0    0    0    0 -0.00000000000E+00 -0.00000000000E+00 -0.74505805969E-08  0.93827000000E+00  0.93827000000E+00 0.  1.
     999902    2    1    2    0    0 -0.15898418084E-01  0.69314442057E-02  0.16305199068E-01  0.10201252918E+01  0.10198475115E+01 0.  0.
     999903    2    3    3    0    0 -0.60540651715E-01  0.79086414924E-02  0.11707903622E+00  0.13324917294E+00  0.17892016280E-01 0.  0.
         14    1    1    2    0    0  0.15898418084E-01 -0.69314442057E-02 -0.16305199068E-01  0.23804708211E-01  0.00000000000E+00 0. -1.
     999901    1    3    3    0    0  0.44642233631E-01 -0.97719728673E-03 -0.10077383715E+00  0.88687611885E+00  0.88000000000E+00 0.  1.
        -11    1    4    4    0    0 -0.39001599357E-01  0.13635599164E-01  0.77153441812E-01  0.87521248971E-01  0.51100000000E-03 0. -1.
         11    1    4    4    0    0 -0.21539052358E-01 -0.57269576721E-02  0.39925594403E-01  0.45727923965E-01  0.51100000000E-03 0.  1.
</event>
<event>
 8    1  0.1204770E+005  0.1043930E+01  0.7957747E-01            NaN
         13   -1    0    0    0    0  0.00000000000E+00  0.00000000000E+00  0.74505805969E-08  0.10566000000E+00  0.10566000000E+00 0. -1.
     999900   -1    0    0    0    0 -0.00000000000E+00 -0.00000000000E+00 -0.74505805969E-08  0.93827000000E+00  0.93827000000E+00 0.  1.
     999902    2    1    2    0    0  0.15246378814E-01 -0.17037290137E-01 -0.81733028981E-02  0.10196498805E+01  0.10193607578E+01 0.  0.
     999903    2    3    3    0    0  0.73120193332E-01  0.94329974402E-01  0.45050139798E-01  0.12915295134E+00  0.20155966842E-01 0.  0.
         14    1    1    2    0    0 -0.15246378814E-01  0.17037290137E-01  0.81733028981E-02  0.24280119490E-01  0.00000000000E+00 0.  1.
     999901    1    3    3    0    0 -0.57873814518E-01 -0.11136726454E+00 -0.53223442696E-01  0.89049692917E+00  0.88000000000E+00 0.  1.
        -11    1    4    4    0    0  0.29035524461E-01  0.49422512541E-01  0.14145639163E-01  0.59042414034E-01  0.51100000000E-03 0.  1.
         11    1    4    4    0    0  0.44084668871E-01  0.44907461860E-01  0.30904500635E-01  0.70110537302E-01  0.51100000000E-03 0. -1.
</event>
<event>
 8    1  0.1204770E+005  0.1043930E+01  0.7957747E-01            NaN
         13   -1    0    0    0    0  0.00000000000E+00  0.00000000000E+00  0.74505805969E-08  0.10566000000E+00  0.10566000000E+00 0. -1.
     999900   -1    0    0    0    0 -0.00000000000E+00 -0.00000000000E+00 -0.74505805969E-08  0.93827000000E+00  0.93827000000E+00 0. -1.
     999902    2    1    2    0    0 -0.69039371529E-02  0.21368742974E-01  0.26203424361E-02  0.10213212911E+01  0.10210710190E+01 0.  0.
     999903    2    3    3    0    0 -0.93093941526E-01 -0.83063237096E-01  0.21159864520E-01  0.13077175894E+00  0.32977716181E-01 0.  0.
         14    1    1    2    0    0  0.69039371529E-02 -0.21368742974E-01 -0.26203424361E-02  0.22608708919E-01  0.00000000000E+00 0.  1.
     999901    1    3    3    0    0  0.86190004373E-01  0.10443198007E+00 -0.18539522084E-01  0.89054953214E+00  0.88000000000E+00 0. -1.
        -11    1    4    4    0    0 -0.25581310656E-01 -0.81429882142E-02 -0.31372098422E-02  0.27033588710E-01  0.51100000000E-03 0.  1.
         11    1    4    4    0    0 -0.67512630869E-01 -0.74920248882E-01  0.24297074362E-01  0.10373817023E+00  0.51100000000E-03 0. -1.
</event>
<event>
 8    1  0.1204770E+005  0.1043930E+01  0.7957747E-01            NaN
         13   -1    0    0    0    0  0.00000000000E+00  0.00000000000E+00  0.74505805969E-08  0.10566000000E+00  0.10566000000E+00 0. -1.
     999900   -1    0    0    0    0 -0.00000000000E+00 -0.00000000000E+00 -0.74505805969E-08  0.93827000000E+00  0.93827000000E+00 0.  1.
     999902    2    1    2    0    0 -0.74863248644E-02 -0.21912061213E-01 -0.13293638920E-02  0.10207362359E+01  0.10204726907E+01 0.  0.
     999903    2    3    3    0    0  0.17737852787E-01 -0.23887676568E-01 -0.12622600789E+00  0.13155721346E+00  0.22114312831E-01 0.  0.
         14    1    1    2    0    0  0.74863248644E-02  0.21912061213E-01  0.13293638920E-02  0.23193764139E-01  0.00000000000E+00 0.  1.
     999901    1    3    3    0    0 -0.25224177652E-01  0.19756153551E-02  0.12489664400E+00  0.88917902240E+00  0.88000000000E+00 0. -1.
        -11    1    4    4    0    0  0.17264772253E-01 -0.88458249282E-02 -0.45926545900E-01  0.49858095821E-01  0.51100000000E-03 0. -1.
         11    1    4    4    0    0  0.47308053446E-03 -0.15041851640E-01 -0.80299461992E-01  0.81699117640E-01  0.51100000000E-03 0.  1.
</event>
<event>
 8    1  0.1204770E+005  0.1043930E+01  0.7957747E-01            NaN
         13   -1    0    0    0    0  0.00000000000E+00  0.00000000000E+00  0.74505805969E-08  0.10566000000E+00  0.10566000000E+00 0.  1.
     999900   -1    0    0    0    0 -0.00000000000E+00 -0.00000000000E+00 -0.74505805969E-08  0.93827000000E+00  0.93827000000E+00 0. -1.
     999902    2    1    2    0    0 -0.22632531302E-02  0.20558046002E-01 -0.12427684715E-01  0.10198011186E+01  0.10195156294E+01 0.  0.
     999903    2    3    3    0    0  0.31595968272E-04  0.73886243686E-02  0.12694678859E+00  0.12873212924E+00  0.20046974718E-01 0.  0.
         14    1    1    2    0    0  0.22632531302E-02 -0.20558046002E-01  0.12427684715E-01  0.24128881399E-01  0.00000000000E+00 0.  1.
     999901    1    3    3    0    0 -0.22948490985E-02  0.13169421634E-01 -0.13937447331E+00  0.89106898937E+00  0.88000000000E+00 0. -1.
        -11    1    4    4    0    0  0.40024030268E-02  0.13462286638E-01  0.87162581126E-01  0.88288329133E-01  0.51100000000E-03 0.  1.
         11    1    4    4    0    0 -0.39708070585E-02 -0.60736622695E-02  0.39784207467E-01  0.40443800103E-01  0.51100000000E-03 0. -1.
</event>
<event>
 8    1  0.1204770E+005  0.1043930E+01  0.7957747E-01            NaN
         13   -1    0    0    0    0  0.00000000000E+00  0.00000000000E+00  0.74505805969E-08  0.10566000000E+00  0.10566000000E+00 0. -1.
     999900   -1    0    0    0    0 -0.00000000000E+00 -0.00000000000E+00 -0.74505805969E-08  0.93827000000E+00  0.93827000000E+00 0.  1.
     999902    2    1    2    0    0 -0.20669510490E-01 -0.99888255330E-02 -0.87448526382E-02  0.10193642159E+01  0.10190681660E+01 0.  0.
     999903    2    3    3    0    0 -0.11534532268E+00  0.59730883932E-01 -0.43431932763E-04  0.13150157902E+00  0.20502230077E-01 0.  0.
         14    1    1    2    0    0  0.20669510490E-01  0.99888255330E-02  0.87448526382E-02  0.24565784072E-01  0.00000000000E+00 0. -1.
     999901    1    3    3    0    0  0.94675812189E-01 -0.69719709465E-01 -0.87014207055E-02  0.88786263691E+00  0.88000000000E+00 0.  1.
        -11    1    4    4    0    0 -0.69805114604E-01  0.46934700306E-01  0.21280559313E-02  0.84145171345E-01  0.51100000000E-03 0.  1.
         11    1    4    4    0    0 -0.45540208075E-01  0.12796183626E-01 -0.21714878641E-02  0.47356407671E-01  0.51100000000E-03 0. -1.
</event>
<event>
 8    1  0.1204770E+005  0.1043930E+01  0.7957747E-01            NaN
         13   -1    0    0    0    0  0.00000000000E+00  0.00000000000E+00  0.74505805969E-08  0.10566000000E+00  0.10566000000E+00 0.  1.
     999900   -1    0    0    0    0 -0.00000000000E+00 -0.00000000000E+00 -0.74505805969E-08  0.93827000000E+00  0.93827000000E+00 0.  1.
     999902    2    1    2    0    0  0.94453103882E-02 -0.17366218330E-01  0.14126736585E-01  0.10196325904E+01  0.10193430508E+01 0.  0.
     999903    2    3    3    0    0  0.11153857169E+00  0.53223246338E-01 -0.33763421516E-01  0.12963294220E+00  0.19777870109E-01 0.  0.
         14    1    1    2    0    0 -0.94453103882E-02  0.17366218330E-01 -0.14126736585E-01  0.24297409614E-01  0.00000000000E+00 0.  1.
     999901    1    3    3    0    0 -0.10209326130E+00 -0.70589464668E-01  0.47890158100E-01  0.88999964818E+00  0.88000000000E+00 0.  1.
        -11    1    4    4    0    0  0.83651666571E-01  0.46407312127E-01 -0.31971911087E-01  0.10086478156E+00  0.51100000000E-03 0.  1.
         11    1    4    4    0    0  0.27886905119E-01  0.68159342109E-02 -0.17915104291E-02  0.28768160645E-01  0.51100000000E-03 0. -1.
</event>
<event>
 8    1  0.1204770E+005  0.1043930E+01  0.7957747E-01            NaN
         13   -1    0    0    0    0  0.00000000000E+00  0.00000000000E+00  0.74505805969E-08  0.10566000000E+00  0.10566000000E+00 0. -1.
     999900   -1    0    0    0    0 -0.00000000000E+00 -0.00000000000E+00 -0.74505805969E-08  0.93827000000E+00  0.93827000000E+00 0. -1.
     999902    2    1    2    0    0 -0.14705942302E-01  0.12035983169E-01  0.13735176407E-01  0.10204825118E+01  0.10202131014E+01 0.  0.
     999903    2    3    3    0    0  0.12205868935E+00  0.34081457428E-01  0.18690702458E-01  0.12963172488E+00  0.19878942380E-01 0.  0.
         14    1    1    2    0    0  0.14705942302E-01 -0.12035983169E-01 -0.13735176407E-01  0.23447488155E-01  0.00000000000E+00 0.  1.
     999901    1    3    3    0    0 -0.13676463165E+00 -0.22045474259E-01 -0.49555260511E-02  0.89085078697E+00  0.88000000000E+00 0.  1.
        -11    1    4    4    0    0  0.46591241361E-01  0.16365418584E-01 -0.19067099022E-02  0.49421324959E-01  0.51100000000E-03 0.  1.
         11    1    4    4    0    0  0.75467447987E-01  0.17716038844E-01  0.20597412360E-01  0.80210399917E-01  0.51100000000E-03 0. -1.
</event>
<event>
 8    1  0.1204770E+005  0.1043930E+01  0.7957747E-01            NaN
         13   -1    0    0    0    0  0.00000000000E+00  0.00000000000E+00  0.74505805969E-08  0.10566000000E+00  0.10566000000E+00 0.  1.
     999900   -1    0    0    0    0 -0.00000000000E+00 -0.00000000000E+00 -0.74505805969E-08  0.93827000000E+00  0.93827000000E+00 0.  1.
     999902    2    1    2    0    0  0.15529638919E-01 -0.13295864444E-01 -0.71739576253E-02  0.10222640044E+01  0.10220343827E+01 0.  0.
     999903    2    3    3    0    0 -0.33143129561E-01 -0.22196763566E-01 -0.12520811633E+00  0.13300570279E+00  0.20549482482E-01 0.  0.
         14    1    1    2    0    0 -0.15529638919E-01  0.13295864444E-01  0.71739576253E-02  0.21665995575E-01  0.00000000000E+00 0. -1.
     999901    1    3    3    0    0  0.48672768479E-01  0.89008991222E-02  0.11803415871E+00  0.88925830163E+00  0.88000000000E+00 0. -1.
        -11    1    4    4    0    0 -0.34377158605E-01 -0.18058833910E-01 -0.97349704404E-01  0.10481000231E+00  0.51100000000E-03 0.  1.
         11    1    4    4    0    0  0.12340290445E-02 -0.41379296565E-02 -0.27858411929E-01  0.28195700483E-01  0.51100000000E-03 0. -1.
</event>
<event>
 8    1  0.1204770E+005  0.1043930E+01  0.7957747E-01            NaN
         13   -1    0    0    0    0  0.00000000000E+00  0.00000000000E+00  0.74505805969E-08  0.10566000000E+00  0.10566000000E+00 0.  1.
     999900   -1    0    0    0    0 -0.00000000000E+00 -0.00000000000E+00 -0.74505805969E-08  0.93827000000E+00  0.93827000000E+00 0. -1.
     999902    2    1    2    0    0 -0.38082226127E-02 -0.10550808779E-01  0.23842872818E-01  0.10175803376E+01  0.10172391256E+01 0.  0.
     999903    2    3    3    0    0  0.57463665785E-01 -0.77280945769E-01 -0.80038784471E-01  0.12685111149E+00  0.20262773805E-01 0.  0.
         14    1    1    2    0    0  0.38082226127E-02  0.10550808779E-01 -0.23842872818E-01  0.26349662419E-01  0.00000000000E+00 0. -1.
     999901    1    3    3    0    0 -0.61271888398E-01  0.66730136990E-01  0.10388165729E+00  0.89072922609E+00  0.88000000000E+00 0.  1.
        -11    1    4    4    0    0  0.22656759886E-01 -0.15571122383E-01 -0.20333497597E-01  0.34197965821E-01  0.51100000000E-03 0.  1.
         11    1    4    4    0    0  0.34806905900E-01 -0.61709823387E-01 -0.59705286874E-01  0.92653145669E-01  0.51100000000E-03 0. -1.
</event>
<event>
 7    1  0.1204770E+005  0.1043930E+01  0.7957747E-01            NaN
         13   -1    0    0    0    0  0.00000000000E+00  0.00000000000E+00  0.74505805969E-08  0.10566000000E+00  0.10566000000E+00 0.  1.
     999900   -1    0    0    0    0 -0.00000000000E+00 -0.00000000000E+00 -0.74505805969E-08  0.93827000000E+00  0.93827000000E+00 0.  1.
     999903    2    1    2    0    0  0.30907691812E-01  0.72871497738E-01 -0.37914569403E-01  0.90335840063E-01  0.21389456073E-01 0.  0.
         14    1    1    2    0    0  0.48321730590E-01 -0.38138189741E-01  0.31896509767E-01  0.69331800058E-01  0.00000000000E+00 0.  1.
     999901    1    1    2    0    0 -0.79229422402E-01 -0.34733307997E-01  0.60180596364E-02  0.88426235988E+00  0.88000000000E+00 0. -1.
        -11    1    3    3    0    0  0.15429159647E-01  0.14594478032E-01 -0.58210240049E-02  0.22027328434E-01  0.51100000000E-03 0.  1.
         11    1    3    3    0    0  0.15478532164E-01  0.58277019705E-01 -0.32093545398E-01  0.68308511629E-01  0.51100000000E-03 0. -1.
</event>
<event>
 8    1  0.1204770E+005  0.1043930E+01  0.7957747E-01            NaN
         13   -1    0    0    0    0  0.00000000000E+00  0.00000000000E+00  0.74505805969E-08  0.10566000000E+00  0.10566000000E+00 0.  1.
     999900   -1    0    0    0    0 -0.00000000000E+00 -0.00000000000E+00 -0.74505805969E-08  0.93827000000E+00  0.93827000000E+00 0.  1.
     999902    2    1    2    0    0 -0.21363469929E-01  0.71712815112E-02 -0.26067076923E-02  0.10212447614E+01  0.10209927730E+01 0.  0.
     999903    2    3    3    0    0  0.36741865719E-01  0.16079585095E-01  0.12249462168E+00  0.13045526296E+00  0.20127730580E-01 0.  0.
         14    1    1    2    0    0  0.21363469929E-01 -0.71712815112E-02  0.26067076923E-02  0.22685238613E-01  0.00000000000E+00 0.  1.
     999901    1    3    3    0    0 -0.58105335648E-01 -0.89083035838E-02 -0.12510132938E+00  0.89078949843E+00  0.88000000000E+00 0.  1.
        -11    1    4    4    0    0  0.33364627917E-01  0.67290053556E-02  0.82640872030E-01  0.89377025906E-01  0.51100000000E-03 0.  1.
         11    1    4    4    0    0  0.33772378020E-02  0.93505797394E-02  0.39853749654E-01  0.41078237050E-01  0.51100000000E-03 0. -1.
</event>
<event>
 8    1  0.1204770E+005  0.1043930E+01  0.7957747E-01            NaN
         13   -1    0    0    0    0  0.00000000000E+00  0.00000000000E+00  0.74505805969E-08  0.10566000000E+00  0.10566000000E+00 0. -1.
     999900   -1    0    0    0    0 -0.00000000000E+00 -0.00000000000E+00 -0.74505805969E-08  0.93827000000E+00  0.93827000000E+00 0. -1.
     999902    2    1    2    0    0  0.96025793555E-02 -0.16931110254E-01 -0.13593757972E-01  0.10201884272E+01  0.10199121357E+01 0.  0.
     999903    2    3    3    0    0  0.57550847214E-01 -0.71188619539E-01  0.91356407111E-01  0.13099921735E+00  0.20853830810E-01 0.  0.
         14    1    1    2    0    0 -0.96025793555E-02  0.16931110254E-01  0.13593757972E-01  0.23741572832E-01  0.00000000000E+00 0.  1.
     999901    1    3    3    0    0 -0.47948267859E-01  0.54257509285E-01 -0.10495016508E+00  0.88918920982E+00  0.88000000000E+00 0. -1.
        -11    1    4    4    0    0  0.33330421835E-01 -0.51288488719E-01  0.49416095649E-01  0.78636109548E-01  0.51100000000E-03 0. -1.
         11    1    4    4    0    0  0.24220425379E-01 -0.19900130821E-01  0.41940311462E-01  0.52363107803E-01  0.51100000000E-03 0.  1.
</event>
<event>
 8    1  0.1204770E+005  0.1043930E+01  0.7957747E-01            NaN
         13   -1    0    0    0    0  0.00000000000E+00  0.00000000000E+00  0.74505805969E-08  0.10566000000E+00  0.10566000000E+00 0. -1.
     999900   -1    0    0    0    0 -0.00000000000E+00 -0.00000000000E+00 -0.74505805969E-08  0.93827000000E+00  0.93827000000E+00 0. -1.
     999902    2    1    2    0    0  0.30477728111E-02  0.82289869182E-02  0.21391736172E-01  0.10208083322E+01  0.10205464417E+01 0.  0.
     999903    2    3    3    0    0  0.28655677132E-01 -0.35619925076E-01  0.12379703269E+00  0.13341589558E+00  0.19600229460E-01 0.  0.
         14    1    1    2    0    0 -0.30477728111E-02 -0.82289869182E-02 -0.21391736172E-01  0.23121667787E-01  0.00000000000E+00 0.  1.
     999901    1    3    3    0    0 -0.25607904321E-01  0.43848911995E-01 -0.10240529652E+00  0.88739243664E+00  0.88000000000E+00 0. -1.
        -11    1    4    4    0    0  0.36430213271E-02 -0.18308316252E-01  0.37080596515E-01  0.41517439797E-01  0.51100000000E-03 0. -1.
         11    1    4    4    0    0  0.25012655805E-01 -0.17311608824E-01  0.86716436175E-01  0.91898455778E-01  0.51100000000E-03 0.  1.
</event>
<event>
 8    1  0.1204770E+005  0.1043930E+01  0.7957747E-01            NaN
         13   -1    0    0    0    0  0.00000000000E+00  0.00000000000E+00  0.74505805969E-08  0.10566000000E+00  0.10566000000E+00 0.  1.
     999900   -1    0    0    0    0 -0.00000000000E+00 -0.00000000000E+00 -0.74505805969E-08  0.93827000000E+00  0.93827000000E+00 0. -1.
     999902    2    1    2    0    0 -0.22681841060E-01 -0.46842070334E-03  0.58562412230E-02  0.10204996587E+01  0.10202306467E+01 0.  0.
     999903    2    3    3    0    0 -0.12527857887E+00 -0.40330452755E-01  0.12353954644E-01  0.13361900581E+00  0.19497455594E-01 0.  0.
         14    1    1    2    0    0  0.22681841060E-01  0.46842070334E-03 -0.58562412230E-02  0.23430341293E-01  0.00000000000E+00 0. -1.
     999901    1    3    3    0    0  0.10259673781E+00  0.39862032051E-01 -0.64977134211E-02  0.88688065290E+00  0.88000000000E+00 0.  1.
        -11    1    4    4    0    0 -0.55133419537E-01 -0.18528082026E-01  0.15158251274E-01  0.60108381080E-01  0.51100000000E-03 0.  1.
         11    1    4    4    0    0 -0.70145159333E-01 -0.21802370729E-01 -0.28042966301E-02  0.73510624727E-01  0.51100000000E-03 0. -1.
</event>
<event>
 8    1  0.1204770E+005  0.1043930E+01  0.7957747E-01            NaN
         13   -1    0    0    0    0  0.00000000000E+00  0.00000000000E+00  0.74505805969E-08  0.10566000000E+00  0.10566000000E+00 0. -1.
     999900   -1    0    0    0    0 -0.00000000000E+00 -0.00000000000E+00 -0.74505805969E-08  0.93827000000E+00  0.93827000000E+00 0. -1.
     999902    2    1    2    0    0 -0.51073030189E-02  0.13661171738E-01 -0.16626250895E-01  0.10218133914E+01  0.10215740122E+01 0.  0.
     999903    2    3    3    0    0  0.14251050301E-02 -0.11745227722E+00  0.50722859644E-01  0.12953018997E+00  0.20203793563E-01 0.  0.
         14    1    1    2    0    0  0.51073030189E-02 -0.13661171738E-01  0.16626250895E-01  0.22116608605E-01  0.00000000000E+00 0. -1.
     999901    1    3    3    0    0 -0.65324080490E-02  0.13111344896E+00 -0.67349110538E-01  0.89228320142E+00  0.88000000000E+00 0. -1.
        -11    1    4    4    0    0  0.25993397058E-02 -0.22727521898E-01  0.18635846752E-01  0.29510213888E-01  0.51100000000E-03 0. -1.
         11    1    4    4    0    0 -0.11742346757E-02 -0.94724755324E-01  0.32087012892E-01  0.10001997608E+00  0.51100000000E-03 0.  1.
</event>
<event>
 8    1  0.1204770E+005  0.1043930E+01  0.7957747E-01            NaN
         13   -1    0    0    0    0  0.00000000000E+00  0.00000000000E+00  0.74505805969E-08  0.10566000000E+00  0.10566000000E+00 0. -1.
     999900   -1    0    0    0    0 -0.00000000000E+00 -0.00000000000E+00 -0.74505805969E-08  0.93827000000E+00  0.93827000000E+00 0. -1.
     999902    2    1    2    0    0  0.39895867419E-02  0.20506997627E-01  0.10573538080E-01  0.10205151871E+01  0.10202465357E+01 0.  0.
     999903    2    3    3    0    0  0.19011261713E-01  0.25263118202E-02 -0.12660259649E+00  0.12957958471E+00  0.19870606740E-01 0.  0.
         14    1    1    2    0    0 -0.39895867419E-02 -0.20506997627E-01 -0.10573538080E-01  0.23414812866E-01  0.00000000000E+00 0.  1.
     999901    1    3    3    0    0 -0.15021674971E-01  0.17980685806E-01  0.13717613457E+00  0.89093560243E+00  0.88000000000E+00 0.  1.
        -11    1    4    4    0    0 -0.15110950436E-03  0.57623838561E-02 -0.57624115396E-01  0.57913968073E-01  0.51100000000E-03 0. -1.
         11    1    4    4    0    0  0.19162371217E-01 -0.32360720358E-02 -0.68978481090E-01  0.71665616632E-01  0.51100000000E-03 0.  1.
</event>
<event>
 8    1  0.1204770E+005  0.1043930E+01  0.7957747E-01            NaN
         13   -1    0    0    0    0  0.00000000000E+00  0.00000000000E+00  0.74505805969E-08  0.10566000000E+00  0.10566000000E+00 0. -1.
     999900   -1    0    0    0    0 -0.00000000000E+00 -0.00000000000E+00 -0.74505805969E-08  0.93827000000E+00  0.93827000000E+00 0. -1.
     999902    2    1    2    0    0  0.13466456715E-02  0.15239203356E-01 -0.19758016485E-01  0.10189414829E+01  0.10186350276E+01 0.  0.
     999903    2    3    3    0    0 -0.10970640232E+00  0.17716207864E-01  0.61168371657E-01  0.12827431982E+00  0.19062337281E-01 0.  0.
         14    1    1    2    0    0 -0.13466456715E-02 -0.15239203356E-01  0.19758016485E-01  0.24988517141E-01  0.00000000000E+00 0. -1.
     999901    1    3    3    0    0  0.11105304799E+00 -0.24770045076E-02 -0.80926388142E-01  0.89066716304E+00  0.88000000000E+00 0. -1.
        -11    1    4    4    0    0 -0.65150568656E-01  0.22706588191E-02  0.40778502444E-01  0.76895382633E-01  0.51100000000E-03 0.  1.
         11    1    4    4    0    0 -0.44555833665E-01  0.15445549045E-01  0.20389869213E-01  0.51378937186E-01  0.51100000000E-03 0. -1.
</event>
<event>
 8    1  0.1204770E+005  0.1043930E+01  0.7957747E-01            NaN
         13   -1    0    0    0    0  0.00000000000E+00  0.00000000000E+00  0.74505805969E-08  0.10566000000E+00  0.10566000000E+00 0.  1.
     999900   -1    0    0    0    0 -0.00000000000E+00 -0.00000000000E+00 -0.74505805969E-08  0.93827000000E+00  0.93827000000E+00 0.  1.
     999902    2    1    2    0    0 -0.20065577114E-01 -0.11611161924E-01  0.41646050245E-02  0.10203760109E+01  0.10201041188E+01 0.  0.
     999903    2    3    3    0    0 -0.71803800752E-01 -0.10909815384E+00 -0.16459302307E-01  0.13324247931E+00  0.20602346585E-01 0.  0.
         14    1    1    2    0    0  0.20065577114E-01  0.11611161924E-01 -0.41646050245E-02  0.23553989070E-01  0.00000000000E+00 0. -1.
     999901    1    3    3    0    0  0.51738223638E-01  0.97486991919E-01  0.20623907331E-01  0.88713353162E+00  0.88000000000E+00 0. -1.
        -11    1    4    4    0    0 -0.17672820511E-01 -0.20510157761E-01  0.41597682045E-02  0.27396349186E-01  0.51100000000E-03 0.  1.
         11    1    4    4    0    0 -0.54130980241E-01 -0.88587996081E-01 -0.20619070511E-01  0.10584613012E+00  0.51100000000E-03 0. -1.
</event>
<event>
 8    1  0.1204770E+005  0.1043930E+01  0.7957747E-01            NaN
         13   -1    0    0    0    0  0.00000000000E+00  0.00000000000E+00  0.74505805969E-08  0.10566000000E+00  0.10566000000E+00 0. -1.
     999900   -1    0    0    0    0 -0.00000000000E+00 -0.00000000000E+00 -0.74505805969E-08  0.93827000000E+00  0.93827000000E+00 0.  1.
     999902    2    1    2    0    0 -0.38447198312E-02  0.17421615205E-01  0.15822701702E-01  0.10200835655E+01  0.10198047991E+01 0.  0.
     999903    2    3    3    0    0 -0.72843876305E-01  0.48322624946E-01  0.97803216947E-01  0.13304548244E+00  0.22233415320E-01 0.  0.
         14    1    1    2    0    0  0.38447198312E-02 -0.17421615205E-01 -0.15822701702E-01  0.23846434452E-01  0.00000000000E+00 0.  1.
     999901    1    3    3    0    0  0.68999156474E-01 -0.30901009741E-01 -0.81980515245E-01  0.88703808310E+00  0.88000000000E+00 0.  1.
        -11    1    4    4    0    0 -0.58961436594E-01  0.34152744513E-01  0.86814311841E-01  0.11036234333E+00  0.51100000000E-03 0.  1.
         11    1    4    4    0    0 -0.13882439711E-01  0.14169880433E-01  0.10988905106E-01  0.22683139118E-01  0.51100000000E-03 0. -1.
</event>
<event>
 8    1  0.1204770E+005  0.1043930E+01  0.7957747E-01            NaN
         13   -1    0    0    0    0  0.00000000000E+00  0.00000000000E+00  0.74505805969E-08  0.10566000000E+00  0.10566000000E+00 0.  1.
     999900   -1    0    0    0    0 -0.00000000000E+00 -0.00000000000E+00 -0.74505805969E-08  0.93827000000E+00  0.93827000000E+00 0.  1.
     999902    2    1    2    0    0  0.15293272755E-01  0.39510656488E-02  0.21777654248E-02  0.10279851647E+01  0.10278614989E+01 0.  0.
     999903    2    3    3    0    0 -0.54433085690E-01 -0.24672372083E-01  0.12139581011E+00  0.13675342802E+00  0.19820963669E-01 0.  0.
         14    1    1    2    0    0 -0.15293272755E-01 -0.39510656488E-02 -0.21777654248E-02  0.15944835326E-01  0.00000000000E+00 0. -1.
     999901    1    3    3    0    0  0.69726358445E-01  0.28623437732E-01 -0.11921804468E+00  0.89123173666E+00  0.88000000000E+00 0.  1.
        -11    1    4    4    0    0 -0.29789665105E-01 -0.18350031649E-01  0.88483434896E-01  0.95151075562E-01  0.51100000000E-03 0.  1.
         11    1    4    4    0    0 -0.24643420586E-01 -0.63223404343E-02  0.32912375210E-01  0.41602352454E-01  0.51100000000E-03 0. -1.
</event>
<event>
 8    1  0.1497642E+005  0.1043930E+01  0.7957747E-01            NaN
         13   -1    0    0    0    0  0.00000000000E+00  0.00000000000E+00  0.74505805969E-08  0.10566000000E+00  0.10566000000E+00 0. -1.
     999900   -1    0    0    0    0 -0.00000000000E+00 -0.00000000000E+00 -0.74505805969E-08  0.93827000000E+00  0.93827000000E+00 0.  1.
     999902    2    1    2    0    0  0.91141565768E-02 -0.32379786775E-01  0.42787815135E-02  0.10100209096E+01  0.10094515399E+01 0.  0.
     999903    2    3    3    0    0 -0.27635234844E-01 -0.39712375176E-01 -0.10994318658E+00  0.12184809835E+00  0.20461570050E-01 0.  0.
         14    1    1    2    0    0 -0.91141565768E-02  0.32379786775E-01 -0.42787815135E-02  0.33909090418E-01  0.00000000000E+00 0.  1.
     999901    1    3    3    0    0  0.36749391421E-01  0.73325884009E-02  0.11422196809E+00  0.88817281124E+00  0.88000000000E+00 0. -1.
        -11    1    4    4    0    0 -0.21195295819E-02 -0.10932762036E-01 -0.45072552890E-01  0.46430742363E-01  0.51100000000E-03 0.  1.
         11    1    4    4    0    0 -0.25515705262E-01 -0.28779613140E-01 -0.64870633688E-01  0.75417355984E-01  0.51100000000E-03 0. -1.
</event>
<event>
 8    1  0.1204770E+005  0.1043930E+01  0.7957747E-01            NaN
         13   -1    0    0    0    0  0.00000000000E+00  0.00000000000E+00  0.74505805969E-08  0.10566000000E+00  0.10566000000E+00 0. -1.
     999900   -1    0    0    0    0 -0.00000000000E+00 -0.00000000000E+00 -0.74505805969E-08  0.93827000000E+00  0.93827000000E+00 0. -1.
     999902    2    1    2    0    0  0.58723240604E-02  0.23065202818E-01  0.30225542031E-02  0.10199378428E+01  0.10196556182E+01 0.  0.
     999903    2    3    3    0    0 -0.10268477259E+00  0.29606698829E-01  0.72166124348E-01  0.13055138708E+00  0.20371451293E-01 0.  0.
         14    1    1    2    0    0 -0.58723240604E-02 -0.23065202818E-01 -0.30225542031E-02  0.23992157152E-01  0.00000000000E+00 0. -1.
     999901    1    3    3    0    0  0.10855709666E+00 -0.65414960113E-02 -0.69143570145E-01  0.88938645576E+00  0.88000000000E+00 0. -1.
        -11    1    4    4    0    0 -0.24782076372E-01 -0.12408835184E-02  0.13365861985E-01  0.28188623393E-01  0.51100000000E-03 0. -1.
         11    1    4    4    0    0 -0.77902696223E-01  0.30847582347E-01  0.58800262363E-01  0.10236276369E+00  0.51100000000E-03 0.  1.
</event>
<event>
 8    1  0.1204770E+005  0.1043930E+01  0.7957747E-01            NaN
         13   -1    0    0    0    0  0.00000000000E+00  0.00000000000E+00  0.74505805969E-08  0.10566000000E+00  0.10566000000E+00 0.  1.
     999900   -1    0    0    0    0 -0.00000000000E+00 -0.00000000000E+00 -0.74505805969E-08  0.93827000000E+00  0.93827000000E+00 0. -1.
     999902    2    1    2    0    0  0.15988728658E-01  0.11568117306E-01  0.14104918282E-01  0.10196728464E+01  0.10193842770E+01 0.  0.
     999903    2    3    3    0    0 -0.86266692007E-01 -0.25707609519E-01 -0.87363193505E-01  0.12718114973E+00  0.20973648501E-01 0.  0.
         14    1    1    2    0    0 -0.15988728658E-01 -0.11568117306E-01 -0.14104918282E-01  0.24257153623E-01  0.00000000000E+00 0. -1.
     999901    1    3    3    0    0  0.10225542067E+00  0.37275726825E-01  0.10146811179E+00  0.89249169664E+00  0.88000000000E+00 0.  1.
        -11    1    4    4    0    0 -0.23610372438E-01 -0.12298805549E-01 -0.37486028857E-01  0.45980145552E-01  0.51100000000E-03 0. -1.
         11    1    4    4    0    0 -0.62656319569E-01 -0.13408803970E-01 -0.49877164649E-01  0.81201004182E-01  0.51100000000E-03 0.  1.
</event>
<event>
 8    1  0.1204770E+005  0.1043930E+01  0.7957747E-01            NaN
         13   -1    0    0    0    0  0.00000000000E+00  0.00000000000E+00  0.74505805969E-08  0.10566000000E+00  0.10566000000E+00 0.  1.
     999900   -1    0    0    0    0 -0.00000000000E+00 -0.00000000000E+00 -0.74505805969E-08  0.93827000000E+00  0.93827000000E+00 0.  1.
     999902    2    1    2    0    0 -0.21138803938E-01 -0.81787364945E-02  0.56369404060E-02  0.10205737191E+01  0.10203064246E+01 0.  0.
     999903    2    3    3    0    0 -0.11165357273E+00 -0.39553755161E-01 -0.57397783834E-01  0.13313319055E+00  0.19973006436E-01 0.  0.
         14    1    1    2    0    0  0.21138803938E-01  0.81787364945E-02 -0.56369404060E-02  0.23356280948E-01  0.00000000000E+00 0. -1.
     999901    1    3    3    0    0  0.90514768794E-01  0.31375018667E-01  0.63034724240E-01  0.88744052850E+00  0.88000000000E+00 0. -1.
        -11    1    4    4    0    0 -0.72716907289E-01 -0.16571715726E-01 -0.30947433702E-01  0.80748839877E-01  0.51100000000E-03 0. -1.
         11    1    4    4    0    0 -0.38936665443E-01 -0.22982039435E-01 -0.26450350132E-01  0.52384350674E-01  0.51100000000E-03 0.  1.
</event>
<event>
 8    1  0.1204770E+005  0.1043930E+01  0.7957747E-01            NaN
         13   -1    0    0    0    0  0.00000000000E+00  0.00000000000E+00  0.74505805969E-08  0.10566000000E+00  0.10566000000E+00 0.  1.
     999900   -1    0    0    0    0 -0.00000000000E+00 -0.00000000000E+00 -0.74505805969E-08  0.93827000000E+00  0.93827000000E+00 0.  1.
     999902    2    1    2    0    0  0.25432944086E-01 -0.90711744534E-03 -0.13917829231E-02  0.10184428549E+01  0.10181238894E+01 0.  0.
     999903    2    3    3    0    0 -0.12180022717E+00  0.22597843029E-01  0.92683185758E-02  0.12583783156E+00  0.20082337390E-01 0.  0.
         14    1    1    2    0    0 -0.25432944086E-01  0.90711744534E-03  0.13917829231E-02  0.25487145126E-01  0.00000000000E+00 0. -1.
     999901    1    3    3    0    0  0.14723317125E+00 -0.23504960474E-01 -0.10660101499E-01  0.89260502332E+00  0.88000000000E+00 0. -1.
        -11    1    4    4    0    0 -0.22135521353E-01  0.32339797112E-02  0.94959599804E-02  0.24307906272E-01  0.51100000000E-03 0. -1.
         11    1    4    4    0    0 -0.99664705812E-01  0.19363863318E-01 -0.22764140458E-03  0.10152992529E+00  0.51100000000E-03 0.  1.
</event>
<event>
 8    1  0.1204770E+005  0.1043930E+01  0.7957747E-01            NaN
         13   -1    0    0    0    0  0.00000000000E+00  0.00000000000E+00  0.74505805969E-08  0.10566000000E+00  0.10566000000E+00 0. -1.
     999900   -1    0    0    0    0 -0.00000000000E+00 -0.00000000000E+00 -0.74505805969E-08  0.93827000000E+00  0.93827000000E+00 0.  1.
     999902    2    1    2    0    0  0.47407682496E-02 -0.92537658094E-02  0.20125118712E-01  0.10212776829E+01  0.10210264336E+01 0.  0.
     999903    2    3    3    0    0 -0.28985663596E-01  0.12484628329E+00 -0.12216230153E-01  0.12989322143E+00  0.17211901360E-01 0.  0.
         14    1    1    2    0    0 -0.47407682496E-02  0.92537658094E-02 -0.20125118712E-01  0.22652317065E-01  0.00000000000E+00 0.  1.
     999901    1    3    3    0    0  0.33726431846E-01 -0.13410004910E+00  0.32341348865E-01  0.89138446151E+00  0.88000000000E+00 0. -1.
        -11    1    4    4    0    0 -0.18770400823E-01  0.84669377055E-01 -0.16261679392E-01  0.88237943628E-01  0.51100000000E-03 0.  1.
         11    1    4    4    0    0 -0.10215262773E-01  0.40176906233E-01  0.40454492385E-02  0.41655277799E-01  0.51100000000E-03 0. -1.
</event>
<event>
 8    1  0.1204770E+005  0.1043930E+01  0.7957747E-01            NaN
         13   -1    0    0    0    0  0.00000000000E+00  0.00000000000E+00  0.74505805969E-08  0.10566000000E+00  0.10566000000E+00 0. -1.
     999900   -1    0    0    0    0 -0.00000000000E+00 -0.00000000000E+00 -0.74505805969E-08  0.93827000000E+00  0.93827000000E+00 0.  1.
     999902    2    1    2    0    0  0.53127586419E-02 -0.96082252009E-02 -0.20229024302E-01  0.10209135533E+01  0.10206540680E+01 0.  0.
     999903    2    3    3    0    0  0.62992480275E-01 -0.65188863644E-01 -0.96454261107E-01  0.13399391521E+00  0.20815962911E-01 0.  0.
         14    1    1    2    0    0 -0.53127586419E-02  0.96082252009E-02  0.20229024302E-01  0.23016446731E-01  0.00000000000E+00 0. -1.
     999901    1    3    3    0    0 -0.57679721633E-01  0.55580638443E-01  0.76225236805E-01  0.88691963806E+00  0.88000000000E+00 0.  1.
        -11    1    4    4    0    0  0.89610367579E-02 -0.21435699671E-01 -0.20078414061E-01  0.30711451160E-01  0.51100000000E-03 0.  1.
         11    1    4    4    0    0  0.54031443517E-01 -0.43753163973E-01 -0.76375847046E-01  0.10328246405E+00  0.51100000000E-03 0. -1.
</event>
<event>
 8    1  0.1204770E+005  0.1043930E+01  0.7957747E-01            NaN
         13   -1    0    0    0    0  0.00000000000E+00  0.00000000000E+00  0.74505805969E-08  0.10566000000E+00  0.10566000000E+00 0. -1.
     999900   -1    0    0    0    0 -0.00000000000E+00 -0.00000000000E+00 -0.74505805969E-08  0.93827000000E+00  0.93827000000E+00 0. -1.
     999902    2    1    2    0    0  0.14557569064E-01  0.18776602495E-01  0.52934363375E-02  0.10195885932E+01  0.10192979914E+01 0.  0.
     999903    2    3    3    0    0 -0.26768203076E-01 -0.12230359485E+00 -0.11212528853E-01  0.12724118974E+00  0.19745722376E-01 0.  0.
         14    1    1    2    0    0 -0.14557569064E-01 -0.18776602495E-01 -0.52934363375E-02  0.24341406832E-01  0.00000000000E+00 0.  1.
     999901    1    3    3    0    0  0.41325772140E-01  0.14108019735E+00  0.16505965191E-01  0.89234740343E+00  0.88000000000E+00 0. -1.
        -11    1    4    4    0    0 -0.11175898059E-01 -0.51274249291E-01  0.50488082913E-02  0.52722869079E-01  0.51100000000E-03 0.  1.
         11    1    4    4    0    0 -0.15592305017E-01 -0.71029345561E-01 -0.16261337145E-01  0.74518320656E-01  0.51100000000E-03 0. -1.
</event>
<event>
 8    1  0.1204770E+005  0.1043930E+01  0.7957747E-01            NaN
         13   -1    0    0    0    0  0.00000000000E+00  0.00000000000E+00  0.74505805969E-08  0.10566000000E+00  0.10566000000E+00 0.  1.
     999900   -1    0    0    0    0 -0.00000000000E+00 -0.00000000000E+00 -0.74505805969E-08  0.93827000000E+00  0.93827000000E+00 0. -1.
     999902    2    1    2    0    0  0.40805520579E-02  0.22246909882E-01 -0.81360335686E-02  0.10198931336E+01  0.10196098435E+01 0.  0.
     999903    2    3    3    0    0 -0.11186435865E+00 -0.57455628102E-01  0.16460025600E-01  0.12837718701E+00  0.19874248786E-01 0.  0.
         14    1    1    2    0    0 -0.40805520579E-02 -0.22246909882E-01  0.81360335686E-02  0.24036866406E-01  0.00000000000E+00 0.  1.
     999901    1    3    3    0    0  0.11594491071E+00  0.79702537984E-01 -0.24596059168E-01  0.89151594658E+00  0.88000000000E+00 0.  1.
        -11    1    4    4    0    0 -0.17424208522E-01 -0.22197808288E-02  0.55404348805E-02  0.18425200385E-01  0.51100000000E-03 0. -1.
         11    1    4    4    0    0 -0.94440150133E-01 -0.55235847273E-01  0.10919590719E-01  0.10995198663E+00  0.51100000000E-03 0.  1.
</event>
<event>
 8    1  0.1204770E+005  0.1043930E+01  0.7957747E-01            NaN
         13   -1    0    0    0    0  0.00000000000E+00  0.00000000000E+00  0.74505805969E-08  0.10566000000E+00  0.10566000000E+00 0.  1.
     999900   -1    0    0    0    0 -0.00000000000E+00 -0.00000000000E+00 -0.74505805969E-08  0.93827000000E+00  0.93827000000E+00 0. -1.
     999902    2    1    2    0    0  0.63111177671E-02  0.22935269914E-01 -0.55129630840E-02  0.10195117778E+01  0.10192193167E+01 0.  0.
     999903    2    3    3    0    0  0.12135486979E+00  0.45209529479E-01  0.29429494938E-02  0.13170396640E+00  0.23798483919E-01 0.  0.
         14    1    1    2    0    0 -0.63111177671E-02 -0.22935269914E-01  0.55129630840E-02  0.24418222201E-01  0.00000000000E+00 0. -1.
     999901    1    3    3    0    0 -0.11504375202E+00 -0.22274259565E-01 -0.84559125778E-02  0.88780781140E+00  0.88000000000E+00 0. -1.
        -11    1    4    4    0    0  0.27931040684E-01  0.13702175242E-01 -0.89938750388E-02  0.32388941775E-01  0.51100000000E-03 0.  1.
         11    1    4    4    0    0  0.93423829107E-01  0.31507354237E-01  0.11936824533E-01  0.99315024628E-01  0.51100000000E-03 0. -1.
</event>
<event>
 8    1  0.1204770E+005  0.1043930E+01  0.7957747E-01            NaN
         13   -1    0    0    0    0  0.00000000000E+00  0.00000000000E+00  0.74505805969E-08  0.10566000000E+00  0.10566000000E+00 0. -1.
     999900   -1    0    0    0    0 -0.00000000000E+00 -0.00000000000E+00 -0.74505805969E-08  0.93827000000E+00  0.93827000000E+00 0.  1.
     999902    2    1    2    0    0  0.22726965085E-01  0.55089396469E-02  0.45100387266E-02  0.10201139590E+01  0.10198359111E+01 0.  0.
     999903    2    3    3    0    0  0.47132236694E-01  0.60387093366E-01 -0.10481719564E+00  0.13131720318E+00  0.19736123444E-01 0.  0.
         14    1    1    2    0    0 -0.22726965085E-01 -0.55089396469E-02 -0.45100387266E-02  0.23816040966E-01  0.00000000000E+00 0.  1.
     999901    1    3    3    0    0 -0.24405271609E-01 -0.54878153719E-01  0.10932723437E+00  0.88879675585E+00  0.88000000000E+00 0. -1.
        -11    1    4    4    0    0  0.16693713769E-01  0.25196501239E-01 -0.57454415666E-01  0.64921604683E-01  0.51100000000E-03 0.  1.
         11    1    4    4    0    0  0.30438522925E-01  0.35190592127E-01 -0.47362779974E-01  0.66395598499E-01  0.51100000000E-03 0. -1.
</event>
<event>
 8    1  0.1204770E+005  0.1043930E+01  0.7957747E-01            NaN
         13   -1    0    0    0    0  0.00000000000E+00  0.00000000000E+00  0.74505805969E-08  0.10566000000E+00  0.10566000000E+00 0. -1.
     999900   -1    0    0    0    0 -0.00000000000E+00 -0.00000000000E+00 -0.74505805969E-08  0.93827000000E+00  0.93827000000E+00 0. -1.
     999902    2    1    2    0    0 -0.90125423645E-02 -0.25330851255E-02  0.21283465229E-01  0.10206785843E+01  0.10204137122E+01 0.  0.
     999903    2    3    3    0    0  0.26093097741E-01 -0.87507658521E-01  0.94514708323E-01  0.13286334504E+00  0.19524300650E-01 0.  0.
         14    1    1    2    0    0  0.90125423645E-02  0.25330851255E-02 -0.21283465229E-01  0.23251415705E-01  0.00000000000E+00 0.  1.
     999901    1    3    3    0    0 -0.35105640106E-01  0.84974573395E-01 -0.73231243094E-01  0.88781523926E+00  0.88000000000E+00 0. -1.
        -11    1    4    4    0    0  0.15928916799E-02 -0.18079369015E-01  0.29504144756E-01  0.34643275923E-01  0.51100000000E-03 0.  1.
         11    1    4    4    0    0  0.24500206062E-01 -0.69428289506E-01  0.65010563567E-01  0.98220069116E-01  0.51100000000E-03 0. -1.
</event>
<event>
 8    1  0.1204770E+005  0.1043930E+01  0.7957747E-01            NaN
         13   -1    0    0    0    0  0.00000000000E+00  0.00000000000E+00  0.74505805969E-08  0.10566000000E+00  0.10566000000E+00 0. -1.
     999900   -1    0    0    0    0 -0.00000000000E+00 -0.00000000000E+00 -0.74505805969E-08  0.93827000000E+00  0.93827000000E+00 0.  1.
     999902    2    1    2    0    0  0.21063265566E-01  0.24568760680E-02 -0.89866075679E-02  0.10208983585E+01  0.10206385265E+01 0.  0.
     999903    2    3    3    0    0  0.82181936052E-01  0.79668731348E-01  0.63576036878E-01  0.13243761096E+00  0.19920616570E-01 0.  0.
         14    1    1    2    0    0 -0.21063265566E-01 -0.24568760680E-02  0.89866075679E-02  0.23031641537E-01  0.00000000000E+00 0. -1.
     999901    1    3    3    0    0 -0.61118670486E-01 -0.77211855280E-01 -0.72562644446E-01  0.88846074750E+00  0.88000000000E+00 0.  1.
        -11    1    4    4    0    0  0.33436284257E-01  0.28846971538E-01  0.14050543497E-01  0.46344490130E-01  0.51100000000E-03 0. -1.
         11    1    4    4    0    0  0.48745651795E-01  0.50821759810E-01  0.49525493382E-01  0.86093120833E-01  0.51100000000E-03 0.  1.
</event>
<event>
 8    1  0.1204770E+005  0.1043930E+01  0.7957747E-01            NaN
         13   -1    0    0    0    0  0.00000000000E+00  0.00000000000E+00  0.74505805969E-08  0.10566000000E+00  0.10566000000E+00 0.  1.
     999900   -1    0    0    0    0 -0.00000000000E+00 -0.00000000000E+00 -0.74505805969E-08  0.93827000000E+00  0.93827000000E+00 0. -1.
     999902    2    1    2    0    0 -0.88637841102E-02  0.51531502847E-02 -0.21072941459E-01  0.10204951864E+01  0.10202260705E+01 0.  0.
     999903    2    3    3    0    0  0.11362376918E+00 -0.26925971417E-02  0.56794052019E-01  0.12857140875E+00  0.19683287367E-01 0.  0.
         14    1    1    2    0    0  0.88637841102E-02 -0.51531502847E-02  0.21072941459E-01  0.23434813597E-01  0.00000000000E+00 0.  1.
     999901    1    3    3    0    0 -0.12248755329E+00  0.78457474264E-02 -0.77866993478E-01  0.89192377765E+00  0.88000000000E+00 0. -1.
        -11    1    4    4    0    0  0.10024801999E+00  0.34689026737E-02  0.46288409342E-01  0.11047432624E+00  0.51100000000E-03 0. -1.
         11    1    4    4    0    0  0.13375749187E-01 -0.61614998154E-02  0.10505642677E-01  0.18097082509E-01  0.51100000000E-03 0.  1.
</event>
<event>
 8    1  0.1204770E+005  0.1043930E+01  0.7957747E-01            NaN
         13   -1    0    0    0    0  0.00000000000E+00  0.00000000000E+00  0.74505805969E-08  0.10566000000E+00  0.10566000000E+00 0. -1.
     999900   -1    0    0    0    0 -0.00000000000E+00 -0.00000000000E+00 -0.74505805969E-08  0.93827000000E+00  0.93827000000E+00 0.  1.
     999902    2    1    2    0    0  0.15009617204E-01  0.12252083304E-01 -0.14227044214E-01  0.10198923017E+01  0.10196089918E+01 0.  0.
     999903    2    3    3    0    0 -0.84962364593E-02 -0.11199891662E+00 -0.61696245919E-01  0.12958664559E+00  0.19243923666E-01 0.  0.
         14    1    1    2    0    0 -0.15009617204E-01 -0.12252083304E-01  0.14227044214E-01  0.24037698329E-01  0.00000000000E+00 0. -1.
     999901    1    3    3    0    0  0.23505853663E-01  0.12425099992E+00  0.47469201705E-01  0.89030565608E+00  0.88000000000E+00 0. -1.
        -11    1    4    4    0    0  0.13890080916E-04 -0.69134536021E-01 -0.28844080117E-01  0.74912124136E-01  0.51100000000E-03 0. -1.
         11    1    4    4    0    0 -0.85101265402E-02 -0.42864380595E-01 -0.32852165802E-01  0.54674521455E-01  0.51100000000E-03 0.  1.
</event>
<event>
 8    1  0.1204770E+005  0.1043930E+01  0.7957747E-01            NaN
         13   -1    0    0    0    0  0.00000000000E+00  0.00000000000E+00  0.74505805969E-08  0.10566000000E+00  0.10566000000E+00 0.  1.
     999900   -1    0    0    0    0 -0.00000000000E+00 -0.00000000000E+00 -0.74505805969E-08  0.93827000000E+00  0.93827000000E+00 0.  1.
     999902    2    1    2    0    0 -0.18819833506E-01  0.11194143594E-01  0.10785148052E-01  0.10195206902E+01  0.10192284452E+01 0.  0.
     999903    2    3    3    0    0  0.90580185961E-01 -0.39813352449E-01 -0.77050326072E-01  0.12694845260E+00  0.19730274887E-01 0.  0.
         14    1    1    2    0    0  0.18819833506E-01 -0.11194143594E-01 -0.10785148052E-01  0.24409309751E-01  0.00000000000E+00 0. -1.
     999901    1    3    3    0    0 -0.10940001947E+00  0.51007496043E-01  0.87835474124E-01  0.89257223765E+00  0.88000000000E+00 0. -1.
        -11    1    4    4    0    0  0.76266517481E-01 -0.36968495710E-01 -0.56981925030E-01  0.10212958565E+00  0.51100000000E-03 0.  1.
         11    1    4    4    0    0  0.14313668480E-01 -0.28448567395E-02 -0.20068401042E-01  0.24818866948E-01  0.51100000000E-03 0. -1.
</event>
<event>
 8    1  0.1204770E+005  0.1043930E+01  0.7957747E-01            NaN
         13   -1    0    0    0    0  0.00000000000E+00  0.00000000000E+00  0.74505805969E-08  0.10566000000E+00  0.10566000000E+00 0.  1.
     999900   -1    0    0    0    0 -0.00000000000E+00 -0.00000000000E+00 -0.74505805969E-08  0.93827000000E+00  0.93827000000E+00 0.  1.
     999902    2    1    2    0    0 -0.14703524402E-01 -0.46994278243E-02 -0.18316319507E-01  0.10199765908E+01  0.10196952878E+01 0.  0.
     999903    2    3    3    0    0  0.74266399892E-01  0.79844785044E-01  0.63420700775E-01  0.12770739833E+00  0.19907447094E-01 0.  0.
         14    1    1    2    0    0  0.14703524402E-01  0.46994278243E-02  0.18316319507E-01  0.23953409194E-01  0.00000000000E+00 0.  1.
     999901    1    3    3    0    0 -0.88969924294E-01 -0.84544212868E-01 -0.81737020282E-01  0.89226919248E+00  0.88000000000E+00 0.  1.
        -11    1    4    4    0    0  0.40796516749E-01  0.40722001555E-01  0.44610664231E-01  0.72890394934E-01  0.51100000000E-03 0. -1.
         11    1    4    4    0    0  0.33469883143E-01  0.39122783489E-01  0.18810036544E-01  0.54817003396E-01  0.51100000000E-03 0.  1.
</event>
<event>
 8    1  0.1204770E+005  0.1043930E+01  0.7957747E-01            NaN
         13   -1    0    0    0    0  0.00000000000E+00  0.00000000000E+00  0.74505805969E-08  0.10566000000E+00  0.10566000000E+00 0.  1.
     999900   -1    0    0    0    0 -0.00000000000E+00 -0.00000000000E+00 -0.74505805969E-08  0.93827000000E+00  0.93827000000E+00 0. -1.
     999902    2    1    2    0    0 -0.20966928591E-01  0.62690520861E-02 -0.43641850438E-02  0.10216150001E+01  0.10213712593E+01 0.  0.
     999903    2    3    3    0    0 -0.11419282372E+00 -0.58277805371E-01 -0.32933565519E-01  0.13387991924E+00  0.20072604405E-01 0.  0.
         14    1    1    2    0    0  0.20966928591E-01 -0.62690520861E-02  0.43641850438E-02  0.22314999881E-01  0.00000000000E+00 0.  1.
     999901    1    3    3    0    0  0.93225895133E-01  0.64546857457E-01  0.28569380475E-01  0.88773508088E+00  0.88000000000E+00 0.  1.
        -11    1    4    4    0    0 -0.30475881185E-01 -0.70455090105E-02 -0.39049535531E-02  0.31526628657E-01  0.51100000000E-03 0. -1.
         11    1    4    4    0    0 -0.83716942539E-01 -0.51232296360E-01 -0.29028611966E-01  0.10235329058E+00  0.51100000000E-03 0.  1.
</event>
<event>
 8    1  0.1204770E+005  0.1043930E+01  0.7957747E-01            NaN
         13   -1    0    0    0    0  0.00000000000E+00  0.00000000000E+00  0.74505805969E-08  0.10566000000E+00  0.10566000000E+00 0.  1.
     999900   -1    0    0    0    0 -0.00000000000E+00 -0.00000000000E+00 -0.74505805969E-08  0.93827000000E+00  0.93827000000E+00 0. -1.
     999902    2    1    2    0    0  0.18255033000E-01  0.63180582968E-02  0.12992292505E-01  0.10206498850E+01  0.10203843511E+01 0.  0.
     999903    2    3    3    0    0 -0.88542111883E-01  0.68496233173E-01 -0.60663686769E-01  0.12896778980E+00  0.20522387265E-01 0.  0.
         14    1    1    2    0    0 -0.18255033000E-01 -0.63180582968E-02 -0.12992292505E-01  0.23280115013E-01  0.00000000000E+00 0. -1.
     999901    1    3    3    0    0  0.10679714488E+00 -0.62178174876E-01  0.73655979274E-01  0.89168209518E+00  0.88000000000E+00 0.  1.
        -11    1    4    4    0    0 -0.67253920918E-01  0.57187560895E-01 -0.55597268633E-01  0.10433036183E+00  0.51100000000E-03 0. -1.
         11    1    4    4    0    0 -0.21288190966E-01  0.11308672278E-01 -0.50664181354E-02  0.24637427971E-01  0.51100000000E-03 0.  1.
</event>
<event>
 8    1  0.1204770E+005  0.1043930E+01  0.7957747E-01            NaN
         13   -1    0    0    0    0  0.00000000000E+00  0.00000000000E+00  0.74505805969E-08  0.10566000000E+00  0.10566000000E+00 0. -1.
     999900   -1    0    0    0    0 -0.00000000000E+00 -0.00000000000E+00 -0.74505805969E-08  0.93827000000E+00  0.93827000000E+00 0.  1.
     999902    2    1    2    0    0  0.21158659853E-01 -0.22138199972E-02 -0.10742872420E-01  0.10200972663E+01  0.10198188239E+01 0.  0.
     999903    2    3    3    0    0  0.11014781383E+00  0.45655880572E-01 -0.57872716170E-01  0.13306186686E+00  0.11798678495E-01 0.  0.
         14    1    1    2    0    0 -0.21158659853E-01  0.22138199972E-02  0.10742872420E-01  0.23832733657E-01  0.00000000000E+00 0. -1.
     999901    1    3    3    0    0 -0.88989153976E-01 -0.47869700569E-01  0.47129843750E-01  0.88703539948E+00  0.88000000000E+00 0.  1.
        -11    1    4    4    0    0  0.42963433953E-01  0.18566552722E-01 -0.29101510567E-01  0.55115629138E-01  0.51100000000E-03 0. -1.
         11    1    4    4    0    0  0.67184379876E-01  0.27089327850E-01 -0.28771205602E-01  0.77946237725E-01  0.51100000000E-03 0.  1.
</event>
<event>
 8    1  0.1204770E+005  0.1043930E+01  0.7957747E-01            NaN
         13   -1    0    0    0    0  0.00000000000E+00  0.00000000000E+00  0.74505805969E-08  0.10566000000E+00  0.10566000000E+00 0. -1.
     999900   -1    0    0    0    0 -0.00000000000E+00 -0.00000000000E+00 -0.74505805969E-08  0.93827000000E+00  0.93827000000E+00 0. -1.
     999902    2    1    2    0    0  0.16047853338E-01 -0.40975205760E-02  0.16123389388E-01  0.10208153519E+01  0.10205536222E+01 0.  0.
     999903    2    3    3    0    0 -0.22216537645E-01  0.14928834882E-01  0.12898044200E+00  0.13257952727E+00  0.14997732395E-01 0.  0.
         14    1    1    2    0    0 -0.16047853338E-01  0.40975205760E-02 -0.16123389388E-01  0.23114648104E-01  0.00000000000E+00 0.  1.
     999901    1    3    3    0    0  0.38264390983E-01 -0.19026355458E-01 -0.11285705261E+00  0.88823582462E+00  0.88000000000E+00 0. -1.
        -11    1    4    4    0    0 -0.17151165704E-01  0.14037395103E-01  0.71276329174E-01  0.74644404799E-01  0.51100000000E-03 0.  1.
         11    1    4    4    0    0 -0.50653719413E-02  0.89143977873E-03  0.57704112828E-01  0.57935122474E-01  0.51100000000E-03 0. -1.
</event>
<event>
 8    1  0.1204770E+005  0.1043930E+01  0.7957747E-01            NaN
         13   -1    0    0    0    0  0.00000000000E+00  0.00000000000E+00  0.74505805969E-08  0.10566000000E+00  0.10566000000E+00 0. -1.
     999900   -1    0    0    0    0 -0.00000000000E+00 -0.00000000000E+00 -0.74505805969E-08  0.93827000000E+00  0.93827000000E+00 0.  1.
     999902    2    1    2    0    0 -0.44680897789E-02 -0.21072553196E-01 -0.10719555256E-01  0.10198691357E+01  0.10195852730E+01 0.  0.
     999903    2    3    3    0    0 -0.11909602190E+00  0.25478409800E-01 -0.42558620661E-01  0.13064459656E+00  0.20585495392E-01 0.  0.
         14    1    1    2    0    0  0.44680897789E-02  0.21072553196E-01  0.10719555256E-01  0.24060864268E-01  0.00000000000E+00 0. -1.
     999901    1    3    3    0    0  0.11462793212E+00 -0.46550962996E-01  0.31839065405E-01  0.88922453917E+00  0.88000000000E+00 0.  1.
        -11    1    4    4    0    0 -0.97601649099E-01  0.17047439984E-01 -0.26652913624E-01  0.10260280719E+00  0.51100000000E-03 0. -1.
         11    1    4    4    0    0 -0.21494372798E-01  0.84309698162E-02 -0.15905707037E-01  0.28041789375E-01  0.51100000000E-03 0.  1.
</event>
<event>
 8    1  0.1204770E+005  0.1043930E+01  0.7957747E-01            NaN
         13   -1    0    0    0    0  0.00000000000E+00  0.00000000000E+00  0.74505805969E-08  0.10566000000E+00  0.10566000000E+00 0.  1.
     999900   -1    0    0    0    0 -0.00000000000E+00 -0.00000000000E+00 -0.74505805969E-08  0.93827000000E+00  0.93827000000E+00 0. -1.
     999902    2    1    2    0    0 -0.11851880927E-02  0.11877632442E-01 -0.20216417711E-01  0.10204526414E+01  0.10201825361E+01 0.  0.
     999903    2    3    3    0    0  0.16146906596E-01  0.98122096705E-01  0.80189314668E-01  0.13038532919E+00  0.26102479296E-01 0.  0.
         14    1    1    2    0    0  0.11851880927E-02 -0.11877632442E-01  0.20216417711E-01  0.23477358632E-01  0.00000000000E+00 0.  1.
     999901    1    3    3    0    0 -0.17332094688E-01 -0.86244464263E-01 -0.10040573238E+00  0.89006731218E+00  0.88000000000E+00 0. -1.
        -11    1    4    4    0    0  0.17263829173E-01  0.67885503554E-01  0.42055315092E-01  0.81703072396E-01  0.51100000000E-03 0. -1.
         11    1    4    4    0    0 -0.11169225769E-02  0.30236593151E-01  0.38133999576E-01  0.48682256790E-01  0.51100000000E-03 0.  1.
</event>
<event>
 8    1  0.1204770E+005  0.1043930E+01  0.7957747E-01            NaN
         13   -1    0    0    0    0  0.00000000000E+00  0.00000000000E+00  0.74505805969E-08  0.10566000000E+00  0.10566000000E+00 0. -1.
     999900   -1    0    0    0    0 -0.00000000000E+00 -0.00000000000E+00 -0.74505805969E-08  0.93827000000E+00  0.93827000000E+00 0.  1.
     999902    2    1    2    0    0  0.12430319690E-02  0.79050252357E-02  0.22323573163E-01  0.10202155219E+01  0.10199398682E+01 0.  0.
     999903    2    3    3    0    0 -0.78643671700E-01  0.37748507857E-01  0.98293653573E-01  0.13283512321E+00  0.19332632542E-01 0.  0.
         14    1    1    2    0    0 -0.12430319690E-02 -0.79050252357E-02 -0.22323573163E-01  0.23714478093E-01  0.00000000000E+00 0.  1.
     999901    1    3    3    0    0  0.79886703669E-01 -0.29843482621E-01 -0.75970080409E-01  0.88738039870E+00  0.88000000000E+00 0. -1.
        -11    1    4    4    0    0 -0.64270551629E-01  0.31047040294E-01  0.90192257826E-01  0.11501968097E+00  0.51100000000E-03 0.  1.
         11    1    4    4    0    0 -0.14373120071E-01  0.67014675627E-02  0.81013957468E-02  0.17815442237E-01  0.51100000000E-03 0. -1.
</event>
<event>
 8    1  0.1204770E+005  0.1043930E+01  0.7957747E-01            NaN
         13   -1    0    0    0    0  0.00000000000E+00  0.00000000000E+00  0.74505805969E-08  0.10566000000E+00  0.10566000000E+00 0.  1.
     999900   -1    0    0    0    0 -0.00000000000E+00 -0.00000000000E+00 -0.74505805969E-08  0.93827000000E+00  0.93827000000E+00 0. -1.
     999902    2    1    2    0    0 -0.65295929230E-02 -0.12306371508E-01  0.20952569298E-01  0.10187686701E+01  0.10184579081E+01 0.  0.
     999903    2    3    3    0    0 -0.94034916563E-01  0.23400950708E-01 -0.81033422273E-01  0.12785153756E+00  0.19733983509E-01 0.  0.
         14    1    1    2    0    0  0.65295929230E-02  0.12306371508E-01 -0.20952569298E-01  0.25161329925E-01  0.00000000000E+00 0. -1.
     999901    1    3    3    0    0  0.87505323640E-01 -0.35707322216E-01  0.10198599157E+00  0.89091713251E+00  0.88000000000E+00 0.  1.
        -11    1    4    4    0    0 -0.58715341523E-01  0.14719555820E-01 -0.37865282677E-01  0.71401662494E-01  0.51100000000E-03 0.  1.
         11    1    4    4    0    0 -0.35319575040E-01  0.86813948880E-02 -0.43168139596E-01  0.56449875069E-01  0.51100000000E-03 0. -1.
</event>
<event>
 8    1  0.1204770E+005  0.1043930E+01  0.7957747E-01            NaN
         13   -1    0    0    0    0  0.00000000000E+00  0.00000000000E+00  0.74505805969E-08  0.10566000000E+00  0.10566000000E+00 0.  1.
     999900   -1    0    0    0    0 -0.00000000000E+00 -0.00000000000E+00 -0.74505805969E-08  0.93827000000E+00  0.93827000000E+00 0.  1.
     999902    2    1    2    0    0 -0.13857231117E-01 -0.15676624264E-01  0.99215228656E-02  0.10207736614E+01  0.10205109758E+01 0.  0.
     999903    2    3    3    0    0 -0.52432364812E-01  0.93983557725E-01 -0.69579077248E-01  0.12957573618E+00  0.19145793621E-01 0.  0.
         14    1    1    2    0    0  0.13857231117E-01  0.15676624264E-01 -0.99215228656E-02  0.23156338625E-01  0.00000000000E+00 0. -1.
     999901    1    3    3    0    0  0.38575133694E-01 -0.10966018199E+00  0.79500600113E-01  0.89119792520E+00  0.88000000000E+00 0. -1.
        -11    1    4    4    0    0 -0.19569771565E-01  0.30842428695E-01 -0.13459842365E-01  0.38931476268E-01  0.51100000000E-03 0. -1.
         11    1    4    4    0    0 -0.32862593247E-01  0.63141129030E-01 -0.56119234882E-01  0.90644259911E-01  0.51100000000E-03 0.  1.
</event>
<event>
 8    1  0.1204770E+005  0.1043930E+01  0.7957747E-01            NaN
         13   -1    0    0    0    0  0.00000000000E+00  0.00000000000E+00  0.74505805969E-08  0.10566000000E+00  0.10566000000E+00 0. -1.
     999900   -1    0    0    0    0 -0.00000000000E+00 -0.00000000000E+00 -0.74505805969E-08  0.93827000000E+00  0.93827000000E+00 0.  1.
     999902    2    1    2    0    0  0.18395488412E-01  0.10373814356E-01 -0.83494344979E-02  0.10212204629E+01  0.10209679284E+01 0.  0.
     999903    2    3    3    0    0  0.10647331228E+00 -0.75051906445E-01 -0.14831993696E-01  0.13268386805E+00  0.20387886520E-01 0.  0.
         14    1    1    2    0    0 -0.18395488412E-01 -0.10373814356E-01  0.83494344979E-02  0.22709537085E-01  0.00000000000E+00 0.  1.
     999901    1    3    3    0    0 -0.88077823866E-01  0.85425720801E-01  0.64825591983E-02  0.88853659486E+00  0.88000000000E+00 0.  1.
        -11    1    4    4    0    0  0.71210087510E-01 -0.46541868067E-01 -0.18919159962E-01  0.87150546648E-01  0.51100000000E-03 0.  1.
         11    1    4    4    0    0  0.35263224767E-01 -0.28510038378E-01  0.40871662654E-02  0.45533321407E-01  0.51100000000E-03 0. -1.
</event>
<event>
 8    1  0.1204770E+005  0.1043930E+01  0.7957747E-01            NaN
         13   -1    0    0    0    0  0.00000000000E+00  0.00000000000E+00  0.74505805969E-08  0.10566000000E+00  0.10566000000E+00 0. -1.
     999900   -1    0    0    0    0 -0.00000000000E+00 -0.00000000000E+00 -0.74505805969E-08  0.93827000000E+00  0.93827000000E+00 0. -1.
     999902    2    1    2    0    0  0.10038019653E-01 -0.85136326220E-02  0.20222176881E-01  0.10198015890E+01  0.10195161111E+01 0.  0.
     999903    2    3    3    0    0  0.21089869990E-01 -0.82076085737E-01 -0.95410684357E-01  0.12912514018E+00  0.19718941944E-01 0.  0.
         14    1    1    2    0    0 -0.10038019653E-01  0.85136326220E-02 -0.20222176881E-01  0.24128410988E-01  0.00000000000E+00 0.  1.
     999901    1    3    3    0    0 -0.11051850337E-01  0.73562453115E-01  0.11563286124E+00  0.89067644883E+00  0.88000000000E+00 0.  1.
        -11    1    4    4    0    0  0.93484144164E-02 -0.68006567521E-01 -0.76573029940E-01  0.10283956492E+00  0.51100000000E-03 0.  1.
         11    1    4    4    0    0  0.11741455573E-01 -0.14069518215E-01 -0.18837654417E-01  0.26285575260E-01  0.51100000000E-03 0. -1.
</event>
<event>
 8    1  0.1204770E+005  0.1043930E+01  0.7957747E-01            NaN
         13   -1    0    0    0    0  0.00000000000E+00  0.00000000000E+00  0.74505805969E-08  0.10566000000E+00  0.10566000000E+00 0. -1.
     999900   -1    0    0    0    0 -0.00000000000E+00 -0.00000000000E+00 -0.74505805969E-08  0.93827000000E+00  0.93827000000E+00 0. -1.
     999902    2    1    2    0    0 -0.14272667476E-02  0.77482765157E-02  0.22593301151E-01  0.10200023980E+01  0.10197217080E+01 0.  0.
     999903    2    3    3    0    0 -0.10907434228E+00  0.61037394174E-01  0.37311637424E-01  0.13172076906E+00  0.18314668514E-01 0.  0.
         14    1    1    2    0    0  0.14272667476E-02 -0.77482765157E-02 -0.22593301151E-01  0.23927601974E-01  0.00000000000E+00 0.  1.
     999901    1    3    3    0    0  0.10764707554E+00 -0.53289117658E-01 -0.14718336272E-01  0.88828162896E+00  0.88000000000E+00 0. -1.
        -11    1    4    4    0    0 -0.20067649847E-01  0.18746059865E-01  0.43411926709E-02  0.27807056760E-01  0.51100000000E-03 0. -1.
         11    1    4    4    0    0 -0.89006692437E-01  0.42291334310E-01  0.32970444753E-01  0.10391371230E+00  0.51100000000E-03 0.  1.
</event>
<event>
 8    1  0.1204770E+005  0.1043930E+01  0.7957747E-01            NaN
         13   -1    0    0    0    0  0.00000000000E+00  0.00000000000E+00  0.74505805969E-08  0.10566000000E+00  0.10566000000E+00 0. -1.
     999900   -1    0    0    0    0 -0.00000000000E+00 -0.00000000000E+00 -0.74505805969E-08  0.93827000000E+00  0.93827000000E+00 0. -1.
     999902    2    1    2    0    0  0.12535284998E-01  0.19363936109E-01  0.57678491291E-02  0.10201526268E+01  0.10198754917E+01 0.  0.
     999903    2    3    3    0    0 -0.25779258113E-01  0.42547398537E-01 -0.11867736067E+00  0.13026943933E+00  0.20272138923E-01 0.  0.
         14    1    1    2    0    0 -0.12535284998E-01 -0.19363936109E-01 -0.57678491291E-02  0.23777373177E-01  0.00000000000E+00 0. -1.
     999901    1    3    3    0    0  0.38314543112E-01 -0.23183462428E-01  0.12444520980E+00  0.88988318749E+00  0.88000000000E+00 0.  1.
        -11    1    4    4    0    0 -0.27732151444E-01  0.31168292115E-01 -0.99271943453E-01  0.10768339953E+00  0.51100000000E-03 0.  1.
         11    1    4    4    0    0  0.19528933306E-02  0.11379106422E-01 -0.19405417216E-01  0.22586039795E-01  0.51100000000E-03 0. -1.
</event>
<event>
 8    1  0.1204770E+005  0.1043930E+01  0.7957747E-01            NaN
         13   -1    0    0    0    0  0.00000000000E+00  0.00000000000E+00  0.74505805969E-08  0.10566000000E+00  0.10566000000E+00 0. -1.
     999900   -1    0    0    0    0 -0.00000000000E+00 -0.00000000000E+00 -0.74505805969E-08  0.93827000000E+00  0.93827000000E+00 0.  1.
     999902    2    1    2    0    0  0.54819700783E-02 -0.10569630674E-01 -0.20194016750E-01  0.10204871461E+01  0.10202178433E+01 0.  0.
     999903    2    3    3    0    0  0.43012397364E-02 -0.49251613826E-01  0.11703545976E+00  0.12901105599E+00  0.22412755268E-01 0.  0.
         14    1    1    2    0    0 -0.54819700783E-02  0.10569630674E-01  0.20194016750E-01  0.23442853944E-01  0.00000000000E+00 0. -1.
     999901    1    3    3    0    0  0.11807303419E-02  0.38681983152E-01 -0.13722947651E+00  0.89147609007E+00  0.88000000000E+00 0.  1.
        -11    1    4    4    0    0 -0.17975694966E-03 -0.47547051554E-01  0.92496986464E-01  0.10400340403E+00  0.51100000000E-03 0.  1.
         11    1    4    4    0    0  0.44809966860E-02 -0.17045622717E-02  0.24538473292E-01  0.25007651956E-01  0.51100000000E-03 0. -1.
</event>
<event>
 8    1  0.1204770E+005  0.1043930E+01  0.7957747E-01            NaN
         13   -1    0    0    0    0  0.00000000000E+00  0.00000000000E+00  0.74505805969E-08  0.10566000000E+00  0.10566000000E+00 0.  1.
     999900   -1    0    0    0    0 -0.00000000000E+00 -0.00000000000E+00 -0.74505805969E-08  0.93827000000E+00  0.93827000000E+00 0. -1.
     999902    2    1    2    0    0  0.80967261275E-02 -0.51457924410E-03 -0.22504504073E-01  0.10200077411E+01  0.10197271780E+01 0.  0.
     999903    2    3    3    0    0 -0.12243904640E+00 -0.34631547168E-01 -0.15042189712E-01  0.12969361592E+00  0.20087369124E-01 0.  0.
         14    1    1    2    0    0 -0.80967261275E-02  0.51457924410E-03  0.22504504073E-01  0.23922258868E-01  0.00000000000E+00 0.  1.
     999901    1    3    3    0    0  0.13053577252E+00  0.34116967924E-01 -0.74623143607E-02  0.89031412521E+00  0.88000000000E+00 0. -1.
        -11    1    4    4    0    0 -0.63186373859E-01 -0.28201613490E-01 -0.92049919816E-02  0.69805743627E-01  0.51100000000E-03 0.  1.
         11    1    4    4    0    0 -0.59252672537E-01 -0.64299336779E-02 -0.58371977306E-02  0.59887872297E-01  0.51100000000E-03 0. -1.
</event>
<event>
 8    1  0.1204770E+005  0.1043930E+01  0.7957747E-01            NaN
         13   -1    0    0    0    0  0.00000000000E+00  0.00000000000E+00  0.74505805969E-08  0.10566000000E+00  0.10566000000E+00 0. -1.
     999900   -1    0    0    0    0 -0.00000000000E+00 -0.00000000000E+00 -0.74505805969E-08  0.93827000000E+00  0.93827000000E+00 0. -1.
     999902    2    1    2    0    0 -0.15932209227E-01 -0.14816397569E-01 -0.92897685610E-02  0.10202728504E+01  0.10199985434E+01 0.  0.
     999903    2    3    3    0    0 -0.14922760435E-01  0.10446040442E+00 -0.72819155619E-01  0.12995607671E+00  0.21243530247E-01 0.  0.
         14    1    1    2    0    0  0.15932209227E-01  0.14816397569E-01  0.92897685610E-02  0.23657149610E-01  0.00000000000E+00 0. -1.
     999901    1    3    3    0    0 -0.10094487919E-02 -0.11927680199E+00  0.63529387058E-01  0.89031677368E+00  0.88000000000E+00 0.  1.
        -11    1    4    4    0    0 -0.10935700076E-01  0.27057211646E-01 -0.12541316024E-01  0.31768348506E-01  0.51100000000E-03 0. -1.
         11    1    4    4    0    0 -0.39870603592E-02  0.77403192775E-01 -0.60277839596E-01  0.98187728201E-01  0.51100000000E-03 0.  1.
</event>
<event>
 8    1  0.1204770E+005  0.1043930E+01  0.7957747E-01            NaN
         13   -1    0    0    0    0  0.00000000000E+00  0.00000000000E+00  0.74505805969E-08  0.10566000000E+00  0.10566000000E+00 0.  1.
     999900   -1    0    0    0    0 -0.00000000000E+00 -0.00000000000E+00 -0.74505805969E-08  0.93827000000E+00  0.93827000000E+00 0.  1.
     999902    2    1    2    0    0 -0.19148750431E-01  0.83860476166E-02  0.73754848530E-02  0.10217624964E+01  0.10215220022E+01 0.  0.
     999903    2    3    3    0    0  0.24923297918E-01 -0.10211235475E+00 -0.73656420876E-01  0.13006837168E+00  0.21081015259E-01 0.  0.
         14    1    1    2    0    0  0.19148750431E-01 -0.83860476166E-02 -0.73754848530E-02  0.22167503569E-01  0.00000000000E+00 0. -1.
     999901    1    3    3    0    0 -0.44072048349E-01  0.11049840236E+00  0.81031905729E-01  0.89169412475E+00  0.88000000000E+00 0. -1.
        -11    1    4    4    0    0  0.22135261592E-01 -0.64691869237E-01 -0.37628840010E-01  0.78046130414E-01  0.51100000000E-03 0.  1.
         11    1    4    4    0    0  0.27880363261E-02 -0.37420485509E-01 -0.36027580865E-01  0.52022241265E-01  0.51100000000E-03 0. -1.
</event>
<event>
 8    1  0.1204770E+005  0.1043930E+01  0.7957747E-01            NaN
         13   -1    0    0    0    0  0.00000000000E+00  0.00000000000E+00  0.74505805969E-08  0.10566000000E+00  0.10566000000E+00 0.  1.
     999900   -1    0    0    0    0 -0.00000000000E+00 -0.00000000000E+00 -0.74505805969E-08  0.93827000000E+00  0.93827000000E+00 0. -1.
     999902    2    1    2    0    0  0.15815527579E-01  0.19469682011E-01  0.11560545373E-01  0.10163103396E+01  0.10159349688E+01 0.  0.
     999903    2    3    3    0    0  0.11774344724E+00 -0.98125340529E-02  0.48159364885E-01  0.12918790017E+00  0.20257935063E-01 0.  0.
         14    1    1    2    0    0 -0.15815527579E-01 -0.19469682011E-01 -0.11560545373E-01  0.27619660380E-01  0.00000000000E+00 0.  1.
     999901    1    3    3    0    0 -0.10192791966E+00  0.29282216064E-01 -0.36598819512E-01  0.88712243945E+00  0.88000000000E+00 0. -1.
        -11    1    4    4    0    0  0.73730311997E-01 -0.37460367121E-02  0.40153527554E-01  0.84040220099E-01  0.51100000000E-03 0.  1.
         11    1    4    4    0    0  0.44013135239E-01 -0.60664973408E-02  0.80058373302E-02  0.45147680072E-01  0.51100000000E-03 0. -1.
</event>
<event>
 8    1  0.1204770E+005  0.1043930E+01  0.7957747E-01            NaN
         13   -1    0    0    0    0  0.00000000000E+00  0.00000000000E+00  0.74505805969E-08  0.10566000000E+00  0.10566000000E+00 0. -1.
     999900   -1    0    0    0    0 -0.00000000000E+00 -0.00000000000E+00 -0.74505805969E-08  0.93827000000E+00  0.93827000000E+00 0.  1.
     999902    2    1    2    0    0  0.14766192726E-02  0.37530115633E-02 -0.28604810871E-01  0.10150422741E+01  0.10146311239E+01 0.  0.
     999903    2    3    3    0    0 -0.16338961557E-01 -0.56112551279E-01  0.10587773335E+00  0.12263718942E+00  0.20352044948E-01 0.  0.
         14    1    1    2    0    0 -0.14766192726E-02 -0.37530115633E-02  0.28604810871E-01  0.28887725858E-01  0.00000000000E+00 0. -1.
     999901    1    3    3    0    0  0.17815580830E-01  0.59865562842E-01 -0.13448254422E+00  0.89240508472E+00  0.88000000000E+00 0. -1.
        -11    1    4    4    0    0 -0.55439760543E-02 -0.26612856171E-01  0.29863925229E-01  0.40386816353E-01  0.51100000000E-03 0.  1.
         11    1    4    4    0    0 -0.10794985503E-01 -0.29499695109E-01  0.76013808123E-01  0.82250373069E-01  0.51100000000E-03 0. -1.
</event>
<event>
 8    1  0.1204770E+005  0.1043930E+01  0.7957747E-01            NaN
         13   -1    0    0    0    0  0.00000000000E+00  0.00000000000E+00  0.74505805969E-08  0.10566000000E+00  0.10566000000E+00 0.  1.
     999900   -1    0    0    0    0 -0.00000000000E+00 -0.00000000000E+00 -0.74505805969E-08  0.93827000000E+00  0.93827000000E+00 0.  1.
     999902    2    1    2    0    0  0.13345918514E-01  0.10833273438E-01 -0.16690741058E-01  0.10199705720E+01  0.10196891259E+01 0.  0.
     999903    2    3    3    0    0 -0.12685482328E+00 -0.50420273910E-02 -0.53810192400E-02  0.12865907593E+00  0.20165173482E-01 0.  0.
         14    1    1    2    0    0 -0.13345918514E-01 -0.10833273438E-01  0.16690741058E-01  0.23959428028E-01  0.00000000000E+00 0.  1.
     999901    1    3    3    0    0  0.14020074179E+00  0.15875300829E-01 -0.11309721818E-01  0.89131149605E+00  0.88000000000E+00 0. -1.
        -11    1    4    4    0    0 -0.75898436338E-01  0.14414061279E-02  0.56306138177E-02  0.76122370057E-01  0.51100000000E-03 0.  1.
         11    1    4    4    0    0 -0.50956386938E-01 -0.64834335189E-02 -0.11011633058E-01  0.52536705869E-01  0.51100000000E-03 0. -1.
</event>
<event>
 8    1  0.1204770E+005  0.1043930E+01  0.7957747E-01            NaN
         13   -1    0    0    0    0  0.00000000000E+00  0.00000000000E+00  0.74505805969E-08  0.10566000000E+00  0.10566000000E+00 0. -1.
     999900   -1    0    0    0    0 -0.00000000000E+00 -0.00000000000E+00 -0.74505805969E-08  0.93827000000E+00  0.93827000000E+00 0. -1.
     999902    2    1    2    0    0  0.11546015648E-01  0.93734282780E-02  0.18551286078E-01  0.10201535021E+01  0.10198763877E+01 0.  0.
     999903    2    3    3    0    0  0.56732815970E-01 -0.11042767499E+00 -0.31190883514E-01  0.12949732005E+00  0.19590836516E-01 0.  0.
         14    1    1    2    0    0 -0.11546015648E-01 -0.93734282780E-02 -0.18551286078E-01  0.23776497854E-01  0.00000000000E+00 0. -1.
     999901    1    3    3    0    0 -0.45186800322E-01  0.11980110327E+00  0.49742169592E-01  0.89065618209E+00  0.88000000000E+00 0.  1.
        -11    1    4    4    0    0  0.38961278931E-01 -0.68056015974E-01 -0.28601291193E-01  0.83473933328E-01  0.51100000000E-03 0.  1.
         11    1    4    4    0    0  0.17771537039E-01 -0.42371659013E-01 -0.25895923204E-02  0.46023386725E-01  0.51100000000E-03 0. -1.
</event>
<event>
 8    1  0.1204770E+005  0.1043930E+01  0.7957747E-01            NaN
         13   -1    0    0    0    0  0.00000000000E+00  0.00000000000E+00  0.74505805969E-08  0.10566000000E+00  0.10566000000E+00 0.  1.
     999900   -1    0    0    0    0 -0.00000000000E+00 -0.00000000000E+00 -0.74505805969E-08  0.93827000000E+00  0.93827000000E+00 0.  1.
     999902    2    1    2    0    0  0.96686840270E-02 -0.13395006396E-01  0.18249502197E-01  0.10193138675E+01  0.10190165880E+01 0.  0.
     999903    2    3    3    0    0  0.46467822816E-01  0.50212794326E-01 -0.10577678029E+00  0.12758372468E+00  0.20206342619E-01 0.  0.
         14    1    1    2    0    0 -0.96686840270E-02  0.13395006396E-01 -0.18249502197E-01  0.24616132466E-01  0.00000000000E+00 0. -1.
     999901    1    3    3    0    0 -0.36799138789E-01 -0.63607800723E-01  0.12402628249E+00  0.89173014286E+00  0.88000000000E+00 0. -1.
        -11    1    4    4    0    0  0.21348252050E-01  0.13515672989E-01 -0.26069557603E-01  0.36308459572E-01  0.51100000000E-03 0.  1.
         11    1    4    4    0    0  0.25119570766E-01  0.36697121337E-01 -0.79707222691E-01  0.91275265106E-01  0.51100000000E-03 0. -1.
</event>
<event>
 8    1  0.1204770E+005  0.1043930E+01  0.7957747E-01            NaN
         13   -1    0    0    0    0  0.00000000000E+00  0.00000000000E+00  0.74505805969E-08  0.10566000000E+00  0.10566000000E+00 0. -1.
     999900   -1    0    0    0    0 -0.00000000000E+00 -0.00000000000E+00 -0.74505805969E-08  0.93827000000E+00  0.93827000000E+00 0. -1.
     999902    2    1    2    0    0 -0.14019422363E-01 -0.13675354124E-01  0.13036003657E-01  0.10204034851E+01  0.10201322343E+01 0.  0.
     999903    2    3    3    0    0 -0.41948314490E-01 -0.11757960924E+00 -0.38948661644E-01  0.13232774354E+00  0.20223942961E-01 0.  0.
         14    1    1    2    0    0  0.14019422363E-01  0.13675354124E-01 -0.13036003657E-01  0.23526514938E-01  0.00000000000E+00 0.  1.
     999901    1    3    3    0    0  0.27928892128E-01  0.10390425512E+00  0.51984665301E-01  0.88807574152E+00  0.88000000000E+00 0.  1.
        -11    1    4    4    0    0 -0.14374658698E-01 -0.55950926682E-01 -0.90049851735E-02  0.58467836357E-01  0.51100000000E-03 0. -1.
         11    1    4    4    0    0 -0.27573655792E-01 -0.61628682561E-01 -0.29943676470E-01  0.73859907186E-01  0.51100000000E-03 0.  1.
</event>
<event>
 8    1  0.1204770E+005  0.1043930E+01  0.7957747E-01            NaN
         13   -1    0    0    0    0  0.00000000000E+00  0.00000000000E+00  0.74505805969E-08  0.10566000000E+00  0.10566000000E+00 0.  1.
     999900   -1    0    0    0    0 -0.00000000000E+00 -0.00000000000E+00 -0.74505805969E-08  0.93827000000E+00  0.93827000000E+00 0.  1.
     999902    2    1    2    0    0 -0.60025923188E-02 -0.82017361737E-02  0.20547227620E-01  0.10210064716E+01  0.10207491009E+01 0.  0.
     999903    2    3    3    0    0 -0.63348551018E-01  0.10902368828E+00  0.29135049356E-01  0.13134130437E+00  0.22416146229E-01 0.  0.
         14    1    1    2    0    0  0.60025923188E-02  0.82017361737E-02 -0.20547227620E-01  0.22923528386E-01  0.00000000000E+00 0. -1.
     999901    1    3    3    0    0  0.57345958699E-01 -0.11722542445E+00 -0.85878217359E-02  0.88966516724E+00  0.88000000000E+00 0.  1.
        -11    1    4    4    0    0 -0.52440224529E-01  0.94282214622E-01  0.32531341394E-01  0.11268390496E+00  0.51100000000E-03 0.  1.
         11    1    4    4    0    0 -0.10908326490E-01  0.14741473656E-01 -0.33962920384E-02  0.18657399416E-01  0.51100000000E-03 0. -1.
</event>
<event>
 8    1  0.1204770E+005  0.1043930E+01  0.7957747E-01            NaN
         13   -1    0    0    0    0  0.00000000000E+00  0.00000000000E+00  0.74505805969E-08  0.10566000000E+00  0.10566000000E+00 0. -1.
     999900   -1    0    0    0    0 -0.00000000000E+00 -0.00000000000E+00 -0.74505805969E-08  0.93827000000E+00  0.93827000000E+00 0.  1.
     999902    2    1    2    0    0 -0.82626506526E-02  0.22742314200E-02 -0.22674199246E-01  0.10196903045E+01  0.10194021554E+01 0.  0.
     999903    2    3    3    0    0 -0.11979283606E+00 -0.48575206228E-01 -0.13058292717E-01  0.13114254937E+00  0.17831853950E-01 0.  0.
         14    1    1    2    0    0  0.82626506526E-02 -0.22742314200E-02  0.22674199246E-01  0.24239695457E-01  0.00000000000E+00 0. -1.
     999901    1    3    3    0    0  0.11153018541E+00  0.50849437648E-01 -0.96159065291E-02  0.88854775517E+00  0.88000000000E+00 0. -1.
        -11    1    4    4    0    0 -0.38711361500E-01 -0.83052020439E-02 -0.84856625077E-02  0.40494610498E-01  0.51100000000E-03 0. -1.
         11    1    4    4    0    0 -0.81081474559E-01 -0.40270004184E-01 -0.45726302097E-02  0.90647938871E-01  0.51100000000E-03 0.  1.
</event>
<event>
 8    1  0.1204770E+005  0.1043930E+01  0.7957747E-01            NaN
         13   -1    0    0    0    0  0.00000000000E+00  0.00000000000E+00  0.74505805969E-08  0.10566000000E+00  0.10566000000E+00 0. -1.
     999900   -1    0    0    0    0 -0.00000000000E+00 -0.00000000000E+00 -0.74505805969E-08  0.93827000000E+00  0.93827000000E+00 0. -1.
     999902    2    1    2    0    0 -0.32643097033E-02  0.11334106631E-01  0.19718082983E-01  0.10209534796E+01  0.10206949040E+01 0.  0.
     999903    2    3    3    0    0 -0.11371378820E+00 -0.60900491106E-01  0.54599115190E-02  0.13099830108E+00  0.22159621111E-01 0.  0.
         14    1    1    2    0    0  0.32643097033E-02 -0.11334106631E-01 -0.19718082983E-01  0.22976520352E-01  0.00000000000E+00 0.  1.
     999901    1    3    3    0    0  0.11044947850E+00  0.72234597736E-01  0.14258171464E-01  0.88995517857E+00  0.88000000000E+00 0.  1.
        -11    1    4    4    0    0 -0.95954299800E-01 -0.41800073872E-01  0.20023344968E-02  0.10468402118E+00  0.51100000000E-03 0.  1.
         11    1    4    4    0    0 -0.17759488400E-01 -0.19100417234E-01  0.34575770222E-02  0.26314279899E-01  0.51100000000E-03 0. -1.
</event>
<event>
 8    1  0.1204770E+005  0.1043930E+01  0.7957747E-01            NaN
         13   -1    0    0    0    0  0.00000000000E+00  0.00000000000E+00  0.74505805969E-08  0.10566000000E+00  0.10566000000E+00 0.  1.
     999900   -1    0    0    0    0 -0.00000000000E+00 -0.00000000000E+00 -0.74505805969E-08  0.93827000000E+00  0.93827000000E+00 0.  1.
     999902    2    1    2    0    0  0.11714706364E-01 -0.80451604323E-02  0.19050517214E-01  0.10201627713E+01  0.10198858754E+01 0.  0.
     999903    2    3    3    0    0 -0.31907355069E-01 -0.10250592302E+00 -0.70629905372E-01  0.12950666594E+00  0.16057690646E-01 0.  0.
         14    1    1    2    0    0 -0.11714706364E-01  0.80451604323E-02 -0.19050517214E-01  0.23767228650E-01  0.00000000000E+00 0. -1.
     999901    1    3    3    0    0  0.43622061433E-01  0.94460762583E-01  0.89680422586E-01  0.89065610541E+00  0.88000000000E+00 0. -1.
        -11    1    4    4    0    0 -0.24765545831E-01 -0.62413435271E-01 -0.50851687703E-01  0.84231374355E-01  0.51100000000E-03 0. -1.
         11    1    4    4    0    0 -0.71418092381E-02 -0.40092487745E-01 -0.19778217669E-01  0.45275291583E-01  0.51100000000E-03 0.  1.
</event>
<event>
 8    1  0.1340682E+005  0.1043930E+01  0.7957747E-01            NaN
         13   -1    0    0    0    0  0.00000000000E+00  0.00000000000E+00  0.74505805969E-08  0.10566000000E+00  0.10566000000E+00 0. -1.
     999900   -1    0    0    0    0 -0.00000000000E+00 -0.00000000000E+00 -0.74505805969E-08  0.93827000000E+00  0.93827000000E+00 0. -1.
     999902    2    1    2    0    0 -0.16515902153E-01 -0.18058727754E-01  0.43120553881E-02  0.10190807245E+01  0.10187777169E+01 0.  0.
     999903    2    3    3    0    0  0.52633024732E-01 -0.34818018349E-01 -0.10991690186E+00  0.12885002260E+00  0.23196407338E-01 0.  0.
         14    1    1    2    0    0  0.16515902153E-01  0.18058727754E-01 -0.43120553881E-02  0.24849275516E-01  0.00000000000E+00 0.  1.
     999901    1    3    3    0    0 -0.69148926884E-01  0.16759290595E-01  0.11422895725E+00  0.89023070189E+00  0.88000000000E+00 0.  1.
        -11    1    4    4    0    0  0.17364367586E-01 -0.60955874419E-02 -0.15575484812E-01  0.24115022207E-01  0.51100000000E-03 0.  1.
         11    1    4    4    0    0  0.35268657146E-01 -0.28722430907E-01 -0.94341417051E-01  0.10473500039E+00  0.51100000000E-03 0. -1.
</event>
<event>
 8    1  0.1204770E+005  0.1043930E+01  0.7957747E-01            NaN
         13   -1    0    0    0    0  0.00000000000E+00  0.00000000000E+00  0.74505805969E-08  0.10566000000E+00  0.10566000000E+00 0. -1.
     999900   -1    0    0    0    0 -0.00000000000E+00 -0.00000000000E+00 -0.74505805969E-08  0.93827000000E+00  0.93827000000E+00 0.  1.
     999902    2    1    2    0    0  0.69007711196E-02  0.21513838558E-01 -0.10907012390E-01  0.10188415801E+01  0.10185326390E+01 0.  0.
     999903    2    3    3    0    0  0.86540684972E-01 -0.80412968922E-01  0.41666787243E-01  0.12783339030E+00  0.25489582000E-01 0.  0.
         14    1    1    2    0    0 -0.69007711196E-02 -0.21513838558E-01  0.10907012390E-01  0.25088419855E-01  0.00000000000E+00 0.  1.
     999901    1    3    3    0    0 -0.79639913852E-01  0.10192680748E+00 -0.52573799633E-01  0.89100818984E+00  0.88000000000E+00 0.  1.
        -11    1    4    4    0    0  0.45934321795E-01 -0.56506170860E-01  0.17600108837E-01  0.74919518259E-01  0.51100000000E-03 0. -1.
         11    1    4    4    0    0  0.40606363177E-01 -0.23906798061E-01  0.24066678406E-01  0.52913872042E-01  0.51100000000E-03 0.  1.
</event>
<event>
 8    1  0.1204770E+005  0.1043930E+01  0.7957747E-01            NaN
         13   -1    0    0    0    0  0.00000000000E+00  0.00000000000E+00  0.74505805969E-08  0.10566000000E+00  0.10566000000E+00 0.  1.
     999900   -1    0    0    0    0 -0.00000000000E+00 -0.00000000000E+00 -0.74505805969E-08  0.93827000000E+00  0.93827000000E+00 0.  1.
     999902    2    1    2    0    0 -0.91137831394E-02  0.18181965656E-01 -0.15547071506E-01  0.10183300713E+01  0.10180082405E+01 0.  0.
     999903    2    3    3    0    0 -0.42124493613E-01  0.12289856318E+00 -0.17079677121E-01  0.13150561194E+00  0.11112191860E-01 0.  0.
         14    1    1    2    0    0  0.91137831394E-02 -0.18181965656E-01  0.15547071506E-01  0.25599928723E-01  0.00000000000E+00 0.  1.
     999901    1    3    3    0    0  0.33010710473E-01 -0.10471659752E+00  0.15326056158E-02  0.88682445934E+00  0.88000000000E+00 0.  1.
        -11    1    4    4    0    0 -0.29285438911E-01  0.91389635659E-01 -0.17084848359E-01  0.97477462023E-01  0.51100000000E-03 0.  1.
         11    1    4    4    0    0 -0.12839054702E-01  0.31508927516E-01  0.51712373401E-05  0.34028149915E-01  0.51100000000E-03 0. -1.
</event>
<event>
 8    1  0.1204770E+005  0.1043930E+01  0.7957747E-01            NaN
         13   -1    0    0    0    0  0.00000000000E+00  0.00000000000E+00  0.74505805969E-08  0.10566000000E+00  0.10566000000E+00 0. -1.
     999900   -1    0    0    0    0 -0.00000000000E+00 -0.00000000000E+00 -0.74505805969E-08  0.93827000000E+00  0.93827000000E+00 0. -1.
     999902    2    1    2    0    0 -0.18622947337E-02 -0.59080818281E-02 -0.23592255226E-01  0.10195380325E+01  0.10192462075E+01 0.  0.
     999903    2    3    3    0    0 -0.94273311088E-01 -0.63937402321E-01  0.57560588536E-01  0.12909264840E+00  0.19396956468E-01 0.  0.
         14    1    1    2    0    0  0.18622947337E-02  0.59080818281E-02  0.23592255226E-01  0.24391967515E-01  0.00000000000E+00 0. -1.
     999901    1    3    3    0    0  0.92411016355E-01  0.58029320493E-01 -0.81152843763E-01  0.89044538408E+00  0.88000000000E+00 0.  1.
        -11    1    4    4    0    0 -0.69737318094E-01 -0.43001098079E-01  0.32090515537E-01  0.87991194328E-01  0.51100000000E-03 0.  1.
         11    1    4    4    0    0 -0.24535992995E-01 -0.20936304242E-01  0.25470073000E-01  0.41101454076E-01  0.51100000000E-03 0. -1.
</event>
<event>
 8    1  0.1204770E+005  0.1043930E+01  0.7957747E-01            NaN
         13   -1    0    0    0    0  0.00000000000E+00  0.00000000000E+00  0.74505805969E-08  0.10566000000E+00  0.10566000000E+00 0. -1.
     999900   -1    0    0    0    0 -0.00000000000E+00 -0.00000000000E+00 -0.74505805969E-08  0.93827000000E+00  0.93827000000E+00 0. -1.
     999902    2    1    2    0    0  0.18342752628E-01 -0.13518354388E-01  0.28892462866E-02  0.10209615385E+01  0.10207031463E+01 0.  0.
     999903    2    3    3    0    0  0.62451216917E-01  0.10750426864E+00 -0.34736088745E-01  0.13078869139E+00  0.21018174580E-01 0.  0.
         14    1    1    2    0    0 -0.18342752628E-01  0.13518354388E-01 -0.28892462866E-02  0.22968461494E-01  0.00000000000E+00 0.  1.
     999901    1    3    3    0    0 -0.44108464289E-01 -0.12102262303E+00  0.37625335031E-01  0.89017284712E+00  0.88000000000E+00 0.  1.
        -11    1    4    4    0    0  0.33272649474E-01  0.69103374191E-01 -0.12624422579E-01  0.77730191651E-01  0.51100000000E-03 0. -1.
         11    1    4    4    0    0  0.29178567442E-01  0.38400894454E-01 -0.22111666165E-01  0.53058499738E-01  0.51100000000E-03 0.  1.
</event>
<event>
 8    1  0.1204770E+005  0.1043930E+01  0.7957747E-01            NaN
         13   -1    0    0    0    0  0.00000000000E+00  0.00000000000E+00  0.74505805969E-08  0.10566000000E+00  0.10566000000E+00 0.  1.
     999900   -1    0    0    0    0 -0.00000000000E+00 -0.00000000000E+00 -0.74505805969E-08  0.93827000000E+00  0.93827000000E+00 0. -1.
     999902    2    1    2    0    0 -0.20287888326E-01  0.14068841415E-01 -0.81643602914E-02  0.10179263947E+01  0.10175942008E+01 0.  0.
     999903    2    3    3    0    0  0.40602232975E-01  0.42487735841E-01  0.11075835504E+00  0.12738843778E+00  0.22508928179E-01 0.  0.
         14    1    1    2    0    0  0.20287888326E-01 -0.14068841415E-01  0.81643602914E-02  0.26003605336E-01  0.00000000000E+00 0. -1.
     999901    1    3    3    0    0 -0.60890121301E-01 -0.28418894426E-01 -0.11892271534E+00  0.89053795689E+00  0.88000000000E+00 0. -1.
        -11    1    4    4    0    0  0.14699009155E-01  0.96428094585E-02  0.54592013735E-01  0.57354979984E-01  0.51100000000E-03 0. -1.
         11    1    4    4    0    0  0.25903223820E-01  0.32844926382E-01  0.56166341310E-01  0.70033457793E-01  0.51100000000E-03 0.  1.
</event>
<event>
 8    1  0.1204770E+005  0.1043930E+01  0.7957747E-01            NaN
         13   -1    0    0    0    0  0.00000000000E+00  0.00000000000E+00  0.74505805969E-08  0.10566000000E+00  0.10566000000E+00 0.  1.
     999900   -1    0    0    0    0 -0.00000000000E+00 -0.00000000000E+00 -0.74505805969E-08  0.93827000000E+00  0.93827000000E+00 0. -1.
     999902    2    1    2    0    0  0.21014738854E-02  0.14877614764E-02  0.21766241127E-01  0.10220119965E+01  0.10217769434E+01 0.  0.
     999903    2    3    3    0    0 -0.93239768760E-01 -0.44798790795E-01  0.82232130246E-01  0.13359288296E+00  0.19604820782E-01 0.  0.
         14    1    1    2    0    0 -0.21014738854E-02 -0.14877614764E-02 -0.21766241127E-01  0.21918003547E-01  0.00000000000E+00 0. -1.
     999901    1    3    3    0    0  0.95341242646E-01  0.46286552272E-01 -0.60465889119E-01  0.88841911349E+00  0.88000000000E+00 0.  1.
        -11    1    4    4    0    0 -0.36410089760E-01 -0.23360145309E-01  0.44618317215E-01  0.62148583068E-01  0.51100000000E-03 0.  1.
         11    1    4    4    0    0 -0.56829679001E-01 -0.21438645486E-01  0.37613813031E-01  0.71444299894E-01  0.51100000000E-03 0. -1.
</event>
<event>
 8    1  0.1204770E+005  0.1043930E+01  0.7957747E-01            NaN
         13   -1    0    0    0    0  0.00000000000E+00  0.00000000000E+00  0.74505805969E-08  0.10566000000E+00  0.10566000000E+00 0.  1.
     999900   -1    0    0    0    0 -0.00000000000E+00 -0.00000000000E+00 -0.74505805969E-08  0.93827000000E+00  0.93827000000E+00 0. -1.
     999902    2    1    2    0    0 -0.20933109333E-01 -0.10495818302E-01  0.42080417405E-02  0.10201378819E+01  0.10198603989E+01 0.  0.
     999903    2    3    3    0    0  0.12020272542E+00 -0.20954167327E-01  0.34374279446E-01  0.12832024202E+00  0.19917858776E-01 0.  0.
         14    1    1    2    0    0  0.20933109333E-01  0.10495818302E-01 -0.42080417405E-02  0.23792118095E-01  0.00000000000E+00 0.  1.
     999901    1    3    3    0    0 -0.14113583475E+00  0.10458349025E-01 -0.30166237705E-01  0.89181763989E+00  0.88000000000E+00 0.  1.
        -11    1    4    4    0    0  0.65172486693E-01 -0.20625875234E-02  0.14184759425E-01  0.66732119778E-01  0.51100000000E-03 0. -1.
         11    1    4    4    0    0  0.55030238724E-01 -0.18891579804E-01  0.20189520021E-01  0.61588122241E-01  0.51100000000E-03 0.  1.
</event>
<event>
 8    1  0.1204770E+005  0.1043930E+01  0.7957747E-01            NaN
         13   -1    0    0    0    0  0.00000000000E+00  0.00000000000E+00  0.74505805969E-08  0.10566000000E+00  0.10566000000E+00 0. -1.
     999900   -1    0    0    0    0 -0.00000000000E+00 -0.00000000000E+00 -0.74505805969E-08  0.93827000000E+00  0.93827000000E+00 0.  1.
     999902    2    1    2    0    0 -0.29285172585E-02 -0.90985580863E-02  0.22320918235E-01  0.10196486622E+01  0.10193595102E+01 0.  0.
     999903    2    3    3    0    0  0.67820088119E-01 -0.92244549884E-01 -0.56494550261E-01  0.12940684162E+00  0.21115755067E-01 0.  0.
         14    1    1    2    0    0  0.29285172585E-02  0.90985580863E-02 -0.22320918235E-01  0.24281337760E-01  0.00000000000E+00 0.  1.
     999901    1    3    3    0    0 -0.70748605377E-01  0.83145991797E-01  0.78815468495E-01  0.89024182062E+00  0.88000000000E+00 0. -1.
        -11    1    4    4    0    0  0.32297774048E-01 -0.58363183051E-01 -0.39120153406E-01  0.77330814477E-01  0.51100000000E-03 0. -1.
         11    1    4    4    0    0  0.35522314071E-01 -0.33881366833E-01 -0.17374396855E-01  0.52076027138E-01  0.51100000000E-03 0.  1.
</event>
<event>
 8    1  0.1204770E+005  0.1043930E+01  0.7957747E-01            NaN
         13   -1    0    0    0    0  0.00000000000E+00  0.00000000000E+00  0.74505805969E-08  0.10566000000E+00  0.10566000000E+00 0. -1.
     999900   -1    0    0    0    0 -0.00000000000E+00 -0.00000000000E+00 -0.74505805969E-08  0.93827000000E+00  0.93827000000E+00 0.  1.
     999902    2    1    2    0    0 -0.20669786204E-01  0.94758514917E-02 -0.91999600096E-02  0.10194010154E+01  0.10191058625E+01 0.  0.
     999903    2    3    3    0    0 -0.73746019968E-01  0.10767690320E+00  0.77503183914E-02  0.13218748690E+00  0.19510851171E-01 0.  0.
         14    1    1    2    0    0  0.20669786204E-01 -0.94758514917E-02  0.91999600096E-02  0.24528984638E-01  0.00000000000E+00 0. -1.
     999901    1    3    3    0    0  0.53076233764E-01 -0.98201051710E-01 -0.16950278401E-01  0.88721352846E+00  0.88000000000E+00 0. -1.
        -11    1    4    4    0    0 -0.25033088978E-01  0.53389715365E-01  0.52801097053E-02  0.59205218774E-01  0.51100000000E-03 0.  1.
         11    1    4    4    0    0 -0.48712930990E-01  0.54287187837E-01  0.24702086860E-02  0.72982268126E-01  0.51100000000E-03 0. -1.
</event>
<event>
 8    1  0.1204770E+005  0.1043930E+01  0.7957747E-01            NaN
         13   -1    0    0    0    0  0.00000000000E+00  0.00000000000E+00  0.74505805969E-08  0.10566000000E+00  0.10566000000E+00 0.  1.
     999900   -1    0    0    0    0 -0.00000000000E+00 -0.00000000000E+00 -0.74505805969E-08  0.93827000000E+00  0.93827000000E+00 0.  1.
     999902    2    1    2    0    0 -0.58887424308E-02 -0.18943178658E-01  0.13789931698E-01  0.10197704569E+01  0.10194842330E+01 0.  0.
     999903    2    3    3    0    0  0.20215859150E-01 -0.65752395826E-01 -0.10815771849E+00  0.12974586040E+00  0.20095713627E-01 0.  0.
         14    1    1    2    0    0  0.58887424308E-02  0.18943178658E-01 -0.13789931698E-01  0.24159543070E-01  0.00000000000E+00 0. -1.
     999901    1    3    3    0    0 -0.26104601581E-01  0.46809217167E-01  0.12194765018E+00  0.89002459653E+00  0.88000000000E+00 0. -1.
        -11    1    4    4    0    0  0.14434388329E-01 -0.17639476374E-01 -0.41253825918E-01  0.47134297142E-01  0.51100000000E-03 0.  1.
         11    1    4    4    0    0  0.57814708208E-02 -0.48112919452E-01 -0.66903892567E-01  0.82611563262E-01  0.51100000000E-03 0. -1.
</event>
<event>
 8    1  0.1204770E+005  0.1043930E+01  0.7957747E-01            NaN
         13   -1    0    0    0    0  0.00000000000E+00  0.00000000000E+00  0.74505805969E-08  0.10566000000E+00  0.10566000000E+00 0. -1.
     999900   -1    0    0    0    0 -0.00000000000E+00 -0.00000000000E+00 -0.74505805969E-08  0.93827000000E+00  0.93827000000E+00 0.  1.
     999902    2    1    2    0    0  0.33538555805E-02 -0.21338724201E-01 -0.88624860294E-02  0.10205819132E+01  0.10203148085E+01 0.  0.
     999903    2    3    3    0    0 -0.87895779819E-01  0.88415638631E-01  0.22955951950E-01  0.12851413041E+00  0.21116645606E-01 0.  0.
         14    1    1    2    0    0 -0.33538555805E-02  0.21338724201E-01  0.88624860294E-02  0.23348086782E-01  0.00000000000E+00 0. -1.
     999901    1    3    3    0    0  0.91249635399E-01 -0.10975436283E+00 -0.31818437979E-01  0.89206778280E+00  0.88000000000E+00 0.  1.
        -11    1    4    4    0    0 -0.52814415226E-01  0.44161581300E-01  0.21105807744E-01  0.72009193580E-01  0.51100000000E-03 0.  1.
         11    1    4    4    0    0 -0.35081364593E-01  0.44254057332E-01  0.18501442052E-02  0.56504936834E-01  0.51100000000E-03 0. -1.
</event>
<event>
 8    1  0.1204770E+005  0.1043930E+01  0.7957747E-01            NaN
         13   -1    0    0    0    0  0.00000000000E+00  0.00000000000E+00  0.74505805969E-08  0.10566000000E+00  0.10566000000E+00 0.  1.
     999900   -1    0    0    0    0 -0.00000000000E+00 -0.00000000000E+00 -0.74505805969E-08  0.93827000000E+00  0.93827000000E+00 0. -1.
     999902    2    1    2    0    0  0.12438480685E-01 -0.12383406190E-01 -0.16198026019E-01  0.10200461017E+01  0.10197664483E+01 0.  0.
     999903    2    3    3    0    0  0.94854192536E-01  0.45102429152E-01 -0.77835535313E-01  0.13218566596E+00  0.19573777604E-01 0.  0.
         14    1    1    2    0    0 -0.12438480685E-01  0.12383406190E-01  0.16198026019E-01  0.23883898290E-01  0.00000000000E+00 0.  1.
     999901    1    3    3    0    0 -0.82415711852E-01 -0.57485835342E-01  0.61637509294E-01  0.88786043575E+00  0.88000000000E+00 0.  1.
        -11    1    4    4    0    0  0.43011934108E-01  0.23593418554E-01 -0.47926175827E-01  0.68584658089E-01  0.51100000000E-03 0. -1.
         11    1    4    4    0    0  0.51842258429E-01  0.21509010598E-01 -0.29909359486E-01  0.63601007867E-01  0.51100000000E-03 0.  1.
</event>
<event>
 8    1  0.1204770E+005  0.1043930E+01  0.7957747E-01            NaN
         13   -1    0    0    0    0  0.00000000000E+00  0.00000000000E+00  0.74505805969E-08  0.10566000000E+00  0.10566000000E+00 0.  1.
     999900   -1    0    0    0    0 -0.00000000000E+00 -0.00000000000E+00 -0.74505805969E-08  0.93827000000E+00  0.93827000000E+00 0. -1.
     999902    2    1    2    0    0 -0.89702276513E-02  0.93263182742E-02 -0.19120322434E-01  0.10208425158E+01  0.10205814079E+01 0.  0.
     999903    2    3    3    0    0 -0.10734689676E-01  0.12448663970E+00 -0.41188660750E-01  0.13306325015E+00  0.19929017552E-01 0.  0.
         14    1    1    2    0    0  0.89702276513E-02 -0.93263182742E-02  0.19120322434E-01  0.23087484199E-01  0.00000000000E+00 0.  1.
     999901    1    3    3    0    0  0.17644620242E-02 -0.11516032143E+00  0.22068338316E-01  0.88777926565E+00  0.88000000000E+00 0.  1.
        -11    1    4    4    0    0 -0.11480487054E-01  0.63248623251E-01 -0.29427220174E-01  0.70699450736E-01  0.51100000000E-03 0.  1.
         11    1    4    4    0    0  0.74579737824E-03  0.61238016449E-01 -0.11761440577E-01  0.62363799418E-01  0.51100000000E-03 0. -1.
</event>
<event>
 8    1  0.1204770E+005  0.1043930E+01  0.7957747E-01            NaN
         13   -1    0    0    0    0  0.00000000000E+00  0.00000000000E+00  0.74505805969E-08  0.10566000000E+00  0.10566000000E+00 0. -1.
     999900   -1    0    0    0    0 -0.00000000000E+00 -0.00000000000E+00 -0.74505805969E-08  0.93827000000E+00  0.93827000000E+00 0.  1.
     999902    2    1    2    0    0 -0.78641545588E-02 -0.21216334386E-01  0.46531791467E-02  0.10208295704E+01  0.10205681662E+01 0.  0.
     999903    2    3    3    0    0  0.94130032020E-01  0.38319589151E-01  0.78405360763E-01  0.12988247624E+00  0.19829351923E-01 0.  0.
         14    1    1    2    0    0  0.78641545588E-02  0.21216334386E-01 -0.46531791467E-02  0.23100429604E-01  0.00000000000E+00 0.  1.
     999901    1    3    3    0    0 -0.10199418658E+00 -0.59535923537E-01 -0.73752181616E-01  0.89094709415E+00  0.88000000000E+00 0.  1.
        -11    1    4    4    0    0  0.57236186395E-01  0.24964598268E-01  0.35883163035E-01  0.72021348988E-01  0.51100000000E-03 0. -1.
         11    1    4    4    0    0  0.36893845625E-01  0.13354990883E-01  0.42522197728E-01  0.57861127254E-01  0.51100000000E-03 0.  1.
</event>
<event>
 8    1  0.1204770E+005  0.1043930E+01  0.7957747E-01            NaN
         13   -1    0    0    0    0  0.00000000000E+00  0.00000000000E+00  0.74505805969E-08  0.10566000000E+00  0.10566000000E+00 0. -1.
     999900   -1    0    0    0    0 -0.00000000000E+00 -0.00000000000E+00 -0.74505805969E-08  0.93827000000E+00  0.93827000000E+00 0.  1.
     999902    2    1    2    0    0  0.11013333003E-01 -0.19405958659E-01 -0.75490173979E-02  0.10203742704E+01  0.10201023376E+01 0.  0.
     999903    2    3    3    0    0 -0.14943762553E-01  0.54103408535E-01 -0.11590905450E+00  0.13030725293E+00  0.19863947174E-01 0.  0.
         14    1    1    2    0    0 -0.11013333003E-01  0.19405958659E-01  0.75490173979E-02  0.23555729643E-01  0.00000000000E+00 0. -1.
     999901    1    3    3    0    0  0.25957095556E-01 -0.73509367194E-01  0.10836003710E+00  0.89006701743E+00  0.88000000000E+00 0. -1.
        -11    1    4    4    0    0  0.20672555269E-02  0.19098281127E-01 -0.52482910321E-01  0.55890382752E-01  0.51100000000E-03 0.  1.
         11    1    4    4    0    0 -0.17011018080E-01  0.35005127408E-01 -0.63426144175E-01  0.74416870176E-01  0.51100000000E-03 0. -1.
</event>
<event>
 8    1  0.1204770E+005  0.1043930E+01  0.7957747E-01            NaN
         13   -1    0    0    0    0  0.00000000000E+00  0.00000000000E+00  0.74505805969E-08  0.10566000000E+00  0.10566000000E+00 0. -1.
     999900   -1    0    0    0    0 -0.00000000000E+00 -0.00000000000E+00 -0.74505805969E-08  0.93827000000E+00  0.93827000000E+00 0.  1.
     999902    2    1    2    0    0  0.57890780740E-02 -0.17148470226E-01 -0.14877729390E-01  0.10205007386E+01  0.10202317517E+01 0.  0.
     999903    2    3    3    0    0 -0.33060291560E-01  0.10004007651E+00  0.69583799693E-01  0.12787753768E+00  0.20242521491E-01 0.  0.
         14    1    1    2    0    0 -0.57890780740E-02  0.17148470226E-01  0.14877729390E-01  0.23429261359E-01  0.00000000000E+00 0.  1.
     999901    1    3    3    0    0  0.38849369635E-01 -0.11718854673E+00 -0.84461529083E-01  0.89262320097E+00  0.88000000000E+00 0.  1.
        -11    1    4    4    0    0 -0.17281195853E-01  0.40234383026E-01  0.18038915274E-01  0.47361470552E-01  0.51100000000E-03 0. -1.
         11    1    4    4    0    0 -0.15779095708E-01  0.59805693483E-01  0.51544884419E-01  0.80516067123E-01  0.51100000000E-03 0.  1.
</event>
<event>
 8    1  0.1204770E+005  0.1043930E+01  0.7957747E-01            NaN
         13   -1    0    0    0    0  0.00000000000E+00  0.00000000000E+00  0.74505805969E-08  0.10566000000E+00  0.10566000000E+00 0.  1.
     999900   -1    0    0    0    0 -0.00000000000E+00 -0.00000000000E+00 -0.74505805969E-08  0.93827000000E+00  0.93827000000E+00 0. -1.
     999902    2    1    2    0    0 -0.25348608349E-01 -0.83333459488E-02  0.45432383079E-02  0.10168627206E+01  0.10165024127E+01 0.  0.
     999903    2    3    3    0    0  0.80012885228E-01 -0.22988331850E-01  0.93219212234E-01  0.12603207379E+00  0.16239978154E-01 0.  0.
         14    1    1    2    0    0  0.25348608349E-01  0.83333459488E-02 -0.45432383079E-02  0.27067279402E-01  0.00000000000E+00 0. -1.
     999901    1    3    3    0    0 -0.10536149358E+00  0.14654985901E-01 -0.88675973927E-01  0.89083064681E+00  0.88000000000E+00 0. -1.
        -11    1    4    4    0    0  0.21347765759E-01 -0.13033312863E-01  0.22918509717E-01  0.33928064427E-01  0.51100000000E-03 0. -1.
         11    1    4    4    0    0  0.58665119469E-01 -0.99550189867E-02  0.70300702518E-01  0.92104009363E-01  0.51100000000E-03 0.  1.
</event>
<event>
 8    1  0.1204770E+005  0.1043930E+01  0.7957747E-01            NaN
         13   -1    0    0    0    0  0.00000000000E+00  0.00000000000E+00  0.74505805969E-08  0.10566000000E+00  0.10566000000E+00 0.  1.
     999900   -1    0    0    0    0 -0.00000000000E+00 -0.00000000000E+00 -0.74505805969E-08  0.93827000000E+00  0.93827000000E+00 0.  1.
     999902    2    1    2    0    0 -0.15803430478E-01 -0.17599967358E-01 -0.11523860688E-02  0.10202480394E+01  0.10199731499E+01 0.  0.
     999903    2    3    3    0    0  0.12264976142E+00  0.84825179088E-03 -0.33570159689E-01  0.12864244540E+00  0.19448383769E-01 0.  0.
         14    1    1    2    0    0  0.15803430478E-01  0.17599967358E-01  0.11523860688E-02  0.23681960636E-01  0.00000000000E+00 0.  1.
     999901    1    3    3    0    0 -0.13845319189E+00 -0.18448219149E-01  0.32417773621E-01  0.89160559396E+00  0.88000000000E+00 0. -1.
        -11    1    4    4    0    0  0.64385831348E-01 -0.50369622398E-02 -0.25880715092E-01  0.69577142810E-01  0.51100000000E-03 0.  1.
         11    1    4    4    0    0  0.58263930069E-01  0.58852140307E-02 -0.76894445976E-02  0.59065302594E-01  0.51100000000E-03 0. -1.
</event>
<event>
 8    1  0.1204770E+005  0.1043930E+01  0.7957747E-01            NaN
         13   -1    0    0    0    0  0.00000000000E+00  0.00000000000E+00  0.74505805969E-08  0.10566000000E+00  0.10566000000E+00 0.  1.
     999900   -1    0    0    0    0 -0.00000000000E+00 -0.00000000000E+00 -0.74505805969E-08  0.93827000000E+00  0.93827000000E+00 0. -1.
     999902    2    1    2    0    0 -0.59482300023E-02  0.21201459533E-01  0.10437335043E-01  0.10195615514E+01  0.10192702957E+01 0.  0.
     999903    2    3    3    0    0 -0.11972830700E+00  0.39170667139E-01  0.33106796977E-01  0.13176500774E+00  0.19918549101E-01 0.  0.
         14    1    1    2    0    0  0.59482300023E-02 -0.21201459533E-01 -0.10437335043E-01  0.24368448644E-01  0.00000000000E+00 0. -1.
     999901    1    3    3    0    0  0.11378007700E+00 -0.17969207606E-01 -0.22669461935E-01  0.88779654361E+00  0.88000000000E+00 0.  1.
        -11    1    4    4    0    0 -0.35147597421E-01  0.19229872420E-01  0.47171569704E-02  0.40344197707E-01  0.51100000000E-03 0. -1.
         11    1    4    4    0    0 -0.84580709581E-01  0.19940794719E-01  0.28389640007E-01  0.91420810037E-01  0.51100000000E-03 0.  1.
</event>
<event>
 8    1  0.1204770E+005  0.1043930E+01  0.7957747E-01            NaN
         13   -1    0    0    0    0  0.00000000000E+00  0.00000000000E+00  0.74505805969E-08  0.10566000000E+00  0.10566000000E+00 0. -1.
     999900   -1    0    0    0    0 -0.00000000000E+00 -0.00000000000E+00 -0.74505805969E-08  0.93827000000E+00  0.93827000000E+00 0. -1.
     999902    2    1    2    0    0 -0.23451725805E-01  0.38549847745E-02  0.31817732062E-02  0.10199515090E+01  0.10196696096E+01 0.  0.
     999903    2    3    3    0    0  0.11931591333E+00 -0.12604602342E-01  0.38734405012E-01  0.12758526891E+00  0.19557186297E-01 0.  0.
         14    1    1    2    0    0  0.23451725805E-01 -0.38549847745E-02 -0.31817732062E-02  0.23978491019E-01  0.00000000000E+00 0.  1.
     999901    1    3    3    0    0 -0.14276763914E+00  0.16459587117E-01 -0.35552631806E-01  0.89236624007E+00  0.88000000000E+00 0. -1.
        -11    1    4    4    0    0  0.87232260368E-01 -0.48748917293E-03  0.29050111486E-01  0.91944956321E-01  0.51100000000E-03 0.  1.
         11    1    4    4    0    0  0.32083652966E-01 -0.12117113169E-01  0.96842935257E-02  0.35640312587E-01  0.51100000000E-03 0. -1.
</event>
<event>
 8    1  0.1204770E+005  0.1043930E+01  0.7957747E-01            NaN
         13   -1    0    0    0    0  0.00000000000E+00  0.00000000000E+00  0.74505805969E-08  0.10566000000E+00  0.10566000000E+00 0.  1.
     999900   -1    0    0    0    0 -0.00000000000E+00 -0.00000000000E+00 -0.74505805969E-08  0.93827000000E+00  0.93827000000E+00 0.  1.
     999902    2    1    2    0    0  0.21580011417E-01 -0.10157785386E-01  0.10030625007E-04  0.10200788449E+01  0.10197999668E+01 0.  0.
     999903    2    3    3    0    0 -0.75726712218E-01  0.65488707782E-02 -0.10195814824E+00  0.12870618420E+00  0.19808967879E-01 0.  0.
         14    1    1    2    0    0 -0.21580011417E-01  0.10157785386E-01 -0.10030625007E-04  0.23851155052E-01  0.00000000000E+00 0. -1.
     999901    1    3    3    0    0  0.97306723635E-01 -0.16706656164E-01  0.10196817886E+00  0.89137266075E+00  0.88000000000E+00 0. -1.
        -11    1    4    4    0    0 -0.60049258729E-01  0.11712171380E-01 -0.71882567528E-01  0.94395196211E-01  0.51100000000E-03 0. -1.
         11    1    4    4    0    0 -0.15677453489E-01 -0.51633006021E-02 -0.30075580708E-01  0.34310987991E-01  0.51100000000E-03 0.  1.
</event>
<event>
 8    1  0.1204770E+005  0.1043930E+01  0.7957747E-01            NaN
         13   -1    0    0    0    0  0.00000000000E+00  0.00000000000E+00  0.74505805969E-08  0.10566000000E+00  0.10566000000E+00 0. -1.
     999900   -1    0    0    0    0 -0.00000000000E+00 -0.00000000000E+00 -0.74505805969E-08  0.93827000000E+00  0.93827000000E+00 0. -1.
     999902    2    1    2    0    0 -0.22234129908E-01 -0.71420401682E-02 -0.26502224481E-02  0.10204270438E+01  0.10201563423E+01 0.  0.
     999903    2    3    3    0    0 -0.35660236868E-01  0.22735652556E-01 -0.12345183753E+00  0.13157049348E+00  0.16789168368E-01 0.  0.
         14    1    1    2    0    0  0.22234129908E-01  0.71420401682E-02  0.26502224481E-02  0.23502956188E-01  0.00000000000E+00 0.  1.
     999901    1    3    3    0    0  0.13426106960E-01 -0.29877692724E-01  0.12080161508E+00  0.88885655034E+00  0.88000000000E+00 0.  1.
        -11    1    4    4    0    0 -0.12589797749E-01  0.15406254913E-01 -0.40010325452E-01  0.44687167751E-01  0.51100000000E-03 0. -1.
         11    1    4    4    0    0 -0.23070439119E-01  0.73293976424E-02 -0.83441512074E-01  0.86883325726E-01  0.51100000000E-03 0.  1.
</event>
<event>
 8    1  0.1204770E+005  0.1043930E+01  0.7957747E-01            NaN
         13   -1    0    0    0    0  0.00000000000E+00  0.00000000000E+00  0.74505805969E-08  0.10566000000E+00  0.10566000000E+00 0. -1.
     999900   -1    0    0    0    0 -0.00000000000E+00 -0.00000000000E+00 -0.74505805969E-08  0.93827000000E+00  0.93827000000E+00 0.  1.
     999902    2    1    2    0    0 -0.99056509753E-02 -0.20405330426E-01 -0.49716864380E-02  0.10207089514E+01  0.10204447787E+01 0.  0.
     999903    2    3    3    0    0 -0.56753747577E-01  0.10932355087E+00 -0.35006479659E-01  0.12945903383E+00  0.19014762241E-01 0.  0.
         14    1    1    2    0    0  0.99056509753E-02  0.20405330426E-01  0.49716864380E-02  0.23221048579E-01  0.00000000000E+00 0. -1.
     999901    1    3    3    0    0  0.46848096602E-01 -0.12972888130E+00  0.30034793221E-01  0.89124991759E+00  0.88000000000E+00 0. -1.
        -11    1    4    4    0    0 -0.44095169225E-01  0.91904040188E-01 -0.35423267127E-01  0.10791573345E+00  0.51100000000E-03 0.  1.
         11    1    4    4    0    0 -0.12658578352E-01  0.17419510686E-01  0.41678746858E-03  0.21543300379E-01  0.51100000000E-03 0. -1.
</event>
<event>
 8    1  0.1204770E+005  0.1043930E+01  0.7957747E-01            NaN
         13   -1    0    0    0    0  0.00000000000E+00  0.00000000000E+00  0.74505805969E-08  0.10566000000E+00  0.10566000000E+00 0.  1.
     999900   -1    0    0    0    0 -0.00000000000E+00 -0.00000000000E+00 -0.74505805969E-08  0.93827000000E+00  0.93827000000E+00 0.  1.
     999902    2    1    2    0    0  0.23997664195E-01  0.39921897233E-02  0.35932505503E-02  0.10193386008E+01  0.10190419256E+01 0.  0.
     999903    2    3    3    0    0 -0.54906137603E-01 -0.11006379584E-01 -0.11345523058E+00  0.12796263412E+00  0.19144765513E-01 0.  0.
         14    1    1    2    0    0 -0.23997664195E-01 -0.39921897233E-02 -0.35932505503E-02  0.24591399210E-01  0.00000000000E+00 0.  1.
     999901    1    3    3    0    0  0.78903801797E-01  0.14998569307E-01  0.11704848113E+00  0.89137596667E+00  0.88000000000E+00 0. -1.
        -11    1    4    4    0    0  0.16781703580E-04 -0.29521302440E-02 -0.11391172993E-01  0.11778594897E-01  0.51100000000E-03 0. -1.
         11    1    4    4    0    0 -0.54922919306E-01 -0.80542493400E-02 -0.10206405759E+00  0.11618403922E+00  0.51100000000E-03 0.  1.
</event>
<event>
 7    1  0.1204770E+005  0.1043930E+01  0.7957747E-01            NaN
         13   -1    0    0    0    0  0.00000000000E+00  0.00000000000E+00  0.74505805969E-08  0.10566000000E+00  0.10566000000E+00 0. -1.
     999900   -1    0    0    0    0 -0.00000000000E+00 -0.00000000000E+00 -0.74505805969E-08  0.93827000000E+00  0.93827000000E+00 0. -1.
     999903    2    1    2    0    0  0.72506699588E-01 -0.24674925946E-01  0.77735317701E-01  0.11228400763E+00  0.26435682259E-01 0.  0.
         14    1    1    2    0    0  0.18897013021E-01 -0.63856132183E-02 -0.41011894999E-01  0.45605358114E-01  0.00000000000E+00 0.  1.
     999901    1    1    2    0    0 -0.91403712609E-01  0.31060539164E-01 -0.36723422702E-01  0.88604063425E+00  0.88000000000E+00 0.  1.
        -11    1    3    3    0    0  0.34650542969E-03 -0.49658002953E-02  0.10804439556E-01  0.11906984241E-01  0.51100000000E-03 0.  1.
         11    1    3    3    0    0  0.72160194159E-01 -0.19709125651E-01  0.66930878145E-01  0.10037702339E+00  0.51100000000E-03 0. -1.
</event>
<event>
 8    1  0.1204770E+005  0.1043930E+01  0.7957747E-01            NaN
         13   -1    0    0    0    0  0.00000000000E+00  0.00000000000E+00  0.74505805969E-08  0.10566000000E+00  0.10566000000E+00 0. -1.
     999900   -1    0    0    0    0 -0.00000000000E+00 -0.00000000000E+00 -0.74505805969E-08  0.93827000000E+00  0.93827000000E+00 0. -1.
     999902    2    1    2    0    0  0.13034535867E-01 -0.18976567221E-01  0.10037348114E-01  0.10188151123E+01  0.10185055107E+01 0.  0.
     999903    2    3    3    0    0  0.36100718062E-01  0.84439844826E-01 -0.86088732397E-01  0.12726184611E+00  0.18733883476E-01 0.  0.
         14    1    1    2    0    0 -0.13034535867E-01  0.18976567221E-01 -0.10037348114E-01  0.25114887735E-01  0.00000000000E+00 0.  1.
     999901    1    3    3    0    0 -0.23066182195E-01 -0.10341641205E+00  0.96126080511E-01  0.89155326616E+00  0.88000000000E+00 0.  1.
        -11    1    4    4    0    0  0.14227022078E-01  0.31840732840E-01 -0.45419485306E-01  0.57266318124E-01  0.51100000000E-03 0.  1.
         11    1    4    4    0    0  0.21873695984E-01  0.52599111986E-01 -0.40669247091E-01  0.69995527984E-01  0.51100000000E-03 0. -1.
</event>
<event>
 8    1  0.1204770E+005  0.1043930E+01  0.7957747E-01            NaN
         13   -1    0    0    0    0  0.00000000000E+00  0.00000000000E+00  0.74505805969E-08  0.10566000000E+00  0.10566000000E+00 0.  1.
     999900   -1    0    0    0    0 -0.00000000000E+00 -0.00000000000E+00 -0.74505805969E-08  0.93827000000E+00  0.93827000000E+00 0. -1.
     999902    2    1    2    0    0  0.19773718105E-01  0.13948721050E-01  0.95091139336E-02  0.10179301924E+01  0.10175980968E+01 0.  0.
     999903    2    3    3    0    0 -0.10750261635E+00  0.17685737403E-01 -0.61579211205E-01  0.12592863380E+00  0.14015125016E-01 0.  0.
         14    1    1    2    0    0 -0.19773718105E-01 -0.13948721050E-01 -0.95091139336E-02  0.25999807585E-01  0.00000000000E+00 0. -1.
     999901    1    3    3    0    0  0.12727633445E+00 -0.37370163527E-02  0.71088325139E-01  0.89200155862E+00  0.88000000000E+00 0.  1.
        -11    1    4    4    0    0 -0.40687703064E-01  0.29301678301E-02 -0.16610569072E-01  0.44048237082E-01  0.51100000000E-03 0. -1.
         11    1    4    4    0    0 -0.66814913281E-01  0.14755569573E-01 -0.44968642133E-01  0.81880396717E-01  0.51100000000E-03 0.  1.
</event>
<event>
 8    1  0.1204770E+005  0.1043930E+01  0.7957747E-01            NaN
         13   -1    0    0    0    0  0.00000000000E+00  0.00000000000E+00  0.74505805969E-08  0.10566000000E+00  0.10566000000E+00 0.  1.
     999900   -1    0    0    0    0 -0.00000000000E+00 -0.00000000000E+00 -0.74505805969E-08  0.93827000000E+00  0.93827000000E+00 0. -1.
     999902    2    1    2    0    0  0.12929686721E-01  0.32444011948E-02  0.17247974072E-01  0.10221310196E+01  0.10218985398E+01 0.  0.
     999903    2    3    3    0    0  0.33448103215E-01  0.35745064173E-01 -0.11954362690E+00  0.13073366676E+00  0.20102926926E-01 0.  0.
         14    1    1    2    0    0 -0.12929686721E-01 -0.32444011948E-02 -0.17247974072E-01  0.21798980421E-01  0.00000000000E+00 0. -1.
     999901    1    3    3    0    0 -0.20518416494E-01 -0.32500662978E-01  0.13679160097E+00  0.89139735282E+00  0.88000000000E+00 0.  1.
        -11    1    4    4    0    0  0.98488565809E-02  0.30974402490E-02 -0.11708848086E-01  0.15618974247E-01  0.51100000000E-03 0.  1.
         11    1    4    4    0    0  0.23599246634E-01  0.32647623924E-01 -0.10783477882E+00  0.11511469252E+00  0.51100000000E-03 0. -1.
</event>
<event>
 8    1  0.1204770E+005  0.1043930E+01  0.7957747E-01            NaN
         13   -1    0    0    0    0  0.00000000000E+00  0.00000000000E+00  0.74505805969E-08  0.10566000000E+00  0.10566000000E+00 0. -1.
     999900   -1    0    0    0    0 -0.00000000000E+00 -0.00000000000E+00 -0.74505805969E-08  0.93827000000E+00  0.93827000000E+00 0.  1.
     999902    2    1    2    0    0  0.20041636174E-01 -0.37777499474E-02  0.91152299561E-02  0.10215911103E+01  0.10213468415E+01 0.  0.
     999903    2    3    3    0    0 -0.75297938234E-01  0.71448813818E-01 -0.74593894520E-01  0.12931543102E+00  0.19583643730E-01 0.  0.
         14    1    1    2    0    0 -0.20041636174E-01  0.37777499474E-02 -0.91152299561E-02  0.22338889684E-01  0.00000000000E+00 0. -1.
     999901    1    3    3    0    0  0.95339574407E-01 -0.75226563765E-01  0.83709124476E-01  0.89227567930E+00  0.88000000000E+00 0. -1.
        -11    1    4    4    0    0 -0.65783002712E-01  0.59431990918E-01 -0.54610924220E-01  0.10412578526E+00  0.51100000000E-03 0.  1.
         11    1    4    4    0    0 -0.95149355213E-02  0.12016822900E-01 -0.19982970300E-01  0.25189645761E-01  0.51100000000E-03 0. -1.
</event>
<event>
 8    1  0.1204770E+005  0.1043930E+01  0.7957747E-01            NaN
         13   -1    0    0    0    0  0.00000000000E+00  0.00000000000E+00  0.74505805969E-08  0.10566000000E+00  0.10566000000E+00 0.  1.
     999900   -1    0    0    0    0 -0.00000000000E+00 -0.00000000000E+00 -0.74505805969E-08  0.93827000000E+00  0.93827000000E+00 0.  1.
     999902    2    1    2    0    0  0.20115006211E-02  0.97411015309E-02 -0.21875531338E-01  0.10198993099E+01  0.10196161672E+01 0.  0.
     999903    2    3    3    0    0 -0.11887582161E+00  0.49396695630E-01  0.35762789161E-02  0.13038590055E+00  0.20400950705E-01 0.  0.
         14    1    1    2    0    0 -0.20115006211E-02 -0.97411015309E-02  0.21875531338E-01  0.24030690067E-01  0.00000000000E+00 0.  1.
     999901    1    3    3    0    0  0.12088732223E+00 -0.39655594099E-01 -0.25451810254E-01  0.88951340938E+00  0.88000000000E+00 0.  1.
        -11    1    4    4    0    0 -0.81689720419E-01  0.27436930656E-01  0.98758890971E-02  0.86739782640E-01  0.51100000000E-03 0.  1.
         11    1    4    4    0    0 -0.37186101191E-01  0.21959764974E-01 -0.62996101810E-02  0.43646117914E-01  0.51100000000E-03 0. -1.
</event>
<event>
 8    1  0.1204770E+005  0.1043930E+01  0.7957747E-01            NaN
         13   -1    0    0    0    0  0.00000000000E+00  0.00000000000E+00  0.74505805969E-08  0.10566000000E+00  0.10566000000E+00 0.  1.
     999900   -1    0    0    0    0 -0.00000000000E+00 -0.00000000000E+00 -0.74505805969E-08  0.93827000000E+00  0.93827000000E+00 0. -1.
     999902    2    1    2    0    0 -0.66651800044E-02  0.22801064815E-01 -0.46993031642E-02  0.10197143722E+01  0.10194268018E+01 0.  0.
     999903    2    3    3    0    0  0.80360167490E-01 -0.96752362452E-01 -0.29079375509E-03  0.12736585951E+00  0.20079876728E-01 0.  0.
         14    1    1    2    0    0  0.66651800044E-02 -0.22801064815E-01  0.46993031642E-02  0.24215627834E-01  0.00000000000E+00 0.  1.
     999901    1    3    3    0    0 -0.87025347495E-01  0.11955342727E+00 -0.44085094091E-02  0.89234851265E+00  0.88000000000E+00 0. -1.
        -11    1    4    4    0    0  0.32213854045E-01 -0.28579098595E-01  0.68109957742E-02  0.43602156522E-01  0.51100000000E-03 0. -1.
         11    1    4    4    0    0  0.48146313446E-01 -0.68173263857E-01 -0.71017895293E-02  0.83763702992E-01  0.51100000000E-03 0.  1.
</event>
<event>
 8    1  0.1204770E+005  0.1043930E+01  0.7957747E-01            NaN
         13   -1    0    0    0    0  0.00000000000E+00  0.00000000000E+00  0.74505805969E-08  0.10566000000E+00  0.10566000000E+00 0. -1.
     999900   -1    0    0    0    0 -0.00000000000E+00 -0.00000000000E+00 -0.74505805969E-08  0.93827000000E+00  0.93827000000E+00 0. -1.
     999902    2    1    2    0    0  0.66563916317E-02 -0.11437729883E-01 -0.19167017422E-01  0.10206382896E+01  0.10203724881E+01 0.  0.
     999903    2    3    3    0    0 -0.34870715222E-01  0.10145526165E+00 -0.72302865040E-01  0.13086711319E+00  0.19732210340E-01 0.  0.
         14    1    1    2    0    0 -0.66563916317E-02  0.11437729883E-01  0.19167017422E-01  0.23291710356E-01  0.00000000000E+00 0. -1.
     999901    1    3    3    0    0  0.41527106854E-01 -0.11289299154E+00  0.53135847618E-01  0.88977117645E+00  0.88000000000E+00 0.  1.
        -11    1    4    4    0    0  0.74144752172E-03  0.10591306179E-01 -0.12493817666E-01  0.16403722500E-01  0.51100000000E-03 0.  1.
         11    1    4    4    0    0 -0.35612162744E-01  0.90863955476E-01 -0.59809047374E-01  0.11446339069E+00  0.51100000000E-03 0. -1.
</event>
<event>
 8    1  0.1204770E+005  0.1043930E+01  0.7957747E-01            NaN
         13   -1    0    0    0    0  0.00000000000E+00  0.00000000000E+00  0.74505805969E-08  0.10566000000E+00  0.10566000000E+00 0.  1.
     999900   -1    0    0    0    0 -0.00000000000E+00 -0.00000000000E+00 -0.74505805969E-08  0.93827000000E+00  0.93827000000E+00 0. -1.
     999902    2    1    2    0    0 -0.17283682296E-02  0.22005474419E-01 -0.55666302631E-02  0.10211656521E+01  0.10209118834E+01 0.  0.
     999903    2    3    3    0    0  0.93163707287E-01 -0.11535604532E-01 -0.89776108824E-01  0.13143493655E+00  0.20071031465E-01 0.  0.
         14    1    1    2    0    0  0.17283682296E-02 -0.22005474419E-01  0.55666302631E-02  0.22764347863E-01  0.00000000000E+00 0.  1.
     999901    1    3    3    0    0 -0.94892075516E-01  0.33541078950E-01  0.84209478561E-01  0.88973071558E+00  0.88000000000E+00 0.  1.
        -11    1    4    4    0    0  0.19642079188E-01 -0.53106835000E-03 -0.30812769254E-01  0.36548340298E-01  0.51100000000E-03 0.  1.
         11    1    4    4    0    0  0.73521628098E-01 -0.11004536182E-01 -0.58963339570E-01  0.94886596256E-01  0.51100000000E-03 0. -1.
</event>
<event>
 8    1  0.1204770E+005  0.1043930E+01  0.7957747E-01            NaN
         13   -1    0    0    0    0  0.00000000000E+00  0.00000000000E+00  0.74505805969E-08  0.10566000000E+00  0.10566000000E+00 0.  1.
     999900   -1    0    0    0    0 -0.00000000000E+00 -0.00000000000E+00 -0.74505805969E-08  0.93827000000E+00  0.93827000000E+00 0. -1.
     999902    2    1    2    0    0 -0.22645732549E-01 -0.27044140839E-02  0.63540658995E-02  0.10202547553E+01  0.10199800236E+01 0.  0.
     999903    2    3    3    0    0 -0.39936572462E-01 -0.24113833374E-01 -0.12055894403E+00  0.13072440255E+00  0.19442316072E-01 0.  0.
         14    1    1    2    0    0  0.22645732549E-01  0.27044140839E-02 -0.63540658995E-02  0.23675244702E-01  0.00000000000E+00 0.  1.
     999901    1    3    3    0    0  0.17290839913E-01  0.21409419290E-01  0.12691300993E+00  0.88953035275E+00  0.88000000000E+00 0.  1.
        -11    1    4    4    0    0 -0.93279821217E-02  0.26809017742E-02 -0.19620122880E-01  0.21895406542E-01  0.51100000000E-03 0.  1.
         11    1    4    4    0    0 -0.30608590340E-01 -0.26794735148E-01 -0.10093882115E+00  0.10882899600E+00  0.51100000000E-03 0. -1.
</event>
<event>
 8    1  0.1204770E+005  0.1043930E+01  0.7957747E-01            NaN
         13   -1    0    0    0    0  0.00000000000E+00  0.00000000000E+00  0.74505805969E-08  0.10566000000E+00  0.10566000000E+00 0.  1.
     999900   -1    0    0    0    0 -0.00000000000E+00 -0.00000000000E+00 -0.74505805969E-08  0.93827000000E+00  0.93827000000E+00 0.  1.
     999902    2    1    2    0    0  0.19628215250E-01  0.12450562488E-01  0.37246215474E-02  0.10203894786E+01  0.10201179010E+01 0.  0.
     999903    2    3    3    0    0 -0.19461191373E-01  0.93754233360E-01 -0.87300771572E-01  0.13110668290E+00  0.19973566066E-01 0.  0.
         14    1    1    2    0    0 -0.19628215250E-01 -0.12450562488E-01 -0.37246215474E-02  0.23540521359E-01  0.00000000000E+00 0.  1.
     999901    1    3    3    0    0  0.39089406624E-01 -0.81303670872E-01  0.91025393120E-01  0.88928279574E+00  0.88000000000E+00 0. -1.
        -11    1    4    4    0    0 -0.14620582732E-01  0.30979366338E-01 -0.37794450461E-01  0.51011412299E-01  0.51100000000E-03 0.  1.
         11    1    4    4    0    0 -0.48406086410E-02  0.62774867022E-01 -0.49506321112E-01  0.80095270601E-01  0.51100000000E-03 0. -1.
</event>
<event>
 8    1  0.1204770E+005  0.1043930E+01  0.7957747E-01            NaN
         13   -1    0    0    0    0  0.00000000000E+00  0.00000000000E+00  0.74505805969E-08  0.10566000000E+00  0.10566000000E+00 0.  1.
     999900   -1    0    0    0    0 -0.00000000000E+00 -0.00000000000E+00 -0.74505805969E-08  0.93827000000E+00  0.93827000000E+00 0.  1.
     999902    2    1    2    0    0 -0.16971522042E-01 -0.10678592076E-01 -0.12880696214E-01  0.10200977273E+01  0.10198192957E+01 0.  0.
     999903    2    3    3    0    0 -0.30209379142E-01  0.93433050481E-02  0.12367142458E+00  0.12924274528E+00  0.20227753468E-01 0.  0.
         14    1    1    2    0    0  0.16971522042E-01  0.10678592076E-01  0.12880696214E-01  0.23832272744E-01  0.00000000000E+00 0.  1.
     999901    1    3    3    0    0  0.13237857100E-01 -0.20021897124E-01 -0.13655212080E+00  0.89085498198E+00  0.88000000000E+00 0.  1.
        -11    1    4    4    0    0 -0.28633699530E-01  0.43674736264E-02  0.76855300202E-01  0.82133804640E-01  0.51100000000E-03 0.  1.
         11    1    4    4    0    0 -0.15756796127E-02  0.49758314217E-02  0.46816124383E-01  0.47108940635E-01  0.51100000000E-03 0. -1.
</event>
<event>
 8    1  0.1204770E+005  0.1043930E+01  0.7957747E-01            NaN
         13   -1    0    0    0    0  0.00000000000E+00  0.00000000000E+00  0.74505805969E-08  0.10566000000E+00  0.10566000000E+00 0.  1.
     999900   -1    0    0    0    0 -0.00000000000E+00 -0.00000000000E+00 -0.74505805969E-08  0.93827000000E+00  0.93827000000E+00 0. -1.
     999902    2    1    2    0    0  0.11221954547E-01 -0.13602497002E-01  0.15769150523E-01  0.10202735781E+01  0.10199992882E+01 0.  0.
     999903    2    3    3    0    0  0.44478568824E-01  0.11391407116E+00 -0.35664005231E-01  0.12897573392E+00  0.20200494486E-01 0.  0.
         14    1    1    2    0    0 -0.11221954547E-01  0.13602497002E-01 -0.15769150523E-01  0.23656421893E-01  0.00000000000E+00 0. -1.
     999901    1    3    3    0    0 -0.33256614277E-01 -0.12751656816E+00  0.51433155753E-01  0.89129784419E+00  0.88000000000E+00 0.  1.
        -11    1    4    4    0    0  0.88961015772E-02  0.49786861866E-01 -0.13177168420E-01  0.52266347934E-01  0.51100000000E-03 0. -1.
         11    1    4    4    0    0  0.35582467247E-01  0.64127209293E-01 -0.22486836811E-01  0.76709385983E-01  0.51100000000E-03 0.  1.
</event>
<event>
 8    1  0.1204770E+005  0.1043930E+01  0.7957747E-01            NaN
         13   -1    0    0    0    0  0.00000000000E+00  0.00000000000E+00  0.74505805969E-08  0.10566000000E+00  0.10566000000E+00 0. -1.
     999900   -1    0    0    0    0 -0.00000000000E+00 -0.00000000000E+00 -0.74505805969E-08  0.93827000000E+00  0.93827000000E+00 0. -1.
     999902    2    1    2    0    0  0.18375956829E-01 -0.10462240877E-01 -0.10483967485E-01  0.10203281389E+01  0.10200551275E+01 0.  0.
     999903    2    3    3    0    0 -0.10802635634E+00  0.42353957511E-01 -0.52334244126E-01  0.12874609486E+00  0.19316636665E-01 0.  0.
         14    1    1    2    0    0 -0.18375956829E-01  0.10462240877E-01  0.10483967485E-01  0.23601861108E-01  0.00000000000E+00 0.  1.
     999901    1    3    3    0    0  0.12640231317E+00 -0.52816198388E-01  0.41850276641E-01  0.89158204403E+00  0.88000000000E+00 0.  1.
        -11    1    4    4    0    0 -0.82176479797E-01  0.25611481106E-01 -0.31976331815E-01  0.91824118366E-01  0.51100000000E-03 0. -1.
         11    1    4    4    0    0 -0.25849876544E-01  0.16742476404E-01 -0.20357912312E-01  0.36921976493E-01  0.51100000000E-03 0.  1.
</event>
<event>
 8    1  0.1204770E+005  0.1043930E+01  0.7957747E-01            NaN
         13   -1    0    0    0    0  0.00000000000E+00  0.00000000000E+00  0.74505805969E-08  0.10566000000E+00  0.10566000000E+00 0. -1.
     999900   -1    0    0    0    0 -0.00000000000E+00 -0.00000000000E+00 -0.74505805969E-08  0.93827000000E+00  0.93827000000E+00 0.  1.
     999902    2    1    2    0    0 -0.33420378865E-02 -0.11472968470E-01 -0.20218593117E-01  0.10204440525E+01  0.10201737472E+01 0.  0.
     999903    2    3    3    0    0 -0.12038041099E+00 -0.25226398014E-01  0.38624519355E-01  0.13064090039E+00  0.21151284895E-01 0.  0.
         14    1    1    2    0    0  0.33420378865E-02  0.11472968470E-01  0.20218593117E-01  0.23485947509E-01  0.00000000000E+00 0. -1.
     999901    1    3    3    0    0  0.11703837310E+00  0.13753429544E-01 -0.58843112472E-01  0.88980315210E+00  0.88000000000E+00 0. -1.
        -11    1    4    4    0    0 -0.66416720938E-01 -0.22557246438E-01  0.15324474786E-01  0.71799100520E-01  0.51100000000E-03 0.  1.
         11    1    4    4    0    0 -0.53963690052E-01 -0.26691515766E-02  0.23300044569E-01  0.58841799871E-01  0.51100000000E-03 0. -1.
</event>
<event>
 8    1  0.1204770E+005  0.1043930E+01  0.7957747E-01            NaN
         13   -1    0    0    0    0  0.00000000000E+00  0.00000000000E+00  0.74505805969E-08  0.10566000000E+00  0.10566000000E+00 0.  1.
     999900   -1    0    0    0    0 -0.00000000000E+00 -0.00000000000E+00 -0.74505805969E-08  0.93827000000E+00  0.93827000000E+00 0. -1.
     999902    2    1    2    0    0  0.20840133277E-01  0.11269031029E-01 -0.28367800890E-02  0.10200689536E+01  0.10197898413E+01 0.  0.
     999903    2    3    3    0    0 -0.96446200553E-01 -0.70197698072E-01  0.40452615179E-01  0.12750697601E+00  0.19799708074E-01 0.  0.
         14    1    1    2    0    0 -0.20840133277E-01 -0.11269031029E-01  0.28367800890E-02  0.23861046427E-01  0.00000000000E+00 0.  1.
     999901    1    3    3    0    0  0.11728633383E+00  0.81466729101E-01 -0.43289395268E-01  0.89256197757E+00  0.88000000000E+00 0. -1.
        -11    1    4    4    0    0 -0.60260739612E-01 -0.36787932351E-01  0.32066862206E-01  0.77545170565E-01  0.51100000000E-03 0.  1.
         11    1    4    4    0    0 -0.36185460942E-01 -0.33409765721E-01  0.83857529729E-02  0.49961805442E-01  0.51100000000E-03 0. -1.
</event>
<event>
 8    1  0.1204770E+005  0.1043930E+01  0.7957747E-01            NaN
         13   -1    0    0    0    0  0.00000000000E+00  0.00000000000E+00  0.74505805969E-08  0.10566000000E+00  0.10566000000E+00 0.  1.
     999900   -1    0    0    0    0 -0.00000000000E+00 -0.00000000000E+00 -0.74505805969E-08  0.93827000000E+00  0.93827000000E+00 0. -1.
     999902    2    1    2    0    0 -0.57089724563E-02 -0.84687654834E-02 -0.20933180096E-01  0.10206381477E+01  0.10203723429E+01 0.  0.
     999903    2    3    3    0    0  0.62336079218E-01 -0.91374263550E-01 -0.70534519967E-01  0.13273964922E+00  0.20239890205E-01 0.  0.
         14    1    1    2    0    0  0.57089724563E-02  0.84687654834E-02  0.20933180096E-01  0.23291852315E-01  0.00000000000E+00 0.  1.
     999901    1    3    3    0    0 -0.68045051674E-01  0.82905498066E-01  0.49601339871E-01  0.88789849847E+00  0.88000000000E+00 0. -1.
        -11    1    4    4    0    0  0.55165305857E-01 -0.69218936168E-01 -0.49836261098E-01  0.10157945725E+00  0.51100000000E-03 0. -1.
         11    1    4    4    0    0  0.71707733611E-02 -0.22155327381E-01 -0.20698258869E-01  0.31160191963E-01  0.51100000000E-03 0.  1.
</event>
<event>
 8    1  0.1204770E+005  0.1043930E+01  0.7957747E-01            NaN
         13   -1    0    0    0    0  0.00000000000E+00  0.00000000000E+00  0.74505805969E-08  0.10566000000E+00  0.10566000000E+00 0. -1.
     999900   -1    0    0    0    0 -0.00000000000E+00 -0.00000000000E+00 -0.74505805969E-08  0.93827000000E+00  0.93827000000E+00 0. -1.
     999902    2    1    2    0    0 -0.86485266913E-03 -0.23785035838E-01  0.44863956432E-02  0.10197100981E+01  0.10194224250E+01 0.  0.
     999903    2    3    3    0    0 -0.20480017468E-02 -0.53831272898E-01  0.11861410048E+00  0.13183099083E+00  0.20201610222E-01 0.  0.
         14    1    1    2    0    0  0.86485266913E-03  0.23785035838E-01 -0.44863956432E-02  0.24219901854E-01  0.00000000000E+00 0.  1.
     999901    1    3    3    0    0  0.11831490777E-02  0.30046237060E-01 -0.11412770484E+00  0.88787910732E+00  0.88000000000E+00 0. -1.
        -11    1    4    4    0    0 -0.79337527836E-03 -0.31959985386E-01  0.91757846781E-01  0.97169098366E-01  0.51100000000E-03 0.  1.
         11    1    4    4    0    0 -0.12546264685E-02 -0.21871287512E-01  0.26856253702E-01  0.34661892460E-01  0.51100000000E-03 0. -1.
</event>
<event>
 7    1  0.1204770E+005  0.1043930E+01  0.7957747E-01            NaN
         13   -1    0    0    0    0  0.00000000000E+00  0.00000000000E+00  0.74505805969E-08  0.10566000000E+00  0.10566000000E+00 0.  1.
     999900   -1    0    0    0    0 -0.00000000000E+00 -0.00000000000E+00 -0.74505805969E-08  0.93827000000E+00  0.93827000000E+00 0. -1.
     999903    2    1    2    0    0  0.58466481476E-01  0.22016637835E-01  0.13133880131E+00  0.14675977626E+00  0.19633884004E-01 0.  0.
         14    1    1    2    0    0 -0.46767748382E-02 -0.30807869959E-02 -0.18748585018E-04  0.56003413209E-02  0.00000000000E+00 0. -1.
     999901    1    1    2    0    0 -0.53789706638E-01 -0.18935850839E-01 -0.13132005272E+00  0.89156988242E+00  0.88000000000E+00 0. -1.
        -11    1    3    3    0    0  0.47138396782E-01  0.90798526172E-02  0.10237129793E+00  0.11306907594E+00  0.51100000000E-03 0.  1.
         11    1    3    3    0    0  0.11328084695E-01  0.12936785218E-01  0.28967503383E-01  0.33690700318E-01  0.51100000000E-03 0. -1.
</event>
<event>
 8    1  0.1204770E+005  0.1043930E+01  0.7957747E-01            NaN
         13   -1    0    0    0    0  0.00000000000E+00  0.00000000000E+00  0.74505805969E-08  0.10566000000E+00  0.10566000000E+00 0. -1.
     999900   -1    0    0    0    0 -0.00000000000E+00 -0.00000000000E+00 -0.74505805969E-08  0.93827000000E+00  0.93827000000E+00 0. -1.
     999902    2    1    2    0    0 -0.17327247530E-02 -0.11624144011E-01 -0.21118863618E-01  0.10197612297E+01  0.10194747844E+01 0.  0.
     999903    2    3    3    0    0  0.75897637406E-01 -0.98765468364E-01 -0.37873572094E-01  0.13189817502E+00  0.21157788317E-01 0.  0.
         14    1    1    2    0    0  0.17327247530E-02  0.11624144011E-01  0.21118863618E-01  0.24168770336E-01  0.00000000000E+00 0. -1.
     999901    1    3    3    0    0 -0.77630362159E-01  0.87141324353E-01  0.16754708476E-01  0.88786305464E+00  0.88000000000E+00 0.  1.
        -11    1    4    4    0    0  0.27269808507E-01 -0.49863063089E-01 -0.23200815257E-01  0.61388162264E-01  0.51100000000E-03 0. -1.
         11    1    4    4    0    0  0.48627828899E-01 -0.48902405275E-01 -0.14672756837E-01  0.70510012759E-01  0.51100000000E-03 0.  1.
</event>
<event>
 8    1  0.1204770E+005  0.1043930E+01  0.7957747E-01            NaN
         13   -1    0    0    0    0  0.00000000000E+00  0.00000000000E+00  0.74505805969E-08  0.10566000000E+00  0.10566000000E+00 0. -1.
     999900   -1    0    0    0    0 -0.00000000000E+00 -0.00000000000E+00 -0.74505805969E-08  0.93827000000E+00  0.93827000000E+00 0.  1.
     999902    2    1    2    0    0 -0.90108871439E-02 -0.18129659945E-01  0.11113592836E-01  0.10208347061E+01  0.10205734194E+01 0.  0.
     999903    2    3    3    0    0 -0.72150493949E-01  0.46087712347E-01 -0.95582036305E-01  0.12982716504E+00  0.19733122228E-01 0.  0.
         14    1    1    2    0    0  0.90108871439E-02  0.18129659945E-01 -0.11113592836E-01  0.23095293949E-01  0.00000000000E+00 0. -1.
     999901    1    3    3    0    0  0.63139606805E-01 -0.64217372292E-01  0.10669562914E+00  0.89100754101E+00  0.88000000000E+00 0. -1.
        -11    1    4    4    0    0 -0.82353504427E-02  0.36479222169E-02 -0.20869777020E-01  0.22736249631E-01  0.51100000000E-03 0.  1.
         11    1    4    4    0    0 -0.63915143506E-01  0.42439790130E-01 -0.74712259286E-01  0.10709091541E+00  0.51100000000E-03 0. -1.
</event>
<event>
 8    1  0.1204770E+005  0.1043930E+01  0.7957747E-01            NaN
         13   -1    0    0    0    0  0.00000000000E+00  0.00000000000E+00  0.74505805969E-08  0.10566000000E+00  0.10566000000E+00 0.  1.
     999900   -1    0    0    0    0 -0.00000000000E+00 -0.00000000000E+00 -0.74505805969E-08  0.93827000000E+00  0.93827000000E+00 0.  1.
     999902    2    1    2    0    0 -0.15095321507E-01 -0.18221862583E-01 -0.17754530284E-02  0.10202011728E+01  0.10199251814E+01 0.  0.
     999903    2    3    3    0    0  0.30704341008E-01  0.96922954216E-01 -0.75917018029E-01  0.12843163441E+00  0.19861406792E-01 0.  0.
         14    1    1    2    0    0  0.15095321507E-01  0.18221862583E-01  0.17754530284E-02  0.23728827212E-01  0.00000000000E+00 0.  1.
     999901    1    3    3    0    0 -0.45799662515E-01 -0.11514481680E+00  0.74141565000E-01  0.89176953838E+00  0.88000000000E+00 0. -1.
        -11    1    4    4    0    0  0.19317845454E-01  0.39623851828E-01 -0.23578964792E-01  0.49994574589E-01  0.51100000000E-03 0.  1.
         11    1    4    4    0    0  0.11386495553E-01  0.57299102388E-01 -0.52338053237E-01  0.78437059819E-01  0.51100000000E-03 0. -1.
</event>
<event>
 8    1  0.1204770E+005  0.1043930E+01  0.7957747E-01            NaN
         13   -1    0    0    0    0  0.00000000000E+00  0.00000000000E+00  0.74505805969E-08  0.10566000000E+00  0.10566000000E+00 0.  1.
     999900   -1    0    0    0    0 -0.00000000000E+00 -0.00000000000E+00 -0.74505805969E-08  0.93827000000E+00  0.93827000000E+00 0.  1.
     999902    2    1    2    0    0  0.19940386277E-01  0.79388383082E-02  0.94334817434E-02  0.10204857099E+01  0.10202163738E+01 0.  0.
     999903    2    3    3    0    0 -0.65852802545E-01 -0.10428353164E+00 -0.29865514001E-01  0.12835413745E+00  0.19266268458E-01 0.  0.
         14    1    1    2    0    0 -0.19940386277E-01 -0.79388383082E-02 -0.94334817434E-02  0.23444290059E-01  0.00000000000E+00 0. -1.
     999901    1    3    3    0    0  0.85793188822E-01  0.11222236995E+00  0.39298995745E-01  0.89213157249E+00  0.88000000000E+00 0. -1.
        -11    1    4    4    0    0 -0.49630997910E-01 -0.62411396538E-01 -0.22423897268E-01  0.82834236044E-01  0.51100000000E-03 0.  1.
         11    1    4    4    0    0 -0.16221804635E-01 -0.41872135102E-01 -0.74416167336E-02  0.45519901408E-01  0.51100000000E-03 0. -1.
</event>
<event>
 8    1  0.1204770E+005  0.1043930E+01  0.7957747E-01            NaN
         13   -1    0    0    0    0  0.00000000000E+00  0.00000000000E+00  0.74505805969E-08  0.10566000000E+00  0.10566000000E+00 0. -1.
     999900   -1    0    0    0    0 -0.00000000000E+00 -0.00000000000E+00 -0.74505805969E-08  0.93827000000E+00  0.93827000000E+00 0. -1.
     999902    2    1    2    0    0  0.23170415611E-01  0.19668960707E-02  0.45742754174E-02  0.10202306153E+01  0.10199553164E+01 0.  0.
     999903    2    3    3    0    0  0.10807019894E+00 -0.72939307624E-01  0.17443685388E-01  0.13288370778E+00  0.18827828857E-01 0.  0.
         14    1    1    2    0    0 -0.23170415611E-01 -0.19668960707E-02 -0.45742754174E-02  0.23699384703E-01  0.00000000000E+00 0.  1.
     999901    1    3    3    0    0 -0.84899783326E-01  0.74906203695E-01 -0.12869409970E-01  0.88734690751E+00  0.88000000000E+00 0.  1.
        -11    1    4    4    0    0  0.89282474788E-01 -0.50937463309E-01  0.14094048109E-01  0.10375398202E+00  0.51100000000E-03 0. -1.
         11    1    4    4    0    0  0.18787724149E-01 -0.22001844315E-01  0.33496372787E-02  0.29129725760E-01  0.51100000000E-03 0.  1.
</event>
<event>
 8    1  0.1204770E+005  0.1043930E+01  0.7957747E-01            NaN
         13   -1    0    0    0    0  0.00000000000E+00  0.00000000000E+00  0.74505805969E-08  0.10566000000E+00  0.10566000000E+00 0. -1.
     999900   -1    0    0    0    0 -0.00000000000E+00 -0.00000000000E+00 -0.74505805969E-08  0.93827000000E+00  0.93827000000E+00 0.  1.
     999902    2    1    2    0    0 -0.17438809892E-01 -0.77966626561E-02 -0.12631606087E-01  0.10210289627E+01  0.10207721024E+01 0.  0.
     999903    2    3    3    0    0  0.40412855294E-01 -0.34802272647E-01 -0.11929051162E+00  0.13229264616E+00  0.20657226603E-01 0.  0.
         14    1    1    2    0    0  0.17438809892E-01  0.77966626561E-02  0.12631606087E-01  0.22901037342E-01  0.00000000000E+00 0.  1.
     999901    1    3    3    0    0 -0.57851665186E-01  0.27005609991E-01  0.10665890553E+00  0.88873631650E+00  0.88000000000E+00 0. -1.
        -11    1    4    4    0    0  0.98083544825E-02 -0.74201716019E-03 -0.35079007066E-01  0.36435590635E-01  0.51100000000E-03 0. -1.
         11    1    4    4    0    0  0.30604500811E-01 -0.34060255487E-01 -0.84211504552E-01  0.95857055524E-01  0.51100000000E-03 0.  1.
</event>
<event>
 8    1  0.1204770E+005  0.1043930E+01  0.7957747E-01            NaN
         13   -1    0    0    0    0  0.00000000000E+00  0.00000000000E+00  0.74505805969E-08  0.10566000000E+00  0.10566000000E+00 0.  1.
     999900   -1    0    0    0    0 -0.00000000000E+00 -0.00000000000E+00 -0.74505805969E-08  0.93827000000E+00  0.93827000000E+00 0. -1.
     999902    2    1    2    0    0  0.12812511802E-02  0.31959713285E-02  0.23737126331E-01  0.10199444418E+01  0.10196623742E+01 0.  0.
     999903    2    3    3    0    0  0.11843561545E+00  0.25424910975E-01 -0.40847274843E-01  0.12955665226E+00  0.21047688185E-01 0.  0.
         14    1    1    2    0    0 -0.12812511802E-02 -0.31959713285E-02 -0.23737126331E-01  0.23985558233E-01  0.00000000000E+00 0. -1.
     999901    1    3    3    0    0 -0.11715436427E+00 -0.22228939647E-01  0.64584401173E-01  0.89038778951E+00  0.88000000000E+00 0.  1.
        -11    1    4    4    0    0  0.51914392057E-01  0.15278073073E-01 -0.28417936663E-01  0.61125803591E-01  0.51100000000E-03 0. -1.
         11    1    4    4    0    0  0.66521223393E-01  0.10146837903E-01 -0.12429338179E-01  0.68430848670E-01  0.51100000000E-03 0.  1.
</event>
<event>
 8    1  0.1204770E+005  0.1043930E+01  0.7957747E-01            NaN
         13   -1    0    0    0    0  0.00000000000E+00  0.00000000000E+00  0.74505805969E-08  0.10566000000E+00  0.10566000000E+00 0.  1.
     999900   -1    0    0    0    0 -0.00000000000E+00 -0.00000000000E+00 -0.74505805969E-08  0.93827000000E+00  0.93827000000E+00 0.  1.
     999902    2    1    2    0    0  0.22386889016E-01 -0.15331537692E-02 -0.64466778091E-02  0.10205829870E+01  0.10203159071E+01 0.  0.
     999903    2    3    3    0    0 -0.14328935135E-01  0.45659121080E-01  0.11867237111E+00  0.12972388539E+00  0.21332628914E-01 0.  0.
         14    1    1    2    0    0 -0.22386889016E-01  0.15331537692E-02  0.64466778091E-02  0.23347012980E-01  0.00000000000E+00 0.  1.
     999901    1    3    3    0    0  0.36715824152E-01 -0.47192274849E-01 -0.12511904892E+00  0.89085910163E+00  0.88000000000E+00 0. -1.
        -11    1    4    4    0    0 -0.26213657767E-03  0.99324129698E-02  0.86172903836E-02  0.13162080289E-01  0.51100000000E-03 0.  1.
         11    1    4    4    0    0 -0.14066798558E-01  0.35726708110E-01  0.11005508073E+00  0.11656180510E+00  0.51100000000E-03 0. -1.
</event>
<event>
 8    1  0.1204770E+005  0.1043930E+01  0.7957747E-01            NaN
         13   -1    0    0    0    0  0.00000000000E+00  0.00000000000E+00  0.74505805969E-08  0.10566000000E+00  0.10566000000E+00 0.  1.
     999900   -1    0    0    0    0 -0.00000000000E+00 -0.00000000000E+00 -0.74505805969E-08  0.93827000000E+00  0.93827000000E+00 0. -1.
     999902    2    1    2    0    0  0.22751883771E-01 -0.60537935712E-02  0.23106118808E-02  0.10202733823E+01  0.10199990878E+01 0.  0.
     999903    2    3    3    0    0  0.63457717893E-01 -0.51866015445E-01 -0.10164614010E+00  0.13203764174E+00  0.19622321967E-01 0.  0.
         14    1    1    2    0    0 -0.22751883771E-01  0.60537935712E-02 -0.23106118808E-02  0.23656617657E-01  0.00000000000E+00 0.  1.
     999901    1    3    3    0    0 -0.40705834122E-01  0.45812221874E-01  0.10395675198E+00  0.88823574060E+00  0.88000000000E+00 0.  1.
        -11    1    4    4    0    0  0.31061386990E-01 -0.30588713305E-01 -0.67639133289E-01  0.80472309625E-01  0.51100000000E-03 0. -1.
         11    1    4    4    0    0  0.32396330903E-01 -0.21277302140E-01 -0.34007006815E-01  0.51565332113E-01  0.51100000000E-03 0.  1.
</event>
<event>
 8    1  0.1204770E+005  0.1043930E+01  0.7957747E-01            NaN
         13   -1    0    0    0    0  0.00000000000E+00  0.00000000000E+00  0.74505805969E-08  0.10566000000E+00  0.10566000000E+00 0. -1.
     999900   -1    0    0    0    0 -0.00000000000E+00 -0.00000000000E+00 -0.74505805969E-08  0.93827000000E+00  0.93827000000E+00 0. -1.
     999902    2    1    2    0    0  0.24324369851E-01  0.55045936189E-02 -0.67394368758E-02  0.10180960005E+01  0.10177681812E+01 0.  0.
     999903    2    3    3    0    0  0.51244148248E-01 -0.37679868343E-01 -0.11207856589E+00  0.13035397475E+00  0.19616793639E-01 0.  0.
         14    1    1    2    0    0 -0.24324369851E-01 -0.55045936189E-02  0.67394368758E-02  0.25833999477E-01  0.00000000000E+00 0. -1.
     999901    1    3    3    0    0 -0.26919778397E-01  0.43184461961E-01  0.10533912902E+00  0.88774202577E+00  0.88000000000E+00 0.  1.
        -11    1    4    4    0    0  0.24329164995E-01 -0.62103733067E-02 -0.40268228151E-01  0.47458069129E-01  0.51100000000E-03 0.  1.
         11    1    4    4    0    0  0.26914983253E-01 -0.31469495036E-01 -0.71810337740E-01  0.82895905620E-01  0.51100000000E-03 0. -1.
</event>
<event>
 8    1  0.1204770E+005  0.1043930E+01  0.7957747E-01            NaN
         13   -1    0    0    0    0  0.00000000000E+00  0.00000000000E+00  0.74505805969E-08  0.10566000000E+00  0.10566000000E+00 0. -1.
     999900   -1    0    0    0    0 -0.00000000000E+00 -0.00000000000E+00 -0.74505805969E-08  0.93827000000E+00  0.93827000000E+00 0.  1.
     999902    2    1    2    0    0  0.42364502185E-02  0.22332062615E-01  0.50484149311E-02  0.10206457774E+01  0.10203801487E+01 0.  0.
     999903    2    3    3    0    0 -0.91353654676E-01 -0.56099223699E-01  0.69938206093E-01  0.12963532858E+00  0.20526875588E-01 0.  0.
         14    1    1    2    0    0 -0.42364502185E-02 -0.22332062615E-01 -0.50484149311E-02  0.23284222650E-01  0.00000000000E+00 0.  1.
     999901    1    3    3    0    0  0.95590104894E-01  0.78431286314E-01 -0.64889791162E-01  0.89101044877E+00  0.88000000000E+00 0.  1.
        -11    1    4    4    0    0 -0.80952354945E-01 -0.54823454604E-01  0.57747204487E-01  0.11355129102E+00  0.51100000000E-03 0.  1.
         11    1    4    4    0    0 -0.10401299730E-01 -0.12757690951E-02  0.12191001607E-01  0.16084037554E-01  0.51100000000E-03 0. -1.
</event>
<event>
 8    1  0.1204770E+005  0.1043930E+01  0.7957747E-01            NaN
         13   -1    0    0    0    0  0.00000000000E+00  0.00000000000E+00  0.74505805969E-08  0.10566000000E+00  0.10566000000E+00 0. -1.
     999900   -1    0    0    0    0 -0.00000000000E+00 -0.00000000000E+00 -0.74505805969E-08  0.93827000000E+00  0.93827000000E+00 0.  1.
     999902    2    1    2    0    0 -0.11385407216E-01 -0.12981390138E-01 -0.19717538379E-01  0.10177207401E+01  0.10173832019E+01 0.  0.
     999903    2    3    3    0    0 -0.86330803531E-01 -0.73830051619E-01  0.58092982092E-01  0.12902852723E+00  0.19227119139E-01 0.  0.
         14    1    1    2    0    0  0.11385407216E-01  0.12981390138E-01  0.19717538379E-01  0.26209259949E-01  0.00000000000E+00 0.  1.
     999901    1    3    3    0    0  0.74945396315E-01  0.60848661481E-01 -0.77810520471E-01  0.88869221282E+00  0.88000000000E+00 0.  1.
        -11    1    4    4    0    0 -0.83449950264E-02 -0.15989762955E-01  0.74722576984E-02  0.19529649701E-01  0.51100000000E-03 0.  1.
         11    1    4    4    0    0 -0.77985808504E-01 -0.57840288664E-01  0.50620724394E-01  0.10949887753E+00  0.51100000000E-03 0. -1.
</event>
<event>
 8    1  0.1204770E+005  0.1043930E+01  0.7957747E-01            NaN
         13   -1    0    0    0    0  0.00000000000E+00  0.00000000000E+00  0.74505805969E-08  0.10566000000E+00  0.10566000000E+00 0. -1.
     999900   -1    0    0    0    0 -0.00000000000E+00 -0.00000000000E+00 -0.74505805969E-08  0.93827000000E+00  0.93827000000E+00 0.  1.
     999902    2    1    2    0    0 -0.52011138957E-03  0.14960473206E-01  0.18677382126E-01  0.10199940255E+01  0.10197131367E+01 0.  0.
     999903    2    3    3    0    0 -0.22130937054E-02 -0.71378791383E-01 -0.10358816985E+00  0.12735400843E+00  0.19715600081E-01 0.  0.
         14    1    1    2    0    0  0.52011138957E-03 -0.14960473206E-01 -0.18677382126E-01  0.23935974546E-01  0.00000000000E+00 0.  1.
     999901    1    3    3    0    0  0.16929823158E-02  0.86339264589E-01  0.12226555197E+00  0.89264001703E+00  0.88000000000E+00 0. -1.
        -11    1    4    4    0    0 -0.91684150731E-02 -0.50552524278E-01 -0.63903649575E-01  0.81997287125E-01  0.51100000000E-03 0.  1.
         11    1    4    4    0    0  0.69553213677E-02 -0.20826267105E-01 -0.39684520274E-01  0.45356721302E-01  0.51100000000E-03 0. -1.
</event>
<event>
 7    1  0.1204770E+005  0.1043930E+01  0.7957747E-01            NaN
         13   -1    0    0    0    0  0.00000000000E+00  0.00000000000E+00  0.74505805969E-08  0.10566000000E+00  0.10566000000E+00 0. -1.
     999900   -1    0    0    0    0 -0.00000000000E+00 -0.00000000000E+00 -0.74505805969E-08  0.93827000000E+00  0.93827000000E+00 0. -1.
     999902    2    1    2    0    0  0.15458799572E-01  0.11401848265E-02  0.15158085155E-01  0.10222495468E+01  0.10220196152E+01 0.  0.
         14    1    1    2    0    0 -0.15458799572E-01 -0.11401848265E-02 -0.15158085155E-01  0.21680453206E-01  0.00000000000E+00 0.  1.
     999901    1    3    3    0    0  0.82424786291E-01 -0.10056778069E+00  0.69383882228E-02  0.88958184848E+00  0.88000000000E+00 0. -1.
        -11    1    3    3    0    0 -0.57582879131E-01  0.79906679735E-01 -0.14799358424E-01  0.99599937581E-01  0.51100000000E-03 0.  1.
         11    1    3    3    0    0 -0.93831075870E-02  0.21801285779E-01  0.23019055357E-01  0.33067760736E-01  0.51100000000E-03 0. -1.
</event>
<event>
 8    1  0.1204770E+005  0.1043930E+01  0.7957747E-01            NaN
         13   -1    0    0    0    0  0.00000000000E+00  0.00000000000E+00  0.74505805969E-08  0.10566000000E+00  0.10566000000E+00 0.  1.
     999900   -1    0    0    0    0 -0.00000000000E+00 -0.00000000000E+00 -0.74505805969E-08  0.93827000000E+00  0.93827000000E+00 0.  1.
     999902    2    1    2    0    0  0.21660108771E-01 -0.59956599425E-02  0.14168999479E-01  0.10173618086E+01  0.10170148380E+01 0.  0.
     999903    2    3    3    0    0 -0.46156693019E-01  0.72001705169E-02  0.11807752464E+00  0.12855911384E+00  0.20071401524E-01 0.  0.
         14    1    1    2    0    0 -0.21660108771E-01  0.59956599425E-02 -0.14168999479E-01  0.26568191439E-01  0.00000000000E+00 0.  1.
     999901    1    3    3    0    0  0.67816801790E-01 -0.13195830459E-01 -0.10390852516E+00  0.88880269472E+00  0.88000000000E+00 0.  1.
        -11    1    4    4    0    0 -0.22792407634E-01 -0.14674785902E-02  0.78760960684E-01  0.82007300822E-01  0.51100000000E-03 0. -1.
         11    1    4    4    0    0 -0.23364285385E-01  0.86676491071E-02  0.39316563958E-01  0.46551813016E-01  0.51100000000E-03 0.  1.
</event>
<event>
 8    1  0.1204770E+005  0.1043930E+01  0.7957747E-01            NaN
         13   -1    0    0    0    0  0.00000000000E+00  0.00000000000E+00  0.74505805969E-08  0.10566000000E+00  0.10566000000E+00 0. -1.
     999900   -1    0    0    0    0 -0.00000000000E+00 -0.00000000000E+00 -0.74505805969E-08  0.93827000000E+00  0.93827000000E+00 0. -1.
     999902    2    1    2    0    0 -0.15372735498E-01  0.11953127479E-01  0.11656068956E-03  0.10244566377E+01  0.10242715415E+01 0.  0.
     999903    2    3    3    0    0 -0.73227723887E-01 -0.10096733772E+00 -0.45374712984E-01  0.13419393089E+00  0.19810191245E-01 0.  0.
         14    1    1    2    0    0  0.15372735498E-01 -0.11953127479E-01 -0.11656068956E-03  0.19473362309E-01  0.00000000000E+00 0.  1.
     999901    1    3    3    0    0  0.57854988389E-01  0.11292046520E+00  0.45491273674E-01  0.89026270680E+00  0.88000000000E+00 0. -1.
        -11    1    4    4    0    0 -0.29879292295E-01 -0.47777649335E-01 -0.30129065511E-01  0.63902250301E-01  0.51100000000E-03 0. -1.
         11    1    4    4    0    0 -0.43348431592E-01 -0.53189688384E-01 -0.15245647474E-01  0.70291680588E-01  0.51100000000E-03 0.  1.
</event>
<event>
 8    1  0.1204770E+005  0.1043930E+01  0.7957747E-01            NaN
         13   -1    0    0    0    0  0.00000000000E+00  0.00000000000E+00  0.74505805969E-08  0.10566000000E+00  0.10566000000E+00 0.  1.
     999900   -1    0    0    0    0 -0.00000000000E+00 -0.00000000000E+00 -0.74505805969E-08  0.93827000000E+00  0.93827000000E+00 0.  1.
     999902    2    1    2    0    0 -0.71586144243E-02  0.12471473916E-01 -0.16545097850E-01  0.10220091495E+01  0.10217740347E+01 0.  0.
     999903    2    3    3    0    0 -0.74333660370E-01  0.97500187081E-01  0.47647425107E-01  0.13304174358E+00  0.19951162104E-01 0.  0.
         14    1    1    2    0    0  0.71586144243E-02 -0.12471473916E-01  0.16545097850E-01  0.21920850462E-01  0.00000000000E+00 0. -1.
     999901    1    3    3    0    0  0.67175045945E-01 -0.85028713165E-01 -0.64192522957E-01  0.88896740596E+00  0.88000000000E+00 0.  1.
        -11    1    4    4    0    0 -0.38501394983E-01  0.41454402195E-01  0.30799678068E-01  0.64418213007E-01  0.51100000000E-03 0. -1.
         11    1    4    4    0    0 -0.35832265387E-01  0.56045784887E-01  0.16847747039E-01  0.68623530568E-01  0.51100000000E-03 0.  1.
</event>
<event>
 8    1  0.1204770E+005  0.1043930E+01  0.7957747E-01            NaN
         13   -1    0    0    0    0  0.00000000000E+00  0.00000000000E+00  0.74505805969E-08  0.10566000000E+00  0.10566000000E+00 0. -1.
     999900   -1    0    0    0    0 -0.00000000000E+00 -0.00000000000E+00 -0.74505805969E-08  0.93827000000E+00  0.93827000000E+00 0. -1.
     999902    2    1    2    0    0 -0.47693779800E-02 -0.10683081119E-01  0.20967609665E-01  0.10199192557E+01  0.10196365883E+01 0.  0.
     999903    2    3    3    0    0 -0.48568644070E-01 -0.10735889623E+00  0.57993951432E-01  0.13276902097E+00  0.19479957412E-01 0.  0.
         14    1    1    2    0    0  0.47693779800E-02  0.10683081119E-01 -0.20967609665E-01  0.24010744336E-01  0.00000000000E+00 0.  1.
     999901    1    3    3    0    0  0.43799266090E-01  0.96675815106E-01 -0.37026341767E-01  0.88715023470E+00  0.88000000000E+00 0. -1.
        -11    1    4    4    0    0 -0.26983961542E-01 -0.62359974838E-01  0.22703351840E-01  0.71642193908E-01  0.51100000000E-03 0. -1.
         11    1    4    4    0    0 -0.21584682528E-01 -0.44998921388E-01  0.35290599592E-01  0.61126827060E-01  0.51100000000E-03 0.  1.
</event>
<event>
 8    1  0.1204770E+005  0.1043930E+01  0.7957747E-01            NaN
         13   -1    0    0    0    0  0.00000000000E+00  0.00000000000E+00  0.74505805969E-08  0.10566000000E+00  0.10566000000E+00 0. -1.
     999900   -1    0    0    0    0 -0.00000000000E+00 -0.00000000000E+00 -0.74505805969E-08  0.93827000000E+00  0.93827000000E+00 0. -1.
     999902    2    1    2    0    0  0.23606030232E-01  0.29656425453E-02  0.26981233535E-02  0.10199859074E+01  0.10197048258E+01 0.  0.
     999903    2    3    3    0    0  0.10494550388E+00 -0.70766205063E-01 -0.33156819002E-01  0.13243981161E+00  0.20482052881E-01 0.  0.
         14    1    1    2    0    0 -0.23606030232E-01 -0.29656425453E-02 -0.26981233535E-02  0.23944092563E-01  0.00000000000E+00 0.  1.
     999901    1    3    3    0    0 -0.81339473645E-01  0.73731847609E-01  0.35854942356E-01  0.88754609583E+00  0.88000000000E+00 0. -1.
        -11    1    4    4    0    0  0.46961829799E-01 -0.42407032725E-01 -0.21611223488E-01  0.66866104898E-01  0.51100000000E-03 0. -1.
         11    1    4    4    0    0  0.57983674078E-01 -0.28359172338E-01 -0.11545595514E-01  0.65573706713E-01  0.51100000000E-03 0.  1.
</event>
<event>
 8    1  0.1204770E+005  0.1043930E+01  0.7957747E-01            NaN
         13   -1    0    0    0    0  0.00000000000E+00  0.00000000000E+00  0.74505805969E-08  0.10566000000E+00  0.10566000000E+00 0. -1.
     999900   -1    0    0    0    0 -0.00000000000E+00 -0.00000000000E+00 -0.74505805969E-08  0.93827000000E+00  0.93827000000E+00 0. -1.
     999902    2    1    2    0    0  0.14042489883E-01 -0.11004990401E-01 -0.15834117181E-01  0.10200758473E+01  0.10197968982E+01 0.  0.
     999903    2    3    3    0    0 -0.51396512627E-01  0.11292319769E+00 -0.28931636670E-01  0.12889011810E+00  0.19554356423E-01 0.  0.
         14    1    1    2    0    0 -0.14042489883E-01  0.11004990401E-01  0.15834117181E-01  0.23854152735E-01  0.00000000000E+00 0. -1.
     999901    1    3    3    0    0  0.65439002511E-01 -0.12392818809E+00  0.13097519489E-01  0.89118572917E+00  0.88000000000E+00 0. -1.
        -11    1    4    4    0    0 -0.23978272771E-01  0.39789843817E-01 -0.28567056119E-02  0.46546870185E-01  0.51100000000E-03 0. -1.
         11    1    4    4    0    0 -0.27418239857E-01  0.73133353877E-01 -0.26074931058E-01  0.82343247913E-01  0.51100000000E-03 0.  1.
</event>
<event>
 8    1  0.1204770E+005  0.1043930E+01  0.7957747E-01            NaN
         13   -1    0    0    0    0  0.00000000000E+00  0.00000000000E+00  0.74505805969E-08  0.10566000000E+00  0.10566000000E+00 0. -1.
     999900   -1    0    0    0    0 -0.00000000000E+00 -0.00000000000E+00 -0.74505805969E-08  0.93827000000E+00  0.93827000000E+00 0. -1.
     999902    2    1    2    0    0 -0.12141265088E-01 -0.16624231048E-01 -0.11729438434E-01  0.10202370664E+01  0.10199619192E+01 0.  0.
     999903    2    3    3    0    0  0.24495237238E-01 -0.71214096883E-01  0.10483703164E+00  0.13011908058E+00  0.16392305698E-01 0.  0.
         14    1    1    2    0    0  0.12141265088E-01  0.16624231048E-01  0.11729438434E-01  0.23692933585E-01  0.00000000000E+00 0. -1.
     999901    1    3    3    0    0 -0.36636502326E-01  0.54589865835E-01 -0.11656647008E+00  0.89011798583E+00  0.88000000000E+00 0. -1.
        -11    1    4    4    0    0  0.12259157237E-01 -0.14322918403E-01  0.26890179407E-01  0.32844722518E-01  0.51100000000E-03 0.  1.
         11    1    4    4    0    0  0.12236080001E-01 -0.56891178481E-01  0.77946852235E-01  0.97274358066E-01  0.51100000000E-03 0. -1.
</event>
<event>
 8    1  0.1204770E+005  0.1043930E+01  0.7957747E-01            NaN
         13   -1    0    0    0    0  0.00000000000E+00  0.00000000000E+00  0.74505805969E-08  0.10566000000E+00  0.10566000000E+00 0. -1.
     999900   -1    0    0    0    0 -0.00000000000E+00 -0.00000000000E+00 -0.74505805969E-08  0.93827000000E+00  0.93827000000E+00 0.  1.
     999902    2    1    2    0    0 -0.21429196831E-01 -0.42057595636E-02  0.13108812563E-01  0.10184596279E+01  0.10181410873E+01 0.  0.
     999903    2    3    3    0    0 -0.10469619376E+00  0.13982971599E-01 -0.73250777383E-01  0.13013412361E+00  0.20307566505E-01 0.  0.
         14    1    1    2    0    0  0.21429196831E-01  0.42057595636E-02 -0.13108812563E-01  0.25470372144E-01  0.00000000000E+00 0.  1.
     999901    1    3    3    0    0  0.83266996931E-01 -0.18188731163E-01  0.86359589947E-01  0.88832550425E+00  0.88000000000E+00 0. -1.
        -11    1    4    4    0    0 -0.80036366658E-01  0.14868873401E-01 -0.46562798422E-01  0.93783040588E-01  0.51100000000E-03 0.  1.
         11    1    4    4    0    0 -0.24659827104E-01 -0.88590180202E-03 -0.26687978961E-01  0.36351083021E-01  0.51100000000E-03 0. -1.
</event>
<event>
 8    1  0.1204770E+005  0.1043930E+01  0.7957747E-01            NaN
         13   -1    0    0    0    0  0.00000000000E+00  0.00000000000E+00  0.74505805969E-08  0.10566000000E+00  0.10566000000E+00 0. -1.
     999900   -1    0    0    0    0 -0.00000000000E+00 -0.00000000000E+00 -0.74505805969E-08  0.93827000000E+00  0.93827000000E+00 0. -1.
     999902    2    1    2    0    0  0.17105803304E-02  0.10620688354E-01  0.20301854274E-01  0.10209541346E+01  0.10206955738E+01 0.  0.
     999903    2    3    3    0    0 -0.26617451186E-01  0.88382609500E-01 -0.89863351040E-01  0.13023208688E+00  0.19104979000E-01 0.  0.
         14    1    1    2    0    0 -0.17105803304E-02 -0.10620688354E-01 -0.20301854274E-01  0.22975865449E-01  0.00000000000E+00 0.  1.
     999901    1    3    3    0    0  0.28328031517E-01 -0.77761921146E-01  0.11016520531E+00  0.89072204767E+00  0.88000000000E+00 0.  1.
        -11    1    4    4    0    0 -0.21283347622E-01  0.81355384722E-01 -0.73741251255E-01  0.11184682725E+00  0.51100000000E-03 0.  1.
         11    1    4    4    0    0 -0.53341035639E-02  0.70272247782E-02 -0.16122099786E-01  0.18385259623E-01  0.51100000000E-03 0. -1.
</event>
<event>
 8    1  0.1204770E+005  0.1043930E+01  0.7957747E-01            NaN
         13   -1    0    0    0    0  0.00000000000E+00  0.00000000000E+00  0.74505805969E-08  0.10566000000E+00  0.10566000000E+00 0. -1.
     999900   -1    0    0    0    0 -0.00000000000E+00 -0.00000000000E+00 -0.74505805969E-08  0.93827000000E+00  0.93827000000E+00 0. -1.
     999902    2    1    2    0    0 -0.36038852630E-03 -0.19857171803E-01 -0.13484682131E-01  0.10199242964E+01  0.10196417492E+01 0.  0.
     999903    2    3    3    0    0 -0.84765109440E-01 -0.50222341482E-01 -0.86041072374E-01  0.13239366022E+00  0.20435453713E-01 0.  0.
         14    1    1    2    0    0  0.36038852630E-03  0.19857171803E-01  0.13484682131E-01  0.24005703574E-01  0.00000000000E+00 0.  1.
     999901    1    3    3    0    0  0.84404720914E-01  0.30365169678E-01  0.72556390243E-01  0.88753063621E+00  0.88000000000E+00 0.  1.
        -11    1    4    4    0    0 -0.61431665405E-01 -0.39581497182E-01 -0.51649619740E-01  0.89490160207E-01  0.51100000000E-03 0.  1.
         11    1    4    4    0    0 -0.23333444035E-01 -0.10640844300E-01 -0.34391452634E-01  0.42903500011E-01  0.51100000000E-03 0. -1.
</event>
<event>
 8    1  0.1204770E+005  0.1043930E+01  0.7957747E-01            NaN
         13   -1    0    0    0    0  0.00000000000E+00  0.00000000000E+00  0.74505805969E-08  0.10566000000E+00  0.10566000000E+00 0. -1.
     999900   -1    0    0    0    0 -0.00000000000E+00 -0.00000000000E+00 -0.74505805969E-08  0.93827000000E+00  0.93827000000E+00 0.  1.
     999902    2    1    2    0    0 -0.11307935412E-01  0.12181317039E-01  0.16654193282E-01  0.10204009532E+01  0.10201296434E+01 0.  0.
     999903    2    3    3    0    0  0.25558041321E-01  0.23231752670E-01  0.12664944117E+00  0.13271848358E+00  0.19524014069E-01 0.  0.
         14    1    1    2    0    0  0.11307935412E-01 -0.12181317039E-01 -0.16654193282E-01  0.23529046771E-01  0.00000000000E+00 0.  1.
     999901    1    3    3    0    0 -0.36865976733E-01 -0.11050435631E-01 -0.10999524789E+00  0.88768246965E+00  0.88000000000E+00 0.  1.
        -11    1    4    4    0    0  0.18270610068E-01  0.34797184578E-02  0.60849887477E-01  0.63630916698E-01  0.51100000000E-03 0.  1.
         11    1    4    4    0    0  0.72874312524E-02  0.19752034212E-01  0.65799553696E-01  0.69087566879E-01  0.51100000000E-03 0. -1.
</event>
<event>
 8    1  0.1204770E+005  0.1043930E+01  0.7957747E-01            NaN
         13   -1    0    0    0    0  0.00000000000E+00  0.00000000000E+00  0.74505805969E-08  0.10566000000E+00  0.10566000000E+00 0.  1.
     999900   -1    0    0    0    0 -0.00000000000E+00 -0.00000000000E+00 -0.74505805969E-08  0.93827000000E+00  0.93827000000E+00 0. -1.
     999902    2    1    2    0    0  0.17906789688E-01  0.44456021497E-02 -0.13465486660E-01  0.10210884627E+01  0.10208329505E+01 0.  0.
     999903    2    3    3    0    0 -0.94892090298E-02 -0.10660320522E+00  0.70459513304E-01  0.12972670450E+00  0.20253058850E-01 0.  0.
         14    1    1    2    0    0 -0.17906789688E-01 -0.44456021497E-02  0.13465486660E-01  0.22841537303E-01  0.00000000000E+00 0.  1.
     999901    1    3    3    0    0  0.27395998717E-01  0.11104880737E+00 -0.83924999964E-01  0.89136175820E+00  0.88000000000E+00 0. -1.
        -11    1    4    4    0    0  0.48952437781E-02 -0.40804874592E-01  0.20937775501E-01  0.46126486600E-01  0.51100000000E-03 0.  1.
         11    1    4    4    0    0 -0.14384452808E-01 -0.65798330629E-01  0.49521737803E-01  0.83600217895E-01  0.51100000000E-03 0. -1.
</event>
<event>
 8    1  0.1204770E+005  0.1043930E+01  0.7957747E-01            NaN
         13   -1    0    0    0    0  0.00000000000E+00  0.00000000000E+00  0.74505805969E-08  0.10566000000E+00  0.10566000000E+00 0.  1.
     999900   -1    0    0    0    0 -0.00000000000E+00 -0.00000000000E+00 -0.74505805969E-08  0.93827000000E+00  0.93827000000E+00 0.  1.
     999902    2    1    2    0    0 -0.22691642138E-01  0.76627837050E-02  0.56140359099E-02  0.10193302789E+01  0.10190334005E+01 0.  0.
     999903    2    3    3    0    0 -0.10705276903E+00  0.12728340636E-01  0.74662378107E-01  0.13258897892E+00  0.19571934380E-01 0.  0.
         14    1    1    2    0    0  0.22691642138E-01 -0.76627837050E-02 -0.56140359099E-02  0.24599721060E-01  0.00000000000E+00 0.  1.
     999901    1    3    3    0    0  0.84361126890E-01 -0.50655569310E-02 -0.69048342197E-01  0.88674130002E+00  0.88000000000E+00 0.  1.
        -11    1    4    4    0    0 -0.67610453375E-01  0.15125785174E-01  0.39865842022E-01  0.79934406008E-01  0.51100000000E-03 0. -1.
         11    1    4    4    0    0 -0.39442315653E-01 -0.23974445377E-02  0.34796536085E-01  0.52654572915E-01  0.51100000000E-03 0.  1.
</event>
<event>
 8    1  0.1204770E+005  0.1043930E+01  0.7957747E-01            NaN
         13   -1    0    0    0    0  0.00000000000E+00  0.00000000000E+00  0.74505805969E-08  0.10566000000E+00  0.10566000000E+00 0. -1.
     999900   -1    0    0    0    0 -0.00000000000E+00 -0.00000000000E+00 -0.74505805969E-08  0.93827000000E+00  0.93827000000E+00 0.  1.
     999902    2    1    2    0    0 -0.53854414015E-02 -0.20828447555E-01 -0.99241429935E-02  0.10202378954E+01  0.10199627676E+01 0.  0.
     999903    2    3    3    0    0  0.12804444769E+00  0.63405066185E-02 -0.32057321306E-02  0.12973981880E+00  0.19661161046E-01 0.  0.
         14    1    1    2    0    0  0.53854414015E-02  0.20828447555E-01  0.99241429935E-02  0.23692104609E-01  0.00000000000E+00 0. -1.
     999901    1    3    3    0    0 -0.13342988909E+00 -0.27168954173E-01 -0.67184108630E-02  0.89049807659E+00  0.88000000000E+00 0. -1.
        -11    1    4    4    0    0  0.39019885030E-01  0.11009205062E-01 -0.45405343952E-03  0.40548998870E-01  0.51100000000E-03 0. -1.
         11    1    4    4    0    0  0.89024562663E-01 -0.46686984435E-02 -0.27516786910E-02  0.89190819926E-01  0.51100000000E-03 0.  1.
</event>
<event>
 8    1  0.1204770E+005  0.1043930E+01  0.7957747E-01            NaN
         13   -1    0    0    0    0  0.00000000000E+00  0.00000000000E+00  0.74505805969E-08  0.10566000000E+00  0.10566000000E+00 0.  1.
     999900   -1    0    0    0    0 -0.00000000000E+00 -0.00000000000E+00 -0.74505805969E-08  0.93827000000E+00  0.93827000000E+00 0. -1.
     999902    2    1    2    0    0 -0.54701267225E-03  0.79211168851E-02 -0.22172288851E-01  0.10203789128E+01  0.10201070885E+01 0.  0.
     999903    2    3    3    0    0 -0.64885364134E-01  0.35813818078E-02  0.10891920280E+00  0.12833449913E+00  0.19580964090E-01 0.  0.
         14    1    1    2    0    0  0.54701267225E-03 -0.79211168851E-02  0.22172288851E-01  0.23551087203E-01  0.00000000000E+00 0.  1.
     999901    1    3    3    0    0  0.64338351461E-01  0.43397350773E-02 -0.13109149165E+00  0.89204441367E+00  0.88000000000E+00 0. -1.
        -11    1    4    4    0    0 -0.20364861674E-01 -0.79588621695E-02  0.34406535193E-01  0.40769374082E-01  0.51100000000E-03 0.  1.
         11    1    4    4    0    0 -0.44520502460E-01  0.11540243977E-01  0.74512667605E-01  0.87565125049E-01  0.51100000000E-03 0. -1.
</event>
<event>
 8    1  0.1204770E+005  0.1043930E+01  0.7957747E-01            NaN
         13   -1    0    0    0    0  0.00000000000E+00  0.00000000000E+00  0.74505805969E-08  0.10566000000E+00  0.10566000000E+00 0.  1.
     999900   -1    0    0    0    0 -0.00000000000E+00 -0.00000000000E+00 -0.74505805969E-08  0.93827000000E+00  0.93827000000E+00 0. -1.
     999902    2    1    2    0    0 -0.63367137383E-02  0.70946181619E-02  0.21496675916E-01  0.10204226687E+01  0.10201518653E+01 0.  0.
     999903    2    3    3    0    0 -0.10109683236E+00  0.51343770360E-01 -0.62018764268E-01  0.13030340914E+00  0.16610209043E-01 0.  0.
         14    1    1    2    0    0  0.63367137383E-02 -0.70946181619E-02 -0.21496675916E-01  0.23507331267E-01  0.00000000000E+00 0. -1.
     999901    1    3    3    0    0  0.94760118619E-01 -0.44249152199E-01  0.83515440184E-01  0.89011925959E+00  0.88000000000E+00 0.  1.
        -11    1    4    4    0    0 -0.30176791240E-01  0.16023369075E-01 -0.27578047221E-01  0.43911238830E-01  0.51100000000E-03 0. -1.
         11    1    4    4    0    0 -0.70920041117E-01  0.35320401286E-01 -0.34440717047E-01  0.86392170309E-01  0.51100000000E-03 0.  1.
</event>
<event>
 8    1  0.1225226E+005  0.1043930E+01  0.7957747E-01            NaN
         13   -1    0    0    0    0  0.00000000000E+00  0.00000000000E+00  0.74505805969E-08  0.10566000000E+00  0.10566000000E+00 0. -1.
     999900   -1    0    0    0    0 -0.00000000000E+00 -0.00000000000E+00 -0.74505805969E-08  0.93827000000E+00  0.93827000000E+00 0.  1.
     999902    2    1    2    0    0  0.21988849006E-03  0.16651161372E-01  0.16751380861E-01  0.10203097060E+01  0.10200362631E+01 0.  0.
     999903    2    3    3    0    0 -0.11247027547E+00  0.44500845722E-01 -0.44820875282E-01  0.13055366043E+00  0.20136018886E-01 0.  0.
         14    1    1    2    0    0 -0.21988849006E-03 -0.16651161372E-01 -0.16751380861E-01  0.23620293960E-01  0.00000000000E+00 0.  1.
     999901    1    3    3    0    0  0.11269016396E+00 -0.27849684349E-01  0.61572256143E-01  0.88975604561E+00  0.88000000000E+00 0. -1.
        -11    1    4    4    0    0 -0.62818896775E-01  0.28285216067E-01 -0.15370772774E-01  0.70588873179E-01  0.51100000000E-03 0. -1.
         11    1    4    4    0    0 -0.49651378695E-01  0.16215629654E-01 -0.29450102508E-01  0.59964787252E-01  0.51100000000E-03 0.  1.
</event>
<event>
 8    1  0.1204770E+005  0.1043930E+01  0.7957747E-01            NaN
         13   -1    0    0    0    0  0.00000000000E+00  0.00000000000E+00  0.74505805969E-08  0.10566000000E+00  0.10566000000E+00 0. -1.
     999900   -1    0    0    0    0 -0.00000000000E+00 -0.00000000000E+00 -0.74505805969E-08  0.93827000000E+00  0.93827000000E+00 0. -1.
     999902    2    1    2    0    0  0.81464296118E-02  0.21624818238E-01  0.64078753987E-02  0.10199496341E+01  0.10196676901E+01 0.  0.
     999903    2    3    3    0    0  0.92663184538E-01  0.25687137235E-01 -0.86865835901E-01  0.13098418515E+00  0.19102055483E-01 0.  0.
         14    1    1    2    0    0 -0.81464296118E-02 -0.21624818238E-01 -0.64078753987E-02  0.23980365852E-01  0.00000000000E+00 0.  1.
     999901    1    3    3    0    0 -0.84516754926E-01 -0.40623189970E-02  0.93273711300E-01  0.88896544900E+00  0.88000000000E+00 0.  1.
        -11    1    4    4    0    0  0.28141574558E-01  0.17095057077E-01 -0.30172399870E-01  0.44663452956E-01  0.51100000000E-03 0.  1.
         11    1    4    4    0    0  0.64521609981E-01  0.85920801583E-02 -0.56693436032E-01  0.86320732191E-01  0.51100000000E-03 0. -1.
</event>
<event>
 8    1  0.1204770E+005  0.1043930E+01  0.7957747E-01            NaN
         13   -1    0    0    0    0  0.00000000000E+00  0.00000000000E+00  0.74505805969E-08  0.10566000000E+00  0.10566000000E+00 0.  1.
     999900   -1    0    0    0    0 -0.00000000000E+00 -0.00000000000E+00 -0.74505805969E-08  0.93827000000E+00  0.93827000000E+00 0. -1.
     999902    2    1    2    0    0  0.18139439168E-01 -0.24848839928E-02  0.15257970266E-01  0.10200968391E+01  0.10198183866E+01 0.  0.
     999903    2    3    3    0    0 -0.48178303104E-01 -0.11653396896E+00 -0.21578578581E-01  0.12950031539E+00  0.20084367541E-01 0.  0.
         14    1    1    2    0    0 -0.18139439168E-01  0.24848839928E-02 -0.15257970266E-01  0.23833160898E-01  0.00000000000E+00 0.  1.
     999901    1    3    3    0    0  0.66317742271E-01  0.11404908497E+00  0.36836548847E-01  0.89059652372E+00  0.88000000000E+00 0. -1.
        -11    1    4    4    0    0 -0.13890657131E-01 -0.58462458128E-01 -0.69616326518E-02  0.60494089100E-01  0.51100000000E-03 0. -1.
         11    1    4    4    0    0 -0.34287645973E-01 -0.58071510835E-01 -0.14616945929E-01  0.69006226286E-01  0.51100000000E-03 0.  1.
</event>
<event>
 8    1  0.1204770E+005  0.1043930E+01  0.7957747E-01            NaN
         13   -1    0    0    0    0  0.00000000000E+00  0.00000000000E+00  0.74505805969E-08  0.10566000000E+00  0.10566000000E+00 0.  1.
     999900   -1    0    0    0    0 -0.00000000000E+00 -0.00000000000E+00 -0.74505805969E-08  0.93827000000E+00  0.93827000000E+00 0. -1.
     999902    2    1    2    0    0  0.18412468333E-01 -0.21800157476E-01 -0.21404192423E-02  0.10153144928E+01  0.10149111646E+01 0.  0.
     999903    2    3    3    0    0  0.70715485790E-01  0.85566251398E-01  0.54711532783E-01  0.12542950260E+00  0.20419230981E-01 0.  0.
         14    1    1    2    0    0 -0.18412468333E-01  0.21800157476E-01  0.21404192423E-02  0.28615507170E-01  0.00000000000E+00 0.  1.
     999901    1    3    3    0    0 -0.52303017457E-01 -0.10736640887E+00 -0.56851952026E-01  0.88988499023E+00  0.88000000000E+00 0. -1.
        -11    1    4    4    0    0  0.72720622473E-02  0.24448593737E-02  0.65890850756E-03  0.77172215276E-02  0.51100000000E-03 0. -1.
         11    1    4    4    0    0  0.63443423543E-01  0.83121392024E-01  0.54052624276E-01  0.11771228107E+00  0.51100000000E-03 0.  1.
</event>
<event>
 7    1  0.1204770E+005  0.1043930E+01  0.7957747E-01            NaN
         13   -1    0    0    0    0  0.00000000000E+00  0.00000000000E+00  0.74505805969E-08  0.10566000000E+00  0.10566000000E+00 0. -1.
     999900   -1    0    0    0    0 -0.00000000000E+00 -0.00000000000E+00 -0.74505805969E-08  0.93827000000E+00  0.93827000000E+00 0. -1.
     999903    2    1    2    0    0  0.19557780668E-01 -0.82390753065E-01  0.50663134660E-01  0.10074382312E+00  0.20293390747E-01 0.  0.
         14    1    1    2    0    0  0.44652233116E-02 -0.40610225502E-01  0.29952891329E-01  0.50658704420E-01  0.00000000000E+00 0.  1.
     999901    1    1    2    0    0 -0.24023003979E-01  0.12300097857E+00 -0.80616025989E-01  0.89252747246E+00  0.88000000000E+00 0. -1.
        -11    1    3    3    0    0  0.16268185849E-01 -0.71085696126E-01  0.34327069347E-01  0.80600489300E-01  0.51100000000E-03 0.  1.
         11    1    3    3    0    0  0.32895948182E-02 -0.11305056939E-01  0.16336065313E-01  0.20143333820E-01  0.51100000000E-03 0. -1.
</event>
<event>
 8    1  0.1204770E+005  0.1043930E+01  0.7957747E-01            NaN
         13   -1    0    0    0    0  0.00000000000E+00  0.00000000000E+00  0.74505805969E-08  0.10566000000E+00  0.10566000000E+00 0. -1.
     999900   -1    0    0    0    0 -0.00000000000E+00 -0.00000000000E+00 -0.74505805969E-08  0.93827000000E+00  0.93827000000E+00 0.  1.
     999902    2    1    2    0    0  0.11096311936E-01  0.83477511434E-02 -0.19296413953E-01  0.10201568076E+01  0.10198797710E+01 0.  0.
     999903    2    3    3    0    0  0.14901129013E-02 -0.18279928729E-01 -0.12995661127E+00  0.13277470740E+00  0.20100395043E-01 0.  0.
         14    1    1    2    0    0 -0.11096311936E-01 -0.83477511434E-02  0.19296413953E-01  0.23773192449E-01  0.00000000000E+00 0. -1.
     999901    1    3    3    0    0  0.96061990351E-02  0.26627679872E-01  0.11066019732E+00  0.88738210015E+00  0.88000000000E+00 0. -1.
        -11    1    4    4    0    0 -0.60497725846E-02 -0.17488132463E-01 -0.10710083897E+00  0.10868893851E+00  0.51100000000E-03 0. -1.
         11    1    4    4    0    0  0.75398854859E-02 -0.79179626568E-03 -0.22855772304E-01  0.24085768891E-01  0.51100000000E-03 0.  1.
</event>
<event>
 8    1  0.1204770E+005  0.1043930E+01  0.7957747E-01            NaN
         13   -1    0    0    0    0  0.00000000000E+00  0.00000000000E+00  0.74505805969E-08  0.10566000000E+00  0.10566000000E+00 0. -1.
     999900   -1    0    0    0    0 -0.00000000000E+00 -0.00000000000E+00 -0.74505805969E-08  0.93827000000E+00  0.93827000000E+00 0.  1.
     999902    2    1    2    0    0  0.10826780091E-01 -0.13203308630E-02  0.20860515140E-01  0.10203901714E+01  0.10201186099E+01 0.  0.
     999903    2    3    3    0    0 -0.36883824682E-01 -0.80048379685E-01 -0.91315457006E-01  0.12850573029E+00  0.20175490503E-01 0.  0.
         14    1    1    2    0    0 -0.10826780091E-01  0.13203308630E-02 -0.20860515140E-01  0.23539828645E-01  0.00000000000E+00 0.  1.
     999901    1    3    3    0    0  0.47710604773E-01  0.78728048822E-01  0.11217597215E+00  0.89188444106E+00  0.88000000000E+00 0. -1.
        -11    1    4    4    0    0 -0.28896280985E-01 -0.45559575849E-01 -0.64508324299E-01  0.84096700478E-01  0.51100000000E-03 0.  1.
         11    1    4    4    0    0 -0.79875436968E-02 -0.34488803836E-01 -0.26807132707E-01  0.44409029817E-01  0.51100000000E-03 0. -1.
</event>
<event>
 8    1  0.1204770E+005  0.1043930E+01  0.7957747E-01            NaN
         13   -1    0    0    0    0  0.00000000000E+00  0.00000000000E+00  0.74505805969E-08  0.10566000000E+00  0.10566000000E+00 0. -1.
     999900   -1    0    0    0    0 -0.00000000000E+00 -0.00000000000E+00 -0.74505805969E-08  0.93827000000E+00  0.93827000000E+00 0. -1.
     999902    2    1    2    0    0 -0.18566699147E-01 -0.89207082312E-02 -0.11413241783E-01  0.10203808293E+01  0.10201090497E+01 0.  0.
     999903    2    3    3    0    0  0.10839463986E+00  0.13452849150E-01 -0.65777502591E-01  0.12932795179E+00  0.21648606542E-01 0.  0.
         14    1    1    2    0    0  0.18566699147E-01  0.89207082312E-02  0.11413241783E-01  0.23549170697E-01  0.00000000000E+00 0. -1.
     999901    1    3    3    0    0 -0.12696133901E+00 -0.22373557381E-01  0.54364260808E-01  0.89105287751E+00  0.88000000000E+00 0. -1.
        -11    1    4    4    0    0  0.27649966246E-01 -0.44814352990E-02 -0.10880230128E-01  0.30054025094E-01  0.51100000000E-03 0.  1.
         11    1    4    4    0    0  0.80744673618E-01  0.17934284449E-01 -0.54897272463E-01  0.99273926694E-01  0.51100000000E-03 0. -1.
</event>
<event>
 8    1  0.1204770E+005  0.1043930E+01  0.7957747E-01            NaN
         13   -1    0    0    0    0  0.00000000000E+00  0.00000000000E+00  0.74505805969E-08  0.10566000000E+00  0.10566000000E+00 0.  1.
     999900   -1    0    0    0    0 -0.00000000000E+00 -0.00000000000E+00 -0.74505805969E-08  0.93827000000E+00  0.93827000000E+00 0.  1.
     999902    2    1    2    0    0 -0.99677346480E-02 -0.13489304337E-01  0.18075293354E-01  0.10192716688E+01  0.10189733567E+01 0.  0.
     999903    2    3    3    0    0 -0.12930694875E+00 -0.41808741391E-02  0.67542884863E-02  0.13109563897E+00  0.20066874206E-01 0.  0.
         14    1    1    2    0    0  0.99677346480E-02  0.13489304337E-01 -0.18075293354E-01  0.24658331155E-01  0.00000000000E+00 0. -1.
     999901    1    3    3    0    0  0.11933921410E+00 -0.93084301976E-02  0.11321004868E-01  0.88817602988E+00  0.88000000000E+00 0.  1.
        -11    1    4    4    0    0 -0.80941947278E-01 -0.11741157473E-01  0.93539009344E-03  0.81796024865E-01  0.51100000000E-03 0. -1.
         11    1    4    4    0    0 -0.48365001471E-01  0.75602833339E-02  0.58188983928E-02  0.49299614105E-01  0.51100000000E-03 0.  1.
</event>
<event>
 8    1  0.1204770E+005  0.1043930E+01  0.7957747E-01            NaN
         13   -1    0    0    0    0  0.00000000000E+00  0.00000000000E+00  0.74505805969E-08  0.10566000000E+00  0.10566000000E+00 0. -1.
     999900   -1    0    0    0    0 -0.00000000000E+00 -0.00000000000E+00 -0.74505805969E-08  0.93827000000E+00  0.93827000000E+00 0. -1.
     999902    2    1    2    0    0  0.97733765613E-02  0.89538385602E-02 -0.37471114536E-02  0.10301557139E+01  0.10300636213E+01 0.  0.
     999903    2    3    3    0    0  0.67445441859E-01 -0.31005499635E-01  0.11627865127E+00  0.13924101562E+00  0.18897276391E-01 0.  0.
         14    1    1    2    0    0 -0.97733765613E-02 -0.89538385602E-02  0.37471114536E-02  0.13774286138E-01  0.00000000000E+00 0.  1.
     999901    1    3    3    0    0 -0.57672065298E-01  0.39959338195E-01 -0.12002576272E+00  0.89091469824E+00  0.88000000000E+00 0. -1.
        -11    1    4    4    0    0  0.35859890086E-01 -0.26692897432E-01  0.66821511811E-01  0.80397873429E-01  0.51100000000E-03 0.  1.
         11    1    4    4    0    0  0.31585551772E-01 -0.43126022026E-02  0.49457139459E-01  0.58843142191E-01  0.51100000000E-03 0. -1.
</event>
<event>
 8    1  0.1204770E+005  0.1043930E+01  0.7957747E-01            NaN
         13   -1    0    0    0    0  0.00000000000E+00  0.00000000000E+00  0.74505805969E-08  0.10566000000E+00  0.10566000000E+00 0.  1.
     999900   -1    0    0    0    0 -0.00000000000E+00 -0.00000000000E+00 -0.74505805969E-08  0.93827000000E+00  0.93827000000E+00 0.  1.
     999902    2    1    2    0    0  0.15401667390E-01 -0.21664852035E-01  0.39719740100E-02  0.10170533605E+01  0.10166981776E+01 0.  0.
     999903    2    3    3    0    0  0.84593434066E-01  0.72619134156E-01  0.59502547265E-01  0.12758126136E+00  0.17516774408E-01 0.  0.
         14    1    1    2    0    0 -0.15401667390E-01  0.21664852035E-01 -0.39719740100E-02  0.26876639478E-01  0.00000000000E+00 0.  1.
     999901    1    3    3    0    0 -0.69191766676E-01 -0.94283986191E-01 -0.55530573255E-01  0.88947209917E+00  0.88000000000E+00 0.  1.
        -11    1    4    4    0    0  0.55535905454E-01  0.47472173955E-01  0.29366453910E-01  0.78743214507E-01  0.51100000000E-03 0. -1.
         11    1    4    4    0    0  0.29057528612E-01  0.25146960201E-01  0.30136093355E-01  0.48838046850E-01  0.51100000000E-03 0.  1.
</event>
<event>
 8    1  0.1204770E+005  0.1043930E+01  0.7957747E-01            NaN
         13   -1    0    0    0    0  0.00000000000E+00  0.00000000000E+00  0.74505805969E-08  0.10566000000E+00  0.10566000000E+00 0. -1.
     999900   -1    0    0    0    0 -0.00000000000E+00 -0.00000000000E+00 -0.74505805969E-08  0.93827000000E+00  0.93827000000E+00 0.  1.
     999902    2    1    2    0    0 -0.16203011081E-01  0.17939038504E-01 -0.18519421999E-03  0.10197560271E+01  0.10194694570E+01 0.  0.
     999903    2    3    3    0    0  0.13701240771E-01  0.12611417317E+00 -0.32287951076E-01  0.13204734116E+00  0.17363175101E-01 0.  0.
         14    1    1    2    0    0  0.16203011081E-01 -0.17939038504E-01  0.18519421999E-03  0.24173972935E-01  0.00000000000E+00 0. -1.
     999901    1    3    3    0    0 -0.29904251852E-01 -0.10817513466E+00  0.32102756856E-01  0.88770868591E+00  0.88000000000E+00 0. -1.
        -11    1    4    4    0    0  0.86186104785E-02  0.34951749056E-01 -0.15565963050E-01  0.39223277978E-01  0.51100000000E-03 0.  1.
         11    1    4    4    0    0  0.50826302924E-02  0.91162424112E-01 -0.16721988026E-01  0.92824063180E-01  0.51100000000E-03 0. -1.
</event>
<event>
 8    1  0.1204770E+005  0.1043930E+01  0.7957747E-01            NaN
         13   -1    0    0    0    0  0.00000000000E+00  0.00000000000E+00  0.74505805969E-08  0.10566000000E+00  0.10566000000E+00 0. -1.
     999900   -1    0    0    0    0 -0.00000000000E+00 -0.00000000000E+00 -0.74505805969E-08  0.93827000000E+00  0.93827000000E+00 0. -1.
     999902    2    1    2    0    0 -0.11174622717E-01 -0.30557421827E-01 -0.10818707850E-01  0.10096419166E+01  0.10090595261E+01 0.  0.
     999903    2    3    3    0    0 -0.77464403900E-01 -0.30648974792E-01  0.87157172161E-01  0.12172659604E+00  0.16760011862E-01 0.  0.
         14    1    1    2    0    0  0.11174622717E-01  0.30557421827E-01  0.10818707850E-01  0.34288083369E-01  0.00000000000E+00 0. -1.
     999901    1    3    3    0    0  0.66289781183E-01  0.91552965137E-04 -0.97975880011E-01  0.88791532059E+00  0.88000000000E+00 0. -1.
        -11    1    4    4    0    0 -0.24661665919E-01 -0.18277513700E-01  0.33326092740E-01  0.45311751801E-01  0.51100000000E-03 0.  1.
         11    1    4    4    0    0 -0.52802737981E-01 -0.12371461092E-01  0.53831079421E-01  0.76414844242E-01  0.51100000000E-03 0. -1.
</event>
<event>
 7    1  0.1204770E+005  0.1043930E+01  0.7957747E-01            NaN
         13   -1    0    0    0    0  0.00000000000E+00  0.00000000000E+00  0.74505805969E-08  0.10566000000E+00  0.10566000000E+00 0.  1.
     999900   -1    0    0    0    0 -0.00000000000E+00 -0.00000000000E+00 -0.74505805969E-08  0.93827000000E+00  0.93827000000E+00 0.  1.
     999903    2    1    2    0    0 -0.67453769357E-02 -0.51290307578E-01 -0.91528836778E-01  0.10682434045E+00  0.18913381199E-01 0.  0.
         14    1    1    2    0    0 -0.38622826890E-01 -0.28264418475E-01  0.57559333092E-02  0.48205091816E-01  0.00000000000E+00 0. -1.
     999901    1    1    2    0    0  0.45368203826E-01  0.79554726053E-01  0.85772903469E-01  0.88890056774E+00  0.88000000000E+00 0. -1.
        -11    1    3    3    0    0 -0.11080610417E-02 -0.23402470733E-01 -0.59672306157E-01  0.64108881434E-01  0.51100000000E-03 0. -1.
         11    1    3    3    0    0 -0.56373158940E-02 -0.27887836845E-01 -0.31856530621E-01  0.42715459012E-01  0.51100000000E-03 0.  1.
</event>
<event>
 8    1  0.1204770E+005  0.1043930E+01  0.7957747E-01            NaN
         13   -1    0    0    0    0  0.00000000000E+00  0.00000000000E+00  0.74505805969E-08  0.10566000000E+00  0.10566000000E+00 0.  1.
     999900   -1    0    0    0    0 -0.00000000000E+00 -0.00000000000E+00 -0.74505805969E-08  0.93827000000E+00  0.93827000000E+00 0. -1.
     999902    2    1    2    0    0  0.12613532431E-01  0.17709179081E-01 -0.13817465474E-01  0.10181688165E+01  0.10178428662E+01 0.  0.
     999903    2    3    3    0    0  0.57471586121E-01 -0.98913714774E-02 -0.11542032373E+00  0.13075844006E+00  0.19367397260E-01 0.  0.
         14    1    1    2    0    0 -0.12613532431E-01 -0.17709179081E-01  0.13817465474E-01  0.25761183518E-01  0.00000000000E+00 0. -1.
     999901    1    3    3    0    0 -0.44858053690E-01  0.27600550558E-01  0.10160285826E+00  0.88741037642E+00  0.88000000000E+00 0.  1.
        -11    1    4    4    0    0  0.14152027947E-01 -0.10696296528E-01 -0.27301458910E-01  0.32562577202E-01  0.51100000000E-03 0. -1.
         11    1    4    4    0    0  0.43319558174E-01  0.80492505018E-03 -0.88118864819E-01  0.98195862860E-01  0.51100000000E-03 0.  1.
</event>
<event>
 8    1  0.1204770E+005  0.1043930E+01  0.7957747E-01            NaN
         13   -1    0    0    0    0  0.00000000000E+00  0.00000000000E+00  0.74505805969E-08  0.10566000000E+00  0.10566000000E+00 0.  1.
     999900   -1    0    0    0    0 -0.00000000000E+00 -0.00000000000E+00 -0.74505805969E-08  0.93827000000E+00  0.93827000000E+00 0. -1.
     999902    2    1    2    0    0 -0.11454247217E-01  0.20039972118E-01  0.51763745165E-02  0.10202742372E+01  0.10199999627E+01 0.  0.
     999903    2    3    3    0    0 -0.27613050420E-01  0.11238853498E+00  0.63262508200E-01  0.13339016193E+00  0.19928045791E-01 0.  0.
         14    1    1    2    0    0  0.11454247217E-01 -0.20039972118E-01 -0.51763745165E-02  0.23655762828E-01  0.00000000000E+00 0. -1.
     999901    1    3    3    0    0  0.16158803203E-01 -0.92348562860E-01 -0.58086133684E-01  0.88688407524E+00  0.88000000000E+00 0. -1.
        -11    1    4    4    0    0 -0.87168850135E-02  0.11446950315E-01  0.11263805241E-01  0.18279802662E-01  0.51100000000E-03 0. -1.
         11    1    4    4    0    0 -0.18896165407E-01  0.10094158466E+00  0.51998702959E-01  0.11511035927E+00  0.51100000000E-03 0.  1.
</event>
<event>
 8    1  0.1204770E+005  0.1043930E+01  0.7957747E-01            NaN
         13   -1    0    0    0    0  0.00000000000E+00  0.00000000000E+00  0.74505805969E-08  0.10566000000E+00  0.10566000000E+00 0. -1.
     999900   -1    0    0    0    0 -0.00000000000E+00 -0.00000000000E+00 -0.74505805969E-08  0.93827000000E+00  0.93827000000E+00 0.  1.
     999902    2    1    2    0    0 -0.33952397601E-02 -0.16825510204E-01 -0.15349878566E-01  0.10209029677E+01  0.10206432409E+01 0.  0.
     999903    2    3    3    0    0 -0.30932089715E-01  0.85980139875E-01 -0.92020814933E-01  0.13118070072E+00  0.19777948164E-01 0.  0.
         14    1    1    2    0    0  0.33952397601E-02  0.16825510204E-01  0.15349878566E-01  0.23027032346E-01  0.00000000000E+00 0.  1.
     999901    1    3    3    0    0  0.27536849955E-01 -0.10280565008E+00  0.76670936367E-01  0.88972226693E+00  0.88000000000E+00 0. -1.
        -11    1    4    4    0    0 -0.32874369636E-01  0.70827132211E-01 -0.74426097097E-01  0.10787359216E+00  0.51100000000E-03 0. -1.
         11    1    4    4    0    0  0.19422799212E-02  0.15153007663E-01 -0.17594717836E-01  0.23307108557E-01  0.51100000000E-03 0.  1.
</event>
<event>
 8    1  0.1204770E+005  0.1043930E+01  0.7957747E-01            NaN
         13   -1    0    0    0    0  0.00000000000E+00  0.00000000000E+00  0.74505805969E-08  0.10566000000E+00  0.10566000000E+00 0. -1.
     999900   -1    0    0    0    0 -0.00000000000E+00 -0.00000000000E+00 -0.74505805969E-08  0.93827000000E+00  0.93827000000E+00 0.  1.
     999902    2    1    2    0    0 -0.10172807240E-01  0.15778254609E-01  0.12449698284E-01  0.10214036973E+01  0.10211552666E+01 0.  0.
     999903    2    3    3    0    0  0.14684807335E-01  0.94186512372E-01  0.92240825588E-01  0.13397348603E+00  0.18809103516E-01 0.  0.
         14    1    1    2    0    0  0.10172807240E-01 -0.15778254609E-01 -0.12449698284E-01  0.22526302693E-01  0.00000000000E+00 0.  1.
     999901    1    3    3    0    0 -0.24857614575E-01 -0.78408257763E-01 -0.79791127304E-01  0.88743021128E+00  0.88000000000E+00 0.  1.
        -11    1    4    4    0    0  0.79315164876E-02  0.47109041059E-01  0.59143165625E-01  0.76028585837E-01  0.51100000000E-03 0. -1.
         11    1    4    4    0    0  0.67532908471E-02  0.47077471313E-01  0.33097659963E-01  0.57944900195E-01  0.51100000000E-03 0.  1.
</event>
<event>
 8    1  0.1204770E+005  0.1043930E+01  0.7957747E-01            NaN
         13   -1    0    0    0    0  0.00000000000E+00  0.00000000000E+00  0.74505805969E-08  0.10566000000E+00  0.10566000000E+00 0.  1.
     999900   -1    0    0    0    0 -0.00000000000E+00 -0.00000000000E+00 -0.74505805969E-08  0.93827000000E+00  0.93827000000E+00 0. -1.
     999902    2    1    2    0    0 -0.27180752995E-01 -0.11154636673E-01 -0.43567183432E-02  0.10142281440E+01  0.10137931386E+01 0.  0.
     999903    2    3    3    0    0 -0.72864900174E-01  0.30978379627E-02  0.10166866614E+00  0.12657305534E+00  0.19113617835E-01 0.  0.
         14    1    1    2    0    0  0.27180752995E-01  0.11154636673E-01  0.43567183432E-02  0.29701855959E-01  0.00000000000E+00 0. -1.
     999901    1    3    3    0    0  0.45684147179E-01 -0.14252474636E-01 -0.10602538448E+00  0.88765508870E+00  0.88000000000E+00 0. -1.
        -11    1    4    4    0    0 -0.41466933401E-01  0.91112547274E-02  0.67793576299E-01  0.79992197350E-01  0.51100000000E-03 0. -1.
         11    1    4    4    0    0 -0.31397966773E-01 -0.60134167647E-02  0.33875089840E-01  0.46580857993E-01  0.51100000000E-03 0.  1.
</event>
<event>
 8    1  0.1204770E+005  0.1043930E+01  0.7957747E-01            NaN
         13   -1    0    0    0    0  0.00000000000E+00  0.00000000000E+00  0.74505805969E-08  0.10566000000E+00  0.10566000000E+00 0.  1.
     999900   -1    0    0    0    0 -0.00000000000E+00 -0.00000000000E+00 -0.74505805969E-08  0.93827000000E+00  0.93827000000E+00 0.  1.
     999902    2    1    2    0    0  0.26714318647E-02 -0.19799275738E-01 -0.12732049139E-01  0.10202392224E+01  0.10199641258E+01 0.  0.
     999903    2    3    3    0    0 -0.92005914873E-01 -0.92332361730E-01  0.51182060345E-02  0.13201431836E+00  0.20278827001E-01 0.  0.
         14    1    1    2    0    0 -0.26714318647E-02  0.19799275738E-01  0.12732049139E-01  0.23690777599E-01  0.00000000000E+00 0.  1.
     999901    1    3    3    0    0  0.94677346738E-01  0.72533085992E-01 -0.17850255174E-01  0.88822490404E+00  0.88000000000E+00 0.  1.
        -11    1    4    4    0    0 -0.53941466064E-01 -0.66062222454E-01 -0.14301328073E-02  0.85300676419E-01  0.51100000000E-03 0. -1.
         11    1    4    4    0    0 -0.38064448810E-01 -0.26270139277E-01  0.65483388418E-02  0.46713641941E-01  0.51100000000E-03 0.  1.
</event>
<event>
 8    1  0.1204770E+005  0.1043930E+01  0.7957747E-01            NaN
         13   -1    0    0    0    0  0.00000000000E+00  0.00000000000E+00  0.74505805969E-08  0.10566000000E+00  0.10566000000E+00 0.  1.
     999900   -1    0    0    0    0 -0.00000000000E+00 -0.00000000000E+00 -0.74505805969E-08  0.93827000000E+00  0.93827000000E+00 0.  1.
     999902    2    1    2    0    0  0.56669920361E-02 -0.94580193655E-02 -0.21778349621E-01  0.10195196448E+01  0.10192273744E+01 0.  0.
     999903    2    3    3    0    0 -0.37427247532E-01  0.11657621069E+00  0.31123328215E-01  0.12792538273E+00  0.20135298120E-01 0.  0.
         14    1    1    2    0    0 -0.56669920361E-02  0.94580193655E-02  0.21778349621E-01  0.24410355205E-01  0.00000000000E+00 0.  1.
     999901    1    3    3    0    0  0.43094239568E-01 -0.12603423006E+00 -0.52901677836E-01  0.89159426207E+00  0.88000000000E+00 0. -1.
        -11    1    4    4    0    0 -0.24353145576E-01  0.56127808403E-01  0.71843137694E-02  0.61605860605E-01  0.51100000000E-03 0. -1.
         11    1    4    4    0    0 -0.13074101955E-01  0.60448402289E-01  0.23939014446E-01  0.66319522124E-01  0.51100000000E-03 0.  1.
</event>
<event>
 8    1  0.1204770E+005  0.1043930E+01  0.7957747E-01            NaN
         13   -1    0    0    0    0  0.00000000000E+00  0.00000000000E+00  0.74505805969E-08  0.10566000000E+00  0.10566000000E+00 0.  1.
     999900   -1    0    0    0    0 -0.00000000000E+00 -0.00000000000E+00 -0.74505805969E-08  0.93827000000E+00  0.93827000000E+00 0.  1.
     999902    2    1    2    0    0  0.13245954184E-02 -0.23410966782E-01  0.47802034193E-02  0.10199993029E+01  0.10197185394E+01 0.  0.
     999903    2    3    3    0    0  0.12764368227E+00 -0.64989300258E-02  0.21161386550E-01  0.13066760334E+00  0.17060848948E-01 0.  0.
         14    1    1    2    0    0 -0.13245954184E-02  0.23410966782E-01 -0.47802034193E-02  0.23930697094E-01  0.00000000000E+00 0. -1.
     999901    1    3    3    0    0 -0.12631908685E+00 -0.16912036756E-01 -0.16381183130E-01  0.88933169957E+00  0.88000000000E+00 0.  1.
        -11    1    4    4    0    0  0.18081031367E-01  0.45918382659E-02  0.53562954109E-02  0.19415449917E-01  0.51100000000E-03 0. -1.
         11    1    4    4    0    0  0.10956265090E+00 -0.11090768292E-01  0.15805091139E-01  0.11125215342E+00  0.51100000000E-03 0.  1.
</event>
<event>
 7    1  0.1204770E+005  0.1043930E+01  0.7957747E-01            NaN
         13   -1    0    0    0    0  0.00000000000E+00  0.00000000000E+00  0.74505805969E-08  0.10566000000E+00  0.10566000000E+00 0. -1.
     999900   -1    0    0    0    0 -0.00000000000E+00 -0.00000000000E+00 -0.74505805969E-08  0.93827000000E+00  0.93827000000E+00 0. -1.
     999903    2    1    2    0    0  0.56450438443E-01  0.19377858181E-01 -0.41462666957E-01  0.76151016032E-01  0.22752386763E-01 0.  0.
         14    1    1    2    0    0  0.74252326075E-01 -0.13329734423E-01  0.19119660102E-01  0.77824489396E-01  0.00000000000E+00 0.  1.
     999901    1    1    2    0    0 -0.13070276452E+00 -0.60481237578E-02  0.22343006855E-01  0.88995449457E+00  0.88000000000E+00 0.  1.
        -11    1    3    3    0    0  0.46025113090E-01  0.65387342981E-02 -0.35748843173E-01  0.58645605039E-01  0.51100000000E-03 0. -1.
         11    1    3    3    0    0  0.10425325353E-01  0.12839123883E-01 -0.57138237840E-02  0.17505410993E-01  0.51100000000E-03 0.  1.
</event>
<event>
 8    1  0.1204770E+005  0.1043930E+01  0.7957747E-01            NaN
         13   -1    0    0    0    0  0.00000000000E+00  0.00000000000E+00  0.74505805969E-08  0.10566000000E+00  0.10566000000E+00 0. -1.
     999900   -1    0    0    0    0 -0.00000000000E+00 -0.00000000000E+00 -0.74505805969E-08  0.93827000000E+00  0.93827000000E+00 0.  1.
     999902    2    1    2    0    0  0.56023688195E-02  0.19495180435E-01 -0.11977589478E-01  0.10203734458E+01  0.10201014938E+01 0.  0.
     999903    2    3    3    0    0  0.10473358915E+00  0.58964881550E-01 -0.53514430179E-01  0.13295575085E+00  0.19169128689E-01 0.  0.
         14    1    1    2    0    0 -0.56023688195E-02 -0.19495180435E-01  0.11977589478E-01  0.23556554210E-01  0.00000000000E+00 0. -1.
     999901    1    3    3    0    0 -0.99131220332E-01 -0.39469701116E-01  0.41536840702E-01  0.88741769494E+00  0.88000000000E+00 0.  1.
        -11    1    4    4    0    0  0.68740054325E-01  0.48315017428E-01 -0.33931216222E-01  0.90615255520E-01  0.51100000000E-03 0. -1.
         11    1    4    4    0    0  0.35993534827E-01  0.10649864122E-01 -0.19583213958E-01  0.42340495333E-01  0.51100000000E-03 0.  1.
</event>
<event>
 8    1  0.1204770E+005  0.1043930E+01  0.7957747E-01            NaN
         13   -1    0    0    0    0  0.00000000000E+00  0.00000000000E+00  0.74505805969E-08  0.10566000000E+00  0.10566000000E+00 0. -1.
     999900   -1    0    0    0    0 -0.00000000000E+00 -0.00000000000E+00 -0.74505805969E-08  0.93827000000E+00  0.93827000000E+00 0. -1.
     999902    2    1    2    0    0  0.19961452857E-01 -0.36764545868E-02 -0.11744078586E-01  0.10204800682E+01  0.10202106010E+01 0.  0.
     999903    2    3    3    0    0 -0.60833889084E-01 -0.83341459131E-01 -0.77654772296E-01  0.13075054765E+00  0.20466586919E-01 0.  0.
         14    1    1    2    0    0 -0.19961452857E-01  0.36764545868E-02  0.11744078586E-01  0.23449931777E-01  0.00000000000E+00 0. -1.
     999901    1    3    3    0    0  0.80795341942E-01  0.79665004544E-01  0.65910693710E-01  0.88972952057E+00  0.88000000000E+00 0. -1.
        -11    1    4    4    0    0 -0.61965991880E-01 -0.78275490590E-01 -0.75184051830E-01  0.12497895562E+00  0.51100000000E-03 0. -1.
         11    1    4    4    0    0  0.11321027962E-02 -0.50659685409E-02 -0.24707204661E-02  0.57715920351E-02  0.51100000000E-03 0.  1.
</event>
<event>
 8    1  0.1204770E+005  0.1043930E+01  0.7957747E-01            NaN
         13   -1    0    0    0    0  0.00000000000E+00  0.00000000000E+00  0.74505805969E-08  0.10566000000E+00  0.10566000000E+00 0.  1.
     999900   -1    0    0    0    0 -0.00000000000E+00 -0.00000000000E+00 -0.74505805969E-08  0.93827000000E+00  0.93827000000E+00 0.  1.
     999902    2    1    2    0    0  0.21555447585E-01  0.10739532819E-01 -0.96339632355E-02  0.10179918402E+01  0.10176613379E+01 0.  0.
     999903    2    3    3    0    0  0.21817628470E-02 -0.10773133738E+00 -0.66293580305E-01  0.12803622393E+00  0.19688440862E-01 0.  0.
         14    1    1    2    0    0 -0.21555447585E-01 -0.10739532819E-01  0.96339632355E-02  0.25938159791E-01  0.00000000000E+00 0.  1.
     999901    1    3    3    0    0  0.19373684737E-01  0.11847087020E+00  0.56659617070E-01  0.88995561628E+00  0.88000000000E+00 0. -1.
        -11    1    4    4    0    0 -0.59744697222E-02 -0.87030456978E-01 -0.51325506365E-01  0.10121543091E+00  0.51100000000E-03 0. -1.
         11    1    4    4    0    0  0.81562325692E-02 -0.20700880406E-01 -0.14968073940E-01  0.26820793012E-01  0.51100000000E-03 0.  1.
</event>
<event>
 8    1  0.1204770E+005  0.1043930E+01  0.7957747E-01            NaN
         13   -1    0    0    0    0  0.00000000000E+00  0.00000000000E+00  0.74505805969E-08  0.10566000000E+00  0.10566000000E+00 0.  1.
     999900   -1    0    0    0    0 -0.00000000000E+00 -0.00000000000E+00 -0.74505805969E-08  0.93827000000E+00  0.93827000000E+00 0.  1.
     999902    2    1    2    0    0  0.15122271131E-01  0.95895798312E-02 -0.15135955441E-01  0.10204834593E+01  0.10202140708E+01 0.  0.
     999903    2    3    3    0    0 -0.12672407774E-03  0.12428637518E+00  0.37382022154E-01  0.13135690770E+00  0.20250987802E-01 0.  0.
         14    1    1    2    0    0 -0.15122271131E-01 -0.95895798312E-02  0.15135955441E-01  0.23446540738E-01  0.00000000000E+00 0.  1.
     999901    1    3    3    0    0  0.15248995208E-01 -0.11469679535E+00 -0.52517977595E-01  0.88912655156E+00  0.88000000000E+00 0.  1.
        -11    1    4    4    0    0  0.11957550912E-02  0.15074021489E-01 -0.19800378118E-02  0.15259017820E-01  0.51100000000E-03 0.  1.
         11    1    4    4    0    0 -0.13224791690E-02  0.10921235369E+00  0.39362059966E-01  0.11609788988E+00  0.51100000000E-03 0. -1.
</event>
<event>
 8    1  0.1204770E+005  0.1043930E+01  0.7957747E-01            NaN
         13   -1    0    0    0    0  0.00000000000E+00  0.00000000000E+00  0.74505805969E-08  0.10566000000E+00  0.10566000000E+00 0. -1.
     999900   -1    0    0    0    0 -0.00000000000E+00 -0.00000000000E+00 -0.74505805969E-08  0.93827000000E+00  0.93827000000E+00 0. -1.
     999902    2    1    2    0    0 -0.59265560069E-02 -0.58126096825E-02  0.22112303234E-01  0.10203108457E+01  0.10200374294E+01 0.  0.
     999903    2    3    3    0    0 -0.46952342418E-01 -0.28691563204E-01  0.12008184573E+00  0.13362905780E+00  0.20232329533E-01 0.  0.
         14    1    1    2    0    0  0.59265560069E-02  0.58126096825E-02 -0.22112303234E-01  0.23619154340E-01  0.00000000000E+00 0.  1.
     999901    1    3    3    0    0  0.41025786411E-01  0.22878953521E-01 -0.97969542491E-01  0.88668178786E+00  0.88000000000E+00 0. -1.
        -11    1    4    4    0    0 -0.28323543647E-01 -0.10664076037E-01  0.83283572150E-01  0.88613543849E-01  0.51100000000E-03 0. -1.
         11    1    4    4    0    0 -0.18628798771E-01 -0.18027487167E-01  0.36798273575E-01  0.45015513952E-01  0.51100000000E-03 0.  1.
</event>
<event>
 8    1  0.1204770E+005  0.1043930E+01  0.7957747E-01            NaN
         13   -1    0    0    0    0  0.00000000000E+00  0.00000000000E+00  0.74505805969E-08  0.10566000000E+00  0.10566000000E+00 0.  1.
     999900   -1    0    0    0    0 -0.00000000000E+00 -0.00000000000E+00 -0.74505805969E-08  0.93827000000E+00  0.93827000000E+00 0.  1.
     999902    2    1    2    0    0 -0.22658774248E-01 -0.36458147033E-02  0.24557170113E-02  0.10208487834E+01  0.10205878188E+01 0.  0.
     999903    2    3    3    0    0  0.23737390350E-01 -0.60558696973E-01 -0.11139499306E+00  0.13048163188E+00  0.19641596200E-01 0.  0.
         14    1    1    2    0    0  0.22658774248E-01  0.36458147033E-02 -0.24557170113E-02  0.23081216634E-01  0.00000000000E+00 0. -1.
     999901    1    3    3    0    0 -0.46396164598E-01  0.56912882270E-01  0.11385071007E+00  0.89036715148E+00  0.88000000000E+00 0. -1.
        -11    1    4    4    0    0  0.26370779606E-02 -0.25850489609E-01 -0.56500998170E-01  0.62191847604E-01  0.51100000000E-03 0.  1.
         11    1    4    4    0    0  0.21100312389E-01 -0.34708207364E-01 -0.54893994885E-01  0.68289784279E-01  0.51100000000E-03 0. -1.
</event>
<event>
 8    1  0.1204770E+005  0.1043930E+01  0.7957747E-01            NaN
         13   -1    0    0    0    0  0.00000000000E+00  0.00000000000E+00  0.74505805969E-08  0.10566000000E+00  0.10566000000E+00 0.  1.
     999900   -1    0    0    0    0 -0.00000000000E+00 -0.00000000000E+00 -0.74505805969E-08  0.93827000000E+00  0.93827000000E+00 0. -1.
     999902    2    1    2    0    0 -0.51221177769E-02 -0.14630750088E-01  0.17267095258E-01  0.10207255281E+01  0.10204617367E+01 0.  0.
     999903    2    3    3    0    0 -0.82617269649E-01 -0.20504061823E-02 -0.97971281532E-01  0.12974648954E+00  0.20148502034E-01 0.  0.
         14    1    1    2    0    0  0.51221177769E-02  0.14630750088E-01 -0.17267095258E-01  0.23204471925E-01  0.00000000000E+00 0. -1.
     999901    1    3    3    0    0  0.77495151872E-01 -0.12580343905E-01  0.11523837679E+00  0.89097903853E+00  0.88000000000E+00 0.  1.
        -11    1    4    4    0    0 -0.52220841561E-01  0.31771529901E-03 -0.46525653968E-01  0.69942939848E-01  0.51100000000E-03 0. -1.
         11    1    4    4    0    0 -0.30396428088E-01 -0.23681214813E-02 -0.51445627564E-01  0.59803549697E-01  0.51100000000E-03 0.  1.
</event>
<event>
 8    1  0.1204770E+005  0.1043930E+01  0.7957747E-01            NaN
         13   -1    0    0    0    0  0.00000000000E+00  0.00000000000E+00  0.74505805969E-08  0.10566000000E+00  0.10566000000E+00 0.  1.
     999900   -1    0    0    0    0 -0.00000000000E+00 -0.00000000000E+00 -0.74505805969E-08  0.93827000000E+00  0.93827000000E+00 0.  1.
     999902    2    1    2    0    0 -0.49774431044E-02 -0.98856978540E-02 -0.14647773859E-01  0.10255708268E+01  0.10254064860E+01 0.  0.
     999903    2    3    3    0    0  0.25321256435E-01 -0.11665145664E+00  0.60206679041E-01  0.13544716821E+00  0.21733909240E-01 0.  0.
         14    1    1    2    0    0  0.49774431044E-02  0.98856978540E-02  0.14647773859E-01  0.18359173210E-01  0.00000000000E+00 0.  1.
     999901    1    3    3    0    0 -0.30298699539E-01  0.10676575879E+00 -0.74854452900E-01  0.89012365858E+00  0.88000000000E+00 0. -1.
        -11    1    4    4    0    0  0.19277260629E-01 -0.91950924493E-01  0.56797699924E-01  0.10978535936E+00  0.51100000000E-03 0.  1.
         11    1    4    4    0    0  0.60439958055E-02 -0.24700532150E-01  0.34089791166E-02  0.25661808849E-01  0.51100000000E-03 0. -1.
</event>
<event>
 8    1  0.1204770E+005  0.1043930E+01  0.7957747E-01            NaN
         13   -1    0    0    0    0  0.00000000000E+00  0.00000000000E+00  0.74505805969E-08  0.10566000000E+00  0.10566000000E+00 0. -1.
     999900   -1    0    0    0    0 -0.00000000000E+00 -0.00000000000E+00 -0.74505805969E-08  0.93827000000E+00  0.93827000000E+00 0.  1.
     999902    2    1    2    0    0 -0.23839497777E-01 -0.11803231370E-01  0.20170482049E-01  0.10105460777E+01  0.10099944994E+01 0.  0.
     999903    2    3    3    0    0 -0.40420028708E-01  0.26978222453E-01  0.11348543515E+00  0.12460782042E+00  0.16928133692E-01 0.  0.
         14    1    1    2    0    0  0.23839497777E-01  0.11803231370E-01 -0.20170482049E-01  0.33383922345E-01  0.00000000000E+00 0.  1.
     999901    1    3    3    0    0  0.16580530930E-01 -0.38781453823E-01 -0.93314953101E-01  0.88593825724E+00  0.88000000000E+00 0.  1.
        -11    1    4    4    0    0 -0.28939713841E-01  0.21380206723E-01  0.98742334300E-01  0.10509486182E+00  0.51100000000E-03 0.  1.
         11    1    4    4    0    0 -0.11480314867E-01  0.55980157309E-02  0.14743100850E-01  0.19512958598E-01  0.51100000000E-03 0. -1.
</event>
<event>
 8    1  0.1204770E+005  0.1043930E+01  0.7957747E-01            NaN
         13   -1    0    0    0    0  0.00000000000E+00  0.00000000000E+00  0.74505805969E-08  0.10566000000E+00  0.10566000000E+00 0. -1.
     999900   -1    0    0    0    0 -0.00000000000E+00 -0.00000000000E+00 -0.74505805969E-08  0.93827000000E+00  0.93827000000E+00 0.  1.
     999902    2    1    2    0    0  0.17989340399E-01  0.14504553588E-01  0.10338699190E-02  0.10207984776E+01  0.10205363612E+01 0.  0.
     999903    2    3    3    0    0  0.82240662707E-02  0.11204636925E+00  0.67790517688E-01  0.13284227572E+00  0.20724183984E-01 0.  0.
         14    1    1    2    0    0 -0.17989340399E-01 -0.14504553588E-01 -0.10338699190E-02  0.23131522428E-01  0.00000000000E+00 0.  1.
     999901    1    3    3    0    0  0.97652741287E-02 -0.97541815665E-01 -0.66756647769E-01  0.88795620185E+00  0.88000000000E+00 0.  1.
        -11    1    4    4    0    0 -0.50971041068E-02  0.67745811335E-01  0.42074143862E-01  0.79912265182E-01  0.51100000000E-03 0. -1.
         11    1    4    4    0    0  0.13321170377E-01  0.44300557918E-01  0.25716373827E-01  0.52930010541E-01  0.51100000000E-03 0.  1.
</event>
<event>
 8    1  0.1204770E+005  0.1043930E+01  0.7957747E-01            NaN
         13   -1    0    0    0    0  0.00000000000E+00  0.00000000000E+00  0.74505805969E-08  0.10566000000E+00  0.10566000000E+00 0. -1.
     999900   -1    0    0    0    0 -0.00000000000E+00 -0.00000000000E+00 -0.74505805969E-08  0.93827000000E+00  0.93827000000E+00 0.  1.
     999902    2    1    2    0    0 -0.11378501411E-01 -0.19922747204E-01  0.79780320183E-02  0.10196393610E+01  0.10193499847E+01 0.  0.
     999903    2    3    3    0    0 -0.47428415368E-02 -0.42605931702E-01  0.12310397798E+00  0.13182601217E+00  0.19640471650E-01 0.  0.
         14    1    1    2    0    0  0.11378501411E-01  0.19922747204E-01 -0.79780320183E-02  0.24290639049E-01  0.00000000000E+00 0. -1.
     999901    1    3    3    0    0 -0.66356598740E-02  0.22683184498E-01 -0.11512594597E+00  0.88781334878E+00  0.88000000000E+00 0.  1.
        -11    1    4    4    0    0 -0.11801563334E-01 -0.22217937323E-01  0.74831585182E-01  0.78948976547E-01  0.51100000000E-03 0. -1.
         11    1    4    4    0    0  0.70587217973E-02 -0.20387994379E-01  0.48272392803E-01  0.52877035622E-01  0.51100000000E-03 0.  1.
</event>
<event>
 8    1  0.1204770E+005  0.1043930E+01  0.7957747E-01            NaN
         13   -1    0    0    0    0  0.00000000000E+00  0.00000000000E+00  0.74505805969E-08  0.10566000000E+00  0.10566000000E+00 0.  1.
     999900   -1    0    0    0    0 -0.00000000000E+00 -0.00000000000E+00 -0.74505805969E-08  0.93827000000E+00  0.93827000000E+00 0. -1.
     999902    2    1    2    0    0 -0.23936461641E-02  0.22639675994E-01 -0.53135023928E-02  0.10205522803E+01  0.10202844893E+01 0.  0.
     999903    2    3    3    0    0  0.76900051302E-01 -0.83518735040E-02  0.10216759360E+00  0.12993443150E+00  0.21479469828E-01 0.  0.
         14    1    1    2    0    0  0.23936461641E-02 -0.22639675994E-01  0.53135023928E-02  0.23377719708E-01  0.00000000000E+00 0.  1.
     999901    1    3    3    0    0 -0.79293697466E-01  0.30991549498E-01 -0.10748109600E+00  0.89061784880E+00  0.88000000000E+00 0. -1.
        -11    1    4    4    0    0  0.86703532047E-02  0.27319760430E-02  0.23548661171E-01  0.25247559916E-01  0.51100000000E-03 0.  1.
         11    1    4    4    0    0  0.68229698097E-01 -0.11083849547E-01  0.78618932433E-01  0.10468687158E+00  0.51100000000E-03 0. -1.
</event>
<event>
 8    1  0.1204770E+005  0.1043930E+01  0.7957747E-01            NaN
         13   -1    0    0    0    0  0.00000000000E+00  0.00000000000E+00  0.74505805969E-08  0.10566000000E+00  0.10566000000E+00 0.  1.
     999900   -1    0    0    0    0 -0.00000000000E+00 -0.00000000000E+00 -0.74505805969E-08  0.93827000000E+00  0.93827000000E+00 0.  1.
     999902    2    1    2    0    0 -0.14136687292E-02  0.14610226115E-01  0.19400946014E-01  0.10196019530E+01  0.10193116739E+01 0.  0.
     999903    2    3    3    0    0 -0.88664648374E-01 -0.64220817755E-01  0.68416259878E-01  0.13042842214E+00  0.18575666374E-01 0.  0.
         14    1    1    2    0    0  0.14136687292E-02 -0.14610226115E-01 -0.19400946014E-01  0.24328047037E-01  0.00000000000E+00 0. -1.
     999901    1    3    3    0    0  0.87250979645E-01  0.78831043870E-01 -0.49015313864E-01  0.88917353083E+00  0.88000000000E+00 0. -1.
        -11    1    4    4    0    0 -0.18713094723E-01 -0.13566449891E-01  0.23943390792E-01  0.33283262466E-01  0.51100000000E-03 0. -1.
         11    1    4    4    0    0 -0.69951553652E-01 -0.50654367864E-01  0.44472869086E-01  0.97145159672E-01  0.51100000000E-03 0.  1.
</event>
<event>
 8    1  0.1204770E+005  0.1043930E+01  0.7957747E-01            NaN
         13   -1    0    0    0    0  0.00000000000E+00  0.00000000000E+00  0.74505805969E-08  0.10566000000E+00  0.10566000000E+00 0. -1.
     999900   -1    0    0    0    0 -0.00000000000E+00 -0.00000000000E+00 -0.74505805969E-08  0.93827000000E+00  0.93827000000E+00 0. -1.
     999902    2    1    2    0    0  0.43937382284E-02 -0.18865502340E-01  0.13928046228E-01  0.10200720331E+01  0.10197929937E+01 0.  0.
     999903    2    3    3    0    0  0.11827176325E+00 -0.47220322974E-01  0.30387806777E-01  0.13212883435E+00  0.17794414349E-01 0.  0.
         14    1    1    2    0    0 -0.43937382284E-02  0.18865502340E-01 -0.13928046228E-01  0.23857966927E-01  0.00000000000E+00 0.  1.
     999901    1    3    3    0    0 -0.11387802502E+00  0.28354820634E-01 -0.16459760549E-01  0.88794319872E+00  0.88000000000E+00 0.  1.
        -11    1    4    4    0    0  0.35895212884E-01 -0.57419231644E-02  0.87592777644E-02  0.37395481780E-01  0.51100000000E-03 0.  1.
         11    1    4    4    0    0  0.82376550369E-01 -0.41478399809E-01  0.21628529012E-01  0.94733352573E-01  0.51100000000E-03 0. -1.
</event>
<event>
 7    1  0.1204770E+005  0.1043930E+01  0.7957747E-01            NaN
         13   -1    0    0    0    0  0.00000000000E+00  0.00000000000E+00  0.74505805969E-08  0.10566000000E+00  0.10566000000E+00 0. -1.
     999900   -1    0    0    0    0 -0.00000000000E+00 -0.00000000000E+00 -0.74505805969E-08  0.93827000000E+00  0.93827000000E+00 0.  1.
     999902    2    1    2    0    0  0.10072082612E-02  0.23626954540E-01 -0.25235009421E-02  0.10201473276E+01  0.10198700675E+01 0.  0.
         14    1    1    2    0    0 -0.10072082612E-02 -0.23626954540E-01  0.25235009421E-02  0.23782672397E-01  0.00000000000E+00 0. -1.
     999901    1    3    3    0    0  0.16885701441E-01 -0.24696811868E-01  0.82952631503E-01  0.88440725828E+00  0.88000000000E+00 0. -1.
        -11    1    3    3    0    0 -0.21325225166E-01  0.60967235355E-01 -0.18254349749E-01  0.67121169693E-01  0.51100000000E-03 0. -1.
         11    1    3    3    0    0  0.54467319870E-02 -0.12643468946E-01 -0.67221782696E-01  0.68618899628E-01  0.51100000000E-03 0.  1.
</event>
<event>
 8    1  0.1204770E+005  0.1043930E+01  0.7957747E-01            NaN
         13   -1    0    0    0    0  0.00000000000E+00  0.00000000000E+00  0.74505805969E-08  0.10566000000E+00  0.10566000000E+00 0.  1.
     999900   -1    0    0    0    0 -0.00000000000E+00 -0.00000000000E+00 -0.74505805969E-08  0.93827000000E+00  0.93827000000E+00 0. -1.
     999902    2    1    2    0    0 -0.41215175348E-02  0.37778442543E-02  0.18266507498E-01  0.10248270078E+01  0.10246489504E+01 0.  0.
     999903    2    3    3    0    0  0.19217451468E-01 -0.64042486279E-01 -0.11233733308E+00  0.13230156399E+00  0.20329214012E-01 0.  0.
         14    1    1    2    0    0  0.41215175348E-02 -0.37778442543E-02 -0.18266507498E-01  0.19102992178E-01  0.00000000000E+00 0. -1.
     999901    1    3    3    0    0 -0.23338969003E-01  0.67820330534E-01  0.13060384058E+00  0.89252544383E+00  0.88000000000E+00 0.  1.
        -11    1    4    4    0    0 -0.35143591968E-03 -0.19976195264E-01 -0.47216841334E-01  0.51272440073E-01  0.51100000000E-03 0.  1.
         11    1    4    4    0    0  0.19568887388E-01 -0.44066291016E-01 -0.65120491743E-01  0.81029123921E-01  0.51100000000E-03 0. -1.
</event>
<event>
 8    1  0.1204770E+005  0.1043930E+01  0.7957747E-01            NaN
         13   -1    0    0    0    0  0.00000000000E+00  0.00000000000E+00  0.74505805969E-08  0.10566000000E+00  0.10566000000E+00 0.  1.
     999900   -1    0    0    0    0 -0.00000000000E+00 -0.00000000000E+00 -0.74505805969E-08  0.93827000000E+00  0.93827000000E+00 0.  1.
     999902    2    1    2    0    0  0.22455576579E-01 -0.19637379442E-01 -0.13284603471E-01  0.10112748277E+01  0.10107474545E+01 0.  0.
     999903    2    3    3    0    0  0.98813352232E-01 -0.56946544258E-01 -0.50659059655E-01  0.12639103097E+00  0.20034093486E-01 0.  0.
         14    1    1    2    0    0 -0.22455576579E-01  0.19637379442E-01  0.13284603471E-01  0.32655172335E-01  0.00000000000E+00 0.  1.
     999901    1    3    3    0    0 -0.76357775653E-01  0.37309164816E-01  0.37374456184E-01  0.88488379670E+00  0.88000000000E+00 0. -1.
        -11    1    4    4    0    0  0.57236221625E-01 -0.33107490598E-01 -0.18466765172E-01  0.68654013259E-01  0.51100000000E-03 0.  1.
         11    1    4    4    0    0  0.41577130607E-01 -0.23839053660E-01 -0.32192294482E-01  0.57737017709E-01  0.51100000000E-03 0. -1.
</event>
<event>
 8    1  0.1204770E+005  0.1043930E+01  0.7957747E-01            NaN
         13   -1    0    0    0    0  0.00000000000E+00  0.00000000000E+00  0.74505805969E-08  0.10566000000E+00  0.10566000000E+00 0. -1.
     999900   -1    0    0    0    0 -0.00000000000E+00 -0.00000000000E+00 -0.74505805969E-08  0.93827000000E+00  0.93827000000E+00 0. -1.
     999902    2    1    2    0    0  0.20928392393E-03  0.19701662649E-01  0.13450717494E-01  0.10200737406E+01  0.10197947417E+01 0.  0.
     999903    2    3    3    0    0  0.14929992620E-01 -0.10542293382E+00  0.70366837672E-01  0.12928066215E+00  0.20617907416E-01 0.  0.
         14    1    1    2    0    0 -0.20928392393E-03 -0.19701662649E-01 -0.13450717494E-01  0.23856259388E-01  0.00000000000E+00 0. -1.
     999901    1    3    3    0    0 -0.14720708696E-01  0.12512459647E+00 -0.56916120178E-01  0.89079307847E+00  0.88000000000E+00 0.  1.
        -11    1    4    4    0    0  0.16901709817E-01 -0.71370533675E-01  0.39657706131E-01  0.83381146840E-01  0.51100000000E-03 0.  1.
         11    1    4    4    0    0 -0.19717171967E-02 -0.34052400144E-01  0.30709131542E-01  0.45899515306E-01  0.51100000000E-03 0. -1.
</event>
<event>
 8    1  0.1204770E+005  0.1043930E+01  0.7957747E-01            NaN
         13   -1    0    0    0    0  0.00000000000E+00  0.00000000000E+00  0.74505805969E-08  0.10566000000E+00  0.10566000000E+00 0. -1.
     999900   -1    0    0    0    0 -0.00000000000E+00 -0.00000000000E+00 -0.74505805969E-08  0.93827000000E+00  0.93827000000E+00 0. -1.
     999902    2    1    2    0    0  0.63584814477E-03  0.29360669257E-01 -0.13384997071E-02  0.10145319595E+01  0.10141059373E+01 0.  0.
     999903    2    3    3    0    0 -0.33557065368E-01  0.17116164064E-01 -0.11742934222E+00  0.12616482430E+00  0.26624664641E-01 0.  0.
         14    1    1    2    0    0 -0.63584814477E-03 -0.29360669257E-01  0.13384997071E-02  0.29398040471E-01  0.00000000000E+00 0. -1.
     999901    1    3    3    0    0  0.34192913513E-01  0.12244505193E-01  0.11609084251E+00  0.88836713523E+00  0.88000000000E+00 0.  1.
        -11    1    4    4    0    0 -0.15601964979E-01 -0.59332296951E-02 -0.37095736794E-01  0.40681437230E-01  0.51100000000E-03 0. -1.
         11    1    4    4    0    0 -0.17955100390E-01  0.23049393759E-01 -0.80333605428E-01  0.85483387068E-01  0.51100000000E-03 0.  1.
</event>
<event>
 8    1  0.1204770E+005  0.1043930E+01  0.7957747E-01            NaN
         13   -1    0    0    0    0  0.00000000000E+00  0.00000000000E+00  0.74505805969E-08  0.10566000000E+00  0.10566000000E+00 0.  1.
     999900   -1    0    0    0    0 -0.00000000000E+00 -0.00000000000E+00 -0.74505805969E-08  0.93827000000E+00  0.93827000000E+00 0. -1.
     999902    2    1    2    0    0 -0.15066675449E-01  0.17366563866E-01 -0.53287601325E-02  0.10203291963E+01  0.10200562097E+01 0.  0.
     999903    2    3    3    0    0  0.21405972059E-01  0.92470299807E-01 -0.90169909670E-01  0.13231520667E+00  0.19176269702E-01 0.  0.
         14    1    1    2    0    0  0.15066675449E-01 -0.17366563866E-01  0.53287601325E-02  0.23600803676E-01  0.00000000000E+00 0.  1.
     999901    1    3    3    0    0 -0.36472647508E-01 -0.75103735941E-01  0.84841149537E-01  0.88801398966E+00  0.88000000000E+00 0.  1.
        -11    1    4    4    0    0  0.11305125982E-02  0.45440807480E-01 -0.46192781415E-01  0.64808789674E-01  0.51100000000E-03 0. -1.
         11    1    4    4    0    0  0.20275459461E-01  0.47029492327E-01 -0.43977128255E-01  0.67506416994E-01  0.51100000000E-03 0.  1.
</event>
<event>
 8    1  0.1204770E+005  0.1043930E+01  0.7957747E-01            NaN
         13   -1    0    0    0    0  0.00000000000E+00  0.00000000000E+00  0.74505805969E-08  0.10566000000E+00  0.10566000000E+00 0. -1.
     999900   -1    0    0    0    0 -0.00000000000E+00 -0.00000000000E+00 -0.74505805969E-08  0.93827000000E+00  0.93827000000E+00 0. -1.
     999902    2    1    2    0    0 -0.22777208376E-01 -0.63220322693E-02  0.48740485027E-03  0.10202866737E+01  0.10200126910E+01 0.  0.
     999903    2    3    3    0    0 -0.90535588307E-01  0.92259184244E-01  0.18836144398E-01  0.13200398757E+00  0.19021108550E-01 0.  0.
         14    1    1    2    0    0  0.22777208376E-01  0.63220322693E-02 -0.48740485027E-03  0.23643326266E-01  0.00000000000E+00 0. -1.
     999901    1    3    3    0    0  0.67758379930E-01 -0.98581216514E-01 -0.18348739548E-01  0.88828268617E+00  0.88000000000E+00 0.  1.
        -11    1    4    4    0    0 -0.31025211075E-01  0.31570772344E-01 -0.26022047696E-02  0.44343093930E-01  0.51100000000E-03 0.  1.
         11    1    4    4    0    0 -0.59510377232E-01  0.60688411900E-01  0.21438349168E-01  0.87660893638E-01  0.51100000000E-03 0. -1.
</event>
<event>
 8    1  0.1204770E+005  0.1043930E+01  0.7957747E-01            NaN
         13   -1    0    0    0    0  0.00000000000E+00  0.00000000000E+00  0.74505805969E-08  0.10566000000E+00  0.10566000000E+00 0. -1.
     999900   -1    0    0    0    0 -0.00000000000E+00 -0.00000000000E+00 -0.74505805969E-08  0.93827000000E+00  0.93827000000E+00 0.  1.
     999902    2    1    2    0    0 -0.14726691133E-02  0.13610731118E-01 -0.19268708882E-01  0.10202930819E+01  0.10200192494E+01 0.  0.
     999903    2    3    3    0    0  0.10247828924E+00  0.46286081572E-01 -0.66803759905E-01  0.13229924106E+00  0.19903410116E-01 0.  0.
         14    1    1    2    0    0  0.14726691133E-02 -0.13610731118E-01  0.19268708882E-01  0.23636918113E-01  0.00000000000E+00 0. -1.
     999901    1    3    3    0    0 -0.10395095836E+00 -0.32675350454E-01  0.47535051022E-01  0.88799384083E+00  0.88000000000E+00 0. -1.
        -11    1    4    4    0    0  0.71481242300E-01  0.40425830747E-01 -0.42463752067E-01  0.92451323154E-01  0.51100000000E-03 0. -1.
         11    1    4    4    0    0  0.30997046944E-01  0.58602508250E-02 -0.24340007837E-01  0.39847917907E-01  0.51100000000E-03 0.  1.
</event>
<event>
 8    1  0.1204770E+005  0.1043930E+01  0.7957747E-01            NaN
         13   -1    0    0    0    0  0.00000000000E+00  0.00000000000E+00  0.74505805969E-08  0.10566000000E+00  0.10566000000E+00 0.  1.
     999900   -1    0    0    0    0 -0.00000000000E+00 -0.00000000000E+00 -0.74505805969E-08  0.93827000000E+00  0.93827000000E+00 0. -1.
     999902    2    1    2    0    0  0.69610303141E-02 -0.13582073577E-01 -0.23148051821E-01  0.10162034609E+01  0.10158251390E+01 0.  0.
     999903    2    3    3    0    0  0.45900886689E-01  0.36975821996E-01 -0.11301905060E+00  0.12932736494E+00  0.21866840449E-01 0.  0.
         14    1    1    2    0    0 -0.69610303141E-02  0.13582073577E-01  0.23148051821E-01  0.27726539070E-01  0.00000000000E+00 0. -1.
     999901    1    3    3    0    0 -0.38939856374E-01 -0.50557895573E-01  0.89870998783E-01  0.88687609599E+00  0.88000000000E+00 0.  1.
        -11    1    4    4    0    0  0.16353659050E-01  0.24678205721E-02 -0.21292891432E-01  0.26966287272E-01  0.51100000000E-03 0. -1.
         11    1    4    4    0    0  0.29547227638E-01  0.34508001424E-01 -0.91726159173E-01  0.10236107767E+00  0.51100000000E-03 0.  1.
</event>
<event>
 8    1  0.1204770E+005  0.1043930E+01  0.7957747E-01            NaN
         13   -1    0    0    0    0  0.00000000000E+00  0.00000000000E+00  0.74505805969E-08  0.10566000000E+00  0.10566000000E+00 0.  1.
     999900   -1    0    0    0    0 -0.00000000000E+00 -0.00000000000E+00 -0.74505805969E-08  0.93827000000E+00  0.93827000000E+00 0. -1.
     999902    2    1    2    0    0  0.81646924397E-02  0.22365668978E-01 -0.10730240201E-02  0.10200964788E+01  0.10198180178E+01 0.  0.
     999903    2    3    3    0    0  0.12638338333E+00  0.32961295350E-01  0.18005571826E-02  0.13212340285E+00  0.19853085439E-01 0.  0.
         14    1    1    2    0    0 -0.81646924397E-02 -0.22365668978E-01  0.10730240201E-02  0.23833521184E-01  0.00000000000E+00 0. -1.
     999901    1    3    3    0    0 -0.11821869089E+00 -0.10595626371E-01 -0.28735812027E-02  0.88797307597E+00  0.88000000000E+00 0. -1.
        -11    1    4    4    0    0  0.66930618108E-01  0.25051972090E-01 -0.56173668451E-02  0.71687689858E-01  0.51100000000E-03 0. -1.
         11    1    4    4    0    0  0.59452765221E-01  0.79093232598E-02  0.74179240277E-02  0.60435712991E-01  0.51100000000E-03 0.  1.
</event>
<event>
 8    1  0.1204770E+005  0.1043930E+01  0.7957747E-01            NaN
         13   -1    0    0    0    0  0.00000000000E+00  0.00000000000E+00  0.74505805969E-08  0.10566000000E+00  0.10566000000E+00 0.  1.
     999900   -1    0    0    0    0 -0.00000000000E+00 -0.00000000000E+00 -0.74505805969E-08  0.93827000000E+00  0.93827000000E+00 0. -1.
     999902    2    1    2    0    0  0.15007391440E-01 -0.14726995784E-01 -0.11520643897E-01  0.10199543574E+01  0.10196725257E+01 0.  0.
     999903    2    3    3    0    0 -0.96611918058E-01 -0.84389754153E-01  0.52040937360E-02  0.13001532184E+00  0.20528224565E-01 0.  0.
         14    1    1    2    0    0 -0.15007391440E-01  0.14726995784E-01  0.11520643897E-01  0.23975642608E-01  0.00000000000E+00 0.  1.
     999901    1    3    3    0    0  0.11161930950E+00  0.69662758370E-01 -0.16724737633E-01  0.88993903556E+00  0.88000000000E+00 0.  1.
        -11    1    4    4    0    0 -0.56101701775E-01 -0.44926771855E-01 -0.68076293525E-02  0.72197096270E-01  0.51100000000E-03 0.  1.
         11    1    4    4    0    0 -0.40510216283E-01 -0.39462982298E-01  0.12011723088E-01  0.57818225567E-01  0.51100000000E-03 0. -1.
</event>
<event>
 8    1  0.1204770E+005  0.1043930E+01  0.7957747E-01            NaN
         13   -1    0    0    0    0  0.00000000000E+00  0.00000000000E+00  0.74505805969E-08  0.10566000000E+00  0.10566000000E+00 0.  1.
     999900   -1    0    0    0    0 -0.00000000000E+00 -0.00000000000E+00 -0.74505805969E-08  0.93827000000E+00  0.93827000000E+00 0.  1.
     999902    2    1    2    0    0 -0.17466358069E-02 -0.26398205887E-02  0.23620572834E-01  0.10200982806E+01  0.10198198621E+01 0.  0.
     999903    2    3    3    0    0 -0.50569716104E-01 -0.55103152351E-01 -0.10232069167E+00  0.12824779061E+00  0.19604037011E-01 0.  0.
         14    1    1    2    0    0  0.17466358069E-02  0.26398205887E-02 -0.23620572834E-01  0.23831719418E-01  0.00000000000E+00 0. -1.
     999901    1    3    3    0    0  0.48823080297E-01  0.52463331762E-01  0.12594126451E+00  0.89185048997E+00  0.88000000000E+00 0. -1.
        -11    1    4    4    0    0 -0.20428522685E-01 -0.15306885222E-01 -0.22140232285E-01  0.33794619112E-01  0.51100000000E-03 0. -1.
         11    1    4    4    0    0 -0.30141193418E-01 -0.39796267129E-01 -0.80180459389E-01  0.94453171502E-01  0.51100000000E-03 0.  1.
</event>
<event>
 8    1  0.1204770E+005  0.1043930E+01  0.7957747E-01            NaN
         13   -1    0    0    0    0  0.00000000000E+00  0.00000000000E+00  0.74505805969E-08  0.10566000000E+00  0.10566000000E+00 0. -1.
     999900   -1    0    0    0    0 -0.00000000000E+00 -0.00000000000E+00 -0.74505805969E-08  0.93827000000E+00  0.93827000000E+00 0. -1.
     999902    2    1    2    0    0 -0.47873530553E-02  0.20922908857E-01 -0.86394596632E-02  0.10207928626E+01  0.10205306175E+01 0.  0.
     999903    2    3    3    0    0  0.21192797824E-01 -0.11728316748E-01  0.12577759680E+00  0.12960880986E+00  0.19792716944E-01 0.  0.
         14    1    1    2    0    0  0.47873530553E-02 -0.20922908857E-01  0.86394596632E-02  0.23137137411E-01  0.00000000000E+00 0. -1.
     999901    1    3    3    0    0 -0.25980150880E-01  0.32651225604E-01 -0.13441705646E+00  0.89118405273E+00  0.88000000000E+00 0. -1.
        -11    1    4    4    0    0  0.13989850423E-01 -0.11316095714E-01  0.44397385462E-01  0.47907816627E-01  0.51100000000E-03 0. -1.
         11    1    4    4    0    0  0.72029474017E-02 -0.41222103326E-03  0.81380211333E-01  0.81700993232E-01  0.51100000000E-03 0.  1.
</event>
<event>
 8    1  0.1204770E+005  0.1043930E+01  0.7957747E-01            NaN
         13   -1    0    0    0    0  0.00000000000E+00  0.00000000000E+00  0.74505805969E-08  0.10566000000E+00  0.10566000000E+00 0. -1.
     999900   -1    0    0    0    0 -0.00000000000E+00 -0.00000000000E+00 -0.74505805969E-08  0.93827000000E+00  0.93827000000E+00 0. -1.
     999902    2    1    2    0    0  0.55091474624E-02  0.23460529414E-01 -0.87668378857E-03  0.10198153629E+01  0.10195302147E+01 0.  0.
     999903    2    3    3    0    0  0.75088225174E-01 -0.21298441977E-01 -0.10222242261E+00  0.13014375366E+00  0.19902455690E-01 0.  0.
         14    1    1    2    0    0 -0.55091474624E-02 -0.23460529414E-01  0.87668378857E-03  0.24114637061E-01  0.00000000000E+00 0.  1.
     999901    1    3    3    0    0 -0.69579077712E-01  0.44758971391E-01  0.10134573882E+00  0.88967160928E+00  0.88000000000E+00 0.  1.
        -11    1    4    4    0    0  0.46719332478E-01 -0.15259731637E-01 -0.78740976246E-01  0.92822184298E-01  0.51100000000E-03 0.  1.
         11    1    4    4    0    0  0.28368892696E-01 -0.60387103402E-02 -0.23481446365E-01  0.37321569364E-01  0.51100000000E-03 0. -1.
</event>
<event>
 8    1  0.1204770E+005  0.1043930E+01  0.7957747E-01            NaN
         13   -1    0    0    0    0  0.00000000000E+00  0.00000000000E+00  0.74505805969E-08  0.10566000000E+00  0.10566000000E+00 0. -1.
     999900   -1    0    0    0    0 -0.00000000000E+00 -0.00000000000E+00 -0.74505805969E-08  0.93827000000E+00  0.93827000000E+00 0.  1.
     999902    2    1    2    0    0 -0.12847941129E-01 -0.74201258423E-02 -0.15363916181E-01  0.10225716813E+01  0.10223486028E+01 0.  0.
     999903    2    3    3    0    0  0.79421315967E-01 -0.10083996629E+00  0.23109271481E-01  0.13199823198E+00  0.20323646020E-01 0.  0.
         14    1    1    2    0    0  0.12847941129E-01  0.74201258423E-02  0.15363916181E-01  0.21358318735E-01  0.00000000000E+00 0. -1.
     999901    1    3    3    0    0 -0.92269257096E-01  0.93419840447E-01 -0.38473187663E-01  0.89057344928E+00  0.88000000000E+00 0. -1.
        -11    1    4    4    0    0  0.41798046380E-01 -0.62486481676E-01  0.21711606001E-01  0.78251466629E-01  0.51100000000E-03 0.  1.
         11    1    4    4    0    0  0.37623269587E-01 -0.38353484613E-01  0.13976654800E-02  0.53746765356E-01  0.51100000000E-03 0. -1.
</event>
<event>
 8    1  0.1204770E+005  0.1043930E+01  0.7957747E-01            NaN
         13   -1    0    0    0    0  0.00000000000E+00  0.00000000000E+00  0.74505805969E-08  0.10566000000E+00  0.10566000000E+00 0. -1.
     999900   -1    0    0    0    0 -0.00000000000E+00 -0.00000000000E+00 -0.74505805969E-08  0.93827000000E+00  0.93827000000E+00 0.  1.
     999902    2    1    2    0    0  0.67820794730E-02 -0.19239480208E-01 -0.12125820400E-01  0.10201983814E+01  0.10199223243E+01 0.  0.
     999903    2    3    3    0    0 -0.37067413020E-01  0.11596810733E+00 -0.34817767127E-01  0.12850404243E+00  0.21872745323E-01 0.  0.
         14    1    1    2    0    0 -0.67820794730E-02  0.19239480208E-01  0.12125820400E-01  0.23731618593E-01  0.00000000000E+00 0. -1.
     999901    1    3    3    0    0  0.43849492493E-01 -0.13520758754E+00  0.22691946727E-01  0.89169433898E+00  0.88000000000E+00 0. -1.
        -11    1    4    4    0    0 -0.34253534668E-01  0.73425187409E-01 -0.24256633691E-01  0.84576640879E-01  0.51100000000E-03 0.  1.
         11    1    4    4    0    0 -0.28138783517E-02  0.42542919918E-01 -0.10561133436E-01  0.43927401551E-01  0.51100000000E-03 0. -1.
</event>
<event>
 8    1  0.1204770E+005  0.1043930E+01  0.7957747E-01            NaN
         13   -1    0    0    0    0  0.00000000000E+00  0.00000000000E+00  0.74505805969E-08  0.10566000000E+00  0.10566000000E+00 0. -1.
     999900   -1    0    0    0    0 -0.00000000000E+00 -0.00000000000E+00 -0.74505805969E-08  0.93827000000E+00  0.93827000000E+00 0.  1.
     999902    2    1    2    0    0 -0.29915153631E-02 -0.24210789108E-01  0.16748087933E-02  0.10194776697E+01  0.10191843810E+01 0.  0.
     999903    2    3    3    0    0 -0.11230513490E+00  0.54214008900E-01  0.27594289608E-01  0.12887577442E+00  0.17202276795E-01 0.  0.
         14    1    1    2    0    0  0.29915153631E-02  0.24210789108E-01 -0.16748087933E-02  0.24452330316E-01  0.00000000000E+00 0. -1.
     999901    1    3    3    0    0  0.10931361954E+00 -0.78424798008E-01 -0.25919480815E-01  0.89060189526E+00  0.88000000000E+00 0.  1.
        -11    1    4    4    0    0 -0.31393939726E-01  0.74911175876E-02  0.41471506880E-02  0.32544681195E-01  0.51100000000E-03 0.  1.
         11    1    4    4    0    0 -0.80911195178E-01  0.46722891312E-01  0.23447138921E-01  0.96331093226E-01  0.51100000000E-03 0. -1.
</event>
<event>
 8    1  0.1204770E+005  0.1043930E+01  0.7957747E-01            NaN
         13   -1    0    0    0    0  0.00000000000E+00  0.00000000000E+00  0.74505805969E-08  0.10566000000E+00  0.10566000000E+00 0. -1.
     999900   -1    0    0    0    0 -0.00000000000E+00 -0.00000000000E+00 -0.74505805969E-08  0.93827000000E+00  0.93827000000E+00 0.  1.
     999902    2    1    2    0    0 -0.11488566146E-01 -0.18950337673E-01  0.81156980597E-02  0.10203298516E+01  0.10200568803E+01 0.  0.
     999903    2    3    3    0    0 -0.10309161932E+00  0.20355100296E-01 -0.75242000305E-01  0.13078809165E+00  0.20048796108E-01 0.  0.
         14    1    1    2    0    0  0.11488566146E-01  0.18950337673E-01 -0.81156980597E-02  0.23600148411E-01  0.00000000000E+00 0. -1.
     999901    1    3    3    0    0  0.91603053171E-01 -0.39305437969E-01  0.83357698364E-01  0.88954175994E+00  0.88000000000E+00 0. -1.
        -11    1    4    4    0    0 -0.47671173637E-01  0.19110636752E-01 -0.39968896843E-01  0.65080957805E-01  0.51100000000E-03 0.  1.
         11    1    4    4    0    0 -0.55420445680E-01  0.12444635435E-02 -0.35273103461E-01  0.65707133842E-01  0.51100000000E-03 0. -1.
</event>
<event>
 8    1  0.1204770E+005  0.1043930E+01  0.7957747E-01            NaN
         13   -1    0    0    0    0  0.00000000000E+00  0.00000000000E+00  0.74505805969E-08  0.10566000000E+00  0.10566000000E+00 0. -1.
     999900   -1    0    0    0    0 -0.00000000000E+00 -0.00000000000E+00 -0.74505805969E-08  0.93827000000E+00  0.93827000000E+00 0. -1.
     999902    2    1    2    0    0 -0.94788114393E-02  0.19223934773E-01  0.85248155849E-02  0.10208631403E+01  0.10206025040E+01 0.  0.
     999903    2    3    3    0    0  0.15160757023E-01  0.98026258801E-01  0.87465839497E-01  0.13348013403E+00  0.18101854423E-01 0.  0.
         14    1    1    2    0    0  0.94788114393E-02 -0.19223934773E-01 -0.85248155849E-02  0.23066859674E-01  0.00000000000E+00 0.  1.
     999901    1    3    3    0    0 -0.24639568462E-01 -0.78802324028E-01 -0.78941023913E-01  0.88738300630E+00  0.88000000000E+00 0.  1.
        -11    1    4    4    0    0  0.52570087036E-02  0.80248938565E-01  0.71478082098E-01  0.10759602977E+00  0.51100000000E-03 0.  1.
         11    1    4    4    0    0  0.99037483196E-02  0.17777320236E-01  0.15987757399E-01  0.25884104257E-01  0.51100000000E-03 0. -1.
</event>
<event>
 8    1  0.1204770E+005  0.1043930E+01  0.7957747E-01            NaN
         13   -1    0    0    0    0  0.00000000000E+00  0.00000000000E+00  0.74505805969E-08  0.10566000000E+00  0.10566000000E+00 0.  1.
     999900   -1    0    0    0    0 -0.00000000000E+00 -0.00000000000E+00 -0.74505805969E-08  0.93827000000E+00  0.93827000000E+00 0. -1.
     999902    2    1    2    0    0  0.96435912873E-02  0.19025148714E-01  0.10594972060E-01  0.10201138591E+01  0.10198358088E+01 0.  0.
     999903    2    3    3    0    0 -0.50421643612E-03  0.76117487965E-01  0.10720062735E+00  0.13293001912E+00  0.19603297470E-01 0.  0.
         14    1    1    2    0    0 -0.96435912873E-02 -0.19025148714E-01 -0.10594972060E-01  0.23816140944E-01  0.00000000000E+00 0.  1.
     999901    1    3    3    0    0  0.10147807723E-01 -0.57092339252E-01 -0.96605655290E-01  0.88718383993E+00  0.88000000000E+00 0. -1.
        -11    1    4    4    0    0 -0.96039074621E-02  0.31671996404E-01  0.41436285068E-01  0.53033736772E-01  0.51100000000E-03 0. -1.
         11    1    4    4    0    0  0.90996910260E-02  0.44445491561E-01  0.65764342282E-01  0.79896282352E-01  0.51100000000E-03 0.  1.
</event>
<event>
 7    1  0.1204770E+005  0.1043930E+01  0.7957747E-01            NaN
         13   -1    0    0    0    0  0.00000000000E+00  0.00000000000E+00  0.74505805969E-08  0.10566000000E+00  0.10566000000E+00 0.  1.
     999900   -1    0    0    0    0 -0.00000000000E+00 -0.00000000000E+00 -0.74505805969E-08  0.93827000000E+00  0.93827000000E+00 0. -1.
     999903    2    1    2    0    0  0.93105570168E-01  0.13023799321E-02  0.47100753385E-01  0.10623895632E+00  0.19947217372E-01 0.  0.
         14    1    1    2    0    0 -0.63742663707E-02 -0.50318032038E-01 -0.65577665035E-02  0.51142349588E-01  0.00000000000E+00 0. -1.
     999901    1    1    2    0    0 -0.86731303797E-01  0.49015652105E-01 -0.40542986882E-01  0.88654869409E+00  0.88000000000E+00 0. -1.
        -11    1    3    3    0    0  0.66147206979E-01 -0.23585515841E-02  0.42449831761E-01  0.78633740177E-01  0.51100000000E-03 0.  1.
         11    1    3    3    0    0  0.26958363188E-01  0.36609315162E-02  0.46509216243E-02  0.27605216143E-01  0.51100000000E-03 0. -1.
</event>
<event>
 7    1  0.1204770E+005  0.1043930E+01  0.7957747E-01            NaN
         13   -1    0    0    0    0  0.00000000000E+00  0.00000000000E+00  0.74505805969E-08  0.10566000000E+00  0.10566000000E+00 0.  1.
     999900   -1    0    0    0    0 -0.00000000000E+00 -0.00000000000E+00 -0.74505805969E-08  0.93827000000E+00  0.93827000000E+00 0. -1.
     999903    2    1    2    0    0 -0.69156611890E-01  0.53790528795E-01 -0.77053120921E-01  0.11836007123E+00  0.19896357980E-01 0.  0.
         14    1    1    2    0    0  0.39369587412E-01 -0.82914971379E-02  0.92840487120E-02  0.41290518261E-01  0.00000000000E+00 0.  1.
     999901    1    1    2    0    0  0.29787024478E-01 -0.45499031657E-01  0.67769072209E-01  0.88427941051E+00  0.88000000000E+00 0.  1.
        -11    1    3    3    0    0 -0.30741793308E-01  0.18550964489E-01 -0.43310209866E-01  0.56260390498E-01  0.51100000000E-03 0. -1.
         11    1    3    3    0    0 -0.38414818582E-01  0.35239564306E-01 -0.33742911054E-01  0.62099680729E-01  0.51100000000E-03 0.  1.
</event>
<event>
 8    1  0.1204770E+005  0.1043930E+01  0.7957747E-01            NaN
         13   -1    0    0    0    0  0.00000000000E+00  0.00000000000E+00  0.74505805969E-08  0.10566000000E+00  0.10566000000E+00 0.  1.
     999900   -1    0    0    0    0 -0.00000000000E+00 -0.00000000000E+00 -0.74505805969E-08  0.93827000000E+00  0.93827000000E+00 0. -1.
     999902    2    1    2    0    0  0.58062638594E-02 -0.22601340059E-01  0.11057470522E-03  0.10205945013E+01  0.10203276879E+01 0.  0.
     999903    2    3    3    0    0  0.28995633725E-01 -0.47789070250E-01 -0.11784364904E+00  0.13206461012E+00  0.20721815043E-01 0.  0.
         14    1    1    2    0    0 -0.58062638594E-02  0.22601340059E-01 -0.11057470522E-03  0.23335498693E-01  0.00000000000E+00 0. -1.
     999901    1    3    3    0    0 -0.23189369866E-01  0.25187730191E-01  0.11795422374E+00  0.88852989118E+00  0.88000000000E+00 0.  1.
        -11    1    4    4    0    0  0.20850026130E-01 -0.16507596994E-01 -0.43369646118E-01  0.50876435346E-01  0.51100000000E-03 0.  1.
         11    1    4    4    0    0  0.81456075952E-02 -0.31281473256E-01 -0.74474002918E-01  0.81188174778E-01  0.51100000000E-03 0. -1.
</event>
<event>
 8    1  0.1204770E+005  0.1043930E+01  0.7957747E-01            NaN
         13   -1    0    0    0    0  0.00000000000E+00  0.00000000000E+00  0.74505805969E-08  0.10566000000E+00  0.10566000000E+00 0.  1.
     999900   -1    0    0    0    0 -0.00000000000E+00 -0.00000000000E+00 -0.74505805969E-08  0.93827000000E+00  0.93827000000E+00 0.  1.
     999902    2    1    2    0    0  0.61158305743E-02  0.23250241876E-01 -0.73715944607E-03  0.10198775462E+01  0.10195938842E+01 0.  0.
     999903    2    3    3    0    0 -0.91134373938E-03 -0.88051555310E-01 -0.91044370086E-01  0.12825382311E+00  0.20150902679E-01 0.  0.
         14    1    1    2    0    0 -0.61158305743E-02 -0.23250241876E-01  0.73715944607E-03  0.24052453824E-01  0.00000000000E+00 0.  1.
     999901    1    3    3    0    0  0.70271743137E-02  0.11130179719E+00  0.90307210640E-01  0.89162372306E+00  0.88000000000E+00 0. -1.
        -11    1    4    4    0    0  0.30699541379E-02 -0.58829888737E-01 -0.47582202658E-01  0.75727851931E-01  0.51100000000E-03 0. -1.
         11    1    4    4    0    0 -0.39812978773E-02 -0.29221666572E-01 -0.43462167428E-01  0.52525971182E-01  0.51100000000E-03 0.  1.
</event>
<event>
 8    1  0.1204770E+005  0.1043930E+01  0.7957747E-01            NaN
         13   -1    0    0    0    0  0.00000000000E+00  0.00000000000E+00  0.74505805969E-08  0.10566000000E+00  0.10566000000E+00 0.  1.
     999900   -1    0    0    0    0 -0.00000000000E+00 -0.00000000000E+00 -0.74505805969E-08  0.93827000000E+00  0.93827000000E+00 0. -1.
     999902    2    1    2    0    0 -0.13045444100E-01  0.19660207892E-01  0.32631517385E-02  0.10201107736E+01  0.10198326504E+01 0.  0.
     999903    2    3    3    0    0  0.11408545084E+00  0.54150706853E-01  0.23941163483E-01  0.13006614601E+00  0.19905624371E-01 0.  0.
         14    1    1    2    0    0  0.13045444100E-01 -0.19660207892E-01 -0.32631517385E-02  0.23819226381E-01  0.00000000000E+00 0. -1.
     999901    1    3    3    0    0 -0.12713089494E+00 -0.34490498961E-01 -0.20678011744E-01  0.89004462761E+00  0.88000000000E+00 0.  1.
        -11    1    4    4    0    0  0.21011484277E-01  0.14972084711E-01  0.11727859313E-01  0.28345186491E-01  0.51100000000E-03 0. -1.
         11    1    4    4    0    0  0.93073966568E-01  0.39178622142E-01  0.12213304170E-01  0.10172095952E+00  0.51100000000E-03 0.  1.
</event>
<event>
 7    1  0.1204770E+005  0.1043930E+01  0.7957747E-01            NaN
         13   -1    0    0    0    0  0.00000000000E+00  0.00000000000E+00  0.74505805969E-08  0.10566000000E+00  0.10566000000E+00 0. -1.
     999900   -1    0    0    0    0 -0.00000000000E+00 -0.00000000000E+00 -0.74505805969E-08  0.93827000000E+00  0.93827000000E+00 0. -1.
     999902    2    1    2    0    0  0.80026884072E-02 -0.19070471937E-01  0.11632007135E-01  0.10202017571E+01  0.10199257795E+01 0.  0.
         14    1    1    2    0    0 -0.80026884072E-02  0.19070471937E-01 -0.11632007135E-01  0.23728242911E-01  0.00000000000E+00 0. -1.
     999901    1    3    3    0    0  0.64889798512E-01 -0.12064317267E+00  0.63087568657E-01  0.89283005235E+00  0.88000000000E+00 0.  1.
        -11    1    3    3    0    0 -0.45906006820E-01  0.85451967678E-01 -0.42819763785E-01  0.10603392633E+00  0.51100000000E-03 0. -1.
         11    1    3    3    0    0 -0.10981103285E-01  0.16120733056E-01 -0.86357977369E-02  0.21337778403E-01  0.51100000000E-03 0.  1.
</event>
<event>
 8    1  0.1204770E+005  0.1043930E+01  0.7957747E-01            NaN
         13   -1    0    0    0    0  0.00000000000E+00  0.00000000000E+00  0.74505805969E-08  0.10566000000E+00  0.10566000000E+00 0.  1.
     999900   -1    0    0    0    0 -0.00000000000E+00 -0.00000000000E+00 -0.74505805969E-08  0.93827000000E+00  0.93827000000E+00 0. -1.
     999902    2    1    2    0    0 -0.11503611143E-01  0.20361816430E-01 -0.11324756226E-02  0.10205159201E+01  0.10202472857E+01 0.  0.
     999903    2    3    3    0    0 -0.11422358651E+00 -0.23371446155E-01  0.57498338921E-01  0.13152685152E+00  0.20000037079E-01 0.  0.
         14    1    1    2    0    0  0.11503611143E-01 -0.20361816430E-01  0.11324756226E-02  0.23414079924E-01  0.00000000000E+00 0.  1.
     999901    1    3    3    0    0  0.10271997536E+00  0.43733262585E-01 -0.58630814543E-01  0.88898906855E+00  0.88000000000E+00 0. -1.
        -11    1    4    4    0    0 -0.79429853287E-02 -0.37533373107E-02  0.10426186005E-01  0.13643497811E-01  0.51100000000E-03 0. -1.
         11    1    4    4    0    0 -0.10628060118E+00 -0.19618108845E-01  0.47072152915E-01  0.11788335371E+00  0.51100000000E-03 0.  1.
</event>
<event>
 8    1  0.1204770E+005  0.1043930E+01  0.7957747E-01            NaN
         13   -1    0    0    0    0  0.00000000000E+00  0.00000000000E+00  0.74505805969E-08  0.10566000000E+00  0.10566000000E+00 0. -1.
     999900   -1    0    0    0    0 -0.00000000000E+00 -0.00000000000E+00 -0.74505805969E-08  0.93827000000E+00  0.93827000000E+00 0. -1.
     999902    2    1    2    0    0 -0.18527509512E-01  0.14336448246E-01 -0.57635063101E-02  0.10198049018E+01  0.10195195032E+01 0.  0.
     999903    2    3    3    0    0 -0.72221882658E-01  0.95257009055E-01  0.53463759185E-01  0.13248360046E+00  0.20090613149E-01 0.  0.
         14    1    1    2    0    0  0.18527509512E-01 -0.14336448246E-01  0.57635063101E-02  0.24125098177E-01  0.00000000000E+00 0.  1.
     999901    1    3    3    0    0  0.53694373146E-01 -0.80920560809E-01 -0.59227265495E-01  0.88732130136E+00  0.88000000000E+00 0. -1.
        -11    1    4    4    0    0 -0.66936901933E-01  0.92767967895E-01  0.46780926452E-01  0.12359272191E+00  0.51100000000E-03 0.  1.
         11    1    4    4    0    0 -0.52849807254E-02  0.24890411602E-02  0.66828327327E-02  0.88908785560E-02  0.51100000000E-03 0. -1.
</event>
<event>
 8    1  0.1204770E+005  0.1043930E+01  0.7957747E-01            NaN
         13   -1    0    0    0    0  0.00000000000E+00  0.00000000000E+00  0.74505805969E-08  0.10566000000E+00  0.10566000000E+00 0.  1.
     999900   -1    0    0    0    0 -0.00000000000E+00 -0.00000000000E+00 -0.74505805969E-08  0.93827000000E+00  0.93827000000E+00 0.  1.
     999902    2    1    2    0    0  0.25068617159E-02 -0.13853402933E-01  0.13129618389E-02  0.10297905164E+01  0.10296934411E+01 0.  0.
     999903    2    3    3    0    0 -0.84887479673E-01 -0.40255376231E-01  0.10084755843E+00  0.13948609034E+00  0.21442010963E-01 0.  0.
         14    1    1    2    0    0 -0.25068617159E-02  0.13853402933E-01 -0.13129618389E-02  0.14139483628E-01  0.00000000000E+00 0.  1.
     999901    1    3    3    0    0  0.87394341389E-01  0.26401973298E-01 -0.99534596595E-01  0.89030442604E+00  0.88000000000E+00 0.  1.
        -11    1    4    4    0    0 -0.16214544590E-01 -0.16629205359E-01  0.18574285979E-01  0.29744027094E-01  0.51100000000E-03 0. -1.
         11    1    4    4    0    0 -0.68672935083E-01 -0.23626170872E-01  0.82273272455E-01  0.10974206324E+00  0.51100000000E-03 0.  1.
</event>
<event>
 8    1  0.1204770E+005  0.1043930E+01  0.7957747E-01            NaN
         13   -1    0    0    0    0  0.00000000000E+00  0.00000000000E+00  0.74505805969E-08  0.10566000000E+00  0.10566000000E+00 0.  1.
     999900   -1    0    0    0    0 -0.00000000000E+00 -0.00000000000E+00 -0.74505805969E-08  0.93827000000E+00  0.93827000000E+00 0. -1.
     999902    2    1    2    0    0 -0.14513035411E-02 -0.22343058581E-01  0.90680680831E-02  0.10197732534E+01  0.10194870965E+01 0.  0.
     999903    2    3    3    0    0 -0.28831588063E-02 -0.12365655233E+00  0.45463209960E-01  0.13321187334E+00  0.19474193138E-01 0.  0.
         14    1    1    2    0    0  0.14513035411E-02  0.22343058581E-01 -0.90680680831E-02  0.24156746625E-01  0.00000000000E+00 0.  1.
     999901    1    3    3    0    0  0.14318552651E-02  0.10131349375E+00 -0.36395141877E-01  0.88656138004E+00  0.88000000000E+00 0. -1.
        -11    1    4    4    0    0 -0.13039087751E-02 -0.67946001410E-01  0.14633182479E-01  0.69517986422E-01  0.51100000000E-03 0.  1.
         11    1    4    4    0    0 -0.15792500312E-02 -0.55710550922E-01  0.30830027481E-01  0.63693886914E-01  0.51100000000E-03 0. -1.
</event>
<event>
 8    1  0.1204770E+005  0.1043930E+01  0.7957747E-01            NaN
         13   -1    0    0    0    0  0.00000000000E+00  0.00000000000E+00  0.74505805969E-08  0.10566000000E+00  0.10566000000E+00 0. -1.
     999900   -1    0    0    0    0 -0.00000000000E+00 -0.00000000000E+00 -0.74505805969E-08  0.93827000000E+00  0.93827000000E+00 0.  1.
     999902    2    1    2    0    0  0.23682145023E-01  0.14506966976E-02  0.38125436432E-02  0.10198991032E+01  0.10196159555E+01 0.  0.
     999903    2    3    3    0    0  0.10197908440E+00 -0.81297727123E-01 -0.25312536893E-02  0.13253336339E+00  0.23444211988E-01 0.  0.
         14    1    1    2    0    0 -0.23682145023E-01 -0.14506966976E-02 -0.38125436432E-02  0.24030896838E-01  0.00000000000E+00 0. -1.
     999901    1    3    3    0    0 -0.78296939374E-01  0.82748423821E-01  0.63437973325E-02  0.88736573977E+00  0.88000000000E+00 0.  1.
        -11    1    4    4    0    0  0.37430861305E-01 -0.16135845758E-01  0.38369330682E-03  0.40765711546E-01  0.51100000000E-03 0. -1.
         11    1    4    4    0    0  0.64548223093E-01 -0.65161881365E-01 -0.29149469962E-02  0.91767651841E-01  0.51100000000E-03 0.  1.
</event>
<event>
 8    1  0.1204770E+005  0.1043930E+01  0.7957747E-01            NaN
         13   -1    0    0    0    0  0.00000000000E+00  0.00000000000E+00  0.74505805969E-08  0.10566000000E+00  0.10566000000E+00 0.  1.
     999900   -1    0    0    0    0 -0.00000000000E+00 -0.00000000000E+00 -0.74505805969E-08  0.93827000000E+00  0.93827000000E+00 0.  1.
     999902    2    1    2    0    0  0.18066699850E-01  0.12568540439E-01  0.34636646829E-02  0.10216506188E+01  0.10214076640E+01 0.  0.
     999903    2    3    3    0    0 -0.31029809733E-01 -0.48040294442E-01  0.11517682696E+00  0.13116551017E+00  0.25845127360E-01 0.  0.
         14    1    1    2    0    0 -0.18066699850E-01 -0.12568540439E-01 -0.34636646829E-02  0.22279381169E-01  0.00000000000E+00 0. -1.
     999901    1    3    3    0    0  0.49096509583E-01  0.60608834881E-01 -0.11171316228E+00  0.89048510866E+00  0.88000000000E+00 0.  1.
        -11    1    4    4    0    0 -0.31827537074E-01 -0.46087411388E-01  0.90758267390E-01  0.10665067194E+00  0.51100000000E-03 0.  1.
         11    1    4    4    0    0  0.79772734048E-03 -0.19528830539E-02  0.24418559568E-01  0.24514838232E-01  0.51100000000E-03 0. -1.
</event>
<event>
 8    1  0.1204770E+005  0.1043930E+01  0.7957747E-01            NaN
         13   -1    0    0    0    0  0.00000000000E+00  0.00000000000E+00  0.74505805969E-08  0.10566000000E+00  0.10566000000E+00 0.  1.
     999900   -1    0    0    0    0 -0.00000000000E+00 -0.00000000000E+00 -0.74505805969E-08  0.93827000000E+00  0.93827000000E+00 0. -1.
     999902    2    1    2    0    0 -0.42475337523E-02  0.12737659285E-01 -0.19206801392E-01  0.10204951813E+01  0.10202260653E+01 0.  0.
     999903    2    3    3    0    0  0.12638164912E+00 -0.19627569313E-01  0.10059272574E-01  0.12978310970E+00  0.19618967551E-01 0.  0.
         14    1    1    2    0    0  0.42475337523E-02 -0.12737659285E-01  0.19206801392E-01  0.23434818684E-01  0.00000000000E+00 0.  1.
     999901    1    3    3    0    0 -0.13062918287E+00  0.32365228599E-01 -0.29266073966E-01  0.89071207162E+00  0.88000000000E+00 0. -1.
        -11    1    4    4    0    0  0.88766456050E-01 -0.51256137803E-02  0.39286221543E-02  0.89002532713E-01  0.51100000000E-03 0. -1.
         11    1    4    4    0    0  0.37615193067E-01 -0.14501955533E-01  0.61306504200E-02  0.40780576986E-01  0.51100000000E-03 0.  1.
</event>
<event>
 8    1  0.1204770E+005  0.1043930E+01  0.7957747E-01            NaN
         13   -1    0    0    0    0  0.00000000000E+00  0.00000000000E+00  0.74505805969E-08  0.10566000000E+00  0.10566000000E+00 0.  1.
     999900   -1    0    0    0    0 -0.00000000000E+00 -0.00000000000E+00 -0.74505805969E-08  0.93827000000E+00  0.93827000000E+00 0. -1.
     999902    2    1    2    0    0 -0.15348384925E-01 -0.18091208482E-01  0.31074869010E-02  0.10200025844E+01  0.10197218988E+01 0.  0.
     999903    2    3    3    0    0 -0.62957829658E-01 -0.88479283827E-01  0.74002619554E-01  0.13307121148E+00  0.20959189902E-01 0.  0.
         14    1    1    2    0    0  0.15348384925E-01  0.18091208482E-01 -0.31074869010E-02  0.23927415636E-01  0.00000000000E+00 0. -1.
     999901    1    3    3    0    0  0.47609444732E-01  0.70388075344E-01 -0.70895132653E-01  0.88693137289E+00  0.88000000000E+00 0. -1.
        -11    1    4    4    0    0 -0.24207883597E-01 -0.43999265984E-01  0.44550698419E-01  0.67134066509E-01  0.51100000000E-03 0.  1.
         11    1    4    4    0    0 -0.38749946061E-01 -0.44480017843E-01  0.29451921135E-01  0.65937144968E-01  0.51100000000E-03 0. -1.
</event>
<event>
 8    1  0.1204770E+005  0.1043930E+01  0.7957747E-01            NaN
         13   -1    0    0    0    0  0.00000000000E+00  0.00000000000E+00  0.74505805969E-08  0.10566000000E+00  0.10566000000E+00 0.  1.
     999900   -1    0    0    0    0 -0.00000000000E+00 -0.00000000000E+00 -0.74505805969E-08  0.93827000000E+00  0.93827000000E+00 0.  1.
     999902    2    1    2    0    0 -0.12593193947E-01 -0.22252224423E-01  0.25772741239E-02  0.10182318995E+01  0.10179075640E+01 0.  0.
     999903    2    3    3    0    0  0.27601369688E-01 -0.55269455767E-01  0.11241114500E+00  0.12987993117E+00  0.20395652724E-01 0.  0.
         14    1    1    2    0    0  0.12593193947E-01  0.22252224423E-01 -0.25772741239E-02  0.25698100465E-01  0.00000000000E+00 0.  1.
     999901    1    3    3    0    0 -0.40194563635E-01  0.33017231343E-01 -0.10983387088E+00  0.88835196837E+00  0.88000000000E+00 0.  1.
        -11    1    4    4    0    0  0.87177311352E-02 -0.39276335725E-01  0.66621191183E-01  0.77828488484E-01  0.51100000000E-03 0.  1.
         11    1    4    4    0    0  0.18883638552E-01 -0.15993120042E-01  0.45789953819E-01  0.52051442684E-01  0.51100000000E-03 0. -1.
</event>
<event>
 8    1  0.1204770E+005  0.1043930E+01  0.7957747E-01            NaN
         13   -1    0    0    0    0  0.00000000000E+00  0.00000000000E+00  0.74505805969E-08  0.10566000000E+00  0.10566000000E+00 0. -1.
     999900   -1    0    0    0    0 -0.00000000000E+00 -0.00000000000E+00 -0.74505805969E-08  0.93827000000E+00  0.93827000000E+00 0. -1.
     999902    2    1    2    0    0 -0.14324971622E-01 -0.37390299817E-02  0.18094854031E-01  0.10205503315E+01  0.10202824953E+01 0.  0.
     999903    2    3    3    0    0  0.32713770687E-02 -0.47795218434E-01  0.12284741640E+00  0.13306868179E+00  0.17908141850E-01 0.  0.
         14    1    1    2    0    0  0.14324971622E-01  0.37390299817E-02 -0.18094854031E-01  0.23379668509E-01  0.00000000000E+00 0.  1.
     999901    1    3    3    0    0 -0.17596348691E-01  0.44056188452E-01 -0.10475256237E+00  0.88748164970E+00  0.88000000000E+00 0. -1.
        -11    1    4    4    0    0  0.71600385113E-02 -0.17900951924E-01  0.65472649149E-01  0.68254224330E-01  0.51100000000E-03 0.  1.
         11    1    4    4    0    0 -0.38886614426E-02 -0.29894266510E-01  0.57374767252E-01  0.64814457463E-01  0.51100000000E-03 0. -1.
</event>
<event>
 8    1  0.1204770E+005  0.1043930E+01  0.7957747E-01            NaN
         13   -1    0    0    0    0  0.00000000000E+00  0.00000000000E+00  0.74505805969E-08  0.10566000000E+00  0.10566000000E+00 0. -1.
     999900   -1    0    0    0    0 -0.00000000000E+00 -0.00000000000E+00 -0.74505805969E-08  0.93827000000E+00  0.93827000000E+00 0.  1.
     999902    2    1    2    0    0  0.53470560653E-02 -0.13376565796E-01 -0.19138851860E-01  0.10199754770E+01  0.10196941475E+01 0.  0.
     999903    2    3    3    0    0  0.55967570449E-02  0.92630880273E-01 -0.89827305395E-01  0.13079917366E+00  0.20680313515E-01 0.  0.
         14    1    1    2    0    0 -0.53470560653E-02  0.13376565796E-01  0.19138851860E-01  0.23954522988E-01  0.00000000000E+00 0. -1.
     999901    1    3    3    0    0 -0.24970097964E-03 -0.10600744607E+00  0.70688453534E-01  0.88917630335E+00  0.88000000000E+00 0. -1.
        -11    1    4    4    0    0  0.86804739933E-03  0.53979496808E-01 -0.38223576135E-01  0.66150150985E-01  0.51100000000E-03 0. -1.
         11    1    4    4    0    0  0.47287096456E-02  0.38651383466E-01 -0.51603729260E-01  0.64649022678E-01  0.51100000000E-03 0.  1.
</event>
<event>
 8    1  0.1204770E+005  0.1043930E+01  0.7957747E-01            NaN
         13   -1    0    0    0    0  0.00000000000E+00  0.00000000000E+00  0.74505805969E-08  0.10566000000E+00  0.10566000000E+00 0. -1.
     999900   -1    0    0    0    0 -0.00000000000E+00 -0.00000000000E+00 -0.74505805969E-08  0.93827000000E+00  0.93827000000E+00 0. -1.
     999902    2    1    2    0    0 -0.10996553340E-01 -0.19812460353E-01  0.54721442015E-02  0.10206190126E+01  0.10203527659E+01 0.  0.
     999903    2    3    3    0    0  0.14941790177E-01 -0.25311512349E-01  0.12696665376E+00  0.13187610655E+00  0.20170437761E-01 0.  0.
         14    1    1    2    0    0  0.10996553340E-01  0.19812460353E-01 -0.54721442015E-02  0.23310987382E-01  0.00000000000E+00 0.  1.
     999901    1    3    3    0    0 -0.25938343516E-01  0.54990519965E-02 -0.12149450956E+00  0.88874290607E+00  0.88000000000E+00 0. -1.
        -11    1    4    4    0    0  0.18010180507E-01 -0.11244849113E-01  0.74817702392E-01  0.77773793437E-01  0.51100000000E-03 0. -1.
         11    1    4    4    0    0 -0.30683903302E-02 -0.14066663236E-01  0.52148951370E-01  0.54102313110E-01  0.51100000000E-03 0.  1.
</event>
<event>
 8    1  0.1204770E+005  0.1043930E+01  0.7957747E-01            NaN
         13   -1    0    0    0    0  0.00000000000E+00  0.00000000000E+00  0.74505805969E-08  0.10566000000E+00  0.10566000000E+00 0. -1.
     999900   -1    0    0    0    0 -0.00000000000E+00 -0.00000000000E+00 -0.74505805969E-08  0.93827000000E+00  0.93827000000E+00 0.  1.
     999902    2    1    2    0    0 -0.16513228875E-01  0.15501959142E-01  0.10303612427E-01  0.10190470361E+01  0.10187431962E+01 0.  0.
     999903    2    3    3    0    0  0.41625905517E-02 -0.10558096697E+00  0.70635424945E-01  0.12846941895E+00  0.18717921965E-01 0.  0.
         14    1    1    2    0    0  0.16513228875E-01 -0.15501959142E-01 -0.10303612427E-01  0.24882963934E-01  0.00000000000E+00 0.  1.
     999901    1    3    3    0    0 -0.20675819427E-01  0.12108292611E+00 -0.60331812519E-01  0.89057761711E+00  0.88000000000E+00 0.  1.
        -11    1    4    4    0    0 -0.33244816165E-02 -0.79732563050E-01  0.46781492196E-01  0.92504610272E-01  0.51100000000E-03 0.  1.
         11    1    4    4    0    0  0.74870721682E-02 -0.25848403917E-01  0.23853932749E-01  0.35964808679E-01  0.51100000000E-03 0. -1.
</event>
<event>
 8    1  0.1204770E+005  0.1043930E+01  0.7957747E-01            NaN
         13   -1    0    0    0    0  0.00000000000E+00  0.00000000000E+00  0.74505805969E-08  0.10566000000E+00  0.10566000000E+00 0. -1.
     999900   -1    0    0    0    0 -0.00000000000E+00 -0.00000000000E+00 -0.74505805969E-08  0.93827000000E+00  0.93827000000E+00 0. -1.
     999902    2    1    2    0    0  0.15967445754E-01 -0.17789410417E-01 -0.31733602963E-04  0.10200255349E+01  0.10197453939E+01 0.  0.
     999903    2    3    3    0    0 -0.64076349336E-01 -0.41648813996E-01 -0.10331832416E+00  0.13005677132E+00  0.19992133655E-01 0.  0.
         14    1    1    2    0    0 -0.15967445754E-01  0.17789410417E-01  0.31733602963E-04  0.23904465146E-01  0.00000000000E+00 0.  1.
     999901    1    3    3    0    0  0.80043795090E-01  0.23859403579E-01  0.10328659056E+00  0.88996876353E+00  0.88000000000E+00 0.  1.
        -11    1    4    4    0    0 -0.46070115822E-01 -0.22836608993E-01 -0.79980854825E-01  0.95085038475E-01  0.51100000000E-03 0. -1.
         11    1    4    4    0    0 -0.18006233514E-01 -0.18812205003E-01 -0.23337469336E-01  0.34971732849E-01  0.51100000000E-03 0.  1.
</event>
<event>
 8    1  0.1204770E+005  0.1043930E+01  0.7957747E-01            NaN
         13   -1    0    0    0    0  0.00000000000E+00  0.00000000000E+00  0.74505805969E-08  0.10566000000E+00  0.10566000000E+00 0. -1.
     999900   -1    0    0    0    0 -0.00000000000E+00 -0.00000000000E+00 -0.74505805969E-08  0.93827000000E+00  0.93827000000E+00 0.  1.
     999902    2    1    2    0    0  0.19559781696E-01  0.16038794168E-01  0.25206192937E-02  0.10185098997E+01  0.10181926312E+01 0.  0.
     999903    2    3    3    0    0  0.10881829833E-01  0.69307306745E-01  0.10818923249E+00  0.13054667010E+00  0.20386418459E-01 0.  0.
         14    1    1    2    0    0 -0.19559781696E-01 -0.16038794168E-01 -0.25206192937E-02  0.25420100314E-01  0.00000000000E+00 0.  1.
     999901    1    3    3    0    0  0.86779518632E-02 -0.53268512578E-01 -0.10566861320E+00  0.88796322959E+00  0.88000000000E+00 0.  1.
        -11    1    4    4    0    0  0.14643983078E-01  0.28233103798E-01  0.47120829589E-01  0.56852335859E-01  0.51100000000E-03 0. -1.
         11    1    4    4    0    0 -0.37621532448E-02  0.41074202947E-01  0.61068402906E-01  0.73694334241E-01  0.51100000000E-03 0.  1.
</event>
<event>
 8    1  0.1204770E+005  0.1043930E+01  0.7957747E-01            NaN
         13   -1    0    0    0    0  0.00000000000E+00  0.00000000000E+00  0.74505805969E-08  0.10566000000E+00  0.10566000000E+00 0. -1.
     999900   -1    0    0    0    0 -0.00000000000E+00 -0.00000000000E+00 -0.74505805969E-08  0.93827000000E+00  0.93827000000E+00 0. -1.
     999902    2    1    2    0    0 -0.11139143384E-01  0.80538228684E-02  0.19471439034E-01  0.10200955393E+01  0.10198170561E+01 0.  0.
     999903    2    3    3    0    0 -0.93490081697E-01 -0.89111524033E-01 -0.41836357985E-02  0.13061122566E+00  0.18987637226E-01 0.  0.
         14    1    1    2    0    0  0.11139143384E-01 -0.80538228684E-02 -0.19471439034E-01  0.23834460686E-01  0.00000000000E+00 0.  1.
     999901    1    3    3    0    0  0.82350938313E-01  0.97165346901E-01  0.23655074833E-01  0.88948431366E+00  0.88000000000E+00 0.  1.
        -11    1    4    4    0    0 -0.47594300265E-01 -0.46224414643E-01 -0.11608814838E-01  0.67356808340E-01  0.51100000000E-03 0. -1.
         11    1    4    4    0    0 -0.45895781433E-01 -0.42887109390E-01  0.74251790398E-02  0.63254417315E-01  0.51100000000E-03 0.  1.
</event>
<event>
 8    1  0.1204770E+005  0.1043930E+01  0.7957747E-01            NaN
         13   -1    0    0    0    0  0.00000000000E+00  0.00000000000E+00  0.74505805969E-08  0.10566000000E+00  0.10566000000E+00 0. -1.
     999900   -1    0    0    0    0 -0.00000000000E+00 -0.00000000000E+00 -0.74505805969E-08  0.93827000000E+00  0.93827000000E+00 0. -1.
     999902    2    1    2    0    0 -0.12579770367E-01  0.13886102626E-01 -0.15929711570E-01  0.10193367046E+01  0.10190399831E+01 0.  0.
     999903    2    3    3    0    0  0.49926407419E-01  0.11817349092E+00 -0.17301999331E-01  0.13097598686E+00  0.19943165257E-01 0.  0.
         14    1    1    2    0    0  0.12579770367E-01 -0.13886102626E-01  0.15929711570E-01  0.24593295414E-01  0.00000000000E+00 0.  1.
     999901    1    3    3    0    0 -0.62506177785E-01 -0.10428738829E+00  0.13722877605E-02  0.88836071772E+00  0.88000000000E+00 0. -1.
        -11    1    4    4    0    0  0.17040721305E-01  0.63637418846E-01 -0.12943949994E-01  0.67141002543E-01  0.51100000000E-03 0. -1.
         11    1    4    4    0    0  0.32885686114E-01  0.54536072072E-01 -0.43580493369E-02  0.63834984321E-01  0.51100000000E-03 0.  1.
</event>
<event>
 8    1  0.1204770E+005  0.1043930E+01  0.7957747E-01            NaN
         13   -1    0    0    0    0  0.00000000000E+00  0.00000000000E+00  0.74505805969E-08  0.10566000000E+00  0.10566000000E+00 0.  1.
     999900   -1    0    0    0    0 -0.00000000000E+00 -0.00000000000E+00 -0.74505805969E-08  0.93827000000E+00  0.93827000000E+00 0.  1.
     999902    2    1    2    0    0 -0.94280890247E-03 -0.14317940614E-01  0.19822522927E-01  0.10194591045E+01  0.10191653649E+01 0.  0.
     999903    2    3    3    0    0 -0.57938569659E-01  0.11253931023E+00  0.85127949677E-02  0.12846573258E+00  0.20223811894E-01 0.  0.
         14    1    1    2    0    0  0.94280890247E-03  0.14317940614E-01 -0.19822522927E-01  0.24470895514E-01  0.00000000000E+00 0. -1.
     999901    1    3    3    0    0  0.56995760757E-01 -0.12685725084E+00  0.11309727960E-01  0.89099337191E+00  0.88000000000E+00 0.  1.
        -11    1    4    4    0    0 -0.75957029407E-02  0.30980142933E-01  0.67227361300E-02  0.32602457904E-01  0.51100000000E-03 0.  1.
         11    1    4    4    0    0 -0.50342866718E-01  0.81559167297E-01  0.17900588377E-02  0.95863274674E-01  0.51100000000E-03 0. -1.
</event>
<event>
 8    1  0.1204770E+005  0.1043930E+01  0.7957747E-01            NaN
         13   -1    0    0    0    0  0.00000000000E+00  0.00000000000E+00  0.74505805969E-08  0.10566000000E+00  0.10566000000E+00 0.  1.
     999900   -1    0    0    0    0 -0.00000000000E+00 -0.00000000000E+00 -0.74505805969E-08  0.93827000000E+00  0.93827000000E+00 0.  1.
     999902    2    1    2    0    0  0.61806658364E-02 -0.14173167230E-02 -0.19923766717E-01  0.10230214874E+01  0.10228078010E+01 0.  0.
     999903    2    3    3    0    0 -0.11427666262E+00 -0.56906720020E-01 -0.31921454924E-01  0.13300295597E+00  0.19320367699E-01 0.  0.
         14    1    1    2    0    0 -0.61806658364E-02  0.14173167230E-02  0.19923766717E-01  0.20908512550E-01  0.00000000000E+00 0.  1.
     999901    1    3    3    0    0  0.12045732846E+00  0.55489403297E-01  0.11997688207E-01  0.89001853148E+00  0.88000000000E+00 0. -1.
        -11    1    4    4    0    0 -0.57608667937E-01 -0.30296745052E-01 -0.26088342135E-01  0.70124989116E-01  0.51100000000E-03 0. -1.
         11    1    4    4    0    0 -0.56667994687E-01 -0.26609974968E-01 -0.58331127885E-02  0.62877966852E-01  0.51100000000E-03 0.  1.
</event>
<event>
 8    1  0.1204770E+005  0.1043930E+01  0.7957747E-01            NaN
         13   -1    0    0    0    0  0.00000000000E+00  0.00000000000E+00  0.74505805969E-08  0.10566000000E+00  0.10566000000E+00 0.  1.
     999900   -1    0    0    0    0 -0.00000000000E+00 -0.00000000000E+00 -0.74505805969E-08  0.93827000000E+00  0.93827000000E+00 0. -1.
     999902    2    1    2    0    0  0.23262317311E-01  0.12985368674E-02  0.32597781858E-02  0.10204045296E+01  0.10201333032E+01 0.  0.
     999903    2    3    3    0    0 -0.53135023809E-01  0.77408268081E-01 -0.86965717536E-01  0.12924243153E+00  0.18033284777E-01 0.  0.
         14    1    1    2    0    0 -0.23262317311E-01 -0.12985368674E-02 -0.32597781858E-02  0.23525470420E-01  0.00000000000E+00 0. -1.
     999901    1    3    3    0    0  0.76397341119E-01 -0.76109731214E-01  0.90225495722E-01  0.89116209805E+00  0.88000000000E+00 0.  1.
        -11    1    4    4    0    0 -0.47918062720E-01  0.56667416763E-01 -0.67417349636E-01  0.10026313884E+00  0.51100000000E-03 0. -1.
         11    1    4    4    0    0 -0.52169610881E-02  0.20740851318E-01 -0.19548367900E-01  0.28979292692E-01  0.51100000000E-03 0.  1.
</event>
<event>
 8    1  0.1204770E+005  0.1043930E+01  0.7957747E-01            NaN
         13   -1    0    0    0    0  0.00000000000E+00  0.00000000000E+00  0.74505805969E-08  0.10566000000E+00  0.10566000000E+00 0. -1.
     999900   -1    0    0    0    0 -0.00000000000E+00 -0.00000000000E+00 -0.74505805969E-08  0.93827000000E+00  0.93827000000E+00 0.  1.
     999902    2    1    2    0    0 -0.15497466380E-01  0.61142105498E-02  0.92017231333E-02  0.10248977447E+01  0.10247210158E+01 0.  0.
     999903    2    3    3    0    0 -0.90994022310E-01 -0.75219307013E-01 -0.62429583976E-01  0.13504050038E+00  0.20015682432E-01 0.  0.
         14    1    1    2    0    0  0.15497466380E-01 -0.61142105498E-02 -0.92017231333E-02  0.19032255344E-01  0.00000000000E+00 0. -1.
     999901    1    3    3    0    0  0.75496555929E-01  0.81333517563E-01  0.71631307109E-01  0.88985724428E+00  0.88000000000E+00 0. -1.
        -11    1    4    4    0    0 -0.24053603355E-01 -0.24939049177E-01 -0.27855785719E-01  0.44460520996E-01  0.51100000000E-03 0.  1.
         11    1    4    4    0    0 -0.66940418954E-01 -0.50280257836E-01 -0.34573798257E-01  0.90579979382E-01  0.51100000000E-03 0. -1.
</event>
<event>
 8    1  0.1204770E+005  0.1043930E+01  0.7957747E-01            NaN
         13   -1    0    0    0    0  0.00000000000E+00  0.00000000000E+00  0.74505805969E-08  0.10566000000E+00  0.10566000000E+00 0.  1.
     999900   -1    0    0    0    0 -0.00000000000E+00 -0.00000000000E+00 -0.74505805969E-08  0.93827000000E+00  0.93827000000E+00 0. -1.
     999902    2    1    2    0    0  0.11099054782E-01 -0.67405452459E-02 -0.20372501451E-01  0.10197708861E+01  0.10194846725E+01 0.  0.
     999903    2    3    3    0    0  0.68892693245E-01  0.29812910609E-02  0.10625382333E+00  0.12877770722E+00  0.23210592947E-01 0.  0.
         14    1    1    2    0    0 -0.11099054782E-01  0.67405452459E-02  0.20372501451E-01  0.24159113863E-01  0.00000000000E+00 0.  1.
     999901    1    3    3    0    0 -0.57793638463E-01 -0.97218363068E-02 -0.12662632478E+00  0.89099317892E+00  0.88000000000E+00 0. -1.
        -11    1    4    4    0    0  0.19006392507E-01  0.10923254084E-01  0.26847433080E-01  0.34664192186E-01  0.51100000000E-03 0. -1.
         11    1    4    4    0    0  0.49886300738E-01 -0.79419630234E-02  0.79406390254E-01  0.94113515034E-01  0.51100000000E-03 0.  1.
</event>
<event>
 8    1  0.1204770E+005  0.1043930E+01  0.7957747E-01            NaN
         13   -1    0    0    0    0  0.00000000000E+00  0.00000000000E+00  0.74505805969E-08  0.10566000000E+00  0.10566000000E+00 0. -1.
     999900   -1    0    0    0    0 -0.00000000000E+00 -0.00000000000E+00 -0.74505805969E-08  0.93827000000E+00  0.93827000000E+00 0.  1.
     999902    2    1    2    0    0 -0.18329855886E-01 -0.18345423737E-02  0.14995293234E-01  0.10201769374E+01  0.10199003754E+01 0.  0.
     999903    2    3    3    0    0 -0.40544546993E-01  0.11610718065E+00 -0.38951436464E-01  0.13039382218E+00  0.18989385707E-01 0.  0.
         14    1    1    2    0    0  0.18329855886E-01  0.18345423737E-02 -0.14995293234E-01  0.23753062575E-01  0.00000000000E+00 0.  1.
     999901    1    3    3    0    0  0.22214691107E-01 -0.11794172303E+00  0.53946729699E-01  0.88978311525E+00  0.88000000000E+00 0. -1.
        -11    1    4    4    0    0 -0.65654404289E-02  0.30446606274E-01 -0.23601445766E-02  0.31239914293E-01  0.51100000000E-03 0.  1.
         11    1    4    4    0    0 -0.33979106564E-01  0.85660574380E-01 -0.36591291887E-01  0.99153907885E-01  0.51100000000E-03 0. -1.
</event>
<event>
 8    1  0.1204770E+005  0.1043930E+01  0.7957747E-01            NaN
         13   -1    0    0    0    0  0.00000000000E+00  0.00000000000E+00  0.74505805969E-08  0.10566000000E+00  0.10566000000E+00 0.  1.
     999900   -1    0    0    0    0 -0.00000000000E+00 -0.00000000000E+00 -0.74505805969E-08  0.93827000000E+00  0.93827000000E+00 0. -1.
     999902    2    1    2    0    0  0.65618140890E-02 -0.13077317169E-01 -0.18320408684E-01  0.10204840835E+01  0.10202147095E+01 0.  0.
     999903    2    3    3    0    0  0.31505837677E-01  0.33376312260E-02 -0.12779391431E+00  0.13319827647E+00  0.20167764581E-01 0.  0.
         14    1    1    2    0    0 -0.65618140890E-02  0.13077317169E-01  0.18320408684E-01  0.23445916549E-01  0.00000000000E+00 0.  1.
     999901    1    3    3    0    0 -0.24944023588E-01 -0.16414948395E-01  0.10947350563E+00  0.88728580699E+00  0.88000000000E+00 0.  1.
        -11    1    4    4    0    0 -0.25485663422E-02  0.17908643925E-02 -0.16508394372E-01  0.16807456423E-01  0.51100000000E-03 0.  1.
         11    1    4    4    0    0  0.34054404019E-01  0.15467668335E-02 -0.11128551994E+00  0.11639082004E+00  0.51100000000E-03 0. -1.
</event>
<event>
 8    1  0.1204770E+005  0.1043930E+01  0.7957747E-01            NaN
         13   -1    0    0    0    0  0.00000000000E+00  0.00000000000E+00  0.74505805969E-08  0.10566000000E+00  0.10566000000E+00 0.  1.
     999900   -1    0    0    0    0 -0.00000000000E+00 -0.00000000000E+00 -0.74505805969E-08  0.93827000000E+00  0.93827000000E+00 0. -1.
     999902    2    1    2    0    0  0.75965542265E-02  0.46864856041E-02 -0.21969710915E-01  0.10202163124E+01  0.10199406772E+01 0.  0.
     999903    2    3    3    0    0  0.33621118739E-01  0.86429497001E-01  0.87878196023E-01  0.12924731149E+00  0.19541049450E-01 0.  0.
         14    1    1    2    0    0 -0.75965542265E-02 -0.46864856041E-02  0.21969710915E-01  0.23713687632E-01  0.00000000000E+00 0.  1.
     999901    1    3    3    0    0 -0.26024564512E-01 -0.81743011397E-01 -0.10984790694E+00  0.89096900088E+00  0.88000000000E+00 0. -1.
        -11    1    4    4    0    0  0.16396285627E-02  0.67068590560E-02  0.15291472095E-01  0.16785725485E-01  0.51100000000E-03 0. -1.
         11    1    4    4    0    0  0.31981490176E-01  0.79722637945E-01  0.72586723927E-01  0.11246158600E+00  0.51100000000E-03 0.  1.
</event>
<event>
 8    1  0.1204770E+005  0.1043930E+01  0.7957747E-01            NaN
         13   -1    0    0    0    0  0.00000000000E+00  0.00000000000E+00  0.74505805969E-08  0.10566000000E+00  0.10566000000E+00 0. -1.
     999900   -1    0    0    0    0 -0.00000000000E+00 -0.00000000000E+00 -0.74505805969E-08  0.93827000000E+00  0.93827000000E+00 0.  1.
     999902    2    1    2    0    0 -0.21218703912E-01 -0.36348647138E-02  0.11786693155E-01  0.10193867367E+01  0.10190912360E+01 0.  0.
     999903    2    3    3    0    0 -0.71273217177E-01 -0.37769052549E-01 -0.10029198637E+00  0.13021171037E+00  0.19754345600E-01 0.  0.
         14    1    1    2    0    0  0.21218703912E-01  0.36348647138E-02 -0.11786693155E-01  0.24543263286E-01  0.00000000000E+00 0.  1.
     999901    1    3    3    0    0  0.50054513264E-01  0.34134187835E-01  0.11207867952E+00  0.88917502635E+00  0.88000000000E+00 0. -1.
        -11    1    4    4    0    0 -0.20258994410E-01 -0.20045236340E-02 -0.30286558932E-01  0.36496325054E-01  0.51100000000E-03 0. -1.
         11    1    4    4    0    0 -0.51014222767E-01 -0.35764528915E-01 -0.70005427435E-01  0.93715385313E-01  0.51100000000E-03 0.  1.
</event>
<event>
 8    1  0.1204770E+005  0.1043930E+01  0.7957747E-01            NaN
         13   -1    0    0    0    0  0.00000000000E+00  0.00000000000E+00  0.74505805969E-08  0.10566000000E+00  0.10566000000E+00 0. -1.
     999900   -1    0    0    0    0 -0.00000000000E+00 -0.00000000000E+00 -0.74505805969E-08  0.93827000000E+00  0.93827000000E+00 0. -1.
     999902    2    1    2    0    0 -0.75254865918E-02 -0.12709872522E-01 -0.17141403663E-01  0.10213025492E+01  0.10210518574E+01 0.  0.
     999903    2    3    3    0    0 -0.11676351540E+00  0.56801526601E-01 -0.10817317498E-01  0.13180562648E+00  0.19889114173E-01 0.  0.
         14    1    1    2    0    0  0.75254865918E-02  0.12709872522E-01  0.17141403663E-01  0.22627450751E-01  0.00000000000E+00 0. -1.
     999901    1    3    3    0    0  0.10923802880E+00 -0.69511399122E-01 -0.63240861648E-02  0.88949692277E+00  0.88000000000E+00 0.  1.
        -11    1    4    4    0    0 -0.92991463321E-01  0.42176837214E-01 -0.69781003086E-03  0.10211290765E+00  0.51100000000E-03 0. -1.
         11    1    4    4    0    0 -0.23772052075E-01  0.14624689387E-01 -0.10119507467E-01  0.29692718837E-01  0.51100000000E-03 0.  1.
</event>
<event>
 8    1  0.1204770E+005  0.1043930E+01  0.7957747E-01            NaN
         13   -1    0    0    0    0  0.00000000000E+00  0.00000000000E+00  0.74505805969E-08  0.10566000000E+00  0.10566000000E+00 0.  1.
     999900   -1    0    0    0    0 -0.00000000000E+00 -0.00000000000E+00 -0.74505805969E-08  0.93827000000E+00  0.93827000000E+00 0. -1.
     999902    2    1    2    0    0  0.16937660354E-01  0.18216182568E-01 -0.65664452677E-02  0.10182039072E+01  0.10178788557E+01 0.  0.
     999903    2    3    3    0    0  0.10681645455E-01  0.12685827610E+00 -0.23999523832E-01  0.13132953369E+00  0.21548770518E-01 0.  0.
         14    1    1    2    0    0 -0.16937660354E-01 -0.18216182568E-01  0.65664452677E-02  0.25726092767E-01  0.00000000000E+00 0.  1.
     999901    1    3    3    0    0  0.62560148990E-02 -0.10864209353E+00  0.17433078564E-01  0.88687437354E+00  0.88000000000E+00 0.  1.
        -11    1    4    4    0    0  0.12830781297E-01  0.76311051885E-01 -0.22979608876E-01  0.80723782948E-01  0.51100000000E-03 0.  1.
         11    1    4    4    0    0 -0.21491358425E-02  0.50547224219E-01 -0.10199149561E-02  0.50605750746E-01  0.51100000000E-03 0. -1.
</event>
<event>
 8    1  0.1204770E+005  0.1043930E+01  0.7957747E-01            NaN
         13   -1    0    0    0    0  0.00000000000E+00  0.00000000000E+00  0.74505805969E-08  0.10566000000E+00  0.10566000000E+00 0. -1.
     999900   -1    0    0    0    0 -0.00000000000E+00 -0.00000000000E+00 -0.74505805969E-08  0.93827000000E+00  0.93827000000E+00 0.  1.
     999902    2    1    2    0    0  0.75146177782E-02 -0.10603139836E-01  0.20115656624E-01  0.10199813947E+01  0.10197002059E+01 0.  0.
     999903    2    3    3    0    0  0.32954768291E-01  0.12274858662E+00  0.15861259286E-01  0.12956127806E+00  0.19527236300E-01 0.  0.
         14    1    1    2    0    0 -0.75146177782E-02  0.10603139836E-01 -0.20115656624E-01  0.23948605307E-01  0.00000000000E+00 0.  1.
     999901    1    3    3    0    0 -0.25440150513E-01 -0.13335172645E+00  0.42543973373E-02  0.89042011663E+00  0.88000000000E+00 0. -1.
        -11    1    4    4    0    0  0.10275988478E-01  0.51001938905E-01  0.15584881122E-01  0.54313380965E-01  0.51100000000E-03 0. -1.
         11    1    4    4    0    0  0.22678779814E-01  0.71746647711E-01  0.27637816427E-03  0.75247897096E-01  0.51100000000E-03 0.  1.
</event>
<event>
 8    1  0.1204770E+005  0.1043930E+01  0.7957747E-01            NaN
         13   -1    0    0    0    0  0.00000000000E+00  0.00000000000E+00  0.74505805969E-08  0.10566000000E+00  0.10566000000E+00 0.  1.
     999900   -1    0    0    0    0 -0.00000000000E+00 -0.00000000000E+00 -0.74505805969E-08  0.93827000000E+00  0.93827000000E+00 0. -1.
     999902    2    1    2    0    0  0.95934621603E-02 -0.16712071170E-01  0.16105487469E-01  0.10188159687E+01  0.10185063886E+01 0.  0.
     999903    2    3    3    0    0  0.46003395392E-01 -0.41836192032E-02  0.12156336991E+00  0.13168350383E+00  0.20714179221E-01 0.  0.
         14    1    1    2    0    0 -0.95934621603E-02  0.16712071170E-01 -0.16105487469E-01  0.25114031250E-01  0.00000000000E+00 0. -1.
     999901    1    3    3    0    0 -0.36409933232E-01 -0.12528451967E-01 -0.10545788244E+00  0.88713246492E+00  0.88000000000E+00 0. -1.
        -11    1    4    4    0    0  0.23466846989E-02 -0.19409432186E-02  0.71342794551E-03  0.31692728010E-02  0.51100000000E-03 0. -1.
         11    1    4    4    0    0  0.43656710693E-01 -0.22426759846E-02  0.12084994196E+00  0.12851423103E+00  0.51100000000E-03 0.  1.
</event>
<event>
 8    1  0.1204770E+005  0.1043930E+01  0.7957747E-01            NaN
         13   -1    0    0    0    0  0.00000000000E+00  0.00000000000E+00  0.74505805969E-08  0.10566000000E+00  0.10566000000E+00 0.  1.
     999900   -1    0    0    0    0 -0.00000000000E+00 -0.00000000000E+00 -0.74505805969E-08  0.93827000000E+00  0.93827000000E+00 0. -1.
     999902    2    1    2    0    0 -0.95054468493E-02 -0.10241970488E-01  0.18334652036E-01  0.10208776477E+01  0.10206173429E+01 0.  0.
     999903    2    3    3    0    0 -0.10396162115E+00  0.45305209950E-01  0.66503500583E-01  0.13277422128E+00  0.18592942904E-01 0.  0.
         14    1    1    2    0    0  0.95054468493E-02  0.10241970488E-01 -0.18334652036E-01  0.23052352257E-01  0.00000000000E+00 0. -1.
     999901    1    3    3    0    0  0.94456174306E-01 -0.55547180438E-01 -0.48168848547E-01  0.88810342646E+00  0.88000000000E+00 0. -1.
        -11    1    4    4    0    0 -0.74535998681E-01  0.29568002149E-01  0.55927176234E-01  0.97764983573E-01  0.51100000000E-03 0. -1.
         11    1    4    4    0    0 -0.29425622473E-01  0.15737207801E-01  0.10576324349E-01  0.35009237711E-01  0.51100000000E-03 0.  1.
</event>
<event>
 8    1  0.1204770E+005  0.1043930E+01  0.7957747E-01            NaN
         13   -1    0    0    0    0  0.00000000000E+00  0.00000000000E+00  0.74505805969E-08  0.10566000000E+00  0.10566000000E+00 0. -1.
     999900   -1    0    0    0    0 -0.00000000000E+00 -0.00000000000E+00 -0.74505805969E-08  0.93827000000E+00  0.93827000000E+00 0. -1.
     999902    2    1    2    0    0  0.16184252289E-01  0.17020753696E-01 -0.94749806812E-02  0.10186039001E+01  0.10182890031E+01 0.  0.
     999903    2    3    3    0    0  0.22669629206E-01 -0.56607305811E-02 -0.12684911106E+00  0.13049737700E+00  0.19822019757E-01 0.  0.
         14    1    1    2    0    0 -0.16184252289E-01 -0.17020753696E-01  0.94749806812E-02  0.25326099926E-01  0.00000000000E+00 0.  1.
     999901    1    3    3    0    0 -0.64853769166E-02  0.22681484277E-01  0.11737413038E+00  0.88810652307E+00  0.88000000000E+00 0.  1.
        -11    1    4    4    0    0  0.22058153650E-01 -0.10213358480E-01 -0.85468046386E-01  0.88859005779E-01  0.51100000000E-03 0.  1.
         11    1    4    4    0    0  0.61147555557E-03  0.45526278990E-02 -0.41381064678E-01  0.41638371222E-01  0.51100000000E-03 0. -1.
</event>
<event>
 8    1  0.1204770E+005  0.1043930E+01  0.7957747E-01            NaN
         13   -1    0    0    0    0  0.00000000000E+00  0.00000000000E+00  0.74505805969E-08  0.10566000000E+00  0.10566000000E+00 0. -1.
     999900   -1    0    0    0    0 -0.00000000000E+00 -0.00000000000E+00 -0.74505805969E-08  0.93827000000E+00  0.93827000000E+00 0.  1.
     999902    2    1    2    0    0 -0.17880215553E-01  0.15569139905E-01  0.30240634143E-02  0.10200292639E+01  0.10197492114E+01 0.  0.
     999903    2    3    3    0    0  0.10025662355E+00 -0.25820095005E-01  0.73387396999E-01  0.12839011032E+00  0.19499808173E-01 0.  0.
         14    1    1    2    0    0  0.17880215553E-01 -0.15569139905E-01 -0.30240634143E-02  0.23900736080E-01  0.00000000000E+00 0. -1.
     999901    1    3    3    0    0 -0.11813683910E+00  0.41389234910E-01 -0.70363333585E-01  0.89163915360E+00  0.88000000000E+00 0.  1.
        -11    1    4    4    0    0  0.77864756686E-01 -0.18896628803E-01  0.46202474984E-01  0.92492879345E-01  0.51100000000E-03 0. -1.
         11    1    4    4    0    0  0.22391866861E-01 -0.69234662024E-02  0.27184922014E-01  0.35897230975E-01  0.51100000000E-03 0.  1.
</event>
<event>
 8    1  0.1204770E+005  0.1043930E+01  0.7957747E-01            NaN
         13   -1    0    0    0    0  0.00000000000E+00  0.00000000000E+00  0.74505805969E-08  0.10566000000E+00  0.10566000000E+00 0.  1.
     999900   -1    0    0    0    0 -0.00000000000E+00 -0.00000000000E+00 -0.74505805969E-08  0.93827000000E+00  0.93827000000E+00 0.  1.
     999902    2    1    2    0    0 -0.21088063417E-01  0.52433867640E-02 -0.10348784623E-01  0.10198614133E+01  0.10195773661E+01 0.  0.
     999903    2    3    3    0    0  0.29107118677E-01  0.27489431926E-01 -0.12305695084E+00  0.13097583371E+00  0.20217879267E-01 0.  0.
         14    1    1    2    0    0  0.21088063417E-01 -0.52433867640E-02  0.10348784623E-01  0.24068586718E-01  0.00000000000E+00 0. -1.
     999901    1    3    3    0    0 -0.50195182094E-01 -0.22246045162E-01  0.11270816622E+00  0.88888557957E+00  0.88000000000E+00 0. -1.
        -11    1    4    4    0    0  0.19169998536E-01  0.75610638216E-02 -0.78501458103E-01  0.81162790584E-01  0.51100000000E-03 0.  1.
         11    1    4    4    0    0  0.99371201403E-02  0.19928368105E-01 -0.44555492736E-01  0.49813043131E-01  0.51100000000E-03 0. -1.
</event>
<event>
 8    1  0.1204770E+005  0.1043930E+01  0.7957747E-01            NaN
         13   -1    0    0    0    0  0.00000000000E+00  0.00000000000E+00  0.74505805969E-08  0.10566000000E+00  0.10566000000E+00 0.  1.
     999900   -1    0    0    0    0 -0.00000000000E+00 -0.00000000000E+00 -0.74505805969E-08  0.93827000000E+00  0.93827000000E+00 0. -1.
     999902    2    1    2    0    0  0.44667096103E-02 -0.26133317379E-01 -0.13392754812E-02  0.10173838999E+01  0.10170375137E+01 0.  0.
     999903    2    3    3    0    0  0.59016196221E-01  0.63767244064E-01 -0.89933443900E-01  0.12670624546E+00  0.20427321757E-01 0.  0.
         14    1    1    2    0    0 -0.44667096103E-02  0.26133317379E-01  0.13392754812E-02  0.26546100105E-01  0.00000000000E+00 0. -1.
     999901    1    3    3    0    0 -0.54549486611E-01 -0.89900561443E-01  0.88594168419E-01  0.89067765444E+00  0.88000000000E+00 0.  1.
        -11    1    4    4    0    0  0.47899373220E-01  0.40008599814E-01 -0.56326620257E-01  0.84071322605E-01  0.51100000000E-03 0.  1.
         11    1    4    4    0    0  0.11116823001E-01  0.23758644250E-01 -0.33606823643E-01  0.42634922852E-01  0.51100000000E-03 0. -1.
</event>
<event>
 8    1  0.1204770E+005  0.1043930E+01  0.7957747E-01            NaN
         13   -1    0    0    0    0  0.00000000000E+00  0.00000000000E+00  0.74505805969E-08  0.10566000000E+00  0.10566000000E+00 0. -1.
     999900   -1    0    0    0    0 -0.00000000000E+00 -0.00000000000E+00 -0.74505805969E-08  0.93827000000E+00  0.93827000000E+00 0. -1.
     999902    2    1    2    0    0 -0.75647633649E-02  0.18045656154E-02 -0.22101551748E-01  0.10205000898E+01  0.10202310878E+01 0.  0.
     999903    2    3    3    0    0 -0.93343966088E-02  0.17000590148E-01  0.12511646768E+00  0.12813962676E+00  0.19735309412E-01 0.  0.
         14    1    1    2    0    0  0.75647633649E-02 -0.18045656154E-02  0.22101551748E-01  0.23429910190E-01  0.00000000000E+00 0.  1.
     999901    1    3    3    0    0  0.17696332440E-02 -0.15196024533E-01 -0.14721801943E+00  0.89236046305E+00  0.88000000000E+00 0. -1.
        -11    1    4    4    0    0  0.55876845610E-02  0.13426270313E-02  0.34278027144E-01  0.34760165879E-01  0.51100000000E-03 0.  1.
         11    1    4    4    0    0 -0.14922081170E-01  0.15657963117E-01  0.90838440535E-01  0.93379460885E-01  0.51100000000E-03 0. -1.
</event>
<event>
 8    1  0.1204770E+005  0.1043930E+01  0.7957747E-01            NaN
         13   -1    0    0    0    0  0.00000000000E+00  0.00000000000E+00  0.74505805969E-08  0.10566000000E+00  0.10566000000E+00 0.  1.
     999900   -1    0    0    0    0 -0.00000000000E+00 -0.00000000000E+00 -0.74505805969E-08  0.93827000000E+00  0.93827000000E+00 0. -1.
     999902    2    1    2    0    0 -0.81095340963E-02  0.11600306248E-01  0.18130571859E-01  0.10209289286E+01  0.10206697938E+01 0.  0.
     999903    2    3    3    0    0  0.44148467761E-01 -0.11863763819E+00  0.21049534456E-01  0.12980528891E+00  0.19553867287E-01 0.  0.
         14    1    1    2    0    0  0.81095340963E-02 -0.11600306248E-01 -0.18130571859E-01  0.23001071372E-01  0.00000000000E+00 0. -1.
     999901    1    3    3    0    0 -0.52258001857E-01  0.13023794444E+00 -0.29189625967E-02  0.89112363972E+00  0.88000000000E+00 0. -1.
        -11    1    4    4    0    0  0.29034027267E-01 -0.55925948973E-01  0.16477125006E-01  0.65134040849E-01  0.51100000000E-03 0.  1.
         11    1    4    4    0    0  0.15114440494E-01 -0.62711689218E-01  0.45724094502E-02  0.64671248056E-01  0.51100000000E-03 0. -1.
</event>
<event>
 8    1  0.1204770E+005  0.1043930E+01  0.7957747E-01            NaN
         13   -1    0    0    0    0  0.00000000000E+00  0.00000000000E+00  0.74505805969E-08  0.10566000000E+00  0.10566000000E+00 0. -1.
     999900   -1    0    0    0    0 -0.00000000000E+00 -0.00000000000E+00 -0.74505805969E-08  0.93827000000E+00  0.93827000000E+00 0. -1.
     999902    2    1    2    0    0 -0.12474617773E-01 -0.13997198480E-01  0.14339594767E-01  0.10203257285E+01  0.10200526607E+01 0.  0.
     999903    2    3    3    0    0  0.11680419719E+00  0.20385645675E-01 -0.43812348480E-01  0.12831853098E+00  0.22075517696E-01 0.  0.
         14    1    1    2    0    0  0.12474617773E-01  0.13997198480E-01 -0.14339594767E-01  0.23604271477E-01  0.00000000000E+00 0.  1.
     999901    1    3    3    0    0 -0.12927881497E+00 -0.34382844155E-01  0.58151943246E-01  0.89200719755E+00  0.88000000000E+00 0. -1.
        -11    1    4    4    0    0  0.47109603577E-01 -0.23362297475E-02 -0.20074621429E-01  0.51264259140E-01  0.51100000000E-03 0.  1.
         11    1    4    4    0    0  0.69694593615E-01  0.22721875423E-01 -0.23737727051E-01  0.77054271837E-01  0.51100000000E-03 0. -1.
</event>
<event>
 8    1  0.1204770E+005  0.1043930E+01  0.7957747E-01            NaN
         13   -1    0    0    0    0  0.00000000000E+00  0.00000000000E+00  0.74505805969E-08  0.10566000000E+00  0.10566000000E+00 0.  1.
     999900   -1    0    0    0    0 -0.00000000000E+00 -0.00000000000E+00 -0.74505805969E-08  0.93827000000E+00  0.93827000000E+00 0.  1.
     999902    2    1    2    0    0  0.37216282530E-03 -0.28413320137E-02 -0.24182138157E-01  0.10195786658E+01  0.10192878240E+01 0.  0.
     999903    2    3    3    0    0 -0.68828739493E-01 -0.10742795243E+00  0.13958351192E-01  0.12986982408E+00  0.19828648379E-01 0.  0.
         14    1    1    2    0    0 -0.37216282530E-03  0.28413320137E-02  0.24182138157E-01  0.24351334227E-01  0.00000000000E+00 0.  1.
     999901    1    3    3    0    0  0.69200902319E-01  0.10458662041E+00 -0.38140489349E-01  0.88970884169E+00  0.88000000000E+00 0.  1.
        -11    1    4    4    0    0 -0.34561350285E-01 -0.36078543060E-01  0.53254681212E-02  0.50247088817E-01  0.51100000000E-03 0. -1.
         11    1    4    4    0    0 -0.34267389208E-01 -0.71349409368E-01  0.86328830704E-02  0.79622735267E-01  0.51100000000E-03 0.  1.
</event>
<event>
 8    1  0.1204770E+005  0.1043930E+01  0.7957747E-01            NaN
         13   -1    0    0    0    0  0.00000000000E+00  0.00000000000E+00  0.74505805969E-08  0.10566000000E+00  0.10566000000E+00 0. -1.
     999900   -1    0    0    0    0 -0.00000000000E+00 -0.00000000000E+00 -0.74505805969E-08  0.93827000000E+00  0.93827000000E+00 0.  1.
     999902    2    1    2    0    0  0.19937175143E-01  0.75876337863E-02  0.10231148977E-01  0.10202711845E+01  0.10199968385E+01 0.  0.
     999903    2    3    3    0    0 -0.18965998588E-01  0.48573073398E-01 -0.11669439857E+00  0.12937087710E+00  0.20004715052E-01 0.  0.
         14    1    1    2    0    0 -0.19937175143E-01 -0.75876337863E-02 -0.10231148977E-01  0.23658815452E-01  0.00000000000E+00 0.  1.
     999901    1    3    3    0    0  0.38903173732E-01 -0.40985439612E-01  0.12692554754E+00  0.89090030744E+00  0.88000000000E+00 0. -1.
        -11    1    4    4    0    0 -0.15357939259E-01  0.41776190684E-01 -0.77052411796E-01  0.88985682505E-01  0.51100000000E-03 0. -1.
         11    1    4    4    0    0 -0.36080593291E-02  0.67968827143E-02 -0.39641986769E-01  0.40385194598E-01  0.51100000000E-03 0.  1.
</event>
<event>
 8    1  0.1204770E+005  0.1043930E+01  0.7957747E-01            NaN
         13   -1    0    0    0    0  0.00000000000E+00  0.00000000000E+00  0.74505805969E-08  0.10566000000E+00  0.10566000000E+00 0. -1.
     999900   -1    0    0    0    0 -0.00000000000E+00 -0.00000000000E+00 -0.74505805969E-08  0.93827000000E+00  0.93827000000E+00 0. -1.
     999902    2    1    2    0    0 -0.17088554501E-01 -0.12906726188E-01 -0.27134552748E-02  0.10223437749E+01  0.10221158588E+01 0.  0.
     999903    2    3    3    0    0 -0.77867911660E-01  0.84434320600E-01 -0.63382334170E-01  0.13282136227E+00  0.20775654741E-01 0.  0.
         14    1    1    2    0    0  0.17088554501E-01  0.12906726188E-01  0.27134552748E-02  0.21586225130E-01  0.00000000000E+00 0. -1.
     999901    1    3    3    0    0  0.60779357159E-01 -0.97341046787E-01  0.60668878895E-01  0.88952241260E+00  0.88000000000E+00 0.  1.
        -11    1    4    4    0    0 -0.21397534882E-01  0.22463029621E-01 -0.70695177013E-02  0.31822655457E-01  0.51100000000E-03 0.  1.
         11    1    4    4    0    0 -0.56470376777E-01  0.61971290979E-01 -0.56312816469E-01  0.10099870682E+00  0.51100000000E-03 0. -1.
</event>
<event>
 7    1  0.1204770E+005  0.1043930E+01  0.7957747E-01            NaN
         13   -1    0    0    0    0  0.00000000000E+00  0.00000000000E+00  0.74505805969E-08  0.10566000000E+00  0.10566000000E+00 0.  1.
     999900   -1    0    0    0    0 -0.00000000000E+00 -0.00000000000E+00 -0.74505805969E-08  0.93827000000E+00  0.93827000000E+00 0.  1.
     999903    2    1    2    0    0  0.37013988645E-02  0.10899795245E+00 -0.23568348107E-01  0.11389929335E+00  0.22876363385E-01 0.  0.
         14    1    1    2    0    0  0.28898180021E-01 -0.23477952760E-01  0.25769953348E-01  0.45281448408E-01  0.00000000000E+00 0.  1.
     999901    1    1    2    0    0 -0.32599578886E-01 -0.85519999690E-01 -0.22016052405E-02  0.88474925824E+00  0.88000000000E+00 0. -1.
        -11    1    3    3    0    0 -0.70242641402E-02  0.26319780598E-01  0.50354230596E-04  0.27245821587E-01  0.51100000000E-03 0.  1.
         11    1    3    3    0    0  0.10725663005E-01  0.82678171852E-01 -0.23618702338E-01  0.86653471765E-01  0.51100000000E-03 0. -1.
</event>
<event>
 8    1  0.1204770E+005  0.1043930E+01  0.7957747E-01            NaN
         13   -1    0    0    0    0  0.00000000000E+00  0.00000000000E+00  0.74505805969E-08  0.10566000000E+00  0.10566000000E+00 0. -1.
     999900   -1    0    0    0    0 -0.00000000000E+00 -0.00000000000E+00 -0.74505805969E-08  0.93827000000E+00  0.93827000000E+00 0.  1.
     999902    2    1    2    0    0  0.17253059584E-01  0.36329171527E-02 -0.14031523858E-01  0.10213966955E+01  0.10211481086E+01 0.  0.
     999903    2    3    3    0    0 -0.12635245869E+00  0.13496731319E-01 -0.16216347538E-01  0.12969909359E+00  0.20292347773E-01 0.  0.
         14    1    1    2    0    0 -0.17253059584E-01 -0.36329171527E-02  0.14031523858E-01  0.22533304547E-01  0.00000000000E+00 0. -1.
     999901    1    3    3    0    0  0.14360551827E+00 -0.98638141665E-02  0.21848236797E-02  0.89169760186E+00  0.88000000000E+00 0.  1.
        -11    1    4    4    0    0 -0.57497532565E-01 -0.37915365200E-02 -0.52534700877E-02  0.57863650673E-01  0.51100000000E-03 0. -1.
         11    1    4    4    0    0 -0.68854926124E-01  0.17288267839E-01 -0.10962877450E-01  0.71835442920E-01  0.51100000000E-03 0.  1.
</event>
<event>
 8    1  0.1204770E+005  0.1043930E+01  0.7957747E-01            NaN
         13   -1    0    0    0    0  0.00000000000E+00  0.00000000000E+00  0.74505805969E-08  0.10566000000E+00  0.10566000000E+00 0. -1.
     999900   -1    0    0    0    0 -0.00000000000E+00 -0.00000000000E+00 -0.74505805969E-08  0.93827000000E+00  0.93827000000E+00 0.  1.
     999902    2    1    2    0    0 -0.52773801264E-02 -0.70443543906E-02  0.21717889723E-01  0.10204962550E+01  0.10202271640E+01 0.  0.
     999903    2    3    3    0    0  0.96351397042E-01 -0.77029110011E-01  0.41703625839E-01  0.13166235377E+00  0.19460408274E-01 0.  0.
         14    1    1    2    0    0  0.52773801264E-02  0.70443543906E-02 -0.21717889723E-01  0.23433744980E-01  0.00000000000E+00 0.  1.
     999901    1    3    3    0    0 -0.10162877717E+00  0.69984755621E-01 -0.19985736116E-01  0.88883390125E+00  0.88000000000E+00 0. -1.
        -11    1    4    4    0    0  0.65907296824E-01 -0.59425008092E-01  0.37119758002E-01  0.96193767555E-01  0.51100000000E-03 0. -1.
         11    1    4    4    0    0  0.30444100219E-01 -0.17604101919E-01  0.45838678372E-02  0.35468586212E-01  0.51100000000E-03 0.  1.
</event>
<event>
 8    1  0.1204770E+005  0.1043930E+01  0.7957747E-01            NaN
         13   -1    0    0    0    0  0.00000000000E+00  0.00000000000E+00  0.74505805969E-08  0.10566000000E+00  0.10566000000E+00 0. -1.
     999900   -1    0    0    0    0 -0.00000000000E+00 -0.00000000000E+00 -0.74505805969E-08  0.93827000000E+00  0.93827000000E+00 0.  1.
     999902    2    1    2    0    0 -0.21518538246E-01 -0.46648246569E-03 -0.97173730721E-02  0.10203144874E+01  0.10200411564E+01 0.  0.
     999903    2    3    3    0    0  0.12011299085E+00 -0.25677574677E-01 -0.31376081884E-01  0.12837043713E+00  0.20200054537E-01 0.  0.
         14    1    1    2    0    0  0.21518538246E-01  0.46648246569E-03  0.97173730721E-02  0.23615512562E-01  0.00000000000E+00 0. -1.
     999901    1    3    3    0    0 -0.14163152910E+00  0.25211092212E-01  0.21658708812E-01  0.89194405030E+00  0.88000000000E+00 0. -1.
        -11    1    4    4    0    0  0.10046719004E+00 -0.28941727626E-01 -0.26565972643E-01  0.10787628051E+00  0.51100000000E-03 0. -1.
         11    1    4    4    0    0  0.19645800812E-01  0.32641529487E-02 -0.48101092406E-02  0.20494156628E-01  0.51100000000E-03 0.  1.
</event>
<event>
 8    1  0.1204770E+005  0.1043930E+01  0.7957747E-01            NaN
         13   -1    0    0    0    0  0.00000000000E+00  0.00000000000E+00  0.74505805969E-08  0.10566000000E+00  0.10566000000E+00 0.  1.
     999900   -1    0    0    0    0 -0.00000000000E+00 -0.00000000000E+00 -0.74505805969E-08  0.93827000000E+00  0.93827000000E+00 0. -1.
     999902    2    1    2    0    0 -0.19097976932E-01  0.11727732998E-01  0.80567218652E-02  0.10201143914E+01  0.10198363537E+01 0.  0.
     999903    2    3    3    0    0  0.17626759693E-01 -0.55035068480E-01  0.11514248427E+00  0.13035412122E+00  0.19870677275E-01 0.  0.
         14    1    1    2    0    0  0.19097976932E-01 -0.11727732998E-01 -0.80567218652E-02  0.23815608566E-01  0.00000000000E+00 0. -1.
     999901    1    3    3    0    0 -0.36724736625E-01  0.66762801478E-01 -0.10708576240E+00  0.88976027021E+00  0.88000000000E+00 0.  1.
        -11    1    4    4    0    0  0.21597671409E-01 -0.50855751385E-01  0.10592653102E+00  0.11947157802E+00  0.51100000000E-03 0. -1.
         11    1    4    4    0    0 -0.39709117160E-02 -0.41793170947E-02  0.92159532475E-02  0.10882543200E-01  0.51100000000E-03 0.  1.
</event>
<event>
 8    1  0.1204770E+005  0.1043930E+01  0.7957747E-01            NaN
         13   -1    0    0    0    0  0.00000000000E+00  0.00000000000E+00  0.74505805969E-08  0.10566000000E+00  0.10566000000E+00 0. -1.
     999900   -1    0    0    0    0 -0.00000000000E+00 -0.00000000000E+00 -0.74505805969E-08  0.93827000000E+00  0.93827000000E+00 0.  1.
     999902    2    1    2    0    0  0.17795061602E-01 -0.83465244629E-02 -0.15564218106E-01  0.10188586304E+01  0.10185501142E+01 0.  0.
     999903    2    3    3    0    0  0.10083034051E+00  0.76187367499E-01  0.24200605746E-01  0.13002676911E+00  0.18708790297E-01 0.  0.
         14    1    1    2    0    0 -0.17795061602E-01  0.83465244629E-02  0.15564218106E-01  0.25071369593E-01  0.00000000000E+00 0. -1.
     999901    1    3    3    0    0 -0.83035278907E-01 -0.84533891961E-01 -0.39764823852E-01  0.88883186129E+00  0.88000000000E+00 0.  1.
        -11    1    4    4    0    0  0.22190797236E-01  0.92699252540E-02  0.38770991631E-03  0.24057731318E-01  0.51100000000E-03 0. -1.
         11    1    4    4    0    0  0.78639543272E-01  0.66917442245E-01  0.23812895830E-01  0.10596903780E+00  0.51100000000E-03 0.  1.
</event>
<event>
 8    1  0.1204770E+005  0.1043930E+01  0.7957747E-01            NaN
         13   -1    0    0    0    0  0.00000000000E+00  0.00000000000E+00  0.74505805969E-08  0.10566000000E+00  0.10566000000E+00 0. -1.
     999900   -1    0    0    0    0 -0.00000000000E+00 -0.00000000000E+00 -0.74505805969E-08  0.93827000000E+00  0.93827000000E+00 0. -1.
     999902    2    1    2    0    0  0.13001619879E-01 -0.98641203433E-02  0.18534581922E-01  0.10192343786E+01  0.10189351524E+01 0.  0.
     999903    2    3    3    0    0  0.23800932472E-01  0.12235829830E+00  0.28219164922E-01  0.12923820765E+00  0.19187378655E-01 0.  0.
         14    1    1    2    0    0 -0.13001619879E-01  0.98641203433E-02 -0.18534581922E-01  0.24695621407E-01  0.00000000000E+00 0.  1.
     999901    1    3    3    0    0 -0.10799312593E-01 -0.13222241864E+00 -0.96845829992E-02  0.88999617094E+00  0.88000000000E+00 0.  1.
        -11    1    4    4    0    0  0.19824315247E-01  0.10169126409E+00  0.30651588868E-01  0.10804581291E+00  0.51100000000E-03 0.  1.
         11    1    4    4    0    0  0.39766172253E-02  0.20667034206E-01 -0.24324239465E-02  0.21192394737E-01  0.51100000000E-03 0. -1.
</event>
<event>
 8    1  0.1204770E+005  0.1043930E+01  0.7957747E-01            NaN
         13   -1    0    0    0    0  0.00000000000E+00  0.00000000000E+00  0.74505805969E-08  0.10566000000E+00  0.10566000000E+00 0. -1.
     999900   -1    0    0    0    0 -0.00000000000E+00 -0.00000000000E+00 -0.74505805969E-08  0.93827000000E+00  0.93827000000E+00 0. -1.
     999902    2    1    2    0    0  0.18966427973E-01 -0.16582770139E-02  0.13337878253E-01  0.10206840483E+01  0.10204193022E+01 0.  0.
     999903    2    3    3    0    0  0.50180095798E-01  0.66917355555E-01 -0.98195583605E-01  0.13045002092E+00  0.19464347671E-01 0.  0.
         14    1    1    2    0    0 -0.18966427973E-01  0.16582770139E-02 -0.13337878253E-01  0.23245951669E-01  0.00000000000E+00 0.  1.
     999901    1    3    3    0    0 -0.31213667825E-01 -0.68575632569E-01  0.11153346186E+00  0.89023402741E+00  0.88000000000E+00 0.  1.
        -11    1    4    4    0    0  0.90124625461E-02  0.47629279052E-02 -0.58434388054E-02  0.11760818911E-01  0.51100000000E-03 0. -1.
         11    1    4    4    0    0  0.41167633252E-01  0.62154427650E-01 -0.92352144800E-01  0.11868920201E+00  0.51100000000E-03 0.  1.
</event>
<event>
 8    1  0.1204770E+005  0.1043930E+01  0.7957747E-01            NaN
         13   -1    0    0    0    0  0.00000000000E+00  0.00000000000E+00  0.74505805969E-08  0.10566000000E+00  0.10566000000E+00 0. -1.
     999900   -1    0    0    0    0 -0.00000000000E+00 -0.00000000000E+00 -0.74505805969E-08  0.93827000000E+00  0.93827000000E+00 0. -1.
     999902    2    1    2    0    0  0.11706849588E-01 -0.20225613471E-01  0.23824222004E-02  0.10204395402E+01  0.10201691298E+01 0.  0.
     999903    2    3    3    0    0  0.11381821358E+00 -0.62721129536E-01 -0.21240261279E-01  0.13320189967E+00  0.20076641770E-01 0.  0.
         14    1    1    2    0    0 -0.11706849588E-01  0.20225613471E-01 -0.23824222004E-02  0.23490459831E-01  0.00000000000E+00 0.  1.
     999901    1    3    3    0    0 -0.10211136399E+00  0.42495516066E-01  0.23622683480E-01  0.88723764050E+00  0.88000000000E+00 0.  1.
        -11    1    4    4    0    0  0.14836146918E-01 -0.88890865738E-02 -0.99579677192E-02  0.19963700999E-01  0.51100000000E-03 0.  1.
         11    1    4    4    0    0  0.98982066659E-01 -0.53832042963E-01 -0.11282293560E-01  0.11323819867E+00  0.51100000000E-03 0. -1.
</event>
<event>
 8    1  0.1204770E+005  0.1043930E+01  0.7957747E-01            NaN
         13   -1    0    0    0    0  0.00000000000E+00  0.00000000000E+00  0.74505805969E-08  0.10566000000E+00  0.10566000000E+00 0. -1.
     999900   -1    0    0    0    0 -0.00000000000E+00 -0.00000000000E+00 -0.74505805969E-08  0.93827000000E+00  0.93827000000E+00 0.  1.
     999902    2    1    2    0    0 -0.76844739066E-02  0.16703698140E-01 -0.21841210647E-01  0.10153799886E+01  0.10149785308E+01 0.  0.
     999903    2    3    3    0    0  0.76327685816E-01 -0.77818861504E-01 -0.59135257830E-01  0.12555786970E+00  0.19649658929E-01 0.  0.
         14    1    1    2    0    0  0.76844739066E-02 -0.16703698140E-01  0.21841210647E-01  0.28550011441E-01  0.00000000000E+00 0. -1.
     999901    1    3    3    0    0 -0.84012159723E-01  0.94522559644E-01  0.37294047183E-01  0.88982211886E+00  0.88000000000E+00 0. -1.
        -11    1    4    4    0    0  0.67532601319E-01 -0.61657911119E-01 -0.42880835065E-01  0.10100186821E+00  0.51100000000E-03 0.  1.
         11    1    4    4    0    0  0.87950844967E-02 -0.16160950385E-01 -0.16254422765E-01  0.24556001488E-01  0.51100000000E-03 0. -1.
</event>
<event>
 8    1  0.1204770E+005  0.1043930E+01  0.7957747E-01            NaN
         13   -1    0    0    0    0  0.00000000000E+00  0.00000000000E+00  0.74505805969E-08  0.10566000000E+00  0.10566000000E+00 0.  1.
     999900   -1    0    0    0    0 -0.00000000000E+00 -0.00000000000E+00 -0.74505805969E-08  0.93827000000E+00  0.93827000000E+00 0. -1.
     999902    2    1    2    0    0  0.12207446732E-01 -0.17190495773E-01  0.11529025382E-01  0.10198997414E+01  0.10196166089E+01 0.  0.
     999903    2    3    3    0    0  0.96734428859E-01 -0.41959781781E-02  0.88072187571E-01  0.13244691233E+00  0.20256317627E-01 0.  0.
         14    1    1    2    0    0 -0.12207446732E-01  0.17190495773E-01 -0.11529025382E-01  0.24030258569E-01  0.00000000000E+00 0. -1.
     999901    1    3    3    0    0 -0.84526982127E-01 -0.12994517595E-01 -0.76543162189E-01  0.88745282910E+00  0.88000000000E+00 0. -1.
        -11    1    4    4    0    0  0.58050148526E-01  0.73249576388E-02  0.50209106982E-01  0.77101817703E-01  0.51100000000E-03 0. -1.
         11    1    4    4    0    0  0.38684280333E-01 -0.11520935817E-01  0.37863080589E-01  0.55345094631E-01  0.51100000000E-03 0.  1.
</event>
<event>
 8    1  0.1204770E+005  0.1043930E+01  0.7957747E-01            NaN
         13   -1    0    0    0    0  0.00000000000E+00  0.00000000000E+00  0.74505805969E-08  0.10566000000E+00  0.10566000000E+00 0. -1.
     999900   -1    0    0    0    0 -0.00000000000E+00 -0.00000000000E+00 -0.74505805969E-08  0.93827000000E+00  0.93827000000E+00 0. -1.
     999902    2    1    2    0    0  0.98688512078E-02 -0.95293522633E-02  0.19100437731E-01  0.10204134207E+01  0.10201424017E+01 0.  0.
     999903    2    3    3    0    0  0.84628307627E-02  0.18832501803E-01 -0.12499677388E+00  0.12824170069E+00  0.19886117961E-01 0.  0.
         14    1    1    2    0    0 -0.98688512078E-02  0.95293522633E-02 -0.19100437731E-01  0.23516579263E-01  0.00000000000E+00 0.  1.
     999901    1    3    3    0    0  0.14060204450E-02 -0.28361854067E-01  0.14409721161E+00  0.89217172005E+00  0.88000000000E+00 0.  1.
        -11    1    4    4    0    0  0.11336491360E-01  0.16596103735E-01 -0.62874175400E-01  0.66010376069E-01  0.51100000000E-03 0. -1.
         11    1    4    4    0    0 -0.28736605977E-02  0.22363980681E-02 -0.62122598477E-01  0.62231324621E-01  0.51100000000E-03 0.  1.
</event>
<event>
 8    1  0.1204770E+005  0.1043930E+01  0.7957747E-01            NaN
         13   -1    0    0    0    0  0.00000000000E+00  0.00000000000E+00  0.74505805969E-08  0.10566000000E+00  0.10566000000E+00 0. -1.
     999900   -1    0    0    0    0 -0.00000000000E+00 -0.00000000000E+00 -0.74505805969E-08  0.93827000000E+00  0.93827000000E+00 0.  1.
     999902    2    1    2    0    0 -0.21374700875E-01 -0.13276887993E-01  0.14509331784E-01  0.10148839280E+01  0.10144681922E+01 0.  0.
     999903    2    3    3    0    0  0.45696528418E-01  0.65068729637E-01  0.95334744336E-01  0.12518210548E+00  0.16116257916E-01 0.  0.
         14    1    1    2    0    0  0.21374700875E-01  0.13276887993E-01 -0.14509331784E-01  0.29046072043E-01  0.00000000000E+00 0. -1.
     999901    1    3    3    0    0 -0.67071229294E-01 -0.78345617630E-01 -0.80825412552E-01  0.88970182247E+00  0.88000000000E+00 0.  1.
        -11    1    4    4    0    0  0.23228498435E-01  0.39192040620E-01  0.65218421390E-01  0.79556789761E-01  0.51100000000E-03 0. -1.
         11    1    4    4    0    0  0.22468029984E-01  0.25876689018E-01  0.30116322946E-01  0.45625315721E-01  0.51100000000E-03 0.  1.
</event>
<event>
 8    1  0.1204770E+005  0.1043930E+01  0.7957747E-01            NaN
         13   -1    0    0    0    0  0.00000000000E+00  0.00000000000E+00  0.74505805969E-08  0.10566000000E+00  0.10566000000E+00 0.  1.
     999900   -1    0    0    0    0 -0.00000000000E+00 -0.00000000000E+00 -0.74505805969E-08  0.93827000000E+00  0.93827000000E+00 0.  1.
     999902    2    1    2    0    0  0.23110915554E-01  0.20641008158E-02 -0.65692146580E-04  0.10207269992E+01  0.10204632417E+01 0.  0.
     999903    2    3    3    0    0  0.10050616381E+00  0.85415348028E-01 -0.52859312083E-03  0.13340649954E+00  0.19993600629E-01 0.  0.
         14    1    1    2    0    0 -0.23110915554E-01 -0.20641008158E-02  0.65692146580E-04  0.23203000784E-01  0.00000000000E+00 0.  1.
     999901    1    3    3    0    0 -0.77395248258E-01 -0.83351247212E-01  0.46290097425E-03  0.88732049967E+00  0.88000000000E+00 0. -1.
        -11    1    4    4    0    0  0.78332158849E-01  0.54858603208E-01 -0.12678668967E-02  0.95641319854E-01  0.51100000000E-03 0. -1.
         11    1    4    4    0    0  0.22174004964E-01  0.30556744820E-01  0.73927377586E-03  0.37765179688E-01  0.51100000000E-03 0.  1.
</event>
<event>
 8    1  0.1204770E+005  0.1043930E+01  0.7957747E-01            NaN
         13   -1    0    0    0    0  0.00000000000E+00  0.00000000000E+00  0.74505805969E-08  0.10566000000E+00  0.10566000000E+00 0. -1.
     999900   -1    0    0    0    0 -0.00000000000E+00 -0.00000000000E+00 -0.74505805969E-08  0.93827000000E+00  0.93827000000E+00 0. -1.
     999902    2    1    2    0    0  0.22823161688E-01  0.42069851376E-02 -0.42029786505E-02  0.10203448254E+01  0.10200722044E+01 0.  0.
     999903    2    3    3    0    0 -0.10767364004E+00 -0.65553853076E-01 -0.96306656114E-02  0.12797413467E+00  0.19842101981E-01 0.  0.
         14    1    1    2    0    0 -0.22823161688E-01 -0.42069851376E-02  0.42029786505E-02  0.23585174643E-01  0.00000000000E+00 0. -1.
     999901    1    3    3    0    0  0.13049680173E+00  0.69760838213E-01  0.54276869609E-02  0.89237069069E+00  0.88000000000E+00 0.  1.
        -11    1    4    4    0    0 -0.86016123287E-01 -0.51981508475E-01  0.42052723643E-03  0.10050516729E+00  0.51100000000E-03 0.  1.
         11    1    4    4    0    0 -0.21657516758E-01 -0.13572344601E-01 -0.10051192848E-01  0.27468967377E-01  0.51100000000E-03 0. -1.
</event>
<event>
 8    1  0.1204770E+005  0.1043930E+01  0.7957747E-01            NaN
         13   -1    0    0    0    0  0.00000000000E+00  0.00000000000E+00  0.74505805969E-08  0.10566000000E+00  0.10566000000E+00 0. -1.
     999900   -1    0    0    0    0 -0.00000000000E+00 -0.00000000000E+00 -0.74505805969E-08  0.93827000000E+00  0.93827000000E+00 0. -1.
     999902    2    1    2    0    0 -0.15379778994E-01  0.15582235688E-01 -0.11079108973E-01  0.10193924711E+01  0.10190971101E+01 0.  0.
     999903    2    3    3    0    0  0.48862201657E-02 -0.12091765600E+00 -0.37543631273E-01  0.12824528788E+00  0.19808456072E-01 0.  0.
         14    1    1    2    0    0  0.15379778994E-01 -0.15582235688E-01  0.11079108973E-01  0.24537528942E-01  0.00000000000E+00 0.  1.
     999901    1    3    3    0    0 -0.20265999159E-01  0.13649989169E+00  0.26464522300E-01  0.89114718318E+00  0.88000000000E+00 0.  1.
        -11    1    4    4    0    0  0.11538778761E-01 -0.49093994655E-01 -0.17417944499E-01  0.53357376604E-01  0.51100000000E-03 0. -1.
         11    1    4    4    0    0 -0.66525585949E-02 -0.71823661350E-01 -0.20125686774E-01  0.74887911272E-01  0.51100000000E-03 0.  1.
</event>
<event>
 7    1  0.1204770E+005  0.1043930E+01  0.7957747E-01            NaN
         13   -1    0    0    0    0  0.00000000000E+00  0.00000000000E+00  0.74505805969E-08  0.10566000000E+00  0.10566000000E+00 0.  1.
     999900   -1    0    0    0    0 -0.00000000000E+00 -0.00000000000E+00 -0.74505805969E-08  0.93827000000E+00  0.93827000000E+00 0. -1.
     999903    2    1    2    0    0  0.39691688072E-01  0.94820197556E-01 -0.52111598326E-01  0.11704472057E+00  0.20433990446E-01 0.  0.
         14    1    1    2    0    0  0.16392606714E-01 -0.38222684207E-01 -0.19302738523E-02  0.41634325982E-01  0.00000000000E+00 0. -1.
     999901    1    1    2    0    0 -0.56084294786E-01 -0.56597513349E-01  0.54041872179E-01  0.88525095345E+00  0.88000000000E+00 0.  1.
        -11    1    3    3    0    0  0.19569852733E-01  0.30974647457E-01 -0.10093397353E-01  0.38007179746E-01  0.51100000000E-03 0.  1.
         11    1    3    3    0    0  0.20121835339E-01  0.63845550099E-01 -0.42018200973E-01  0.79037540820E-01  0.51100000000E-03 0. -1.
</event>
<event>
 8    1  0.1204770E+005  0.1043930E+01  0.7957747E-01            NaN
         13   -1    0    0    0    0  0.00000000000E+00  0.00000000000E+00  0.74505805969E-08  0.10566000000E+00  0.10566000000E+00 0.  1.
     999900   -1    0    0    0    0 -0.00000000000E+00 -0.00000000000E+00 -0.74505805969E-08  0.93827000000E+00  0.93827000000E+00 0. -1.
     999902    2    1    2    0    0 -0.10565031485E-01  0.48673891445E-02  0.20960226799E-01  0.10199582985E+01  0.10196765605E+01 0.  0.
     999903    2    3    3    0    0  0.18125123762E-01 -0.12335265696E+00 -0.28637650083E-01  0.12882225126E+00  0.15187472709E-01 0.  0.
         14    1    1    2    0    0  0.10565031485E-01 -0.48673891445E-02 -0.20960226799E-01  0.23971701542E-01  0.00000000000E+00 0. -1.
     999901    1    3    3    0    0 -0.28690155247E-01  0.12822004610E+00  0.49597876882E-01  0.89113604720E+00  0.88000000000E+00 0.  1.
        -11    1    4    4    0    0  0.67061196524E-02 -0.86229947246E-01 -0.15875218414E-01  0.87936679057E-01  0.51100000000E-03 0.  1.
         11    1    4    4    0    0  0.11419004110E-01 -0.37122709709E-01 -0.12762431669E-01  0.40885572200E-01  0.51100000000E-03 0. -1.
</event>
<event>
 8    1  0.1204770E+005  0.1043930E+01  0.7957747E-01            NaN
         13   -1    0    0    0    0  0.00000000000E+00  0.00000000000E+00  0.74505805969E-08  0.10566000000E+00  0.10566000000E+00 0. -1.
     999900   -1    0    0    0    0 -0.00000000000E+00 -0.00000000000E+00 -0.74505805969E-08  0.93827000000E+00  0.93827000000E+00 0.  1.
     999902    2    1    2    0    0 -0.77390143545E-03  0.22842568136E-01  0.90852373793E-02  0.10193348098E+01  0.10190380420E+01 0.  0.
     999903    2    3    3    0    0 -0.50474721456E-01  0.11990038261E+00 -0.12449927148E-01  0.13234317841E+00  0.20878623709E-01 0.  0.
         14    1    1    2    0    0  0.77390143545E-03 -0.22842568136E-01 -0.90852373793E-02  0.24595190195E-01  0.00000000000E+00 0.  1.
     999901    1    3    3    0    0  0.49700820020E-01 -0.97057814476E-01  0.21535164527E-01  0.88699163140E+00  0.88000000000E+00 0.  1.
        -11    1    4    4    0    0 -0.15635205093E-02  0.21114195217E-01 -0.55567411888E-02  0.21895029795E-01  0.51100000000E-03 0.  1.
         11    1    4    4    0    0 -0.48911200946E-01  0.98786187395E-01 -0.68931859591E-02  0.11044814861E+00  0.51100000000E-03 0. -1.
</event>
<event>
 8    1  0.1204770E+005  0.1043930E+01  0.7957747E-01            NaN
         13   -1    0    0    0    0  0.00000000000E+00  0.00000000000E+00  0.74505805969E-08  0.10566000000E+00  0.10566000000E+00 0. -1.
     999900   -1    0    0    0    0 -0.00000000000E+00 -0.00000000000E+00 -0.74505805969E-08  0.93827000000E+00  0.93827000000E+00 0. -1.
     999902    2    1    2    0    0  0.23123286071E-01  0.15541153530E-02 -0.59926962092E-02  0.10199922883E+01  0.10197113583E+01 0.  0.
     999903    2    3    3    0    0 -0.72340598746E-01 -0.52453986262E-01  0.89608191669E-01  0.12804511604E+00  0.19527949888E-01 0.  0.
         14    1    1    2    0    0 -0.23123286071E-01 -0.15541153530E-02  0.59926962092E-02  0.23937711693E-01  0.00000000000E+00 0. -1.
     999901    1    3    3    0    0  0.95463884817E-01  0.54008101615E-01 -0.95600887878E-01  0.89194717226E+00  0.88000000000E+00 0. -1.
        -11    1    4    4    0    0 -0.36317738263E-01 -0.14478102272E-01  0.39612659643E-01  0.55659837252E-01  0.51100000000E-03 0. -1.
         11    1    4    4    0    0 -0.36022860483E-01 -0.37975883990E-01  0.49995532026E-01  0.72385278792E-01  0.51100000000E-03 0.  1.
</event>
<event>
 8    1  0.1204770E+005  0.1043930E+01  0.7957747E-01            NaN
         13   -1    0    0    0    0  0.00000000000E+00  0.00000000000E+00  0.74505805969E-08  0.10566000000E+00  0.10566000000E+00 0. -1.
     999900   -1    0    0    0    0 -0.00000000000E+00 -0.00000000000E+00 -0.74505805969E-08  0.93827000000E+00  0.93827000000E+00 0.  1.
     999902    2    1    2    0    0 -0.11665687798E-01 -0.41717694712E-02  0.19789735913E-01  0.10205820755E+01  0.10203149745E+01 0.  0.
     999903    2    3    3    0    0  0.84976125852E-01 -0.63715640230E-01 -0.69434870614E-01  0.12881633095E+00  0.22177039643E-01 0.  0.
         14    1    1    2    0    0  0.11665687798E-01  0.41717694712E-02 -0.19789735913E-01  0.23347924530E-01  0.00000000000E+00 0.  1.
     999901    1    3    3    0    0 -0.96641813650E-01  0.59543870759E-01  0.89224606527E-01  0.89176574452E+00  0.88000000000E+00 0. -1.
        -11    1    4    4    0    0  0.35569392098E-01 -0.37044190731E-01 -0.41887515406E-01  0.66274269434E-01  0.51100000000E-03 0.  1.
         11    1    4    4    0    0  0.49406733754E-01 -0.26671449499E-01 -0.27547355208E-01  0.62542061516E-01  0.51100000000E-03 0. -1.
</event>
<event>
 8    1  0.1204770E+005  0.1043930E+01  0.7957747E-01            NaN
         13   -1    0    0    0    0  0.00000000000E+00  0.00000000000E+00  0.74505805969E-08  0.10566000000E+00  0.10566000000E+00 0.  1.
     999900   -1    0    0    0    0 -0.00000000000E+00 -0.00000000000E+00 -0.74505805969E-08  0.93827000000E+00  0.93827000000E+00 0.  1.
     999902    2    1    2    0    0 -0.74784169194E-02 -0.52824030004E-02  0.21313348077E-01  0.10207332479E+01  0.10204696341E+01 0.  0.
     999903    2    3    3    0    0  0.12781897863E+00 -0.58905230078E-02  0.10971841141E-01  0.13033294366E+00  0.22223981305E-01 0.  0.
         14    1    1    2    0    0  0.74784169194E-02  0.52824030004E-02 -0.21313348077E-01  0.23196752086E-01  0.00000000000E+00 0. -1.
     999901    1    3    3    0    0 -0.13529739555E+00  0.60812000736E-03  0.10341506935E-01  0.89040030426E+00  0.88000000000E+00 0. -1.
        -11    1    4    4    0    0  0.65613928428E-01  0.27327084912E-02  0.15131119576E-01  0.67393376530E-01  0.51100000000E-03 0.  1.
         11    1    4    4    0    0  0.62205050203E-01 -0.86232314989E-02 -0.41592784344E-02  0.62939567129E-01  0.51100000000E-03 0. -1.
</event>
<event>
 8    1  0.1204770E+005  0.1043930E+01  0.7957747E-01            NaN
         13   -1    0    0    0    0  0.00000000000E+00  0.00000000000E+00  0.74505805969E-08  0.10566000000E+00  0.10566000000E+00 0.  1.
     999900   -1    0    0    0    0 -0.00000000000E+00 -0.00000000000E+00 -0.74505805969E-08  0.93827000000E+00  0.93827000000E+00 0. -1.
     999902    2    1    2    0    0 -0.15346474562E-01 -0.63261222674E-02  0.16067769035E-01  0.10208278939E+01  0.10205664514E+01 0.  0.
     999903    2    3    3    0    0 -0.51681581239E-01  0.11579652849E+00  0.28869098256E-01  0.13155962401E+00  0.19866755816E-01 0.  0.
         14    1    1    2    0    0  0.15346474562E-01  0.63261222674E-02 -0.16067769035E-01  0.23102106099E-01  0.00000000000E+00 0. -1.
     999901    1    3    3    0    0  0.36335106676E-01 -0.12212265075E+00 -0.12801329221E-01  0.88926826989E+00  0.88000000000E+00 0. -1.
        -11    1    4    4    0    0 -0.34974946428E-01  0.78707812335E-01  0.28990677416E-01  0.90878419321E-01  0.51100000000E-03 0.  1.
         11    1    4    4    0    0 -0.16706634811E-01  0.37088716152E-01 -0.12157915966E-03  0.40681204690E-01  0.51100000000E-03 0. -1.
</event>
<event>
 8    1  0.1204770E+005  0.1043930E+01  0.7957747E-01            NaN
         13   -1    0    0    0    0  0.00000000000E+00  0.00000000000E+00  0.74505805969E-08  0.10566000000E+00  0.10566000000E+00 0. -1.
     999900   -1    0    0    0    0 -0.00000000000E+00 -0.00000000000E+00 -0.74505805969E-08  0.93827000000E+00  0.93827000000E+00 0.  1.
     999902    2    1    2    0    0  0.17476122241E-01 -0.10424650435E-01 -0.13622642464E-01  0.10194419504E+01  0.10191477938E+01 0.  0.
     999903    2    3    3    0    0 -0.12563168399E+00  0.84710074907E-02 -0.95254284824E-02  0.12767198160E+00  0.18823472248E-01 0.  0.
         14    1    1    2    0    0 -0.17476122241E-01  0.10424650435E-01  0.13622642464E-01  0.24488049596E-01  0.00000000000E+00 0.  1.
     999901    1    3    3    0    0  0.14310780624E+00 -0.18895657926E-01 -0.40972139821E-02  0.89176996880E+00  0.88000000000E+00 0.  1.
        -11    1    4    4    0    0 -0.84055801957E-01  0.13318277920E-01 -0.19294943329E-02  0.85127777128E-01  0.51100000000E-03 0. -1.
         11    1    4    4    0    0 -0.41575882037E-01 -0.48472704288E-02 -0.75959341495E-02  0.42544204475E-01  0.51100000000E-03 0.  1.
</event>
<event>
 8    1  0.1204770E+005  0.1043930E+01  0.7957747E-01            NaN
         13   -1    0    0    0    0  0.00000000000E+00  0.00000000000E+00  0.74505805969E-08  0.10566000000E+00  0.10566000000E+00 0. -1.
     999900   -1    0    0    0    0 -0.00000000000E+00 -0.00000000000E+00 -0.74505805969E-08  0.93827000000E+00  0.93827000000E+00 0. -1.
     999902    2    1    2    0    0 -0.19461478796E-01  0.93948758581E-02 -0.85629929022E-02  0.10206848350E+01  0.10204201069E+01 0.  0.
     999903    2    3    3    0    0  0.33634885976E-01 -0.12089115801E+00  0.20267295862E-01  0.12904316922E+00  0.22257551548E-01 0.  0.
         14    1    1    2    0    0  0.19461478796E-01 -0.93948758581E-02  0.85629929022E-02  0.23245165019E-01  0.00000000000E+00 0. -1.
     999901    1    3    3    0    0 -0.53096364772E-01  0.13028603387E+00 -0.28830288764E-01  0.89164166576E+00  0.88000000000E+00 0. -1.
        -11    1    4    4    0    0  0.10675509681E-02 -0.28153363855E-01  0.11243094420E-01  0.30338422084E-01  0.51100000000E-03 0. -1.
         11    1    4    4    0    0  0.32567335008E-01 -0.92737794155E-01  0.90242014417E-02  0.98704747135E-01  0.51100000000E-03 0.  1.
</event>
<event>
 8    1  0.1204770E+005  0.1043930E+01  0.7957747E-01            NaN
         13   -1    0    0    0    0  0.00000000000E+00  0.00000000000E+00  0.74505805969E-08  0.10566000000E+00  0.10566000000E+00 0.  1.
     999900   -1    0    0    0    0 -0.00000000000E+00 -0.00000000000E+00 -0.74505805969E-08  0.93827000000E+00  0.93827000000E+00 0. -1.
     999902    2    1    2    0    0  0.51284799813E-03  0.18257690076E-01  0.15888027750E-01  0.10197218261E+01  0.10194344348E+01 0.  0.
     999903    2    3    3    0    0  0.33044821341E-01 -0.11256237321E+00  0.49152575758E-01  0.12883533025E+00  0.20501671554E-01 0.  0.
         14    1    1    2    0    0 -0.51284799813E-03 -0.18257690076E-01 -0.15888027750E-01  0.24208173945E-01  0.00000000000E+00 0. -1.
     999901    1    3    3    0    0 -0.32531973343E-01  0.13082006329E+00 -0.33264548009E-01  0.89088649580E+00  0.88000000000E+00 0. -1.
        -11    1    4    4    0    0  0.13122770992E-02 -0.28553153522E-01  0.60408120911E-02  0.29219123514E-01  0.51100000000E-03 0. -1.
         11    1    4    4    0    0  0.31732544242E-01 -0.84009219693E-01  0.43111763667E-01  0.99616206738E-01  0.51100000000E-03 0.  1.
</event>
<event>
 8    1  0.1204770E+005  0.1043930E+01  0.7957747E-01            NaN
         13   -1    0    0    0    0  0.00000000000E+00  0.00000000000E+00  0.74505805969E-08  0.10566000000E+00  0.10566000000E+00 0. -1.
     999900   -1    0    0    0    0 -0.00000000000E+00 -0.00000000000E+00 -0.74505805969E-08  0.93827000000E+00  0.93827000000E+00 0. -1.
     999902    2    1    2    0    0 -0.15021686573E-01 -0.11406908424E-01 -0.12368764821E-01  0.10213744027E+01  0.10211253182E+01 0.  0.
     999903    2    3    3    0    0 -0.11883672744E+00 -0.45831852516E-01  0.34053300192E-01  0.13338924086E+00  0.20256747763E-01 0.  0.
         14    1    1    2    0    0  0.15021686573E-01  0.11406908424E-01  0.12368764821E-01  0.22555597320E-01  0.00000000000E+00 0.  1.
     999901    1    3    3    0    0  0.10381504087E+00  0.34424944092E-01 -0.46422065013E-01  0.88798516182E+00  0.88000000000E+00 0. -1.
        -11    1    4    4    0    0 -0.45050604512E-01 -0.22731512816E-01  0.22342396351E-01  0.55188064267E-01  0.51100000000E-03 0. -1.
         11    1    4    4    0    0 -0.73786122929E-01 -0.23100339700E-01  0.11710903841E-01  0.78201176596E-01  0.51100000000E-03 0.  1.
</event>
<event>
 8    1  0.1204770E+005  0.1043930E+01  0.7957747E-01            NaN
         13   -1    0    0    0    0  0.00000000000E+00  0.00000000000E+00  0.74505805969E-08  0.10566000000E+00  0.10566000000E+00 0. -1.
     999900   -1    0    0    0    0 -0.00000000000E+00 -0.00000000000E+00 -0.74505805969E-08  0.93827000000E+00  0.93827000000E+00 0. -1.
     999902    2    1    2    0    0  0.10629761483E-01 -0.20955693088E-01 -0.94358048326E-03  0.10204135537E+01  0.10201425378E+01 0.  0.
     999903    2    3    3    0    0 -0.36056372458E-01  0.14643126906E-01 -0.12252498571E+00  0.13011646330E+00  0.20085784490E-01 0.  0.
         14    1    1    2    0    0 -0.10629761483E-01  0.20955693088E-01  0.94358048326E-03  0.23516446290E-01  0.00000000000E+00 0. -1.
     999901    1    3    3    0    0  0.46686133941E-01 -0.35598819994E-01  0.12158140523E+00  0.89029709041E+00  0.88000000000E+00 0.  1.
        -11    1    4    4    0    0 -0.17615586693E-01  0.62200540123E-03 -0.30612840105E-01  0.35328499622E-01  0.51100000000E-03 0.  1.
         11    1    4    4    0    0 -0.18440785766E-01  0.14021121505E-01 -0.91912145607E-01  0.94787963683E-01  0.51100000000E-03 0. -1.
</event>
<event>
 8    1  0.1204770E+005  0.1043930E+01  0.7957747E-01            NaN
         13   -1    0    0    0    0  0.00000000000E+00  0.00000000000E+00  0.74505805969E-08  0.10566000000E+00  0.10566000000E+00 0.  1.
     999900   -1    0    0    0    0 -0.00000000000E+00 -0.00000000000E+00 -0.74505805969E-08  0.93827000000E+00  0.93827000000E+00 0. -1.
     999902    2    1    2    0    0 -0.22301267673E-01  0.95920496726E-03  0.49404991707E-02  0.10210679103E+01  0.10208119329E+01 0.  0.
     999903    2    3    3    0    0 -0.11991411834E+00 -0.53513811355E-01 -0.15709421509E-01  0.13375624162E+00  0.20020551077E-01 0.  0.
         14    1    1    2    0    0  0.22301267673E-01 -0.95920496726E-03 -0.49404991707E-02  0.22862089713E-01  0.00000000000E+00 0. -1.
     999901    1    3    3    0    0  0.97612850669E-01  0.54473016322E-01  0.20649920680E-01  0.88731166866E+00  0.88000000000E+00 0.  1.
        -11    1    4    4    0    0 -0.69921660643E-01 -0.20687636211E-01 -0.60182257495E-02  0.73167595842E-01  0.51100000000E-03 0. -1.
         11    1    4    4    0    0 -0.49992457699E-01 -0.32826175143E-01 -0.96911957597E-02  0.60588645781E-01  0.51100000000E-03 0.  1.
</event>
<event>
 8    1  0.1262267E+005  0.1043930E+01  0.7957747E-01            NaN
         13   -1    0    0    0    0  0.00000000000E+00  0.00000000000E+00  0.74505805969E-08  0.10566000000E+00  0.10566000000E+00 0.  1.
     999900   -1    0    0    0    0 -0.00000000000E+00 -0.00000000000E+00 -0.74505805969E-08  0.93827000000E+00  0.93827000000E+00 0.  1.
     999902    2    1    2    0    0  0.21455558336E-02  0.19322547020E-01 -0.13995110413E-01  0.10199753063E+01  0.10196939728E+01 0.  0.
     999903    2    3    3    0    0  0.26736734574E-01 -0.40175133200E-01 -0.11924282423E+00  0.13136865472E+00  0.26645412558E-01 0.  0.
         14    1    1    2    0    0 -0.21455558336E-02 -0.19322547020E-01  0.13995110413E-01  0.23954693666E-01  0.00000000000E+00 0.  1.
     999901    1    3    3    0    0 -0.24591178740E-01  0.59497680221E-01  0.10524771382E+00  0.88860665161E+00  0.88000000000E+00 0. -1.
        -11    1    4    4    0    0  0.26921756560E-01 -0.18760838261E-01 -0.60267491908E-01  0.68623477982E-01  0.51100000000E-03 0.  1.
         11    1    4    4    0    0 -0.18502198589E-03 -0.21414294939E-01 -0.58975332320E-01  0.62745176740E-01  0.51100000000E-03 0. -1.
</event>
<event>
 7    1  0.1204770E+005  0.1043930E+01  0.7957747E-01            NaN
         13   -1    0    0    0    0  0.00000000000E+00  0.00000000000E+00  0.74505805969E-08  0.10566000000E+00  0.10566000000E+00 0.  1.
     999900   -1    0    0    0    0 -0.00000000000E+00 -0.00000000000E+00 -0.74505805969E-08  0.93827000000E+00  0.93827000000E+00 0.  1.
     999903    2    1    2    0    0  0.91270910195E-01  0.48165668744E-01  0.16220562459E-01  0.10640947828E+00  0.20237582094E-01 0.  0.
         14    1    1    2    0    0  0.37612452266E-01 -0.13623135246E-01 -0.25452237255E-01  0.47414162026E-01  0.00000000000E+00 0. -1.
     999901    1    1    2    0    0 -0.12888336246E+00 -0.34542533498E-01  0.92316747957E-02  0.89010635969E+00  0.88000000000E+00 0. -1.
        -11    1    3    3    0    0  0.47782135933E-01  0.19174410961E-01 -0.62818288485E-03  0.51492196348E-01  0.51100000000E-03 0.  1.
         11    1    3    3    0    0  0.43488774262E-01  0.28991257783E-01  0.16848745344E-01  0.54917281937E-01  0.51100000000E-03 0. -1.
</event>
<event>
 8    1  0.1204770E+005  0.1043930E+01  0.7957747E-01            NaN
         13   -1    0    0    0    0  0.00000000000E+00  0.00000000000E+00  0.74505805969E-08  0.10566000000E+00  0.10566000000E+00 0. -1.
     999900   -1    0    0    0    0 -0.00000000000E+00 -0.00000000000E+00 -0.74505805969E-08  0.93827000000E+00  0.93827000000E+00 0.  1.
     999902    2    1    2    0    0 -0.75343858926E-02  0.22349263985E-01  0.95429623752E-03  0.10203256095E+01  0.10200525389E+01 0.  0.
     999903    2    3    3    0    0 -0.39047632118E-01  0.10327489786E+00  0.71654965247E-01  0.13322886868E+00  0.20617354430E-01 0.  0.
         14    1    1    2    0    0  0.75343858926E-02 -0.22349263985E-01 -0.95429623752E-03  0.23604390540E-01  0.00000000000E+00 0.  1.
     999901    1    3    3    0    0  0.31513246225E-01 -0.80925633872E-01 -0.70700669010E-01  0.88709674078E+00  0.88000000000E+00 0. -1.
        -11    1    4    4    0    0 -0.81781455774E-02  0.47876713472E-01  0.36128332599E-01  0.60535768727E-01  0.51100000000E-03 0.  1.
         11    1    4    4    0    0 -0.30869486540E-01  0.55398184385E-01  0.35526632648E-01  0.72693099953E-01  0.51100000000E-03 0. -1.
</event>
<event>
 8    1  0.1204770E+005  0.1043930E+01  0.7957747E-01            NaN
         13   -1    0    0    0    0  0.00000000000E+00  0.00000000000E+00  0.74505805969E-08  0.10566000000E+00  0.10566000000E+00 0. -1.
     999900   -1    0    0    0    0 -0.00000000000E+00 -0.00000000000E+00 -0.74505805969E-08  0.93827000000E+00  0.93827000000E+00 0.  1.
     999902    2    1    2    0    0 -0.77221653986E-02  0.20247087735E-01 -0.94595765740E-02  0.10202855506E+01  0.10200115415E+01 0.  0.
     999903    2    3    3    0    0 -0.36602297767E-01 -0.10614369568E+00  0.58443968140E-01  0.12819834431E+00  0.20320082146E-01 0.  0.
         14    1    1    2    0    0  0.77221653986E-02 -0.20247087735E-01  0.94595765740E-02  0.23644449436E-01  0.00000000000E+00 0. -1.
     999901    1    3    3    0    0  0.28880132369E-01  0.12639078341E+00 -0.67903544714E-01  0.89208720625E+00  0.88000000000E+00 0.  1.
        -11    1    4    4    0    0 -0.21316962909E-01 -0.67554745679E-01  0.25804499849E-01  0.75393566734E-01  0.51100000000E-03 0.  1.
         11    1    4    4    0    0 -0.15285334858E-01 -0.38588949997E-01  0.32639468291E-01  0.52804777576E-01  0.51100000000E-03 0. -1.
</event>
<event>
 8    1  0.1204770E+005  0.1043930E+01  0.7957747E-01            NaN
         13   -1    0    0    0    0  0.00000000000E+00  0.00000000000E+00  0.74505805969E-08  0.10566000000E+00  0.10566000000E+00 0.  1.
     999900   -1    0    0    0    0 -0.00000000000E+00 -0.00000000000E+00 -0.74505805969E-08  0.93827000000E+00  0.93827000000E+00 0. -1.
     999902    2    1    2    0    0 -0.87907510046E-02  0.21870807169E-01 -0.10628264132E-01  0.10180732889E+01  0.10177448856E+01 0.  0.
     999903    2    3    3    0    0  0.30078368405E-02  0.12967522015E+00 -0.79750266346E-02  0.13141211474E+00  0.19514944190E-01 0.  0.
         14    1    1    2    0    0  0.87907510046E-02 -0.21870807169E-01  0.10628264132E-01  0.25856711081E-01  0.00000000000E+00 0. -1.
     999901    1    3    3    0    0 -0.11798587845E-01 -0.10780441298E+00 -0.26532374970E-02  0.88666117418E+00  0.88000000000E+00 0.  1.
        -11    1    4    4    0    0  0.36257881856E-02  0.92569867827E-01 -0.14373290522E-01  0.93750623309E-01  0.51100000000E-03 0.  1.
         11    1    4    4    0    0 -0.61795134510E-03  0.37105352322E-01  0.63982638871E-02  0.37661491428E-01  0.51100000000E-03 0. -1.
</event>
<event>
 8    1  0.1204770E+005  0.1043930E+01  0.7957747E-01            NaN
         13   -1    0    0    0    0  0.00000000000E+00  0.00000000000E+00  0.74505805969E-08  0.10566000000E+00  0.10566000000E+00 0. -1.
     999900   -1    0    0    0    0 -0.00000000000E+00 -0.00000000000E+00 -0.74505805969E-08  0.93827000000E+00  0.93827000000E+00 0. -1.
     999902    2    1    2    0    0  0.10523007286E-01 -0.84581873862E-02 -0.19807800093E-01  0.10199586930E+01  0.10196769644E+01 0.  0.
     999903    2    3    3    0    0  0.73755083740E-01  0.91607095499E-01  0.50342039367E-01  0.12926662704E+00  0.18543667811E-01 0.  0.
         14    1    1    2    0    0 -0.10523007286E-01  0.84581873862E-02  0.19807800093E-01  0.23971307029E-01  0.00000000000E+00 0. -1.
     999901    1    3    3    0    0 -0.63232076454E-01 -0.10006528289E+00 -0.70149839460E-01  0.89069206593E+00  0.88000000000E+00 0.  1.
        -11    1    4    4    0    0  0.28685032466E-02  0.10861688941E-01  0.78863080300E-02  0.13735340290E-01  0.51100000000E-03 0. -1.
         11    1    4    4    0    0  0.70886580493E-01  0.80745406558E-01  0.42455731337E-01  0.11553128675E+00  0.51100000000E-03 0.  1.
</event>
<event>
 8    1  0.1204770E+005  0.1043930E+01  0.7957747E-01            NaN
         13   -1    0    0    0    0  0.00000000000E+00  0.00000000000E+00  0.74505805969E-08  0.10566000000E+00  0.10566000000E+00 0. -1.
     999900   -1    0    0    0    0 -0.00000000000E+00 -0.00000000000E+00 -0.74505805969E-08  0.93827000000E+00  0.93827000000E+00 0.  1.
     999902    2    1    2    0    0  0.19959834244E-01  0.11016092339E-01 -0.61427293447E-02  0.10203189349E+01  0.10200457080E+01 0.  0.
     999903    2    3    3    0    0  0.56090600884E-01  0.11348194359E+00 -0.36103708688E-01  0.13313104988E+00  0.19902050925E-01 0.  0.
         14    1    1    2    0    0 -0.19959834244E-01 -0.11016092339E-01  0.61427293447E-02  0.23611065145E-01  0.00000000000E+00 0.  1.
     999901    1    3    3    0    0 -0.36130766641E-01 -0.10246585125E+00  0.29960979343E-01  0.88718788498E+00  0.88000000000E+00 0.  1.
        -11    1    4    4    0    0  0.37194138793E-01  0.54042885489E-01 -0.21855767537E-01  0.69151812183E-01  0.51100000000E-03 0.  1.
         11    1    4    4    0    0  0.18896462092E-01  0.59439058103E-01 -0.14247941152E-01  0.63979237694E-01  0.51100000000E-03 0. -1.
</event>
<event>
 8    1  0.1204770E+005  0.1043930E+01  0.7957747E-01            NaN
         13   -1    0    0    0    0  0.00000000000E+00  0.00000000000E+00  0.74505805969E-08  0.10566000000E+00  0.10566000000E+00 0. -1.
     999900   -1    0    0    0    0 -0.00000000000E+00 -0.00000000000E+00 -0.74505805969E-08  0.93827000000E+00  0.93827000000E+00 0.  1.
     999902    2    1    2    0    0  0.13276710748E-01  0.75361537748E-02  0.17964608972E-01  0.10203547622E+01  0.10200823736E+01 0.  0.
     999903    2    3    3    0    0  0.15215079971E-01  0.78970802952E-01 -0.99616001213E-01  0.12966297136E+00  0.20524426072E-01 0.  0.
         14    1    1    2    0    0 -0.13276710748E-01 -0.75361537748E-02 -0.17964608972E-01  0.23575237804E-01  0.00000000000E+00 0.  1.
     999901    1    3    3    0    0 -0.19383692221E-02 -0.71434649177E-01  0.11758061019E+00  0.89069179084E+00  0.88000000000E+00 0. -1.
        -11    1    4    4    0    0  0.16634946776E-01  0.68178668020E-01 -0.94270133317E-01  0.11752519468E+00  0.51100000000E-03 0.  1.
         11    1    4    4    0    0 -0.14198668056E-02  0.10792134932E-01 -0.53458678968E-02  0.12137776679E-01  0.51100000000E-03 0. -1.
</event>
<event>
 8    1  0.1204770E+005  0.1043930E+01  0.7957747E-01            NaN
         13   -1    0    0    0    0  0.00000000000E+00  0.00000000000E+00  0.74505805969E-08  0.10566000000E+00  0.10566000000E+00 0.  1.
     999900   -1    0    0    0    0 -0.00000000000E+00 -0.00000000000E+00 -0.74505805969E-08  0.93827000000E+00  0.93827000000E+00 0.  1.
     999902    2    1    2    0    0  0.12607896092E-01  0.15409790056E-01 -0.14777530890E-01  0.10191349180E+01  0.10188332469E+01 0.  0.
     999903    2    3    3    0    0 -0.93156601445E-01  0.57554661037E-01 -0.67842795526E-01  0.13021521328E+00  0.19043777570E-01 0.  0.
         14    1    1    2    0    0 -0.12607896092E-01 -0.15409790056E-01  0.14777530890E-01  0.24795082025E-01  0.00000000000E+00 0. -1.
     999901    1    3    3    0    0  0.10576449754E+00 -0.42144870981E-01  0.53065264636E-01  0.88891970470E+00  0.88000000000E+00 0. -1.
        -11    1    4    4    0    0 -0.71252461668E-01  0.52802182250E-01 -0.52739179168E-01  0.10318268210E+00  0.51100000000E-03 0. -1.
         11    1    4    4    0    0 -0.21904139776E-01  0.47524787870E-02 -0.15103616359E-01  0.27032531181E-01  0.51100000000E-03 0.  1.
</event>
<event>
 8    1  0.1204770E+005  0.1043930E+01  0.7957747E-01            NaN
         13   -1    0    0    0    0  0.00000000000E+00  0.00000000000E+00  0.74505805969E-08  0.10566000000E+00  0.10566000000E+00 0. -1.
     999900   -1    0    0    0    0 -0.00000000000E+00 -0.00000000000E+00 -0.74505805969E-08  0.93827000000E+00  0.93827000000E+00 0. -1.
     999902    2    1    2    0    0  0.50596478749E-03 -0.58241163284E-02 -0.23508517805E-01  0.10197054930E+01  0.10194177091E+01 0.  0.
     999903    2    3    3    0    0 -0.16699653307E-01 -0.99404737335E-01  0.77812305955E-01  0.12879625222E+00  0.19327167498E-01 0.  0.
         14    1    1    2    0    0 -0.50596478749E-03  0.58241163284E-02  0.23508517805E-01  0.24224507029E-01  0.00000000000E+00 0. -1.
     999901    1    3    3    0    0  0.17205618095E-01  0.93580621007E-01 -0.10132082376E+00  0.89090924075E+00  0.88000000000E+00 0. -1.
        -11    1    4    4    0    0 -0.11374892164E-01 -0.35836010721E-01  0.38743362059E-01  0.53989971854E-01  0.51100000000E-03 0.  1.
         11    1    4    4    0    0 -0.53247611431E-02 -0.63568726614E-01  0.39068943896E-01  0.74806280369E-01  0.51100000000E-03 0. -1.
</event>
<event>
 8    1  0.1204770E+005  0.1043930E+01  0.7957747E-01            NaN
         13   -1    0    0    0    0  0.00000000000E+00  0.00000000000E+00  0.74505805969E-08  0.10566000000E+00  0.10566000000E+00 0.  1.
     999900   -1    0    0    0    0 -0.00000000000E+00 -0.00000000000E+00 -0.74505805969E-08  0.93827000000E+00  0.93827000000E+00 0. -1.
     999902    2    1    2    0    0  0.24265925229E-02  0.19885971420E-01  0.10233221173E-01  0.10214342443E+01  0.10211864944E+01 0.  0.
     999903    2    3    3    0    0  0.52518152447E-01  0.12172502521E+00  0.20443290635E-02  0.13410825275E+00  0.20142146765E-01 0.  0.
         14    1    1    2    0    0 -0.24265925229E-02 -0.19885971420E-01 -0.10233221173E-01  0.22495755737E-01  0.00000000000E+00 0. -1.
     999901    1    3    3    0    0 -0.50091559924E-01 -0.10183905379E+00  0.81888921100E-02  0.88732599151E+00  0.88000000000E+00 0.  1.
        -11    1    4    4    0    0  0.40799147713E-01  0.70239596494E-01 -0.67418831427E-03  0.81233533843E-01  0.51100000000E-03 0. -1.
         11    1    4    4    0    0  0.11719004733E-01  0.51485428718E-01  0.27185173778E-02  0.52874718912E-01  0.51100000000E-03 0.  1.
</event>
<event>
 8    1  0.1307656E+005  0.1043930E+01  0.7957747E-01            NaN
         13   -1    0    0    0    0  0.00000000000E+00  0.00000000000E+00  0.74505805969E-08  0.10566000000E+00  0.10566000000E+00 0.  1.
     999900   -1    0    0    0    0 -0.00000000000E+00 -0.00000000000E+00 -0.74505805969E-08  0.93827000000E+00  0.93827000000E+00 0.  1.
     999902    2    1    2    0    0 -0.13002829914E-01 -0.17631053719E-01  0.97825948677E-02  0.10199377762E+01  0.10196555499E+01 0.  0.
     999903    2    3    3    0    0  0.73238821692E-01  0.94775539899E-01 -0.37900478586E-01  0.12733117737E+00  0.20747397133E-01 0.  0.
         14    1    1    2    0    0  0.13002829914E-01  0.17631053719E-01 -0.97825948677E-02  0.23992223810E-01  0.00000000000E+00 0. -1.
     999901    1    3    3    0    0 -0.86241651605E-01 -0.11240659362E+00  0.47683073454E-01  0.89260659882E+00  0.88000000000E+00 0. -1.
        -11    1    4    4    0    0  0.43567692327E-01  0.71061627346E-01 -0.22478510977E-01  0.86333326546E-01  0.51100000000E-03 0. -1.
         11    1    4    4    0    0  0.29671129365E-01  0.23713912552E-01 -0.15421967609E-01  0.40997850825E-01  0.51100000000E-03 0.  1.
</event>
<event>
 8    1  0.1204770E+005  0.1043930E+01  0.7957747E-01            NaN
         13   -1    0    0    0    0  0.00000000000E+00  0.00000000000E+00  0.74505805969E-08  0.10566000000E+00  0.10566000000E+00 0.  1.
     999900   -1    0    0    0    0 -0.00000000000E+00 -0.00000000000E+00 -0.74505805969E-08  0.93827000000E+00  0.93827000000E+00 0.  1.
     999902    2    1    2    0    0  0.11164825475E-01  0.14906573578E-01 -0.13962381594E-01  0.10206532441E+01  0.10203877878E+01 0.  0.
     999903    2    3    3    0    0  0.10492919875E+00  0.23698879613E-01  0.72939767804E-01  0.13137204794E+00  0.19147626678E-01 0.  0.
         14    1    1    2    0    0 -0.11164825475E-01 -0.14906573578E-01  0.13962381594E-01  0.23276755863E-01  0.00000000000E+00 0.  1.
     999901    1    3    3    0    0 -0.93764373275E-01 -0.87923060342E-02 -0.86902149397E-01  0.88928119620E+00  0.88000000000E+00 0.  1.
        -11    1    4    4    0    0  0.31896884790E-01  0.31528957363E-02  0.31411596028E-01  0.44880970320E-01  0.51100000000E-03 0.  1.
         11    1    4    4    0    0  0.73032313959E-01  0.20545983876E-01  0.41528171776E-01  0.86491077619E-01  0.51100000000E-03 0. -1.
</event>
<event>
 8    1  0.1204770E+005  0.1043930E+01  0.7957747E-01            NaN
         13   -1    0    0    0    0  0.00000000000E+00  0.00000000000E+00  0.74505805969E-08  0.10566000000E+00  0.10566000000E+00 0. -1.
     999900   -1    0    0    0    0 -0.00000000000E+00 -0.00000000000E+00 -0.74505805969E-08  0.93827000000E+00  0.93827000000E+00 0.  1.
     999902    2    1    2    0    0  0.55853986158E-02  0.19204881171E-01  0.11438806917E-01  0.10208893741E+01  0.10206293371E+01 0.  0.
     999903    2    3    3    0    0  0.96090557155E-01 -0.49516374289E-01  0.71165522021E-01  0.13157442697E+00  0.23707210121E-01 0.  0.
         14    1    1    2    0    0 -0.55853986158E-02 -0.19204881171E-01 -0.11438806917E-01  0.23040625907E-01  0.00000000000E+00 0. -1.
     999901    1    3    3    0    0 -0.90505158539E-01  0.68721255460E-01 -0.59726715104E-01  0.88931494712E+00  0.88000000000E+00 0. -1.
        -11    1    4    4    0    0  0.60233732076E-01 -0.36935615023E-01  0.33978428527E-01  0.78403678888E-01  0.51100000000E-03 0. -1.
         11    1    4    4    0    0  0.35856825078E-01 -0.12580759266E-01  0.37187093494E-01  0.53170748085E-01  0.51100000000E-03 0.  1.
</event>
<event>
 8    1  0.1204770E+005  0.1043930E+01  0.7957747E-01            NaN
         13   -1    0    0    0    0  0.00000000000E+00  0.00000000000E+00  0.74505805969E-08  0.10566000000E+00  0.10566000000E+00 0.  1.
     999900   -1    0    0    0    0 -0.00000000000E+00 -0.00000000000E+00 -0.74505805969E-08  0.93827000000E+00  0.93827000000E+00 0.  1.
     999902    2    1    2    0    0  0.17586795173E-01 -0.43621912582E-02  0.15059145160E-01  0.10203693988E+01  0.10200973522E+01 0.  0.
     999903    2    3    3    0    0  0.87110697257E-01  0.72955272486E-01 -0.61872519012E-01  0.13091448474E+00  0.19991206681E-01 0.  0.
         14    1    1    2    0    0 -0.17586795173E-01  0.43621912582E-02 -0.15059145160E-01  0.23560601223E-01  0.00000000000E+00 0. -1.
     999901    1    3    3    0    0 -0.69523902084E-01 -0.77317463744E-01  0.76931664172E-01  0.88945491404E+00  0.88000000000E+00 0. -1.
        -11    1    4    4    0    0  0.34998505465E-01  0.30270837365E-01 -0.36471206592E-01  0.58920531318E-01  0.51100000000E-03 0. -1.
         11    1    4    4    0    0  0.52112191792E-01  0.42684435121E-01 -0.25401312420E-01  0.71993953417E-01  0.51100000000E-03 0.  1.
</event>
<event>
 8    1  0.1204770E+005  0.1043930E+01  0.7957747E-01            NaN
         13   -1    0    0    0    0  0.00000000000E+00  0.00000000000E+00  0.74505805969E-08  0.10566000000E+00  0.10566000000E+00 0.  1.
     999900   -1    0    0    0    0 -0.00000000000E+00 -0.00000000000E+00 -0.74505805969E-08  0.93827000000E+00  0.93827000000E+00 0. -1.
     999902    2    1    2    0    0 -0.21993568045E-02 -0.18840980002E-01 -0.15089090205E-01  0.10196915937E+01  0.10194034755E+01 0.  0.
     999903    2    3    3    0    0  0.98246373791E-01 -0.77095084061E-01 -0.37066317088E-01  0.13179188992E+00  0.19979700612E-01 0.  0.
         14    1    1    2    0    0  0.21993568045E-02  0.18840980002E-01  0.15089090205E-01  0.24238406321E-01  0.00000000000E+00 0.  1.
     999901    1    3    3    0    0 -0.10044573060E+00  0.58254104059E-01  0.21977226883E-01  0.88789970376E+00  0.88000000000E+00 0.  1.
        -11    1    4    4    0    0  0.23151643594E-01 -0.13004050592E-01 -0.66390009494E-03  0.26567006177E-01  0.51100000000E-03 0. -1.
         11    1    4    4    0    0  0.75094730197E-01 -0.64091033469E-01 -0.36402416993E-01  0.10522488374E+00  0.51100000000E-03 0.  1.
</event>
<event>
 8    1  0.1204770E+005  0.1043930E+01  0.7957747E-01            NaN
         13   -1    0    0    0    0  0.00000000000E+00  0.00000000000E+00  0.74505805969E-08  0.10566000000E+00  0.10566000000E+00 0.  1.
     999900   -1    0    0    0    0 -0.00000000000E+00 -0.00000000000E+00 -0.74505805969E-08  0.93827000000E+00  0.93827000000E+00 0.  1.
     999902    2    1    2    0    0  0.16524994061E-01 -0.18734467107E-01 -0.58886897900E-02  0.10182642182E+01  0.10179407084E+01 0.  0.
     999903    2    3    3    0    0 -0.90998647141E-01  0.36769903073E-01 -0.78076178078E-01  0.12705543125E+00  0.20357147955E-01 0.  0.
         14    1    1    2    0    0 -0.16524994061E-01  0.18734467107E-01  0.58886897900E-02  0.25665781771E-01  0.00000000000E+00 0. -1.
     999901    1    3    3    0    0  0.10752364120E+00 -0.55504370180E-01  0.72187488288E-01  0.89120878698E+00  0.88000000000E+00 0. -1.
        -11    1    4    4    0    0 -0.31849545323E-01  0.22239885177E-01 -0.24451000330E-01  0.45903361186E-01  0.51100000000E-03 0. -1.
         11    1    4    4    0    0 -0.59149101818E-01  0.14530017895E-01 -0.53625177748E-01  0.81152070062E-01  0.51100000000E-03 0.  1.
</event>
<event>
 8    1  0.1204770E+005  0.1043930E+01  0.7957747E-01            NaN
         13   -1    0    0    0    0  0.00000000000E+00  0.00000000000E+00  0.74505805969E-08  0.10566000000E+00  0.10566000000E+00 0. -1.
     999900   -1    0    0    0    0 -0.00000000000E+00 -0.00000000000E+00 -0.74505805969E-08  0.93827000000E+00  0.93827000000E+00 0.  1.
     999902    2    1    2    0    0  0.11471514334E-01 -0.48176593654E-02 -0.19965039448E-01  0.10204053686E+01  0.10201341617E+01 0.  0.
     999903    2    3    3    0    0 -0.54281838283E-01 -0.11686111241E+00  0.26075025778E-02  0.13058136441E+00  0.21015615661E-01 0.  0.
         14    1    1    2    0    0 -0.11471514334E-01  0.48176593654E-02  0.19965039448E-01  0.23524631412E-01  0.00000000000E+00 0. -1.
     999901    1    3    3    0    0  0.65753352618E-01  0.11204345304E+00 -0.22572542026E-01  0.88982400417E+00  0.88000000000E+00 0.  1.
        -11    1    4    4    0    0 -0.24046277617E-01 -0.75896127224E-01  0.27581069290E-02  0.79663755056E-01  0.51100000000E-03 0. -1.
         11    1    4    4    0    0 -0.30235560667E-01 -0.40964985186E-01 -0.15060435120E-03  0.50917609358E-01  0.51100000000E-03 0.  1.
</event>
<event>
 8    1  0.1204770E+005  0.1043930E+01  0.7957747E-01            NaN
         13   -1    0    0    0    0  0.00000000000E+00  0.00000000000E+00  0.74505805969E-08  0.10566000000E+00  0.10566000000E+00 0. -1.
     999900   -1    0    0    0    0 -0.00000000000E+00 -0.00000000000E+00 -0.74505805969E-08  0.93827000000E+00  0.93827000000E+00 0. -1.
     999902    2    1    2    0    0  0.18385535131E-01 -0.52075645563E-02 -0.15227698596E-01  0.10194958142E+01  0.10192029659E+01 0.  0.
     999903    2    3    3    0    0 -0.14552741050E-01 -0.12343105400E+00 -0.35035182806E-01  0.13075847398E+00  0.20574428795E-01 0.  0.
         14    1    1    2    0    0 -0.18385535131E-01  0.52075645563E-02  0.15227698596E-01  0.24434185790E-01  0.00000000000E+00 0.  1.
     999901    1    3    3    0    0  0.32938276181E-01  0.11822348944E+00  0.19807484210E-01  0.88873734023E+00  0.88000000000E+00 0. -1.
        -11    1    4    4    0    0 -0.10403225552E-01 -0.41164547328E-01 -0.36840614548E-02  0.42621361879E-01  0.51100000000E-03 0. -1.
         11    1    4    4    0    0 -0.41495154973E-02 -0.82266506667E-01 -0.31351121351E-01  0.88137112099E-01  0.51100000000E-03 0.  1.
</event>
<event>
 8    1  0.1204770E+005  0.1043930E+01  0.7957747E-01            NaN
         13   -1    0    0    0    0  0.00000000000E+00  0.00000000000E+00  0.74505805969E-08  0.10566000000E+00  0.10566000000E+00 0.  1.
     999900   -1    0    0    0    0 -0.00000000000E+00 -0.00000000000E+00 -0.74505805969E-08  0.93827000000E+00  0.93827000000E+00 0.  1.
     999902    2    1    2    0    0 -0.18586977687E-02 -0.16806924587E-01  0.16011916843E-01  0.10206424722E+01  0.10203767672E+01 0.  0.
     999903    2    3    3    0    0 -0.12005887023E-01  0.35856018516E-01  0.12520010539E+00  0.13227407362E+00  0.19788096820E-01 0.  0.
         14    1    1    2    0    0  0.18586977687E-02  0.16806924587E-01 -0.16011916843E-01  0.23287527831E-01  0.00000000000E+00 0. -1.
     999901    1    3    3    0    0  0.10147189254E-01 -0.52662943104E-01 -0.10918818854E+00  0.88836839855E+00  0.88000000000E+00 0. -1.
        -11    1    4    4    0    0 -0.36829385656E-03  0.28946559813E-01  0.90769379450E-01  0.95275287100E-01  0.51100000000E-03 0.  1.
         11    1    4    4    0    0 -0.11637593166E-01  0.69094587035E-02  0.34430725937E-01  0.36998786518E-01  0.51100000000E-03 0. -1.
</event>
<event>
 8    1  0.1204770E+005  0.1043930E+01  0.7957747E-01            NaN
         13   -1    0    0    0    0  0.00000000000E+00  0.00000000000E+00  0.74505805969E-08  0.10566000000E+00  0.10566000000E+00 0. -1.
     999900   -1    0    0    0    0 -0.00000000000E+00 -0.00000000000E+00 -0.74505805969E-08  0.93827000000E+00  0.93827000000E+00 0. -1.
     999902    2    1    2    0    0  0.62585663784E-02 -0.15968020616E-03 -0.18259613075E-01  0.10246269272E+01  0.10244450846E+01 0.  0.
     999903    2    3    3    0    0  0.13246039610E+00  0.21143272523E-02  0.16201378519E-01  0.13495303586E+00  0.19990255311E-01 0.  0.
         14    1    1    2    0    0 -0.62585663784E-02  0.15968020616E-03  0.18259613075E-01  0.19303072826E-01  0.00000000000E+00 0.  1.
     999901    1    3    3    0    0 -0.12620182973E+00 -0.22740074584E-02 -0.34460991594E-01  0.88967389131E+00  0.88000000000E+00 0.  1.
        -11    1    4    4    0    0  0.94869221790E-01 -0.71973302634E-03  0.20327599103E-01  0.97026592566E-01  0.51100000000E-03 0.  1.
         11    1    4    4    0    0  0.37591174314E-01  0.28340602786E-02 -0.41262205844E-02  0.37926443298E-01  0.51100000000E-03 0. -1.
</event>
<event>
 8    1  0.1204770E+005  0.1043930E+01  0.7957747E-01            NaN
         13   -1    0    0    0    0  0.00000000000E+00  0.00000000000E+00  0.74505805969E-08  0.10566000000E+00  0.10566000000E+00 0. -1.
     999900   -1    0    0    0    0 -0.00000000000E+00 -0.00000000000E+00 -0.74505805969E-08  0.93827000000E+00  0.93827000000E+00 0. -1.
     999902    2    1    2    0    0  0.91102782974E-02  0.80921780635E-02 -0.20533940651E-01  0.10200527465E+01  0.10197732505E+01 0.  0.
     999903    2    3    3    0    0  0.31136328939E-01 -0.69839397679E-01  0.10068226452E+00  0.12805955941E+00  0.20379399360E-01 0.  0.
         14    1    1    2    0    0 -0.91102782974E-02 -0.80921780635E-02  0.20533940651E-01  0.23877253509E-01  0.00000000000E+00 0. -1.
     999901    1    3    3    0    0 -0.22026050642E-01  0.77931575742E-01 -0.12121620518E+00  0.89199318708E+00  0.88000000000E+00 0. -1.
        -11    1    4    4    0    0  0.19615391102E-01 -0.62075680360E-01  0.85652864076E-01  0.10758637416E+00  0.51100000000E-03 0.  1.
         11    1    4    4    0    0  0.11520937837E-01 -0.77637173187E-02  0.15029400449E-01  0.20473185245E-01  0.51100000000E-03 0. -1.
</event>
<event>
 8    1  0.1204770E+005  0.1043930E+01  0.7957747E-01            NaN
         13   -1    0    0    0    0  0.00000000000E+00  0.00000000000E+00  0.74505805969E-08  0.10566000000E+00  0.10566000000E+00 0. -1.
     999900   -1    0    0    0    0 -0.00000000000E+00 -0.00000000000E+00 -0.74505805969E-08  0.93827000000E+00  0.93827000000E+00 0. -1.
     999902    2    1    2    0    0  0.41470769733E-02  0.18507507491E-01 -0.24583170789E-01  0.10128807107E+01  0.10124046996E+01 0.  0.
     999903    2    3    3    0    0  0.10398250570E+00  0.60491798084E-01  0.24818954296E-01  0.12486586652E+00  0.22447383005E-01 0.  0.
         14    1    1    2    0    0 -0.41470769733E-02 -0.18507507491E-01  0.24583170789E-01  0.31049289315E-01  0.00000000000E+00 0. -1.
     999901    1    3    3    0    0 -0.99835428726E-01 -0.41984290593E-01 -0.49402125084E-01  0.88801484416E+00  0.88000000000E+00 0.  1.
        -11    1    4    4    0    0  0.70290057404E-01  0.52242327870E-01  0.15455917785E-01  0.88933118166E-01  0.51100000000E-03 0. -1.
         11    1    4    4    0    0  0.33692448295E-01  0.82494702139E-02  0.93630365111E-02  0.35932748359E-01  0.51100000000E-03 0.  1.
</event>
<event>
 8    1  0.1204770E+005  0.1043930E+01  0.7957747E-01            NaN
         13   -1    0    0    0    0  0.00000000000E+00  0.00000000000E+00  0.74505805969E-08  0.10566000000E+00  0.10566000000E+00 0. -1.
     999900   -1    0    0    0    0 -0.00000000000E+00 -0.00000000000E+00 -0.74505805969E-08  0.93827000000E+00  0.93827000000E+00 0. -1.
     999902    2    1    2    0    0 -0.20121819563E-01 -0.29031298701E-02 -0.11695037322E-01  0.10204760092E+01  0.10202064476E+01 0.  0.
     999903    2    3    3    0    0  0.31120503043E-01  0.11423006207E+00  0.45910985599E-01  0.12937308915E+00  0.24750450650E-01 0.  0.
         14    1    1    2    0    0  0.20121819563E-01  0.29031298701E-02  0.11695037322E-01  0.23453990780E-01  0.00000000000E+00 0.  1.
     999901    1    3    3    0    0 -0.51242322605E-01 -0.11713319194E+00 -0.57606022921E-01  0.89110292007E+00  0.88000000000E+00 0. -1.
        -11    1    4    4    0    0  0.66956691770E-02  0.37265380797E-02  0.16574181560E-02  0.78566677244E-02  0.51100000000E-03 0.  1.
         11    1    4    4    0    0  0.24424833866E-01  0.11050352399E+00  0.44253567443E-01  0.12151642143E+00  0.51100000000E-03 0. -1.
</event>
<event>
 8    1  0.1204770E+005  0.1043930E+01  0.7957747E-01            NaN
         13   -1    0    0    0    0  0.00000000000E+00  0.00000000000E+00  0.74505805969E-08  0.10566000000E+00  0.10566000000E+00 0. -1.
     999900   -1    0    0    0    0 -0.00000000000E+00 -0.00000000000E+00 -0.74505805969E-08  0.93827000000E+00  0.93827000000E+00 0.  1.
     999902    2    1    2    0    0  0.17592286314E-01  0.15201521439E-01 -0.36335478634E-02  0.10203975233E+01  0.10201261334E+01 0.  0.
     999903    2    3    3    0    0  0.43544023936E-01  0.12405143281E+00  0.73009961015E-02  0.13324400771E+00  0.20391690550E-01 0.  0.
         14    1    1    2    0    0 -0.17592286314E-01 -0.15201521439E-01  0.36335478634E-02  0.23532476748E-01  0.00000000000E+00 0.  1.
     999901    1    3    3    0    0 -0.25951737621E-01 -0.10884991137E+00 -0.10934543965E-01  0.88715351554E+00  0.88000000000E+00 0.  1.
        -11    1    4    4    0    0  0.12931866036E-01  0.54732155376E-01  0.11274579874E-01  0.57360432910E-01  0.51100000000E-03 0. -1.
         11    1    4    4    0    0  0.30612157900E-01  0.69319277432E-01 -0.39735837728E-02  0.75883574797E-01  0.51100000000E-03 0.  1.
</event>
<event>
 8    1  0.1204770E+005  0.1043930E+01  0.7957747E-01            NaN
         13   -1    0    0    0    0  0.00000000000E+00  0.00000000000E+00  0.74505805969E-08  0.10566000000E+00  0.10566000000E+00 0. -1.
     999900   -1    0    0    0    0 -0.00000000000E+00 -0.00000000000E+00 -0.74505805969E-08  0.93827000000E+00  0.93827000000E+00 0.  1.
     999902    2    1    2    0    0  0.22876050676E-01 -0.78654619974E-03 -0.68477689233E-02  0.10200380706E+01  0.10197582269E+01 0.  0.
     999903    2    3    3    0    0  0.60761675741E-01 -0.70620650197E-01  0.90142223307E-01  0.13115158674E+00  0.19896251100E-01 0.  0.
         14    1    1    2    0    0 -0.22876050676E-01  0.78654619974E-03  0.68477689233E-02  0.23891929363E-01  0.00000000000E+00 0.  1.
     999901    1    3    3    0    0 -0.37885625065E-01  0.69834103997E-01 -0.96989992230E-01  0.88888648390E+00  0.88000000000E+00 0.  1.
        -11    1    4    4    0    0  0.20145236469E-01 -0.21332802206E-01  0.16482120520E-01  0.33657694814E-01  0.51100000000E-03 0. -1.
         11    1    4    4    0    0  0.40616439273E-01 -0.49287847990E-01  0.73660102787E-01  0.97493891923E-01  0.51100000000E-03 0.  1.
</event>
<event>
 8    1  0.1204770E+005  0.1043930E+01  0.7957747E-01            NaN
         13   -1    0    0    0    0  0.00000000000E+00  0.00000000000E+00  0.74505805969E-08  0.10566000000E+00  0.10566000000E+00 0. -1.
     999900   -1    0    0    0    0 -0.00000000000E+00 -0.00000000000E+00 -0.74505805969E-08  0.93827000000E+00  0.93827000000E+00 0.  1.
     999902    2    1    2    0    0 -0.93908678365E-02  0.21424964916E-01 -0.21631867459E-02  0.10204375140E+01  0.10201670565E+01 0.  0.
     999903    2    3    3    0    0  0.32598194338E-01 -0.64563427517E-01  0.10528679815E+00  0.12875226450E+00  0.16147981335E-01 0.  0.
         14    1    1    2    0    0  0.93908678365E-02 -0.21424964916E-01  0.21631867459E-02  0.23492485975E-01  0.00000000000E+00 0.  1.
     999901    1    3    3    0    0 -0.41989062175E-01  0.85988392432E-01 -0.10744998490E+00  0.89168524953E+00  0.88000000000E+00 0.  1.
        -11    1    4    4    0    0  0.27377441493E-01 -0.62729983031E-01  0.99060193486E-01  0.12040663656E+00  0.51100000000E-03 0. -1.
         11    1    4    4    0    0  0.52207528450E-02 -0.18334444850E-02  0.62266046640E-02  0.83456279326E-02  0.51100000000E-03 0.  1.
</event>
<event>
 8    1  0.1204770E+005  0.1043930E+01  0.7957747E-01            NaN
         13   -1    0    0    0    0  0.00000000000E+00  0.00000000000E+00  0.74505805969E-08  0.10566000000E+00  0.10566000000E+00 0.  1.
     999900   -1    0    0    0    0 -0.00000000000E+00 -0.00000000000E+00 -0.74505805969E-08  0.93827000000E+00  0.93827000000E+00 0.  1.
     999902    2    1    2    0    0  0.37337224537E-02  0.22980558087E-01  0.55444637207E-02  0.10199970142E+01  0.10197161963E+01 0.  0.
     999903    2    3    3    0    0 -0.66329434893E-01 -0.61529859560E-01  0.90062278620E-01  0.12915801763E+00  0.19622995088E-01 0.  0.
         14    1    1    2    0    0 -0.37337224537E-02 -0.22980558087E-01 -0.55444637207E-02  0.23932985841E-01  0.00000000000E+00 0.  1.
     999901    1    3    3    0    0  0.70063157347E-01  0.84510417646E-01 -0.84517814899E-01  0.89083899653E+00  0.88000000000E+00 0.  1.
        -11    1    4    4    0    0 -0.12135404706E-01 -0.93098876697E-02  0.62959635104E-02  0.16548182176E-01  0.51100000000E-03 0.  1.
         11    1    4    4    0    0 -0.54194030187E-01 -0.52219971890E-01  0.83766315109E-01  0.11260983545E+00  0.51100000000E-03 0. -1.
</event>
<event>
 8    1  0.1204770E+005  0.1043930E+01  0.7957747E-01            NaN
         13   -1    0    0    0    0  0.00000000000E+00  0.00000000000E+00  0.74505805969E-08  0.10566000000E+00  0.10566000000E+00 0. -1.
     999900   -1    0    0    0    0 -0.00000000000E+00 -0.00000000000E+00 -0.74505805969E-08  0.93827000000E+00  0.93827000000E+00 0.  1.
     999902    2    1    2    0    0 -0.20465507088E-01 -0.10100432827E-01 -0.64356133940E-02  0.10202177069E+01  0.10199421046E+01 0.  0.
     999903    2    3    3    0    0 -0.70584395984E-01 -0.34230811163E-01  0.10395246668E+00  0.13157846267E+00  0.18784864173E-01 0.  0.
         14    1    1    2    0    0  0.20465507088E-01  0.10100432827E-01  0.64356133940E-02  0.23712293087E-01  0.00000000000E+00 0.  1.
     999901    1    3    3    0    0  0.50118888896E-01  0.24130378336E-01 -0.11038808007E+00  0.88863924424E+00  0.88000000000E+00 0.  1.
        -11    1    4    4    0    0 -0.88165442685E-02 -0.10909375216E-01  0.12588878371E-01  0.18854360241E-01  0.51100000000E-03 0.  1.
         11    1    4    4    0    0 -0.61767851716E-01 -0.23321435947E-01  0.91363588304E-01  0.11272410243E+00  0.51100000000E-03 0. -1.
</event>
<event>
 8    1  0.1204770E+005  0.1043930E+01  0.7957747E-01            NaN
         13   -1    0    0    0    0  0.00000000000E+00  0.00000000000E+00  0.74505805969E-08  0.10566000000E+00  0.10566000000E+00 0. -1.
     999900   -1    0    0    0    0 -0.00000000000E+00 -0.00000000000E+00 -0.74505805969E-08  0.93827000000E+00  0.93827000000E+00 0.  1.
     999902    2    1    2    0    0 -0.18989518858E-01 -0.13320168135E-01 -0.22459344515E-02  0.10206260749E+01  0.10203599913E+01 0.  0.
     999903    2    3    3    0    0  0.99318537137E-01 -0.76197950513E-01 -0.28826104101E-01  0.13008864327E+00  0.20538046396E-01 0.  0.
         14    1    1    2    0    0  0.18989518858E-01  0.13320168135E-01  0.22459344515E-02  0.23303925145E-01  0.00000000000E+00 0.  1.
     999901    1    3    3    0    0 -0.11830805599E+00  0.62877782378E-01  0.26580169649E-01  0.89053743158E+00  0.88000000000E+00 0.  1.
        -11    1    4    4    0    0  0.61632975274E-01 -0.37469679137E-01 -0.97826607995E-02  0.72791222472E-01  0.51100000000E-03 0.  1.
         11    1    4    4    0    0  0.37685561863E-01 -0.38728271375E-01 -0.19043443301E-01  0.57297420801E-01  0.51100000000E-03 0. -1.
</event>
<event>
 8    1  0.1204770E+005  0.1043930E+01  0.7957747E-01            NaN
         13   -1    0    0    0    0  0.00000000000E+00  0.00000000000E+00  0.74505805969E-08  0.10566000000E+00  0.10566000000E+00 0. -1.
     999900   -1    0    0    0    0 -0.00000000000E+00 -0.00000000000E+00 -0.74505805969E-08  0.93827000000E+00  0.93827000000E+00 0. -1.
     999902    2    1    2    0    0  0.12420854597E-01 -0.22543300282E-02 -0.20571643436E-01  0.10197938829E+01  0.10195082204E+01 0.  0.
     999903    2    3    3    0    0 -0.58408097262E-01  0.95121898184E-01  0.59509613439E-01  0.12799128262E+00  0.19511355553E-01 0.  0.
         14    1    1    2    0    0 -0.12420854597E-01  0.22543300282E-02  0.20571643436E-01  0.24136117055E-01  0.00000000000E+00 0. -1.
     999901    1    3    3    0    0  0.70828951859E-01 -0.97376228212E-01 -0.80081256875E-01  0.89180260032E+00  0.88000000000E+00 0. -1.
        -11    1    4    4    0    0 -0.24797058240E-01  0.41210720769E-01  0.14872117390E-01  0.50345393040E-01  0.51100000000E-03 0.  1.
         11    1    4    4    0    0 -0.33611039022E-01  0.53911177415E-01  0.44637496049E-01  0.77645889581E-01  0.51100000000E-03 0. -1.
</event>
<event>
 8    1  0.1204770E+005  0.1043930E+01  0.7957747E-01            NaN
         13   -1    0    0    0    0  0.00000000000E+00  0.00000000000E+00  0.74505805969E-08  0.10566000000E+00  0.10566000000E+00 0. -1.
     999900   -1    0    0    0    0 -0.00000000000E+00 -0.00000000000E+00 -0.74505805969E-08  0.93827000000E+00  0.93827000000E+00 0. -1.
     999902    2    1    2    0    0 -0.67716837315E-02  0.19592497547E-01 -0.10235749337E-01  0.10208109121E+01  0.10205490807E+01 0.  0.
     999903    2    3    3    0    0 -0.51978547295E-01  0.37304068484E-01  0.11253660741E+00  0.13096237901E+00  0.19831636456E-01 0.  0.
         14    1    1    2    0    0  0.67716837315E-02 -0.19592497547E-01  0.10235749337E-01  0.23119087897E-01  0.00000000000E+00 0. -1.
     999901    1    3    3    0    0  0.45206863563E-01 -0.17711570937E-01 -0.12277235675E+00  0.88984853309E+00  0.88000000000E+00 0. -1.
        -11    1    4    4    0    0 -0.37099385609E-01  0.14853109199E-01  0.64094315972E-01  0.75533580124E-01  0.51100000000E-03 0.  1.
         11    1    4    4    0    0 -0.14879161686E-01  0.22450959285E-01  0.48442291442E-01  0.55428798891E-01  0.51100000000E-03 0. -1.
</event>
<event>
 8    1  0.1204770E+005  0.1043930E+01  0.7957747E-01            NaN
         13   -1    0    0    0    0  0.00000000000E+00  0.00000000000E+00  0.74505805969E-08  0.10566000000E+00  0.10566000000E+00 0. -1.
     999900   -1    0    0    0    0 -0.00000000000E+00 -0.00000000000E+00 -0.74505805969E-08  0.93827000000E+00  0.93827000000E+00 0.  1.
     999902    2    1    2    0    0 -0.25466792744E-02 -0.20788678095E-01  0.91230920229E-02  0.10210851861E+01  0.10208295998E+01 0.  0.
     999903    2    3    3    0    0  0.10100510057E-01  0.10455246556E+00 -0.71292275370E-01  0.12848393978E+00  0.19806460959E-01 0.  0.
         14    1    1    2    0    0  0.25466792744E-02  0.20788678095E-01 -0.91230920229E-02  0.22844813860E-01  0.00000000000E+00 0. -1.
     999901    1    3    3    0    0 -0.12647189332E-01 -0.12534114365E+00  0.80415367393E-01  0.89260124636E+00  0.88000000000E+00 0.  1.
        -11    1    4    4    0    0 -0.42736355585E-02  0.58043137972E-01 -0.39451834735E-01  0.70313428387E-01  0.51100000000E-03 0. -1.
         11    1    4    4    0    0  0.14374145616E-01  0.46509327588E-01 -0.31840440635E-01  0.58170511393E-01  0.51100000000E-03 0.  1.
</event>
<event>
 8    1  0.1204770E+005  0.1043930E+01  0.7957747E-01            NaN
         13   -1    0    0    0    0  0.00000000000E+00  0.00000000000E+00  0.74505805969E-08  0.10566000000E+00  0.10566000000E+00 0. -1.
     999900   -1    0    0    0    0 -0.00000000000E+00 -0.00000000000E+00 -0.74505805969E-08  0.93827000000E+00  0.93827000000E+00 0. -1.
     999902    2    1    2    0    0 -0.23262725450E-02  0.17483182959E-01 -0.16059404981E-01  0.10200767462E+01  0.10197978184E+01 0.  0.
     999903    2    3    3    0    0 -0.42778965376E-01 -0.94296900420E-01  0.72356094039E-01  0.12769313590E+00  0.18659777700E-01 0.  0.
         14    1    1    2    0    0  0.23262725450E-02 -0.17483182959E-01  0.16059404981E-01  0.23853253839E-01  0.00000000000E+00 0. -1.
     999901    1    3    3    0    0  0.40452692831E-01  0.11178008338E+00 -0.88415499020E-01  0.89238361026E+00  0.88000000000E+00 0. -1.
        -11    1    4    4    0    0 -0.34990933420E-01 -0.66183518626E-01  0.60274527725E-01  0.96114012364E-01  0.51100000000E-03 0. -1.
         11    1    4    4    0    0 -0.77880319554E-02 -0.28113381794E-01  0.12081566314E-01  0.31579123535E-01  0.51100000000E-03 0.  1.
</event>
<event>
 8    1  0.1204770E+005  0.1043930E+01  0.7957747E-01            NaN
         13   -1    0    0    0    0  0.00000000000E+00  0.00000000000E+00  0.74505805969E-08  0.10566000000E+00  0.10566000000E+00 0. -1.
     999900   -1    0    0    0    0 -0.00000000000E+00 -0.00000000000E+00 -0.74505805969E-08  0.93827000000E+00  0.93827000000E+00 0.  1.
     999902    2    1    2    0    0  0.52252807163E-03 -0.30375862216E-02  0.23915279642E-01  0.10198169213E+01  0.10195318104E+01 0.  0.
     999903    2    3    3    0    0  0.61861824909E-01 -0.50199450105E-01 -0.98255056086E-01  0.12801406095E+00  0.19664017441E-01 0.  0.
         14    1    1    2    0    0 -0.52252807163E-03  0.30375862216E-02 -0.23915279642E-01  0.24113078734E-01  0.00000000000E+00 0.  1.
     999901    1    3    3    0    0 -0.61339296837E-01  0.47161863884E-01  0.12217033573E+00  0.89180286032E+00  0.88000000000E+00 0. -1.
        -11    1    4    4    0    0  0.45451791612E-01 -0.24711792364E-01 -0.61464222368E-01  0.80340835164E-01  0.51100000000E-03 0.  1.
         11    1    4    4    0    0  0.16410033297E-01 -0.25487657741E-01 -0.36790833717E-01  0.47673225783E-01  0.51100000000E-03 0. -1.
</event>
<event>
 8    1  0.1204770E+005  0.1043930E+01  0.7957747E-01            NaN
         13   -1    0    0    0    0  0.00000000000E+00  0.00000000000E+00  0.74505805969E-08  0.10566000000E+00  0.10566000000E+00 0.  1.
     999900   -1    0    0    0    0 -0.00000000000E+00 -0.00000000000E+00 -0.74505805969E-08  0.93827000000E+00  0.93827000000E+00 0.  1.
     999902    2    1    2    0    0 -0.11502892489E-01 -0.43241051442E-02  0.18775926754E-01  0.10214900836E+01  0.10212435758E+01 0.  0.
     999903    2    3    3    0    0  0.39317984947E-02 -0.12226461972E-01  0.13201216316E+00  0.13406508840E+00  0.19526681597E-01 0.  0.
         14    1    1    2    0    0  0.11502892489E-01  0.43241051442E-02 -0.18775926754E-01  0.22439916363E-01  0.00000000000E+00 0. -1.
     999901    1    3    3    0    0 -0.15434690984E-01  0.79023568279E-02 -0.11323623641E+00  0.88742499523E+00  0.88000000000E+00 0.  1.
        -11    1    4    4    0    0  0.71429453261E-02  0.30244099384E-02  0.45151066523E-01  0.45815375722E-01  0.51100000000E-03 0. -1.
         11    1    4    4    0    0 -0.32111468315E-02 -0.15250871910E-01  0.86861096639E-01  0.88249712682E-01  0.51100000000E-03 0.  1.
</event>
<event>
 8    1  0.1204770E+005  0.1043930E+01  0.7957747E-01            NaN
         13   -1    0    0    0    0  0.00000000000E+00  0.00000000000E+00  0.74505805969E-08  0.10566000000E+00  0.10566000000E+00 0.  1.
     999900   -1    0    0    0    0 -0.00000000000E+00 -0.00000000000E+00 -0.74505805969E-08  0.93827000000E+00  0.93827000000E+00 0.  1.
     999902    2    1    2    0    0 -0.14503154181E-01  0.17210631330E-01  0.89799784095E-02  0.10196980516E+01  0.10194100888E+01 0.  0.
     999903    2    3    3    0    0  0.10219156297E+00  0.40355394350E-01 -0.63928589870E-01  0.12870478764E+00  0.20158977196E-01 0.  0.
         14    1    1    2    0    0  0.14503154181E-01 -0.17210631330E-01 -0.89799784095E-02  0.24231948420E-01  0.00000000000E+00 0. -1.
     999901    1    3    3    0    0 -0.11669471715E+00 -0.23144763020E-01  0.72908568280E-01  0.89099326395E+00  0.88000000000E+00 0. -1.
        -11    1    4    4    0    0  0.79479444317E-01  0.39983487218E-01 -0.51705399670E-01  0.10290466848E+00  0.51100000000E-03 0.  1.
         11    1    4    4    0    0  0.22712118655E-01  0.37190713173E-03 -0.12223190200E-01  0.25800119155E-01  0.51100000000E-03 0. -1.
</event>
<event>
 8    1  0.1204770E+005  0.1043930E+01  0.7957747E-01            NaN
         13   -1    0    0    0    0  0.00000000000E+00  0.00000000000E+00  0.74505805969E-08  0.10566000000E+00  0.10566000000E+00 0.  1.
     999900   -1    0    0    0    0 -0.00000000000E+00 -0.00000000000E+00 -0.74505805969E-08  0.93827000000E+00  0.93827000000E+00 0. -1.
     999902    2    1    2    0    0 -0.10905401009E-01  0.52729101401E-02  0.20755136412E-01  0.10198986238E+01  0.10196154647E+01 0.  0.
     999903    2    3    3    0    0 -0.32042498403E-01 -0.28832798816E-01  0.12439756075E+00  0.13290835986E+00  0.18216119494E-01 0.  0.
         14    1    1    2    0    0  0.10905401009E-01 -0.52729101401E-02 -0.20755136412E-01  0.24031376157E-01  0.00000000000E+00 0.  1.
     999901    1    3    3    0    0  0.21137097394E-01  0.34105708956E-01 -0.10364242434E+00  0.88699026398E+00  0.88000000000E+00 0. -1.
        -11    1    4    4    0    0 -0.24725828851E-01 -0.19389821209E-01  0.10884472311E+00  0.11329062913E+00  0.51100000000E-03 0.  1.
         11    1    4    4    0    0 -0.73166695517E-02 -0.94429776073E-02  0.15552837639E-01  0.19617730731E-01  0.51100000000E-03 0. -1.
</event>
<event>
 7    1  0.1204770E+005  0.1043930E+01  0.7957747E-01            NaN
         13   -1    0    0    0    0  0.00000000000E+00  0.00000000000E+00  0.74505805969E-08  0.10566000000E+00  0.10566000000E+00 0.  1.
     999900   -1    0    0    0    0 -0.00000000000E+00 -0.00000000000E+00 -0.74505805969E-08  0.93827000000E+00  0.93827000000E+00 0.  1.
     999903    2    1    2    0    0  0.84575853414E-02 -0.43549820694E-01  0.76387583050E-01  0.90491805152E-01  0.19636352082E-01 0.  0.
         14    1    1    2    0    0  0.42421939690E-01  0.69349973419E-02  0.45771309809E-01  0.62791145529E-01  0.00000000000E+00 0.  1.
     999901    1    1    2    0    0 -0.50879525031E-01  0.36614823352E-01 -0.12215889286E+00  0.89064704932E+00  0.88000000000E+00 0.  1.
        -11    1    3    3    0    0  0.10702774167E-01 -0.24364038851E-01  0.29249632280E-01  0.39546907256E-01  0.51100000000E-03 0.  1.
         11    1    3    3    0    0 -0.22451888254E-02 -0.19185781842E-01  0.47137950770E-01  0.50944897895E-01  0.51100000000E-03 0. -1.
</event>
<event>
 8    1  0.1204770E+005  0.1043930E+01  0.7957747E-01            NaN
         13   -1    0    0    0    0  0.00000000000E+00  0.00000000000E+00  0.74505805969E-08  0.10566000000E+00  0.10566000000E+00 0.  1.
     999900   -1    0    0    0    0 -0.00000000000E+00 -0.00000000000E+00 -0.74505805969E-08  0.93827000000E+00  0.93827000000E+00 0.  1.
     999902    2    1    2    0    0 -0.15091314015E-02 -0.18808485595E-01 -0.12910318517E-01  0.10210670839E+01  0.10208110878E+01 0.  0.
     999903    2    3    3    0    0 -0.36443669778E-01 -0.29286964366E-01 -0.12329026519E+00  0.13342191093E+00  0.20372763126E-01 0.  0.
         14    1    1    2    0    0  0.15091314015E-02  0.18808485595E-01  0.12910318517E-01  0.22862916091E-01  0.00000000000E+00 0.  1.
     999901    1    3    3    0    0  0.34934538377E-01  0.10478478771E-01  0.11037994667E+00  0.88764517298E+00  0.88000000000E+00 0. -1.
        -11    1    4    4    0    0 -0.93980060634E-02  0.36143807643E-04 -0.12357454219E-01  0.15533564308E-01  0.51100000000E-03 0. -1.
         11    1    4    4    0    0 -0.27045663715E-01 -0.29323108174E-01 -0.11093281097E+00  0.11788834662E+00  0.51100000000E-03 0.  1.
</event>
<event>
 8    1  0.1204770E+005  0.1043930E+01  0.7957747E-01            NaN
         13   -1    0    0    0    0  0.00000000000E+00  0.00000000000E+00  0.74505805969E-08  0.10566000000E+00  0.10566000000E+00 0.  1.
     999900   -1    0    0    0    0 -0.00000000000E+00 -0.00000000000E+00 -0.74505805969E-08  0.93827000000E+00  0.93827000000E+00 0.  1.
     999902    2    1    2    0    0  0.17759298785E-01  0.12707103827E-01 -0.10352362088E-01  0.10197631926E+01  0.10194767944E+01 0.  0.
     999903    2    3    3    0    0 -0.13163128898E-01 -0.73743715104E-01  0.10170981975E+00  0.12791798557E+00  0.20167303225E-01 0.  0.
         14    1    1    2    0    0 -0.17759298785E-01 -0.12707103827E-01  0.10352362088E-01  0.24166807439E-01  0.00000000000E+00 0.  1.
     999901    1    3    3    0    0  0.30922427683E-01  0.86450818930E-01 -0.11206218184E+00  0.89184520699E+00  0.88000000000E+00 0.  1.
        -11    1    4    4    0    0  0.94729239243E-03 -0.63890119824E-02  0.20347694868E-01  0.21354312081E-01  0.51100000000E-03 0. -1.
         11    1    4    4    0    0 -0.14110421290E-01 -0.67354703121E-01  0.81362124884E-01  0.10656367349E+00  0.51100000000E-03 0.  1.
</event>
<event>
 8    1  0.1204770E+005  0.1043930E+01  0.7957747E-01            NaN
         13   -1    0    0    0    0  0.00000000000E+00  0.00000000000E+00  0.74505805969E-08  0.10566000000E+00  0.10566000000E+00 0. -1.
     999900   -1    0    0    0    0 -0.00000000000E+00 -0.00000000000E+00 -0.74505805969E-08  0.93827000000E+00  0.93827000000E+00 0.  1.
     999902    2    1    2    0    0 -0.10734114936E-01 -0.18349757152E-01  0.11876766500E-01  0.10195785649E+01  0.10192877207E+01 0.  0.
     999903    2    3    3    0    0 -0.79452163773E-01  0.30083983492E-01  0.98358997155E-01  0.13135158166E+00  0.19001402349E-01 0.  0.
         14    1    1    2    0    0  0.10734114936E-01  0.18349757152E-01 -0.11876766500E-01  0.24351435143E-01  0.00000000000E+00 0.  1.
     999901    1    3    3    0    0  0.68718048837E-01 -0.48433740644E-01 -0.86482230655E-01  0.88822698320E+00  0.88000000000E+00 0.  1.
        -11    1    4    4    0    0 -0.43899561332E-01  0.83304663884E-02  0.42631718094E-01  0.61759960039E-01  0.51100000000E-03 0.  1.
         11    1    4    4    0    0 -0.35552602441E-01  0.21753517103E-01  0.55727279061E-01  0.69591621617E-01  0.51100000000E-03 0. -1.
</event>
<event>
 8    1  0.1204770E+005  0.1043930E+01  0.7957747E-01            NaN
         13   -1    0    0    0    0  0.00000000000E+00  0.00000000000E+00  0.74505805969E-08  0.10566000000E+00  0.10566000000E+00 0.  1.
     999900   -1    0    0    0    0 -0.00000000000E+00 -0.00000000000E+00 -0.74505805969E-08  0.93827000000E+00  0.93827000000E+00 0.  1.
     999902    2    1    2    0    0  0.11471034814E-01 -0.12671868757E-01 -0.15440071801E-01  0.10208961832E+01  0.10206363016E+01 0.  0.
     999903    2    3    3    0    0  0.57258771705E-01  0.92954899353E-01  0.66987117405E-01  0.12957818582E+00  0.19597247058E-01 0.  0.
         14    1    1    2    0    0 -0.11471034814E-01  0.12671868757E-01  0.15440071801E-01  0.23033816764E-01  0.00000000000E+00 0. -1.
     999901    1    3    3    0    0 -0.45787736891E-01 -0.10562676811E+00 -0.82427189205E-01  0.89131799741E+00  0.88000000000E+00 0. -1.
        -11    1    4    4    0    0  0.21372162726E-01  0.25060278275E-01  0.29059118060E-01  0.43925850592E-01  0.51100000000E-03 0. -1.
         11    1    4    4    0    0  0.35886608979E-01  0.67894621078E-01  0.37927999345E-01  0.85652335232E-01  0.51100000000E-03 0.  1.
</event>
<event>
 8    1  0.1204770E+005  0.1043930E+01  0.7957747E-01            NaN
         13   -1    0    0    0    0  0.00000000000E+00  0.00000000000E+00  0.74505805969E-08  0.10566000000E+00  0.10566000000E+00 0.  1.
     999900   -1    0    0    0    0 -0.00000000000E+00 -0.00000000000E+00 -0.74505805969E-08  0.93827000000E+00  0.93827000000E+00 0. -1.
     999902    2    1    2    0    0 -0.18241144170E-01  0.15900202295E-01  0.12802432653E-01  0.10165537684E+01  0.10161850747E+01 0.  0.
     999903    2    3    3    0    0  0.26195670336E-01 -0.35452233670E-01  0.11823936760E+00  0.12766195812E+00  0.19337876949E-01 0.  0.
         14    1    1    2    0    0  0.18241144170E-01 -0.15900202295E-01 -0.12802432653E-01  0.27376231579E-01  0.00000000000E+00 0. -1.
     999901    1    3    3    0    0 -0.44436814506E-01  0.51352435965E-01 -0.10543693495E+00  0.88889181030E+00  0.88000000000E+00 0. -1.
        -11    1    4    4    0    0  0.14702177415E-01 -0.24704834088E-01  0.50450817818E-01  0.58069174159E-01  0.51100000000E-03 0. -1.
         11    1    4    4    0    0  0.11493492921E-01 -0.10747399582E-01  0.67788549782E-01  0.69592783964E-01  0.51100000000E-03 0.  1.
</event>
<event>
 8    1  0.1204770E+005  0.1043930E+01  0.7957747E-01            NaN
         13   -1    0    0    0    0  0.00000000000E+00  0.00000000000E+00  0.74505805969E-08  0.10566000000E+00  0.10566000000E+00 0. -1.
     999900   -1    0    0    0    0 -0.00000000000E+00 -0.00000000000E+00 -0.74505805969E-08  0.93827000000E+00  0.93827000000E+00 0.  1.
     999902    2    1    2    0    0  0.14762411255E-01  0.15427013479E-01  0.95335125054E-02  0.10205460441E+01  0.10202781086E+01 0.  0.
     999903    2    3    3    0    0 -0.12478876155E+00  0.17635710732E-01  0.22073805724E-01  0.12945869313E+00  0.19724275051E-01 0.  0.
         14    1    1    2    0    0 -0.14762411255E-01 -0.15427013479E-01 -0.95335125054E-02  0.23383955860E-01  0.00000000000E+00 0.  1.
     999901    1    3    3    0    0  0.13955117280E+00 -0.22086972529E-02 -0.12540293218E-01  0.89108735101E+00  0.88000000000E+00 0.  1.
        -11    1    4    4    0    0 -0.32946304808E-01 -0.39150644296E-02  0.42813734502E-02  0.33457107012E-01  0.51100000000E-03 0. -1.
         11    1    4    4    0    0 -0.91842456740E-01  0.21550775162E-01  0.17792432273E-01  0.96001586119E-01  0.51100000000E-03 0.  1.
</event>
<event>
 8    1  0.1204770E+005  0.1043930E+01  0.7957747E-01            NaN
         13   -1    0    0    0    0  0.00000000000E+00  0.00000000000E+00  0.74505805969E-08  0.10566000000E+00  0.10566000000E+00 0.  1.
     999900   -1    0    0    0    0 -0.00000000000E+00 -0.00000000000E+00 -0.74505805969E-08  0.93827000000E+00  0.93827000000E+00 0. -1.
     999902    2    1    2    0    0  0.11201186240E-01  0.14895921582E-01 -0.13999613743E-01  0.10206202544E+01  0.10203540364E+01 0.  0.
     999903    2    3    3    0    0 -0.53157870835E-01  0.11094629763E+00  0.41151833518E-01  0.13134558085E+00  0.20575422634E-01 0.  0.
         14    1    1    2    0    0 -0.11201186240E-01 -0.14895921582E-01  0.13999613743E-01  0.23309745556E-01  0.00000000000E+00 0.  1.
     999901    1    3    3    0    0  0.64359057075E-01 -0.96050376048E-01 -0.55151447261E-01  0.88927467360E+00  0.88000000000E+00 0.  1.
        -11    1    4    4    0    0 -0.44149801770E-01  0.79234836330E-01  0.37579025032E-01  0.98182526592E-01  0.51100000000E-03 0. -1.
         11    1    4    4    0    0 -0.90080690656E-02  0.31711461299E-01  0.35728084861E-02  0.33163054255E-01  0.51100000000E-03 0.  1.
</event>
<event>
 8    1  0.1204770E+005  0.1043930E+01  0.7957747E-01            NaN
         13   -1    0    0    0    0  0.00000000000E+00  0.00000000000E+00  0.74505805969E-08  0.10566000000E+00  0.10566000000E+00 0. -1.
     999900   -1    0    0    0    0 -0.00000000000E+00 -0.00000000000E+00 -0.74505805969E-08  0.93827000000E+00  0.93827000000E+00 0.  1.
     999902    2    1    2    0    0 -0.94957805952E-02 -0.19499144356E-01  0.10336061915E-01  0.10199045831E+01  0.10196215661E+01 0.  0.
     999903    2    3    3    0    0 -0.12964567237E+00 -0.11087434330E-01 -0.22522701833E-02  0.13161115219E+00  0.19633927098E-01 0.  0.
         14    1    1    2    0    0  0.94957805952E-02  0.19499144356E-01 -0.10336061915E-01  0.24025416867E-01  0.00000000000E+00 0. -1.
     999901    1    3    3    0    0  0.12014989178E+00 -0.84117100260E-02  0.12588332098E-01  0.88829343095E+00  0.88000000000E+00 0.  1.
        -11    1    4    4    0    0 -0.48487423716E-01 -0.10077503397E-01 -0.83129675364E-02  0.50219049011E-01  0.51100000000E-03 0.  1.
         11    1    4    4    0    0 -0.81158248658E-01 -0.10099309330E-02  0.60606973531E-02  0.81392103174E-01  0.51100000000E-03 0. -1.
</event>
<event>
 8    1  0.1204770E+005  0.1043930E+01  0.7957747E-01            NaN
         13   -1    0    0    0    0  0.00000000000E+00  0.00000000000E+00  0.74505805969E-08  0.10566000000E+00  0.10566000000E+00 0. -1.
     999900   -1    0    0    0    0 -0.00000000000E+00 -0.00000000000E+00 -0.74505805969E-08  0.93827000000E+00  0.93827000000E+00 0.  1.
     999902    2    1    2    0    0  0.16724312710E-01 -0.21653029655E-02 -0.15815751084E-01  0.10208101134E+01  0.10205482637E+01 0.  0.
     999903    2    3    3    0    0  0.12637756972E+00  0.36532230607E-01 -0.48344265031E-02  0.13309285813E+00  0.19607223210E-01 0.  0.
         14    1    1    2    0    0 -0.16724312710E-01  0.21653029655E-02  0.15815751084E-01  0.23119886568E-01  0.00000000000E+00 0. -1.
     999901    1    3    3    0    0 -0.10965325701E+00 -0.38697533573E-01 -0.10981324581E-01  0.88771725531E+00  0.88000000000E+00 0. -1.
        -11    1    4    4    0    0  0.75327650739E-01  0.27485016670E-01 -0.10767289520E-01  0.80906592759E-01  0.51100000000E-03 0.  1.
         11    1    4    4    0    0  0.51049918985E-01  0.90472139378E-02  0.59328630168E-02  0.52186265368E-01  0.51100000000E-03 0. -1.
</event>
<event>
 8    1  0.1204770E+005  0.1043930E+01  0.7957747E-01            NaN
         13   -1    0    0    0    0  0.00000000000E+00  0.00000000000E+00  0.74505805969E-08  0.10566000000E+00  0.10566000000E+00 0. -1.
     999900   -1    0    0    0    0 -0.00000000000E+00 -0.00000000000E+00 -0.74505805969E-08  0.93827000000E+00  0.93827000000E+00 0.  1.
     999902    2    1    2    0    0  0.11875569972E-01 -0.19132863840E-01  0.76656998932E-02  0.10201422175E+01  0.10198648368E+01 0.  0.
     999903    2    3    3    0    0 -0.15848128859E-01  0.11966832784E+00 -0.36946524028E-01  0.12771596016E+00  0.19355850935E-01 0.  0.
         14    1    1    2    0    0 -0.11875569972E-01  0.19132863840E-01 -0.76656998932E-02  0.23787782489E-01  0.00000000000E+00 0.  1.
     999901    1    3    3    0    0  0.27723698831E-01 -0.13880119168E+00  0.44612223921E-01  0.89242625735E+00  0.88000000000E+00 0.  1.
        -11    1    4    4    0    0 -0.10999016765E-04  0.71931061203E-01 -0.20498081004E-01  0.74796458021E-01  0.51100000000E-03 0.  1.
         11    1    4    4    0    0 -0.15837129842E-01  0.47737266636E-01 -0.16448443025E-01  0.52919502138E-01  0.51100000000E-03 0. -1.
</event>
<event>
 8    1  0.1204770E+005  0.1043930E+01  0.7957747E-01            NaN
         13   -1    0    0    0    0  0.00000000000E+00  0.00000000000E+00  0.74505805969E-08  0.10566000000E+00  0.10566000000E+00 0.  1.
     999900   -1    0    0    0    0 -0.00000000000E+00 -0.00000000000E+00 -0.74505805969E-08  0.93827000000E+00  0.93827000000E+00 0. -1.
     999902    2    1    2    0    0  0.42242665801E-02 -0.61990276839E-02  0.22994179628E-01  0.10197431302E+01  0.10194562506E+01 0.  0.
     999903    2    3    3    0    0  0.12540577855E+00  0.28114156443E-01  0.14023095133E-01  0.13073085034E+00  0.19413730874E-01 0.  0.
         14    1    1    2    0    0 -0.42242665801E-02  0.61990276839E-02 -0.22994179628E-01  0.24186869767E-01  0.00000000000E+00 0. -1.
     999901    1    3    3    0    0 -0.12118151197E+00 -0.34313184127E-01  0.89710844948E-02  0.88901227990E+00  0.88000000000E+00 0.  1.
        -11    1    4    4    0    0  0.11510071913E+00  0.20578698860E-01  0.15151805351E-01  0.11790460855E+00  0.51100000000E-03 0. -1.
         11    1    4    4    0    0  0.10305059424E-01  0.75354575827E-02 -0.11287102176E-02  0.12826241791E-01  0.51100000000E-03 0.  1.
</event>
<event>
 8    1  0.1204770E+005  0.1043930E+01  0.7957747E-01            NaN
         13   -1    0    0    0    0  0.00000000000E+00  0.00000000000E+00  0.74505805969E-08  0.10566000000E+00  0.10566000000E+00 0. -1.
     999900   -1    0    0    0    0 -0.00000000000E+00 -0.00000000000E+00 -0.74505805969E-08  0.93827000000E+00  0.93827000000E+00 0. -1.
     999902    2    1    2    0    0  0.15348004265E-01  0.20146702260E-02  0.18157585681E-01  0.10200696134E+01  0.10197905168E+01 0.  0.
     999903    2    3    3    0    0 -0.35710421555E-01  0.87984010933E-01 -0.84313892871E-01  0.12849903610E+00  0.19665944164E-01 0.  0.
         14    1    1    2    0    0 -0.15348004265E-01 -0.20146702260E-02 -0.18157585681E-01  0.23860386602E-01  0.00000000000E+00 0. -1.
     999901    1    3    3    0    0  0.51058425821E-01 -0.85969340707E-01  0.10247147855E+00  0.89157057730E+00  0.88000000000E+00 0.  1.
        -11    1    4    4    0    0 -0.22858665300E-02  0.10356053185E-01 -0.18685090317E-01  0.21491085233E-01  0.51100000000E-03 0. -1.
         11    1    4    4    0    0 -0.33424555025E-01  0.77627957748E-01 -0.65628802554E-01  0.10700795087E+00  0.51100000000E-03 0.  1.
</event>
<event>
 8    1  0.1204770E+005  0.1043930E+01  0.7957747E-01            NaN
         13   -1    0    0    0    0  0.00000000000E+00  0.00000000000E+00  0.74505805969E-08  0.10566000000E+00  0.10566000000E+00 0. -1.
     999900   -1    0    0    0    0 -0.00000000000E+00 -0.00000000000E+00 -0.74505805969E-08  0.93827000000E+00  0.93827000000E+00 0.  1.
     999902    2    1    2    0    0  0.37569909067E-02 -0.76345829128E-02 -0.21544182380E-01  0.10207663727E+01  0.10205035198E+01 0.  0.
     999903    2    3    3    0    0 -0.71056898028E-01  0.10653688159E+00 -0.12146037054E-01  0.13019320531E+00  0.20088668343E-01 0.  0.
         14    1    1    2    0    0 -0.37569909067E-02  0.76345829128E-02  0.21544182380E-01  0.23163627336E-01  0.00000000000E+00 0. -1.
     999901    1    3    3    0    0  0.74813888935E-01 -0.11417146450E+00 -0.93981453257E-02  0.89057316736E+00  0.88000000000E+00 0.  1.
        -11    1    4    4    0    0 -0.17815609182E-01  0.23807123956E-01 -0.11280287268E-01  0.31806934518E-01  0.51100000000E-03 0.  1.
         11    1    4    4    0    0 -0.53241288846E-01  0.82729757632E-01 -0.86574978624E-03  0.98386270788E-01  0.51100000000E-03 0. -1.
</event>
<event>
 8    1  0.1204770E+005  0.1043930E+01  0.7957747E-01            NaN
         13   -1    0    0    0    0  0.00000000000E+00  0.00000000000E+00  0.74505805969E-08  0.10566000000E+00  0.10566000000E+00 0. -1.
     999900   -1    0    0    0    0 -0.00000000000E+00 -0.00000000000E+00 -0.74505805969E-08  0.93827000000E+00  0.93827000000E+00 0.  1.
     999902    2    1    2    0    0 -0.52145455625E-02 -0.19793835120E-01 -0.12048733938E-01  0.10201779604E+01  0.10199014225E+01 0.  0.
     999903    2    3    3    0    0 -0.59353835165E-01 -0.11611299842E+00  0.11693441187E-01  0.13295074332E+00  0.23109682651E-01 0.  0.
         14    1    1    2    0    0  0.52145455625E-02  0.19793835120E-01  0.12048733938E-01  0.23752039569E-01  0.00000000000E+00 0. -1.
     999901    1    3    3    0    0  0.54139289603E-01  0.96319163301E-01 -0.23742175125E-01  0.88722721711E+00  0.88000000000E+00 0. -1.
        -11    1    4    4    0    0 -0.18817772997E-01 -0.17057832358E-01  0.19370562374E-02  0.25477274838E-01  0.51100000000E-03 0.  1.
         11    1    4    4    0    0 -0.40536062168E-01 -0.99055166063E-01  0.97563849496E-02  0.10747346848E+00  0.51100000000E-03 0. -1.
</event>
<event>
 8    1  0.1204770E+005  0.1043930E+01  0.7957747E-01            NaN
         13   -1    0    0    0    0  0.00000000000E+00  0.00000000000E+00  0.74505805969E-08  0.10566000000E+00  0.10566000000E+00 0.  1.
     999900   -1    0    0    0    0 -0.00000000000E+00 -0.00000000000E+00 -0.74505805969E-08  0.93827000000E+00  0.93827000000E+00 0.  1.
     999902    2    1    2    0    0 -0.16404191277E-01 -0.94218780878E-02 -0.13525756491E-01  0.10206745626E+01  0.10204095979E+01 0.  0.
     999903    2    3    3    0    0  0.72047385587E-01  0.95153635494E-01 -0.46375820831E-01  0.12947377369E+00  0.19175536477E-01 0.  0.
         14    1    1    2    0    0  0.16404191277E-01  0.94218780878E-02  0.13525756491E-01  0.23255437360E-01  0.00000000000E+00 0.  1.
     999901    1    3    3    0    0 -0.88451576864E-01 -0.10457551358E+00  0.32850064340E-01  0.89120078895E+00  0.88000000000E+00 0. -1.
        -11    1    4    4    0    0  0.14450788258E-01  0.30501068309E-01 -0.18593810362E-01  0.38537402015E-01  0.51100000000E-03 0.  1.
         11    1    4    4    0    0  0.57596597329E-01  0.64652567185E-01 -0.27782010469E-01  0.90936371679E-01  0.51100000000E-03 0. -1.
</event>
<event>
 8    1  0.1204770E+005  0.1043930E+01  0.7957747E-01            NaN
         13   -1    0    0    0    0  0.00000000000E+00  0.00000000000E+00  0.74505805969E-08  0.10566000000E+00  0.10566000000E+00 0. -1.
     999900   -1    0    0    0    0 -0.00000000000E+00 -0.00000000000E+00 -0.74505805969E-08  0.93827000000E+00  0.93827000000E+00 0.  1.
     999902    2    1    2    0    0  0.67065778249E-02 -0.18656692409E-01  0.12355948043E-01  0.10205693534E+01  0.10203019579E+01 0.  0.
     999903    2    3    3    0    0 -0.30915061434E-01 -0.87863963206E-01  0.93348629808E-01  0.13334624246E+00  0.19784757725E-01 0.  0.
         14    1    1    2    0    0 -0.67065778249E-02  0.18656692409E-01 -0.12355948043E-01  0.23360646605E-01  0.00000000000E+00 0.  1.
     999901    1    3    3    0    0  0.37621639259E-01  0.69207270797E-01 -0.80992681765E-01  0.88722311093E+00  0.88000000000E+00 0.  1.
        -11    1    4    4    0    0 -0.99875029138E-02 -0.10784700733E-01  0.93094772825E-02  0.17406535342E-01  0.51100000000E-03 0.  1.
         11    1    4    4    0    0 -0.20927558520E-01 -0.77079262473E-01  0.84039152526E-01  0.11593970712E+00  0.51100000000E-03 0. -1.
</event>
<event>
 8    1  0.1204770E+005  0.1043930E+01  0.7957747E-01            NaN
         13   -1    0    0    0    0  0.00000000000E+00  0.00000000000E+00  0.74505805969E-08  0.10566000000E+00  0.10566000000E+00 0.  1.
     999900   -1    0    0    0    0 -0.00000000000E+00 -0.00000000000E+00 -0.74505805969E-08  0.93827000000E+00  0.93827000000E+00 0.  1.
     999902    2    1    2    0    0  0.17386491136E-01  0.13910785727E-01 -0.68185750609E-02  0.10206428147E+01  0.10203771176E+01 0.  0.
     999903    2    3    3    0    0 -0.60737207993E-01  0.11482321726E+00  0.71661871926E-04  0.13141050165E+00  0.19883036753E-01 0.  0.
         14    1    1    2    0    0 -0.17386491136E-01 -0.13910785727E-01  0.68185750609E-02  0.23287185305E-01  0.00000000000E+00 0. -1.
     999901    1    3    3    0    0  0.78123699129E-01 -0.10091243153E+00 -0.68902369328E-02  0.88923231305E+00  0.88000000000E+00 0.  1.
        -11    1    4    4    0    0 -0.92046445825E-02  0.10286494868E-01 -0.51556996373E-02  0.14743806100E-01  0.51100000000E-03 0.  1.
         11    1    4    4    0    0 -0.51532563410E-01  0.10453672239E+00  0.52273615092E-02  0.11666669555E+00  0.51100000000E-03 0. -1.
</event>
<event>
 8    1  0.1204770E+005  0.1043930E+01  0.7957747E-01            NaN
         13   -1    0    0    0    0  0.00000000000E+00  0.00000000000E+00  0.74505805969E-08  0.10566000000E+00  0.10566000000E+00 0. -1.
     999900   -1    0    0    0    0 -0.00000000000E+00 -0.00000000000E+00 -0.74505805969E-08  0.93827000000E+00  0.93827000000E+00 0.  1.
     999902    2    1    2    0    0 -0.90261986371E-02  0.19877672543E-01  0.85704127206E-02  0.10204769383E+01  0.10202073983E+01 0.  0.
     999903    2    3    3    0    0 -0.52197976075E-01 -0.92501350403E-02  0.11794713219E+00  0.13217772168E+00  0.27372073556E-01 0.  0.
         14    1    1    2    0    0  0.90261986371E-02 -0.19877672543E-01 -0.85704127206E-02  0.23453061671E-01  0.00000000000E+00 0.  1.
     999901    1    3    3    0    0  0.43171777438E-01  0.29127807583E-01 -0.10937671947E+00  0.88829921665E+00  0.88000000000E+00 0.  1.
        -11    1    4    4    0    0 -0.16075704336E-02 -0.88534407476E-02  0.15898082161E-01  0.18275060415E-01  0.51100000000E-03 0.  1.
         11    1    4    4    0    0 -0.50590405642E-01 -0.39669429273E-03  0.10204905003E+00  0.11390266126E+00  0.51100000000E-03 0. -1.
</event>
<event>
 8    1  0.1204770E+005  0.1043930E+01  0.7957747E-01            NaN
         13   -1    0    0    0    0  0.00000000000E+00  0.00000000000E+00  0.74505805969E-08  0.10566000000E+00  0.10566000000E+00 0.  1.
     999900   -1    0    0    0    0 -0.00000000000E+00 -0.00000000000E+00 -0.74505805969E-08  0.93827000000E+00  0.93827000000E+00 0.  1.
     999902    2    1    2    0    0 -0.17518186169E-01 -0.84501653364E-03  0.18797737603E-01  0.10182209386E+01  0.10178963228E+01 0.  0.
     999903    2    3    3    0    0  0.67448423775E-01  0.10602104579E+00 -0.55109835018E-02  0.12736146931E+00  0.20020512150E-01 0.  0.
         14    1    1    2    0    0  0.17518186169E-01  0.84501653364E-03 -0.18797737603E-01  0.25709061410E-01  0.00000000000E+00 0. -1.
     999901    1    3    3    0    0 -0.84966609944E-01 -0.10686606232E+00  0.24308721105E-01  0.89085946928E+00  0.88000000000E+00 0.  1.
        -11    1    4    4    0    0  0.20038367578E-01  0.36504042058E-01  0.71917140438E-02  0.42261840159E-01  0.51100000000E-03 0. -1.
         11    1    4    4    0    0  0.47410056197E-01  0.69517003728E-01 -0.12702697546E-01  0.85099629152E-01  0.51100000000E-03 0.  1.
</event>
<event>
 8    1  0.1204770E+005  0.1043930E+01  0.7957747E-01            NaN
         13   -1    0    0    0    0  0.00000000000E+00  0.00000000000E+00  0.74505805969E-08  0.10566000000E+00  0.10566000000E+00 0.  1.
     999900   -1    0    0    0    0 -0.00000000000E+00 -0.00000000000E+00 -0.74505805969E-08  0.93827000000E+00  0.93827000000E+00 0.  1.
     999902    2    1    2    0    0 -0.27322927046E-02 -0.21083990121E-01  0.10366109319E-01  0.10202771717E+01  0.10200029661E+01 0.  0.
     999903    2    3    3    0    0  0.77278502407E-01 -0.50901683020E-01  0.92754205478E-01  0.13231398525E+00  0.18458054917E-01 0.  0.
         14    1    1    2    0    0  0.27322927046E-02  0.21083990121E-01 -0.10366109319E-01  0.23652828272E-01  0.00000000000E+00 0. -1.
     999901    1    3    3    0    0 -0.80010795112E-01  0.29817692898E-01 -0.82388096160E-01  0.88796318647E+00  0.88000000000E+00 0.  1.
        -11    1    4    4    0    0  0.40679372738E-01 -0.17947208853E-01  0.51733365945E-01  0.68216683772E-01  0.51100000000E-03 0.  1.
         11    1    4    4    0    0  0.36599129669E-01 -0.32954474166E-01  0.41020839534E-01  0.64097301481E-01  0.51100000000E-03 0. -1.
</event>
<event>
 8    1  0.1204770E+005  0.1043930E+01  0.7957747E-01            NaN
         13   -1    0    0    0    0  0.00000000000E+00  0.00000000000E+00  0.74505805969E-08  0.10566000000E+00  0.10566000000E+00 0. -1.
     999900   -1    0    0    0    0 -0.00000000000E+00 -0.00000000000E+00 -0.74505805969E-08  0.93827000000E+00  0.93827000000E+00 0. -1.
     999902    2    1    2    0    0  0.14322281813E-01 -0.12767578159E-01 -0.12637076360E-01  0.10209553508E+01  0.10206968177E+01 0.  0.
     999903    2    3    3    0    0 -0.41251123636E-01 -0.12385498140E+00  0.70204816761E-03  0.13213211368E+00  0.20413009926E-01 0.  0.
         14    1    1    2    0    0 -0.14322281813E-01  0.12767578159E-01  0.12637076360E-01  0.22974649231E-01  0.00000000000E+00 0. -1.
     999901    1    3    3    0    0  0.55573405449E-01  0.11108740324E+00 -0.13339124527E-01  0.88882323709E+00  0.88000000000E+00 0.  1.
        -11    1    4    4    0    0 -0.21361988617E-01 -0.67920071514E-01  0.10464287288E-01  0.71966888926E-01  0.51100000000E-03 0. -1.
         11    1    4    4    0    0 -0.19889135019E-01 -0.55934909885E-01 -0.97622391204E-02  0.60165224751E-01  0.51100000000E-03 0.  1.
</event>
<event>
 8    1  0.1204770E+005  0.1043930E+01  0.7957747E-01            NaN
         13   -1    0    0    0    0  0.00000000000E+00  0.00000000000E+00  0.74505805969E-08  0.10566000000E+00  0.10566000000E+00 0. -1.
     999900   -1    0    0    0    0 -0.00000000000E+00 -0.00000000000E+00 -0.74505805969E-08  0.93827000000E+00  0.93827000000E+00 0.  1.
     999902    2    1    2    0    0  0.23133330035E-01  0.12432408436E-01  0.78366092956E-03  0.10176558709E+01  0.10173166378E+01 0.  0.
     999903    2    3    3    0    0  0.39597734680E-01  0.11269585526E+00  0.48620689010E-01  0.13051878074E+00  0.20070982591E-01 0.  0.
         14    1    1    2    0    0 -0.23133330035E-01 -0.12432408436E-01 -0.78366092956E-03  0.26274129148E-01  0.00000000000E+00 0.  1.
     999901    1    3    3    0    0 -0.16464404645E-01 -0.10026344683E+00 -0.47837028080E-01  0.88713709011E+00  0.88000000000E+00 0.  1.
        -11    1    4    4    0    0  0.13728878197E-01  0.42260098291E-01  0.78661489589E-02  0.45127989370E-01  0.51100000000E-03 0.  1.
         11    1    4    4    0    0  0.25868856483E-01  0.70435756971E-01  0.40754540051E-01  0.85390791375E-01  0.51100000000E-03 0. -1.
</event>
<event>
 8    1  0.1204770E+005  0.1043930E+01  0.7957747E-01            NaN
         13   -1    0    0    0    0  0.00000000000E+00  0.00000000000E+00  0.74505805969E-08  0.10566000000E+00  0.10566000000E+00 0.  1.
     999900   -1    0    0    0    0 -0.00000000000E+00 -0.00000000000E+00 -0.74505805969E-08  0.93827000000E+00  0.93827000000E+00 0.  1.
     999902    2    1    2    0    0 -0.20381715801E-01  0.30617972817E-02  0.97946945032E-02  0.10211106008E+01  0.10208555892E+01 0.  0.
     999903    2    3    3    0    0 -0.61111330074E-01  0.90114317487E-01 -0.72014194480E-01  0.13210568678E+00  0.20265324899E-01 0.  0.
         14    1    1    2    0    0  0.20381715801E-01 -0.30617972817E-02 -0.97946945032E-02  0.22819399247E-01  0.00000000000E+00 0. -1.
     999901    1    3    3    0    0  0.40729614273E-01 -0.87052520206E-01  0.81808888983E-01  0.88900491397E+00  0.88000000000E+00 0. -1.
        -11    1    4    4    0    0 -0.10465895706E-01  0.31642611905E-01 -0.19680821210E-01  0.38708987401E-01  0.51100000000E-03 0.  1.
         11    1    4    4    0    0 -0.50645434367E-01  0.58471705582E-01 -0.52333373270E-01  0.93396699378E-01  0.51100000000E-03 0. -1.
</event>
<event>
 8    1  0.1204770E+005  0.1043930E+01  0.7957747E-01            NaN
         13   -1    0    0    0    0  0.00000000000E+00  0.00000000000E+00  0.74505805969E-08  0.10566000000E+00  0.10566000000E+00 0. -1.
     999900   -1    0    0    0    0 -0.00000000000E+00 -0.00000000000E+00 -0.74505805969E-08  0.93827000000E+00  0.93827000000E+00 0. -1.
     999902    2    1    2    0    0  0.16202354456E-01 -0.35726575928E-03 -0.16203164638E-01  0.10210130527E+01  0.10207558314E+01 0.  0.
     999903    2    3    3    0    0 -0.14011313137E-01  0.12751457396E+00  0.16523779841E-01  0.13065631185E+00  0.18486564253E-01 0.  0.
         14    1    1    2    0    0 -0.16202354456E-01  0.35726575928E-03  0.16203164638E-01  0.22916947289E-01  0.00000000000E+00 0. -1.
     999901    1    3    3    0    0  0.30213667593E-01 -0.12787183972E+00 -0.32726944479E-01  0.89035674086E+00  0.88000000000E+00 0. -1.
        -11    1    4    4    0    0 -0.79234420948E-02  0.24519845232E-01 -0.19209983684E-02  0.25844827347E-01  0.51100000000E-03 0. -1.
         11    1    4    4    0    0 -0.60878710422E-02  0.10299472873E+00  0.18444778210E-01  0.10481148450E+00  0.51100000000E-03 0.  1.
</event>
<event>
 8    1  0.1204770E+005  0.1043930E+01  0.7957747E-01            NaN
         13   -1    0    0    0    0  0.00000000000E+00  0.00000000000E+00  0.74505805969E-08  0.10566000000E+00  0.10566000000E+00 0.  1.
     999900   -1    0    0    0    0 -0.00000000000E+00 -0.00000000000E+00 -0.74505805969E-08  0.93827000000E+00  0.93827000000E+00 0. -1.
     999902    2    1    2    0    0 -0.15275121928E-01 -0.14050973346E-01  0.44558449565E-02  0.10227023351E+01  0.10224820060E+01 0.  0.
     999903    2    3    3    0    0 -0.47227076067E-01 -0.33787548887E-02  0.12422021282E+00  0.13395134220E+00  0.16446522583E-01 0.  0.
         14    1    1    2    0    0  0.15275121928E-01  0.14050973346E-01 -0.44558449565E-02  0.21227664877E-01  0.00000000000E+00 0. -1.
     999901    1    3    3    0    0  0.31951954139E-01 -0.10672218457E-01 -0.11976436786E+00  0.88875099293E+00  0.88000000000E+00 0. -1.
        -11    1    4    4    0    0 -0.22133057078E-01 -0.60289367378E-02  0.77806824524E-01  0.81119562112E-01  0.51100000000E-03 0. -1.
         11    1    4    4    0    0 -0.25094018989E-01  0.26501818491E-02  0.46413388294E-01  0.52831780083E-01  0.51100000000E-03 0.  1.
</event>
<event>
 8    1  0.1204770E+005  0.1043930E+01  0.7957747E-01            NaN
         13   -1    0    0    0    0  0.00000000000E+00  0.00000000000E+00  0.74505805969E-08  0.10566000000E+00  0.10566000000E+00 0. -1.
     999900   -1    0    0    0    0 -0.00000000000E+00 -0.00000000000E+00 -0.74505805969E-08  0.93827000000E+00  0.93827000000E+00 0.  1.
     999902    2    1    2    0    0  0.11584964131E-01 -0.20506280641E-01 -0.39275982909E-02  0.10200522914E+01  0.10197727846E+01 0.  0.
     999903    2    3    3    0    0 -0.81052122381E-01 -0.10061545964E+00 -0.12787829161E-01  0.13152676332E+00  0.21043850271E-01 0.  0.
         14    1    1    2    0    0 -0.11584964131E-01  0.20506280641E-01  0.39275982909E-02  0.23877708600E-01  0.00000000000E+00 0. -1.
     999901    1    3    3    0    0  0.92637086513E-01  0.80109178998E-01  0.88602308698E-02  0.88852552808E+00  0.88000000000E+00 0. -1.
        -11    1    4    4    0    0 -0.46360426906E-01 -0.61303323225E-01  0.25275712592E-02  0.76902772114E-01  0.51100000000E-03 0.  1.
         11    1    4    4    0    0 -0.34691695475E-01 -0.39312136414E-01 -0.15315400420E-01  0.54623991207E-01  0.51100000000E-03 0. -1.
</event>
<event>
 8    1  0.1204770E+005  0.1043930E+01  0.7957747E-01            NaN
         13   -1    0    0    0    0  0.00000000000E+00  0.00000000000E+00  0.74505805969E-08  0.10566000000E+00  0.10566000000E+00 0. -1.
     999900   -1    0    0    0    0 -0.00000000000E+00 -0.00000000000E+00 -0.74505805969E-08  0.93827000000E+00  0.93827000000E+00 0.  1.
     999902    2    1    2    0    0 -0.13381264604E-03 -0.21066068533E-01  0.76057618807E-02  0.10215325724E+01  0.10212870075E+01 0.  0.
     999903    2    3    3    0    0 -0.26052652543E-01 -0.10952894594E+00  0.70748489763E-01  0.13446748402E+00  0.20020608142E-01 0.  0.
         14    1    1    2    0    0  0.13381264604E-03  0.21066068533E-01 -0.76057618807E-02  0.22397427599E-01  0.00000000000E+00 0.  1.
     999901    1    3    3    0    0  0.25918839897E-01  0.88462877411E-01 -0.63142727882E-01  0.88706508838E+00  0.88000000000E+00 0.  1.
        -11    1    4    4    0    0 -0.16163366584E-01 -0.68237198860E-01  0.55205967796E-01  0.89249816408E-01  0.51100000000E-03 0.  1.
         11    1    4    4    0    0 -0.98892859588E-02 -0.41291747085E-01  0.15542521967E-01  0.45217667611E-01  0.51100000000E-03 0. -1.
</event>
<event>
 8    1  0.1204770E+005  0.1043930E+01  0.7957747E-01            NaN
         13   -1    0    0    0    0  0.00000000000E+00  0.00000000000E+00  0.74505805969E-08  0.10566000000E+00  0.10566000000E+00 0.  1.
     999900   -1    0    0    0    0 -0.00000000000E+00 -0.00000000000E+00 -0.74505805969E-08  0.93827000000E+00  0.93827000000E+00 0. -1.
     999902    2    1    2    0    0 -0.14791510186E-01 -0.20966183244E-01  0.66947108544E-02  0.10174122933E+01  0.10170666575E+01 0.  0.
     999903    2    3    3    0    0 -0.10864580308E+00  0.31526404763E-01 -0.57537372515E-01  0.12854230249E+00  0.20365401255E-01 0.  0.
         14    1    1    2    0    0  0.14791510186E-01  0.20966183244E-01 -0.66947108544E-02  0.26517706666E-01  0.00000000000E+00 0.  1.
     999901    1    3    3    0    0  0.93854292897E-01 -0.52492588007E-01  0.64232083369E-01  0.88886999085E+00  0.88000000000E+00 0. -1.
        -11    1    4    4    0    0 -0.10617432592E+00  0.30414607967E-01 -0.59210842282E-01  0.12531648266E+00  0.51100000000E-03 0.  1.
         11    1    4    4    0    0 -0.24714771626E-02  0.11117967955E-02  0.16734697671E-02  0.32258198247E-02  0.51100000000E-03 0. -1.
</event>
<event>
 8    1  0.1204770E+005  0.1043930E+01  0.7957747E-01            NaN
         13   -1    0    0    0    0  0.00000000000E+00  0.00000000000E+00  0.74505805969E-08  0.10566000000E+00  0.10566000000E+00 0.  1.
     999900   -1    0    0    0    0 -0.00000000000E+00 -0.00000000000E+00 -0.74505805969E-08  0.93827000000E+00  0.93827000000E+00 0.  1.
     999902    2    1    2    0    0  0.21495847809E-01  0.98128370031E-02  0.78642139434E-02  0.10190260022E+01  0.10187216421E+01 0.  0.
     999903    2    3    3    0    0  0.11442817309E+00  0.21913549066E-01 -0.57058571776E-01  0.13167161283E+00  0.22532700322E-01 0.  0.
         14    1    1    2    0    0 -0.21495847809E-01 -0.98128370031E-02 -0.78642139434E-02  0.24903997752E-01  0.00000000000E+00 0.  1.
     999901    1    3    3    0    0 -0.92932325277E-01 -0.12100712063E-01  0.64922785720E-01  0.88735438942E+00  0.88000000000E+00 0. -1.
        -11    1    4    4    0    0  0.21114043653E-01  0.13194705300E-01 -0.13406885253E-01  0.28282658654E-01  0.51100000000E-03 0.  1.
         11    1    4    4    0    0  0.93314129432E-01  0.87188437659E-02 -0.43651686524E-01  0.10338895418E+00  0.51100000000E-03 0. -1.
</event>
<event>
 8    1  0.1204770E+005  0.1043930E+01  0.7957747E-01            NaN
         13   -1    0    0    0    0  0.00000000000E+00  0.00000000000E+00  0.74505805969E-08  0.10566000000E+00  0.10566000000E+00 0. -1.
     999900   -1    0    0    0    0 -0.00000000000E+00 -0.00000000000E+00 -0.74505805969E-08  0.93827000000E+00  0.93827000000E+00 0. -1.
     999902    2    1    2    0    0  0.16958873654E-02  0.23489223198E-01  0.21839283070E-02  0.10202785902E+01  0.10200044179E+01 0.  0.
     999903    2    3    3    0    0  0.55611197355E-01  0.17781766006E-01 -0.11547197646E+00  0.13079427468E+00  0.19093676101E-01 0.  0.
         14    1    1    2    0    0 -0.16958873654E-02 -0.23489223198E-01 -0.21839283070E-02  0.23651409751E-01  0.00000000000E+00 0. -1.
     999901    1    3    3    0    0 -0.53915309990E-01  0.57074571919E-02  0.11765590477E+00  0.88948431557E+00  0.88000000000E+00 0.  1.
        -11    1    4    4    0    0  0.28532626594E-01  0.69287347553E-02 -0.38101266185E-01  0.48104945188E-01  0.51100000000E-03 0. -1.
         11    1    4    4    0    0  0.27078570762E-01  0.10853031250E-01 -0.77370710276E-01  0.82689329490E-01  0.51100000000E-03 0.  1.
</event>
<event>
 8    1  0.1204770E+005  0.1043930E+01  0.7957747E-01            NaN
         13   -1    0    0    0    0  0.00000000000E+00  0.00000000000E+00  0.74505805969E-08  0.10566000000E+00  0.10566000000E+00 0.  1.
     999900   -1    0    0    0    0 -0.00000000000E+00 -0.00000000000E+00 -0.74505805969E-08  0.93827000000E+00  0.93827000000E+00 0. -1.
     999902    2    1    2    0    0 -0.91055815274E-03  0.12613005281E-01  0.20124816190E-01  0.10201618439E+01  0.10198849261E+01 0.  0.
     999903    2    3    3    0    0  0.11570640113E+00  0.24284993436E-01 -0.49328004118E-01  0.12967914066E+00  0.20141880805E-01 0.  0.
         14    1    1    2    0    0  0.91055815274E-03 -0.12613005281E-01 -0.20124816190E-01  0.23768156114E-01  0.00000000000E+00 0. -1.
     999901    1    3    3    0    0 -0.11661695928E+00 -0.11671988155E-01  0.69452820308E-01  0.89048270323E+00  0.88000000000E+00 0.  1.
        -11    1    4    4    0    0  0.40270407641E-02 -0.19474646810E-02 -0.49060753655E-02  0.66588566955E-02  0.51100000000E-03 0.  1.
         11    1    4    4    0    0  0.11167936037E+00  0.26232458117E-01 -0.44421928752E-01  0.12302028396E+00  0.51100000000E-03 0. -1.
</event>
<event>
 8    1  0.1204770E+005  0.1043930E+01  0.7957747E-01            NaN
         13   -1    0    0    0    0  0.00000000000E+00  0.00000000000E+00  0.74505805969E-08  0.10566000000E+00  0.10566000000E+00 0.  1.
     999900   -1    0    0    0    0 -0.00000000000E+00 -0.00000000000E+00 -0.74505805969E-08  0.93827000000E+00  0.93827000000E+00 0. -1.
     999902    2    1    2    0    0 -0.10607829196E-02  0.12978178375E-01  0.19791621925E-01  0.10202389326E+01  0.10199638293E+01 0.  0.
     999903    2    3    3    0    0 -0.83244160850E-01  0.63607785878E-02  0.10119890071E+00  0.13264384329E+00  0.19573498389E-01 0.  0.
         14    1    1    2    0    0  0.10607829196E-02 -0.12978178375E-01 -0.19791621925E-01  0.23691067362E-01  0.00000000000E+00 0. -1.
     999901    1    3    3    0    0  0.82183377930E-01  0.66173997874E-02 -0.81407278784E-01  0.88759508934E+00  0.88000000000E+00 0. -1.
        -11    1    4    4    0    0 -0.35780566212E-01 -0.58316869559E-02  0.50098697843E-01  0.61841718425E-01  0.51100000000E-03 0. -1.
         11    1    4    4    0    0 -0.47463594638E-01  0.12192465544E-01  0.51100202866E-01  0.70802124869E-01  0.51100000000E-03 0.  1.
</event>
<event>
 8    1  0.1204770E+005  0.1043930E+01  0.7957747E-01            NaN
         13   -1    0    0    0    0  0.00000000000E+00  0.00000000000E+00  0.74505805969E-08  0.10566000000E+00  0.10566000000E+00 0. -1.
     999900   -1    0    0    0    0 -0.00000000000E+00 -0.00000000000E+00 -0.74505805969E-08  0.93827000000E+00  0.93827000000E+00 0. -1.
     999902    2    1    2    0    0  0.15181636416E-01  0.69636601537E-03 -0.16402057027E-01  0.10215694436E+01  0.10213246954E+01 0.  0.
     999903    2    3    3    0    0 -0.44847977926E-01  0.12162110188E+00  0.69907210403E-03  0.13110956520E+00  0.19651866007E-01 0.  0.
         14    1    1    2    0    0 -0.15181636416E-01 -0.69636601537E-03  0.16402057027E-01  0.22360556447E-01  0.00000000000E+00 0.  1.
     999901    1    3    3    0    0  0.60029614342E-01 -0.12092473587E+00 -0.17101129131E-01  0.89045987836E+00  0.88000000000E+00 0. -1.
        -11    1    4    4    0    0 -0.29952100144E-01  0.55864507002E-01  0.47211346979E-02  0.63565097966E-01  0.51100000000E-03 0. -1.
         11    1    4    4    0    0 -0.14895877782E-01  0.65756594881E-01 -0.40220625939E-02  0.67544467232E-01  0.51100000000E-03 0.  1.
</event>
<event>
 8    1  0.1204770E+005  0.1043930E+01  0.7957747E-01            NaN
         13   -1    0    0    0    0  0.00000000000E+00  0.00000000000E+00  0.74505805969E-08  0.10566000000E+00  0.10566000000E+00 0. -1.
     999900   -1    0    0    0    0 -0.00000000000E+00 -0.00000000000E+00 -0.74505805969E-08  0.93827000000E+00  0.93827000000E+00 0. -1.
     999902    2    1    2    0    0  0.99875911292E-02  0.12565336029E-01 -0.17418212572E-01  0.10202438484E+01  0.10199688606E+01 0.  0.
     999903    2    3    3    0    0  0.12184304727E+00  0.47578756609E-01 -0.43052763909E-02  0.13237587866E+00  0.19883953265E-01 0.  0.
         14    1    1    2    0    0 -0.99875911292E-02 -0.12565336029E-01  0.17418212572E-01  0.23686151551E-01  0.00000000000E+00 0. -1.
     999901    1    3    3    0    0 -0.11185545614E+00 -0.35013420580E-01 -0.13112936181E-01  0.88786796979E+00  0.88000000000E+00 0.  1.
        -11    1    4    4    0    0  0.59116614571E-02 -0.18324661689E-02  0.72534732196E-03  0.62524333807E-02  0.51100000000E-03 0. -1.
         11    1    4    4    0    0  0.11593138581E+00  0.49411222778E-01 -0.50306237129E-02  0.12612344528E+00  0.51100000000E-03 0.  1.
</event>
<event>
 7    1  0.1204770E+005  0.1043930E+01  0.7957747E-01            NaN
         13   -1    0    0    0    0  0.00000000000E+00  0.00000000000E+00  0.74505805969E-08  0.10566000000E+00  0.10566000000E+00 0. -1.
     999900   -1    0    0    0    0 -0.00000000000E+00 -0.00000000000E+00 -0.74505805969E-08  0.93827000000E+00  0.93827000000E+00 0. -1.
     999903    2    1    2    0    0 -0.67196235107E-01  0.35186409490E-01 -0.85653913897E-01  0.11619406362E+00  0.20274368753E-01 0.  0.
         14    1    1    2    0    0  0.10236038932E-01  0.24540703165E-01  0.32899249151E-01  0.42301101635E-01  0.00000000000E+00 0. -1.
     999901    1    1    2    0    0  0.56960196176E-01 -0.59727112655E-01  0.52754664746E-01  0.88543483475E+00  0.88000000000E+00 0. -1.
        -11    1    3    3    0    0 -0.36944971749E-01  0.30447478961E-01 -0.53239948142E-01  0.71601208871E-01  0.51100000000E-03 0. -1.
         11    1    3    3    0    0 -0.30251263359E-01  0.47389305285E-02 -0.32413965754E-01  0.44592854745E-01  0.51100000000E-03 0.  1.
</event>
<event>
 8    1  0.1204770E+005  0.1043930E+01  0.7957747E-01            NaN
         13   -1    0    0    0    0  0.00000000000E+00  0.00000000000E+00  0.74505805969E-08  0.10566000000E+00  0.10566000000E+00 0. -1.
     999900   -1    0    0    0    0 -0.00000000000E+00 -0.00000000000E+00 -0.74505805969E-08  0.93827000000E+00  0.93827000000E+00 0.  1.
     999902    2    1    2    0    0  0.79322737359E-02  0.13187292691E-01  0.17903575715E-01  0.10203214490E+01  0.10200482811E+01 0.  0.
     999903    2    3    3    0    0 -0.69727891687E-01  0.10795545228E+00  0.16951852562E-01  0.13183227570E+00  0.24000521953E-01 0.  0.
         14    1    1    2    0    0 -0.79322737359E-02 -0.13187292691E-01 -0.17903575715E-01  0.23608550962E-01  0.00000000000E+00 0.  1.
     999901    1    3    3    0    0  0.77660165423E-01 -0.94768159589E-01  0.95172315316E-03  0.88848917334E+00  0.88000000000E+00 0. -1.
        -11    1    4    4    0    0 -0.51416956269E-01  0.57905075637E-01  0.10235015794E-01  0.78113493366E-01  0.51100000000E-03 0. -1.
         11    1    4    4    0    0 -0.18310935419E-01  0.50050376644E-01  0.67168367683E-02  0.53718782332E-01  0.51100000000E-03 0.  1.
</event>
<event>
 8    1  0.1204770E+005  0.1043930E+01  0.7957747E-01            NaN
         13   -1    0    0    0    0  0.00000000000E+00  0.00000000000E+00  0.74505805969E-08  0.10566000000E+00  0.10566000000E+00 0.  1.
     999900   -1    0    0    0    0 -0.00000000000E+00 -0.00000000000E+00 -0.74505805969E-08  0.93827000000E+00  0.93827000000E+00 0. -1.
     999902    2    1    2    0    0  0.74815863184E-02  0.17684820022E-01 -0.13215566404E-01  0.10206195262E+01  0.10203532913E+01 0.  0.
     999903    2    3    3    0    0 -0.67593046815E-03  0.11803731691E+00 -0.59595303101E-01  0.13366504672E+00  0.19531500098E-01 0.  0.
         14    1    1    2    0    0 -0.74815863184E-02 -0.17684820022E-01  0.13215566404E-01  0.23310473792E-01  0.00000000000E+00 0.  1.
     999901    1    3    3    0    0  0.81575167865E-02 -0.10035249689E+00  0.46379736697E-01  0.88695447949E+00  0.88000000000E+00 0.  1.
        -11    1    4    4    0    0 -0.41627160305E-02  0.88254806110E-01 -0.35599936664E-01  0.95256787778E-01  0.51100000000E-03 0.  1.
         11    1    4    4    0    0  0.34867855623E-02  0.29782510804E-01 -0.23995366437E-01  0.38408258939E-01  0.51100000000E-03 0. -1.
</event>
<event>
 8    1  0.1204770E+005  0.1043930E+01  0.7957747E-01            NaN
         13   -1    0    0    0    0  0.00000000000E+00  0.00000000000E+00  0.74505805969E-08  0.10566000000E+00  0.10566000000E+00 0.  1.
     999900   -1    0    0    0    0 -0.00000000000E+00 -0.00000000000E+00 -0.74505805969E-08  0.93827000000E+00  0.93827000000E+00 0.  1.
     999902    2    1    2    0    0 -0.52603045537E-02  0.13684000101E-01 -0.17790558379E-01  0.10208773075E+01  0.10206169950E+01 0.  0.
     999903    2    3    3    0    0 -0.10869486345E-01 -0.11952101678E+00 -0.47470308377E-01  0.13034043182E+00  0.18214796276E-01 0.  0.
         14    1    1    2    0    0  0.52603045537E-02 -0.13684000101E-01  0.17790558379E-01  0.23052692472E-01  0.00000000000E+00 0.  1.
     999901    1    3    3    0    0  0.56091817908E-02  0.13320501688E+00  0.29679749998E-01  0.89053687571E+00  0.88000000000E+00 0.  1.
        -11    1    4    4    0    0 -0.68274330488E-02 -0.24868889175E-01 -0.39950979794E-02  0.26101674653E-01  0.51100000000E-03 0. -1.
         11    1    4    4    0    0 -0.40420532957E-02 -0.94652127603E-01 -0.43475210398E-01  0.10423875716E+00  0.51100000000E-03 0.  1.
</event>
<event>
 8    1  0.1204770E+005  0.1043930E+01  0.7957747E-01            NaN
         13   -1    0    0    0    0  0.00000000000E+00  0.00000000000E+00  0.74505805969E-08  0.10566000000E+00  0.10566000000E+00 0. -1.
     999900   -1    0    0    0    0 -0.00000000000E+00 -0.00000000000E+00 -0.74505805969E-08  0.93827000000E+00  0.93827000000E+00 0.  1.
     999902    2    1    2    0    0 -0.60462976038E-02 -0.10124541488E-01  0.20325135973E-01  0.10204315914E+01  0.10201609959E+01 0.  0.
     999903    2    3    3    0    0  0.16669224111E-01 -0.35657961951E-01 -0.12138512398E+00  0.12843958006E+00  0.14595345833E-01 0.  0.
         14    1    1    2    0    0  0.60462976038E-02  0.10124541488E-01 -0.20325135973E-01  0.23498408614E-01  0.00000000000E+00 0.  1.
     999901    1    3    3    0    0 -0.22715521714E-01  0.25533420463E-01  0.14171025995E+00  0.89199201132E+00  0.88000000000E+00 0. -1.
        -11    1    4    4    0    0 -0.80784295801E-03 -0.14493824112E-01 -0.41268478274E-01  0.43750108202E-01  0.51100000000E-03 0. -1.
         11    1    4    4    0    0  0.17477067069E-01 -0.21164137839E-01 -0.80116645707E-01  0.84689471861E-01  0.51100000000E-03 0.  1.
</event>
<event>
 8    1  0.1204770E+005  0.1043930E+01  0.7957747E-01            NaN
         13   -1    0    0    0    0  0.00000000000E+00  0.00000000000E+00  0.74505805969E-08  0.10566000000E+00  0.10566000000E+00 0. -1.
     999900   -1    0    0    0    0 -0.00000000000E+00 -0.00000000000E+00 -0.74505805969E-08  0.93827000000E+00  0.93827000000E+00 0. -1.
     999902    2    1    2    0    0  0.21687221650E-01 -0.96557118046E-02 -0.12953722783E-02  0.10201550901E+01  0.10198780130E+01 0.  0.
     999903    2    3    3    0    0 -0.91608356013E-01 -0.70722924870E-01  0.53494734650E-01  0.12910680391E+00  0.20323808391E-01 0.  0.
         14    1    1    2    0    0 -0.21687221650E-01  0.96557118046E-02  0.12953722783E-02  0.23774909940E-01  0.00000000000E+00 0. -1.
     999901    1    3    3    0    0  0.11329557766E+00  0.61067213066E-01 -0.54790106928E-01  0.89104828615E+00  0.88000000000E+00 0.  1.
        -11    1    4    4    0    0 -0.41665692184E-01 -0.38155310963E-01  0.35899647224E-01  0.66939550728E-01  0.51100000000E-03 0.  1.
         11    1    4    4    0    0 -0.49942663828E-01 -0.32567613908E-01  0.17595087426E-01  0.62167253184E-01  0.51100000000E-03 0. -1.
</event>
<event>
 8    1  0.1204770E+005  0.1043930E+01  0.7957747E-01            NaN
         13   -1    0    0    0    0  0.00000000000E+00  0.00000000000E+00  0.74505805969E-08  0.10566000000E+00  0.10566000000E+00 0.  1.
     999900   -1    0    0    0    0 -0.00000000000E+00 -0.00000000000E+00 -0.74505805969E-08  0.93827000000E+00  0.93827000000E+00 0.  1.
     999902    2    1    2    0    0  0.24053236684E-01 -0.68975778404E-02  0.56054848456E-02  0.10182871407E+01  0.10179642158E+01 0.  0.
     999903    2    3    3    0    0  0.20183786318E-01  0.96221297994E-01  0.81191732537E-01  0.12903928092E+00  0.19827132184E-01 0.  0.
         14    1    1    2    0    0 -0.24053236684E-01  0.68975778404E-02 -0.56054848456E-02  0.25642859345E-01  0.00000000000E+00 0.  1.
     999901    1    3    3    0    0  0.38694503659E-02 -0.10311887583E+00 -0.75586247691E-01  0.88924785973E+00  0.88000000000E+00 0.  1.
        -11    1    4    4    0    0  0.10450233764E-01  0.30796904242E-01  0.38097580785E-01  0.50093347655E-01  0.51100000000E-03 0.  1.
         11    1    4    4    0    0  0.97335525544E-02  0.65424393752E-01  0.43094151752E-01  0.78945933266E-01  0.51100000000E-03 0. -1.
</event>
<event>
 8    1  0.1204770E+005  0.1043930E+01  0.7957747E-01            NaN
         13   -1    0    0    0    0  0.00000000000E+00  0.00000000000E+00  0.74505805969E-08  0.10566000000E+00  0.10566000000E+00 0. -1.
     999900   -1    0    0    0    0 -0.00000000000E+00 -0.00000000000E+00 -0.74505805969E-08  0.93827000000E+00  0.93827000000E+00 0.  1.
     999902    2    1    2    0    0 -0.10154483220E-01 -0.12087553948E-01 -0.14911720876E-01  0.10222140632E+01  0.10219833703E+01 0.  0.
     999903    2    3    3    0    0  0.64942898390E-01 -0.10894533239E+00  0.32198450050E-01  0.13247229499E+00  0.20627730188E-01 0.  0.
         14    1    1    2    0    0  0.10154483220E-01  0.12087553948E-01  0.14911720876E-01  0.21715936761E-01  0.00000000000E+00 0. -1.
     999901    1    3    3    0    0 -0.75097381610E-01  0.96857778441E-01 -0.47110170926E-01  0.88974176825E+00  0.88000000000E+00 0.  1.
        -11    1    4    4    0    0  0.34003559449E-01 -0.37824803510E-01  0.14961854929E-01  0.53019581663E-01  0.51100000000E-03 0.  1.
         11    1    4    4    0    0  0.30939338942E-01 -0.71120528879E-01  0.17236595121E-01  0.79452713324E-01  0.51100000000E-03 0. -1.
</event>
<event>
 8    1  0.1204770E+005  0.1043930E+01  0.7957747E-01            NaN
         13   -1    0    0    0    0  0.00000000000E+00  0.00000000000E+00  0.74505805969E-08  0.10566000000E+00  0.10566000000E+00 0.  1.
     999900   -1    0    0    0    0 -0.00000000000E+00 -0.00000000000E+00 -0.74505805969E-08  0.93827000000E+00  0.93827000000E+00 0. -1.
     999902    2    1    2    0    0  0.22681454310E-01  0.61545899430E-02  0.39695171441E-02  0.10200954785E+01  0.10198169938E+01 0.  0.
     999903    2    3    3    0    0 -0.90214783806E-01  0.77444969462E-01 -0.45143052797E-01  0.12866969738E+00  0.19533696397E-01 0.  0.
         14    1    1    2    0    0 -0.22681454310E-01 -0.61545899430E-02 -0.39695171441E-02  0.23834521462E-01  0.00000000000E+00 0. -1.
     999901    1    3    3    0    0  0.11289623812E+00 -0.71290379519E-01  0.49112569941E-01  0.89142578116E+00  0.88000000000E+00 0.  1.
        -11    1    4    4    0    0 -0.34708332391E-01  0.35885616370E-01 -0.99551592968E-02  0.50909843029E-01  0.51100000000E-03 0.  1.
         11    1    4    4    0    0 -0.55506451416E-01  0.41559353092E-01 -0.35187893500E-01  0.77759854348E-01  0.51100000000E-03 0. -1.
</event>
<event>
 8    1  0.1204770E+005  0.1043930E+01  0.7957747E-01            NaN
         13   -1    0    0    0    0  0.00000000000E+00  0.00000000000E+00  0.74505805969E-08  0.10566000000E+00  0.10566000000E+00 0.  1.
     999900   -1    0    0    0    0 -0.00000000000E+00 -0.00000000000E+00 -0.74505805969E-08  0.93827000000E+00  0.93827000000E+00 0. -1.
     999902    2    1    2    0    0  0.15840494732E-01 -0.19574379806E-01  0.57285516114E-02  0.10181057106E+01  0.10177781409E+01 0.  0.
     999903    2    3    3    0    0 -0.71444199671E-01 -0.10130159139E+00  0.32246722865E-01  0.12962320185E+00  0.19900684381E-01 0.  0.
         14    1    1    2    0    0 -0.15840494732E-01  0.19574379806E-01 -0.57285516114E-02  0.25824289375E-01  0.00000000000E+00 0.  1.
     999901    1    3    3    0    0  0.87284694403E-01  0.81727211580E-01 -0.26518171254E-01  0.88848250877E+00  0.88000000000E+00 0. -1.
        -11    1    4    4    0    0 -0.14713331572E-01 -0.34566264561E-01  0.50625404651E-02  0.37910410293E-01  0.51100000000E-03 0.  1.
         11    1    4    4    0    0 -0.56730868099E-01 -0.66735326825E-01  0.27184182400E-01  0.91712791558E-01  0.51100000000E-03 0. -1.
</event>
<event>
 8    1  0.1204770E+005  0.1043930E+01  0.7957747E-01            NaN
         13   -1    0    0    0    0  0.00000000000E+00  0.00000000000E+00  0.74505805969E-08  0.10566000000E+00  0.10566000000E+00 0. -1.
     999900   -1    0    0    0    0 -0.00000000000E+00 -0.00000000000E+00 -0.74505805969E-08  0.93827000000E+00  0.93827000000E+00 0.  1.
     999902    2    1    2    0    0  0.16043406582E-01  0.15579007868E-01  0.22202111929E-02  0.10214572227E+01  0.10212099843E+01 0.  0.
     999903    2    3    3    0    0  0.11845740379E+00  0.52355751034E-01 -0.28715450313E-01  0.13421533303E+00  0.20393561604E-01 0.  0.
         14    1    1    2    0    0 -0.16043406582E-01 -0.15579007868E-01 -0.22202111929E-02  0.22472777279E-01  0.00000000000E+00 0.  1.
     999901    1    3    3    0    0 -0.10241399721E+00 -0.36776743166E-01  0.30935661506E-01  0.88724188969E+00  0.88000000000E+00 0. -1.
        -11    1    4    4    0    0  0.10469611064E+00  0.52401849725E-01 -0.23059670819E-01  0.11932828239E+00  0.51100000000E-03 0.  1.
         11    1    4    4    0    0  0.13761293150E-01 -0.46098690289E-04 -0.56557794933E-02  0.14887050645E-01  0.51100000000E-03 0. -1.
</event>
<event>
 8    1  0.1204770E+005  0.1043930E+01  0.7957747E-01            NaN
         13   -1    0    0    0    0  0.00000000000E+00  0.00000000000E+00  0.74505805969E-08  0.10566000000E+00  0.10566000000E+00 0. -1.
     999900   -1    0    0    0    0 -0.00000000000E+00 -0.00000000000E+00 -0.74505805969E-08  0.93827000000E+00  0.93827000000E+00 0. -1.
     999902    2    1    2    0    0 -0.87598913878E-03  0.31911614617E-01  0.77716586854E-02  0.10110739932E+01  0.10105400054E+01 0.  0.
     999903    2    3    3    0    0  0.59625601146E-01 -0.78840348558E-01 -0.63601164438E-01  0.11921048365E+00  0.19875070363E-01 0.  0.
         14    1    1    2    0    0  0.87598913878E-03 -0.31911614617E-01 -0.77716586854E-02  0.32856006805E-01  0.00000000000E+00 0. -1.
     999901    1    3    3    0    0 -0.60501590285E-01  0.11075196317E+00  0.71372823124E-01  0.89186350954E+00  0.88000000000E+00 0.  1.
        -11    1    4    4    0    0  0.14908499071E-01 -0.35632560650E-01 -0.23402006478E-01  0.45164784415E-01  0.51100000000E-03 0. -1.
         11    1    4    4    0    0  0.44717102075E-01 -0.43207787907E-01 -0.40199157961E-01  0.74045699237E-01  0.51100000000E-03 0.  1.
</event>
<event>
 8    1  0.1204770E+005  0.1043930E+01  0.7957747E-01            NaN
         13   -1    0    0    0    0  0.00000000000E+00  0.00000000000E+00  0.74505805969E-08  0.10566000000E+00  0.10566000000E+00 0.  1.
     999900   -1    0    0    0    0 -0.00000000000E+00 -0.00000000000E+00 -0.74505805969E-08  0.93827000000E+00  0.93827000000E+00 0. -1.
     999902    2    1    2    0    0  0.12568385067E-01  0.20523199721E-01  0.81989780299E-03  0.10198501690E+01  0.10195658531E+01 0.  0.
     999903    2    3    3    0    0  0.35533402902E-01  0.52958014274E-01 -0.11317791554E+00  0.13160757222E+00  0.21074593743E-01 0.  0.
         14    1    1    2    0    0 -0.12568385067E-01 -0.20523199721E-01 -0.81989780299E-03  0.24079831029E-01  0.00000000000E+00 0. -1.
     999901    1    3    3    0    0 -0.22965017836E-01 -0.32434814553E-01  0.11399781334E+00  0.88824259675E+00  0.88000000000E+00 0.  1.
        -11    1    4    4    0    0  0.25778587906E-01  0.22467741491E-01 -0.47378324836E-01  0.58432027069E-01  0.51100000000E-03 0.  1.
         11    1    4    4    0    0  0.97548149963E-02  0.30490272783E-01 -0.65799590705E-01  0.73175545149E-01  0.51100000000E-03 0. -1.
</event>
<event>
 8    1  0.1204770E+005  0.1043930E+01  0.7957747E-01            NaN
         13   -1    0    0    0    0  0.00000000000E+00  0.00000000000E+00  0.74505805969E-08  0.10566000000E+00  0.10566000000E+00 0. -1.
     999900   -1    0    0    0    0 -0.00000000000E+00 -0.00000000000E+00 -0.74505805969E-08  0.93827000000E+00  0.93827000000E+00 0.  1.
     999902    2    1    2    0    0  0.19409937512E-01  0.13522924971E-01  0.26679611624E-02  0.10201238413E+01  0.10198460268E+01 0.  0.
     999903    2    3    3    0    0 -0.74447186426E-01  0.74414287042E-02  0.10361006028E+00  0.12937390353E+00  0.20119738957E-01 0.  0.
         14    1    1    2    0    0 -0.19409937512E-01 -0.13522924971E-01 -0.26679611624E-02  0.23806158673E-01  0.00000000000E+00 0.  1.
     999901    1    3    3    0    0  0.93857123938E-01  0.60814962664E-02 -0.10094209912E+00  0.89074993780E+00  0.88000000000E+00 0. -1.
        -11    1    4    4    0    0 -0.56583571371E-01 -0.24119534500E-02  0.81922567863E-01  0.99594609868E-01  0.51100000000E-03 0.  1.
         11    1    4    4    0    0 -0.17863615055E-01  0.98533821542E-02  0.21687492417E-01  0.29779293662E-01  0.51100000000E-03 0. -1.
</event>
<event>
 8    1  0.1204770E+005  0.1043930E+01  0.7957747E-01            NaN
         13   -1    0    0    0    0  0.00000000000E+00  0.00000000000E+00  0.74505805969E-08  0.10566000000E+00  0.10566000000E+00 0.  1.
     999900   -1    0    0    0    0 -0.00000000000E+00 -0.00000000000E+00 -0.74505805969E-08  0.93827000000E+00  0.93827000000E+00 0. -1.
     999902    2    1    2    0    0 -0.12683031712E-01 -0.16383335835E-01 -0.10625270999E-01  0.10206454693E+01  0.10203798335E+01 0.  0.
     999903    2    3    3    0    0 -0.12580991129E+00 -0.86733241952E-02  0.34171080882E-01  0.13224024176E+00  0.20407313408E-01 0.  0.
         14    1    1    2    0    0  0.12683031712E-01  0.16383335835E-01  0.10625270999E-01  0.23284530708E-01  0.00000000000E+00 0.  1.
     999901    1    3    3    0    0  0.11312687958E+00 -0.77100116399E-02 -0.44796351881E-01  0.88840522753E+00  0.88000000000E+00 0. -1.
        -11    1    4    4    0    0 -0.19515090314E-01  0.33728333709E-02  0.11435198357E-01  0.22874431958E-01  0.51100000000E-03 0. -1.
         11    1    4    4    0    0 -0.10629482098E+00 -0.12046157566E-01  0.22735882525E-01  0.10936580980E+00  0.51100000000E-03 0.  1.
</event>
<event>
 8    1  0.1204770E+005  0.1043930E+01  0.7957747E-01            NaN
         13   -1    0    0    0    0  0.00000000000E+00  0.00000000000E+00  0.74505805969E-08  0.10566000000E+00  0.10566000000E+00 0. -1.
     999900   -1    0    0    0    0 -0.00000000000E+00 -0.00000000000E+00 -0.74505805969E-08  0.93827000000E+00  0.93827000000E+00 0.  1.
     999902    2    1    2    0    0  0.79967919154E-02 -0.10657257510E-01  0.19301171441E-01  0.10204766199E+01  0.10202070725E+01 0.  0.
     999903    2    3    3    0    0  0.20419938568E-01  0.23871978511E-01 -0.12290692585E+00  0.12830525428E+00  0.19216675224E-01 0.  0.
         14    1    1    2    0    0 -0.79967919154E-02  0.10657257510E-01 -0.19301171441E-01  0.23453380089E-01  0.00000000000E+00 0.  1.
     999901    1    3    3    0    0 -0.12423146653E-01 -0.34529236021E-01  0.14220809729E+00  0.89217136563E+00  0.88000000000E+00 0. -1.
        -11    1    4    4    0    0  0.31170164251E-03  0.14851628838E-03 -0.35913201322E-01  0.35918496144E-01  0.51100000000E-03 0. -1.
         11    1    4    4    0    0  0.20108236926E-01  0.23723462222E-01 -0.86993724523E-01  0.92386758139E-01  0.51100000000E-03 0.  1.
</event>
<event>
 8    1  0.1204770E+005  0.1043930E+01  0.7957747E-01            NaN
         13   -1    0    0    0    0  0.00000000000E+00  0.00000000000E+00  0.74505805969E-08  0.10566000000E+00  0.10566000000E+00 0.  1.
     999900   -1    0    0    0    0 -0.00000000000E+00 -0.00000000000E+00 -0.74505805969E-08  0.93827000000E+00  0.93827000000E+00 0. -1.
     999902    2    1    2    0    0  0.10840796600E-01 -0.16719081404E-01 -0.13257906232E-01  0.10199962867E+01  0.10197154516E+01 0.  0.
     999903    2    3    3    0    0  0.45603191179E-01 -0.16180898818E-01 -0.12107378929E+00  0.13273478166E+00  0.24863372180E-01 0.  0.
         14    1    1    2    0    0 -0.10840796600E-01  0.16719081404E-01  0.13257906232E-01  0.23933713285E-01  0.00000000000E+00 0.  1.
     999901    1    3    3    0    0 -0.34762394578E-01 -0.53818258630E-03  0.10781588306E+00  0.88726150506E+00  0.88000000000E+00 0.  1.
        -11    1    4    4    0    0  0.13233658275E-01  0.65215220291E-02 -0.29432072597E-01  0.32926706171E-01  0.51100000000E-03 0. -1.
         11    1    4    4    0    0  0.32369532904E-01 -0.22702420847E-01 -0.91641716694E-01  0.99808075487E-01  0.51100000000E-03 0.  1.
</event>
<event>
 7    1  0.1204770E+005  0.1043930E+01  0.7957747E-01            NaN
         13   -1    0    0    0    0  0.00000000000E+00  0.00000000000E+00  0.74505805969E-08  0.10566000000E+00  0.10566000000E+00 0.  1.
     999900   -1    0    0    0    0 -0.00000000000E+00 -0.00000000000E+00 -0.74505805969E-08  0.93827000000E+00  0.93827000000E+00 0. -1.
     999902    2    1    2    0    0  0.22693902229E-01  0.34840106715E-02 -0.45710293668E-02  0.10205196211E+01  0.10202510727E+01 0.  0.
         14    1    1    2    0    0 -0.22693902229E-01 -0.34840106715E-02  0.45710293668E-02  0.23410378857E-01  0.00000000000E+00 0.  1.
     999901    1    3    3    0    0 -0.83312148897E-01  0.52602479154E-01 -0.41333367533E-01  0.88646284876E+00  0.88000000000E+00 0. -1.
        -11    1    3    3    0    0  0.95383979545E-02 -0.24375536100E-02  0.24227489027E-01  0.26156357711E-01  0.51100000000E-03 0. -1.
         11    1    3    3    0    0  0.96467653171E-01 -0.46680914873E-01  0.12534849139E-01  0.10790041467E+00  0.51100000000E-03 0.  1.
</event>
<event>
 8    1  0.1204770E+005  0.1043930E+01  0.7957747E-01            NaN
         13   -1    0    0    0    0  0.00000000000E+00  0.00000000000E+00  0.74505805969E-08  0.10566000000E+00  0.10566000000E+00 0.  1.
     999900   -1    0    0    0    0 -0.00000000000E+00 -0.00000000000E+00 -0.74505805969E-08  0.93827000000E+00  0.93827000000E+00 0. -1.
     999902    2    1    2    0    0  0.17997586075E-01 -0.14531320333E-01  0.53141733221E-02  0.10201957881E+01  0.10199196700E+01 0.  0.
     999903    2    3    3    0    0  0.99922727234E-01 -0.59879827367E-01  0.61922651989E-01  0.13341918960E+00  0.19902768147E-01 0.  0.
         14    1    1    2    0    0 -0.17997586075E-01  0.14531320333E-01 -0.53141733221E-02  0.23734211873E-01  0.00000000000E+00 0. -1.
     999901    1    3    3    0    0 -0.81925141159E-01  0.45348507034E-01 -0.56608478667E-01  0.88677659853E+00  0.88000000000E+00 0.  1.
        -11    1    4    4    0    0  0.44780654879E-01 -0.24090832195E-01  0.16305109516E-01  0.53402181271E-01  0.51100000000E-03 0. -1.
         11    1    4    4    0    0  0.55142072355E-01 -0.35788995173E-01  0.45617542473E-01  0.80017008325E-01  0.51100000000E-03 0.  1.
</event>
<event>
 8    1  0.1204770E+005  0.1043930E+01  0.7957747E-01            NaN
         13   -1    0    0    0    0  0.00000000000E+00  0.00000000000E+00  0.74505805969E-08  0.10566000000E+00  0.10566000000E+00 0.  1.
     999900   -1    0    0    0    0 -0.00000000000E+00 -0.00000000000E+00 -0.74505805969E-08  0.93827000000E+00  0.93827000000E+00 0. -1.
     999902    2    1    2    0    0 -0.14927779444E-01  0.18003083322E-01  0.35546447259E-02  0.10202744487E+01  0.10200001792E+01 0.  0.
     999903    2    3    3    0    0  0.38068492663E-01  0.99240844590E-01  0.75743608123E-01  0.13200679470E+00  0.19767253369E-01 0.  0.
         14    1    1    2    0    0  0.14927779444E-01 -0.18003083322E-01 -0.35546447259E-02  0.23655551301E-01  0.00000000000E+00 0. -1.
     999901    1    3    3    0    0 -0.52996272106E-01 -0.81237761268E-01 -0.72188963397E-01  0.88826765400E+00  0.88000000000E+00 0.  1.
        -11    1    4    4    0    0  0.18938802976E-01  0.66326373454E-01  0.39748591120E-01  0.79612044884E-01  0.51100000000E-03 0.  1.
         11    1    4    4    0    0  0.19129689687E-01  0.32914471136E-01  0.35995017003E-01  0.52394749811E-01  0.51100000000E-03 0. -1.
</event>
<event>
 8    1  0.1204770E+005  0.1043930E+01  0.7957747E-01            NaN
         13   -1    0    0    0    0  0.00000000000E+00  0.00000000000E+00  0.74505805969E-08  0.10566000000E+00  0.10566000000E+00 0. -1.
     999900   -1    0    0    0    0 -0.00000000000E+00 -0.00000000000E+00 -0.74505805969E-08  0.93827000000E+00  0.93827000000E+00 0.  1.
     999902    2    1    2    0    0 -0.12040107921E-01 -0.52243265806E-02 -0.19820513352E-01  0.10201579463E+01  0.10198809366E+01 0.  0.
     999903    2    3    3    0    0  0.74179779128E-01  0.96840340655E-01 -0.40271571664E-01  0.12983816612E+00  0.18853612039E-01 0.  0.
         14    1    1    2    0    0  0.12040107921E-01  0.52243265806E-02  0.19820513352E-01  0.23772053687E-01  0.00000000000E+00 0. -1.
     999901    1    3    3    0    0 -0.86219887049E-01 -0.10206466724E+00  0.20451058312E-01  0.89031978020E+00  0.88000000000E+00 0.  1.
        -11    1    4    4    0    0  0.35335124329E-01  0.36396936451E-01 -0.24222457611E-01  0.56216515083E-01  0.51100000000E-03 0.  1.
         11    1    4    4    0    0  0.38844654800E-01  0.60443404204E-01 -0.16049114053E-01  0.73621651035E-01  0.51100000000E-03 0. -1.
</event>
<event>
 8    1  0.1204770E+005  0.1043930E+01  0.7957747E-01            NaN
         13   -1    0    0    0    0  0.00000000000E+00  0.00000000000E+00  0.74505805969E-08  0.10566000000E+00  0.10566000000E+00 0. -1.
     999900   -1    0    0    0    0 -0.00000000000E+00 -0.00000000000E+00 -0.74505805969E-08  0.93827000000E+00  0.93827000000E+00 0.  1.
     999902    2    1    2    0    0 -0.66590574316E-02  0.50438080526E-02  0.22007320979E-01  0.10203905603E+01  0.10201190079E+01 0.  0.
     999903    2    3    3    0    0 -0.53386278515E-01  0.81960553275E-01  0.88364787123E-01  0.13331506620E+00  0.19923459700E-01 0.  0.
         14    1    1    2    0    0  0.66590574316E-02 -0.50438080526E-02 -0.22007320979E-01  0.23539439717E-01  0.00000000000E+00 0.  1.
     999901    1    3    3    0    0  0.46727221083E-01 -0.76916745222E-01 -0.66357466144E-01  0.88707549408E+00  0.88000000000E+00 0. -1.
        -11    1    4    4    0    0 -0.20316193139E-01  0.19829317721E-01  0.34509042269E-01  0.44688753219E-01  0.51100000000E-03 0. -1.
         11    1    4    4    0    0 -0.33070085376E-01  0.62131235554E-01  0.53855744854E-01  0.88626312983E-01  0.51100000000E-03 0.  1.
</event>
<event>
 8    1  0.1204770E+005  0.1043930E+01  0.7957747E-01            NaN
         13   -1    0    0    0    0  0.00000000000E+00  0.00000000000E+00  0.74505805969E-08  0.10566000000E+00  0.10566000000E+00 0.  1.
     999900   -1    0    0    0    0 -0.00000000000E+00 -0.00000000000E+00 -0.74505805969E-08  0.93827000000E+00  0.93827000000E+00 0.  1.
     999902    2    1    2    0    0  0.34828291215E-02 -0.12359330396E-01 -0.19520824967E-01  0.10205645179E+01  0.10202970104E+01 0.  0.
     999903    2    3    3    0    0  0.34566131140E-01 -0.81105273865E-01  0.93612892521E-01  0.13012001404E+00  0.19873639280E-01 0.  0.
         14    1    1    2    0    0 -0.34828291215E-02  0.12359330396E-01  0.19520824967E-01  0.23365482103E-01  0.00000000000E+00 0.  1.
     999901    1    3    3    0    0 -0.31083302018E-01  0.68745943470E-01 -0.11313371749E+00  0.89044450385E+00  0.88000000000E+00 0.  1.
        -11    1    4    4    0    0  0.23175555162E-01 -0.64754005009E-01  0.82092462346E-01  0.10709631654E+00  0.51100000000E-03 0.  1.
         11    1    4    4    0    0  0.11390575978E-01 -0.16351268856E-01  0.11520430175E-01  0.23023697504E-01  0.51100000000E-03 0. -1.
</event>
<event>
 8    1  0.1204770E+005  0.1043930E+01  0.7957747E-01            NaN
         13   -1    0    0    0    0  0.00000000000E+00  0.00000000000E+00  0.74505805969E-08  0.10566000000E+00  0.10566000000E+00 0. -1.
     999900   -1    0    0    0    0 -0.00000000000E+00 -0.00000000000E+00 -0.74505805969E-08  0.93827000000E+00  0.93827000000E+00 0.  1.
     999902    2    1    2    0    0  0.85872991251E-03  0.80605034698E-02  0.22269709422E-01  0.10202308631E+01  0.10199555701E+01 0.  0.
     999903    2    3    3    0    0  0.12712216232E+00  0.10333178225E-02 -0.18986656763E-01  0.13023427687E+00  0.20960959882E-01 0.  0.
         14    1    1    2    0    0 -0.85872991251E-03 -0.80605034698E-02 -0.22269709422E-01  0.23699136925E-01  0.00000000000E+00 0.  1.
     999901    1    3    3    0    0 -0.12626343241E+00  0.70271856473E-02  0.41256366185E-01  0.88999658620E+00  0.88000000000E+00 0. -1.
        -11    1    4    4    0    0  0.44636539673E-01 -0.24879977481E-03 -0.16834770723E-01  0.47709047377E-01  0.51100000000E-03 0.  1.
         11    1    4    4    0    0  0.82485622646E-01  0.12821175973E-02 -0.21518860400E-02  0.82525229496E-01  0.51100000000E-03 0. -1.
</event>
<event>
 8    1  0.1204770E+005  0.1043930E+01  0.7957747E-01            NaN
         13   -1    0    0    0    0  0.00000000000E+00  0.00000000000E+00  0.74505805969E-08  0.10566000000E+00  0.10566000000E+00 0.  1.
     999900   -1    0    0    0    0 -0.00000000000E+00 -0.00000000000E+00 -0.74505805969E-08  0.93827000000E+00  0.93827000000E+00 0.  1.
     999902    2    1    2    0    0  0.12200038851E-01  0.13775459423E-01 -0.28670309215E-01  0.10098625542E+01  0.10092877625E+01 0.  0.
     999903    2    3    3    0    0  0.46040874743E-01  0.91775917866E-01 -0.68183113970E-01  0.12488202596E+00  0.20099804225E-01 0.  0.
         14    1    1    2    0    0 -0.12200038851E-01 -0.13775459423E-01  0.28670309215E-01  0.34067445762E-01  0.00000000000E+00 0.  1.
     999901    1    3    3    0    0 -0.33840835892E-01 -0.78000458443E-01  0.39512804755E-01  0.88498052828E+00  0.88000000000E+00 0. -1.
        -11    1    4    4    0    0  0.35527841239E-01  0.49476370591E-01 -0.42720299471E-01  0.74400429151E-01  0.51100000000E-03 0. -1.
         11    1    4    4    0    0  0.10513033504E-01  0.42299547275E-01 -0.25462814499E-01  0.50481596809E-01  0.51100000000E-03 0.  1.
</event>
<event>
 8    1  0.1204770E+005  0.1043930E+01  0.7957747E-01            NaN
         13   -1    0    0    0    0  0.00000000000E+00  0.00000000000E+00  0.74505805969E-08  0.10566000000E+00  0.10566000000E+00 0. -1.
     999900   -1    0    0    0    0 -0.00000000000E+00 -0.00000000000E+00 -0.74505805969E-08  0.93827000000E+00  0.93827000000E+00 0. -1.
     999902    2    1    2    0    0 -0.24563933393E-02  0.17421192660E-01  0.31042415034E-02  0.10260647226E+01  0.10259091806E+01 0.  0.
     999903    2    3    3    0    0 -0.11499958375E+00 -0.64502756937E-01 -0.23652157228E-01  0.13472112548E+00  0.14312483831E-01 0.  0.
         14    1    1    2    0    0  0.24563933393E-02 -0.17421192660E-01 -0.31042415034E-02  0.17865277419E-01  0.00000000000E+00 0. -1.
     999901    1    3    3    0    0  0.11254319041E+00  0.81923949597E-01  0.26756398732E-01  0.89134359710E+00  0.88000000000E+00 0. -1.
        -11    1    4    4    0    0 -0.10020055717E+00 -0.51853810176E-01 -0.16755903621E-01  0.11406134628E+00  0.51100000000E-03 0.  1.
         11    1    4    4    0    0 -0.14799026577E-01 -0.12648946761E-01 -0.68962536077E-02  0.20659779200E-01  0.51100000000E-03 0. -1.
</event>
<event>
 8    1  0.1204770E+005  0.1043930E+01  0.7957747E-01            NaN
         13   -1    0    0    0    0  0.00000000000E+00  0.00000000000E+00  0.74505805969E-08  0.10566000000E+00  0.10566000000E+00 0. -1.
     999900   -1    0    0    0    0 -0.00000000000E+00 -0.00000000000E+00 -0.74505805969E-08  0.93827000000E+00  0.93827000000E+00 0.  1.
     999902    2    1    2    0    0  0.18614860451E-01 -0.10019624173E-01 -0.11795180246E-01  0.10197218986E+01  0.10194345090E+01 0.  0.
     999903    2    3    3    0    0  0.55101529107E-01 -0.59204088026E-01 -0.10221953561E+00  0.13297111479E+00  0.26290328237E-01 0.  0.
         14    1    1    2    0    0 -0.18614860451E-01  0.10019624173E-01  0.11795180246E-01  0.24208101438E-01  0.00000000000E+00 0.  1.
     999901    1    3    3    0    0 -0.36486668656E-01  0.49184463853E-01  0.90424355369E-01  0.88675078377E+00  0.88000000000E+00 0.  1.
        -11    1    4    4    0    0  0.30943515479E-01 -0.14390927860E-01 -0.41394961935E-01  0.53650759076E-01  0.51100000000E-03 0.  1.
         11    1    4    4    0    0  0.24158013628E-01 -0.44813160166E-01 -0.60824573680E-01  0.79320355716E-01  0.51100000000E-03 0. -1.
</event>
<event>
 8    1  0.1204770E+005  0.1043930E+01  0.7957747E-01            NaN
         13   -1    0    0    0    0  0.00000000000E+00  0.00000000000E+00  0.74505805969E-08  0.10566000000E+00  0.10566000000E+00 0. -1.
     999900   -1    0    0    0    0 -0.00000000000E+00 -0.00000000000E+00 -0.74505805969E-08  0.93827000000E+00  0.93827000000E+00 0.  1.
     999902    2    1    2    0    0 -0.83124126049E-02  0.20834977002E-01  0.22944159099E-02  0.10213810130E+01  0.10211320761E+01 0.  0.
     999903    2    3    3    0    0  0.10135044759E+00  0.21159696202E-01  0.78279509080E-01  0.13132495706E+00  0.19972902518E-01 0.  0.
         14    1    1    2    0    0  0.83124126049E-02 -0.20834977002E-01 -0.22944159099E-02  0.22548986991E-01  0.00000000000E+00 0.  1.
     999901    1    3    3    0    0 -0.10966286019E+00 -0.32471920082E-03 -0.75985093171E-01  0.89005605595E+00  0.88000000000E+00 0.  1.
        -11    1    4    4    0    0  0.38171356836E-01  0.10563443154E-01  0.41874610368E-01  0.57640115617E-01  0.51100000000E-03 0.  1.
         11    1    4    4    0    0  0.63179090753E-01  0.10596253048E-01  0.36404898713E-01  0.73684841442E-01  0.51100000000E-03 0. -1.
</event>
<event>
 8    1  0.1204770E+005  0.1043930E+01  0.7957747E-01            NaN
         13   -1    0    0    0    0  0.00000000000E+00  0.00000000000E+00  0.74505805969E-08  0.10566000000E+00  0.10566000000E+00 0.  1.
     999900   -1    0    0    0    0 -0.00000000000E+00 -0.00000000000E+00 -0.74505805969E-08  0.93827000000E+00  0.93827000000E+00 0.  1.
     999902    2    1    2    0    0 -0.13264330512E-01 -0.17381330819E-01 -0.16281265892E-01  0.10166695388E+01  0.10163039990E+01 0.  0.
     999903    2    3    3    0    0 -0.11045127871E+00  0.58152984730E-02 -0.64721416302E-01  0.12969161650E+00  0.19943695623E-01 0.  0.
         14    1    1    2    0    0  0.13264330512E-01  0.17381330819E-01  0.16281265892E-01  0.27260461185E-01  0.00000000000E+00 0.  1.
     999901    1    3    3    0    0  0.97186948201E-01 -0.23196629292E-01  0.48440150411E-01  0.88697792232E+00  0.88000000000E+00 0.  1.
        -11    1    4    4    0    0 -0.57952981388E-04 -0.26169357243E-03 -0.30273289067E-02  0.30818311737E-02  0.51100000000E-03 0. -1.
         11    1    4    4    0    0 -0.11039332573E+00  0.60769920454E-02 -0.61694087396E-01  0.12660978532E+00  0.51100000000E-03 0.  1.
</event>
<event>
 8    1  0.1204770E+005  0.1043930E+01  0.7957747E-01            NaN
         13   -1    0    0    0    0  0.00000000000E+00  0.00000000000E+00  0.74505805969E-08  0.10566000000E+00  0.10566000000E+00 0. -1.
     999900   -1    0    0    0    0 -0.00000000000E+00 -0.00000000000E+00 -0.74505805969E-08  0.93827000000E+00  0.93827000000E+00 0.  1.
     999902    2    1    2    0    0 -0.21035621027E-01  0.13166484817E-01  0.10229135825E-02  0.10190925278E+01  0.10187898116E+01 0.  0.
     999903    2    3    3    0    0  0.67914916870E-01  0.48854996812E-01  0.95520239720E-01  0.12885906810E+00  0.21938472774E-01 0.  0.
         14    1    1    2    0    0  0.21035621027E-01 -0.13166484817E-01 -0.10229135825E-02  0.24837472227E-01  0.00000000000E+00 0.  1.
     999901    1    3    3    0    0 -0.88950537896E-01 -0.35688511995E-01 -0.94497326138E-01  0.89023345968E+00  0.88000000000E+00 0.  1.
        -11    1    4    4    0    0  0.39797786068E-01  0.27220919962E-01  0.70623954916E-01  0.85515182211E-01  0.51100000000E-03 0.  1.
         11    1    4    4    0    0  0.28117130802E-01  0.21634076851E-01  0.24896284804E-01  0.43343885886E-01  0.51100000000E-03 0. -1.
</event>
<event>
 8    1  0.1204770E+005  0.1043930E+01  0.7957747E-01            NaN
         13   -1    0    0    0    0  0.00000000000E+00  0.00000000000E+00  0.74505805969E-08  0.10566000000E+00  0.10566000000E+00 0. -1.
     999900   -1    0    0    0    0 -0.00000000000E+00 -0.00000000000E+00 -0.74505805969E-08  0.93827000000E+00  0.93827000000E+00 0. -1.
     999902    2    1    2    0    0  0.66543625627E-02  0.22674526873E-01  0.14300506325E-02  0.10202559688E+01  0.10199812655E+01 0.  0.
     999903    2    3    3    0    0  0.27222172696E-01 -0.11191246957E+00 -0.52367275131E-01  0.12816244974E+00  0.20441000151E-01 0.  0.
         14    1    1    2    0    0 -0.66543625627E-02 -0.22674526873E-01 -0.14300506325E-02  0.23674031234E-01  0.00000000000E+00 0.  1.
     999901    1    3    3    0    0 -0.20567810134E-01  0.13458699645E+00  0.53797325764E-01  0.89209351902E+00  0.88000000000E+00 0. -1.
        -11    1    4    4    0    0  0.16506745803E-01 -0.40965115646E-01 -0.11727438086E-01  0.45699094979E-01  0.51100000000E-03 0.  1.
         11    1    4    4    0    0  0.10715426894E-01 -0.70947353927E-01 -0.40639837045E-01  0.82463354763E-01  0.51100000000E-03 0. -1.
</event>
<event>
 8    1  0.1204770E+005  0.1043930E+01  0.7957747E-01            NaN
         13   -1    0    0    0    0  0.00000000000E+00  0.00000000000E+00  0.74505805969E-08  0.10566000000E+00  0.10566000000E+00 0.  1.
     999900   -1    0    0    0    0 -0.00000000000E+00 -0.00000000000E+00 -0.74505805969E-08  0.93827000000E+00  0.93827000000E+00 0.  1.
     999902    2    1    2    0    0  0.40114125476E-02  0.94063534278E-03 -0.24423706810E-01  0.10191611954E+01  0.10188601713E+01 0.  0.
     999903    2    3    3    0    0 -0.85411962097E-01  0.86712080172E-01 -0.42000264927E-01  0.13030675511E+00  0.20040959474E-01 0.  0.
         14    1    1    2    0    0 -0.40114125476E-02 -0.94063534278E-03  0.24423706810E-01  0.24768804569E-01  0.00000000000E+00 0.  1.
     999901    1    3    3    0    0  0.89423374645E-01 -0.85771444829E-01  0.17576558117E-01  0.88885444032E+00  0.88000000000E+00 0.  1.
        -11    1    4    4    0    0 -0.45077520892E-01  0.31599268634E-01 -0.19167729745E-01  0.58293735964E-01  0.51100000000E-03 0.  1.
         11    1    4    4    0    0 -0.40334441204E-01  0.55112811538E-01 -0.22832535182E-01  0.72013019147E-01  0.51100000000E-03 0. -1.
</event>
<event>
 8    1  0.1204770E+005  0.1043930E+01  0.7957747E-01            NaN
         13   -1    0    0    0    0  0.00000000000E+00  0.00000000000E+00  0.74505805969E-08  0.10566000000E+00  0.10566000000E+00 0.  1.
     999900   -1    0    0    0    0 -0.00000000000E+00 -0.00000000000E+00 -0.74505805969E-08  0.93827000000E+00  0.93827000000E+00 0. -1.
     999902    2    1    2    0    0 -0.29412500298E-02 -0.14246376320E-01 -0.26971187593E-01  0.10132859932E+01  0.10128225160E+01 0.  0.
     999903    2    3    3    0    0 -0.49922828781E-01 -0.11345919572E+00 -0.14028871662E-01  0.12637114061E+00  0.20188561446E-01 0.  0.
         14    1    1    2    0    0  0.29412500298E-02  0.14246376320E-01  0.26971187593E-01  0.30644006758E-01  0.00000000000E+00 0.  1.
     999901    1    3    3    0    0  0.46981578752E-01  0.99212819397E-01 -0.12942315931E-01  0.88691485263E+00  0.88000000000E+00 0.  1.
        -11    1    4    4    0    0 -0.27174309613E-01 -0.43444770782E-01 -0.12442676143E-01  0.52734926963E-01  0.51100000000E-03 0. -1.
         11    1    4    4    0    0 -0.22748519169E-01 -0.70014424935E-01 -0.15861955196E-02  0.73636213649E-01  0.51100000000E-03 0.  1.
</event>
<event>
 8    1  0.1204770E+005  0.1043930E+01  0.7957747E-01            NaN
         13   -1    0    0    0    0  0.00000000000E+00  0.00000000000E+00  0.74505805969E-08  0.10566000000E+00  0.10566000000E+00 0.  1.
     999900   -1    0    0    0    0 -0.00000000000E+00 -0.00000000000E+00 -0.74505805969E-08  0.93827000000E+00  0.93827000000E+00 0.  1.
     999902    2    1    2    0    0  0.15029471126E-01  0.11397792017E-01  0.22584062364E-01  0.10145049335E+01  0.10140781161E+01 0.  0.
     999903    2    3    3    0    0  0.43865115897E-01 -0.10319931856E+00  0.53684416971E-01  0.12606178720E+00  0.20864079713E-01 0.  0.
         14    1    1    2    0    0 -0.15029471126E-01 -0.11397792017E-01 -0.22584062364E-01  0.29425066492E-01  0.00000000000E+00 0. -1.
     999901    1    3    3    0    0 -0.28835644771E-01  0.11459711058E+00 -0.31100354608E-01  0.88844314631E+00  0.88000000000E+00 0. -1.
        -11    1    4    4    0    0  0.28709858919E-01 -0.46963778043E-01  0.33398058429E-01  0.64385898107E-01  0.51100000000E-03 0. -1.
         11    1    4    4    0    0  0.15155256979E-01 -0.56235540520E-01  0.20286358542E-01  0.61675889094E-01  0.51100000000E-03 0.  1.
</event>
<event>
 8    1  0.1204770E+005  0.1043930E+01  0.7957747E-01            NaN
         13   -1    0    0    0    0  0.00000000000E+00  0.00000000000E+00  0.74505805969E-08  0.10566000000E+00  0.10566000000E+00 0.  1.
     999900   -1    0    0    0    0 -0.00000000000E+00 -0.00000000000E+00 -0.74505805969E-08  0.93827000000E+00  0.93827000000E+00 0.  1.
     999902    2    1    2    0    0  0.15849912674E-02 -0.12858255130E-01  0.17842156920E-01  0.10218802951E+01  0.10216423778E+01 0.  0.
     999903    2    3    3    0    0  0.95868647271E-01 -0.53706286232E-01  0.76169056665E-01  0.13398390663E+00  0.86486607280E-02 0.  0.
         14    1    1    2    0    0 -0.15849912674E-02  0.12858255130E-01 -0.17842156920E-01  0.22049704893E-01  0.00000000000E+00 0. -1.
     999901    1    3    3    0    0 -0.94283656004E-01  0.40848031103E-01 -0.58326899745E-01  0.88789638848E+00  0.88000000000E+00 0.  1.
        -11    1    4    4    0    0  0.37079201433E-01 -0.17326847983E-01  0.24877440371E-01  0.47898173246E-01  0.51100000000E-03 0.  1.
         11    1    4    4    0    0  0.58789445839E-01 -0.36379438250E-01  0.51291616294E-01  0.86085733385E-01  0.51100000000E-03 0. -1.
</event>
<event>
 8    1  0.1204770E+005  0.1043930E+01  0.7957747E-01            NaN
         13   -1    0    0    0    0  0.00000000000E+00  0.00000000000E+00  0.74505805969E-08  0.10566000000E+00  0.10566000000E+00 0. -1.
     999900   -1    0    0    0    0 -0.00000000000E+00 -0.00000000000E+00 -0.74505805969E-08  0.93827000000E+00  0.93827000000E+00 0. -1.
     999902    2    1    2    0    0  0.12008963390E-01  0.94530225894E-02  0.17612212873E-01  0.10206112333E+01  0.10203448068E+01 0.  0.
     999903    2    3    3    0    0  0.26480083848E-02  0.13021156519E+00 -0.67782830978E-02  0.13198017973E+00  0.20267191731E-01 0.  0.
         14    1    1    2    0    0 -0.12008963390E-01 -0.94530225894E-02 -0.17612212873E-01  0.23318766693E-01  0.00000000000E+00 0.  1.
     999901    1    3    3    0    0  0.93609550054E-02 -0.12075854260E+00  0.24390495971E-01  0.88863105358E+00  0.88000000000E+00 0.  1.
        -11    1    4    4    0    0  0.90628104590E-02  0.96037416401E-01  0.42905712375E-03  0.96466393596E-01  0.51100000000E-03 0.  1.
         11    1    4    4    0    0 -0.64148020741E-02  0.34174148794E-01 -0.72073402215E-02  0.35513786133E-01  0.51100000000E-03 0. -1.
</event>
<event>
 8    1  0.1204770E+005  0.1043930E+01  0.7957747E-01            NaN
         13   -1    0    0    0    0  0.00000000000E+00  0.00000000000E+00  0.74505805969E-08  0.10566000000E+00  0.10566000000E+00 0. -1.
     999900   -1    0    0    0    0 -0.00000000000E+00 -0.00000000000E+00 -0.74505805969E-08  0.93827000000E+00  0.93827000000E+00 0. -1.
     999902    2    1    2    0    0  0.13858951104E-01 -0.12698942553E-01 -0.13739802723E-01  0.10206466187E+01  0.10203810094E+01 0.  0.
     999903    2    3    3    0    0 -0.85797322507E-01  0.93432239146E-01  0.36544640597E-02  0.12851559627E+00  0.20301219558E-01 0.  0.
         14    1    1    2    0    0 -0.13858951104E-01  0.12698942553E-01  0.13739802723E-01  0.23283381339E-01  0.00000000000E+00 0. -1.
     999901    1    3    3    0    0  0.99656273612E-01 -0.10613118170E+00 -0.17394266783E-01  0.89213102239E+00  0.88000000000E+00 0.  1.
        -11    1    4    4    0    0 -0.61048297059E-01  0.62742387872E-01 -0.65498104672E-02  0.87787601333E-01  0.51100000000E-03 0.  1.
         11    1    4    4    0    0 -0.24749025448E-01  0.30689851274E-01  0.10204274527E-01  0.40727994936E-01  0.51100000000E-03 0. -1.
</event>
<event>
 8    1  0.1204770E+005  0.1043930E+01  0.7957747E-01            NaN
         13   -1    0    0    0    0  0.00000000000E+00  0.00000000000E+00  0.74505805969E-08  0.10566000000E+00  0.10566000000E+00 0.  1.
     999900   -1    0    0    0    0 -0.00000000000E+00 -0.00000000000E+00 -0.74505805969E-08  0.93827000000E+00  0.93827000000E+00 0. -1.
     999902    2    1    2    0    0 -0.59241503472E-03  0.15387289244E-01  0.19040750282E-01  0.10194418437E+01  0.10191476846E+01 0.  0.
     999903    2    3    3    0    0  0.45070803072E-02  0.11784319957E+00  0.58537258698E-01  0.13260296740E+00  0.15798824272E-01 0.  0.
         14    1    1    2    0    0  0.59241503472E-03 -0.15387289244E-01 -0.19040750282E-01  0.24488156263E-01  0.00000000000E+00 0. -1.
     999901    1    3    3    0    0 -0.50994953419E-02 -0.10245591033E+00 -0.39496508416E-01  0.88683887634E+00  0.88000000000E+00 0.  1.
        -11    1    4    4    0    0  0.16202554684E-02  0.11346153760E-01  0.11163150318E-01  0.16007419497E-01  0.51100000000E-03 0.  1.
         11    1    4    4    0    0  0.28868248388E-02  0.10649704581E+00  0.47374108379E-01  0.11659554790E+00  0.51100000000E-03 0. -1.
</event>
<event>
 8    1  0.1204770E+005  0.1043930E+01  0.7957747E-01            NaN
         13   -1    0    0    0    0  0.00000000000E+00  0.00000000000E+00  0.74505805969E-08  0.10566000000E+00  0.10566000000E+00 0.  1.
     999900   -1    0    0    0    0 -0.00000000000E+00 -0.00000000000E+00 -0.74505805969E-08  0.93827000000E+00  0.93827000000E+00 0.  1.
     999902    2    1    2    0    0  0.68862163240E-02  0.20610429905E-01 -0.10016684692E-01  0.10200021132E+01  0.10197214164E+01 0.  0.
     999903    2    3    3    0    0 -0.13653462910E-01 -0.96333457038E-01 -0.83386493966E-01  0.12900218049E+00  0.14889701161E-01 0.  0.
         14    1    1    2    0    0 -0.68862163240E-02 -0.20610429905E-01  0.10016684692E-01  0.23927886834E-01  0.00000000000E+00 0. -1.
     999901    1    3    3    0    0  0.20539679234E-01  0.11694388694E+00  0.73369809274E-01  0.89099993268E+00  0.88000000000E+00 0. -1.
        -11    1    4    4    0    0 -0.29872037960E-02 -0.58121627949E-01 -0.42793487671E-01  0.72239814023E-01  0.51100000000E-03 0.  1.
         11    1    4    4    0    0 -0.10666259114E-01 -0.38211829089E-01 -0.40593006295E-01  0.56762366466E-01  0.51100000000E-03 0. -1.
</event>
<event>
 8    1  0.1204770E+005  0.1043930E+01  0.7957747E-01            NaN
         13   -1    0    0    0    0  0.00000000000E+00  0.00000000000E+00  0.74505805969E-08  0.10566000000E+00  0.10566000000E+00 0.  1.
     999900   -1    0    0    0    0 -0.00000000000E+00 -0.00000000000E+00 -0.74505805969E-08  0.93827000000E+00  0.93827000000E+00 0. -1.
     999902    2    1    2    0    0 -0.95961901171E-02 -0.13233693478E-01  0.15709955416E-01  0.10212579863E+01  0.10210062949E+01 0.  0.
     999903    2    3    3    0    0 -0.11600903119E+00  0.13213125687E-01  0.61119767109E-01  0.13329110738E+00  0.19955234099E-01 0.  0.
         14    1    1    2    0    0  0.95961901171E-02  0.13233693478E-01 -0.15709955416E-01  0.22672013739E-01  0.00000000000E+00 0. -1.
     999901    1    3    3    0    0  0.10641284107E+00 -0.26446819165E-01 -0.45409811693E-01  0.88796687888E+00  0.88000000000E+00 0.  1.
        -11    1    4    4    0    0 -0.73299620682E-01  0.28717941065E-02  0.47040141643E-01  0.87144234693E-01  0.51100000000E-03 0.  1.
         11    1    4    4    0    0 -0.42709410506E-01  0.10341331580E-01  0.14079625466E-01  0.46146872688E-01  0.51100000000E-03 0. -1.
</event>
<event>
 8    1  0.1204770E+005  0.1043930E+01  0.7957747E-01            NaN
         13   -1    0    0    0    0  0.00000000000E+00  0.00000000000E+00  0.74505805969E-08  0.10566000000E+00  0.10566000000E+00 0.  1.
     999900   -1    0    0    0    0 -0.00000000000E+00 -0.00000000000E+00 -0.74505805969E-08  0.93827000000E+00  0.93827000000E+00 0. -1.
     999902    2    1    2    0    0 -0.23106081638E-01  0.14665582204E-02  0.19897775148E-02  0.10206920781E+01  0.10204275169E+01 0.  0.
     999903    2    3    3    0    0  0.33930181024E-01  0.10912769875E+00  0.59444590270E-01  0.13044205029E+00  0.20526990828E-01 0.  0.
         14    1    1    2    0    0  0.23106081638E-01 -0.14665582204E-02 -0.19897775148E-02  0.23237921943E-01  0.00000000000E+00 0.  1.
     999901    1    3    3    0    0 -0.57036262662E-01 -0.10766114053E+00 -0.57454812755E-01  0.89025002777E+00  0.88000000000E+00 0. -1.
        -11    1    4    4    0    0  0.29227007592E-01  0.69845600291E-01  0.46298592897E-01  0.88749347479E-01  0.51100000000E-03 0.  1.
         11    1    4    4    0    0  0.47031734319E-02  0.39282098455E-01  0.13145997374E-01  0.41692702807E-01  0.51100000000E-03 0. -1.
</event>
<event>
 8    1  0.1204770E+005  0.1043930E+01  0.7957747E-01            NaN
         13   -1    0    0    0    0  0.00000000000E+00  0.00000000000E+00  0.74505805969E-08  0.10566000000E+00  0.10566000000E+00 0.  1.
     999900   -1    0    0    0    0 -0.00000000000E+00 -0.00000000000E+00 -0.74505805969E-08  0.93827000000E+00  0.93827000000E+00 0.  1.
     999902    2    1    2    0    0  0.10306619770E-01 -0.32077682051E-02 -0.22550177576E-01  0.10189294661E+01  0.10186227124E+01 0.  0.
     999903    2    3    3    0    0 -0.10267976538E+00 -0.27702082649E-01 -0.72355145714E-01  0.12997140771E+00  0.18621495927E-01 0.  0.
         14    1    1    2    0    0 -0.10306619770E-01  0.32077682051E-02  0.22550177576E-01  0.25000533927E-01  0.00000000000E+00 0.  1.
     999901    1    3    3    0    0  0.11298638515E+00  0.24494314444E-01  0.49804968138E-01  0.88895805836E+00  0.88000000000E+00 0. -1.
        -11    1    4    4    0    0 -0.54412009027E-01 -0.22734850178E-01 -0.33629751569E-01  0.67887859375E-01  0.51100000000E-03 0.  1.
         11    1    4    4    0    0 -0.48267756353E-01 -0.49672324715E-02 -0.38725394145E-01  0.62083548339E-01  0.51100000000E-03 0. -1.
</event>
<event>
 8    1  0.1204770E+005  0.1043930E+01  0.7957747E-01            NaN
         13   -1    0    0    0    0  0.00000000000E+00  0.00000000000E+00  0.74505805969E-08  0.10566000000E+00  0.10566000000E+00 0.  1.
     999900   -1    0    0    0    0 -0.00000000000E+00 -0.00000000000E+00 -0.74505805969E-08  0.93827000000E+00  0.93827000000E+00 0.  1.
     999902    2    1    2    0    0  0.14960693748E-01 -0.11243652576E-01  0.13757308732E-01  0.10207027396E+01  0.10204384239E+01 0.  0.
     999903    2    3    3    0    0  0.70620544164E-01  0.61636095958E-01  0.91449508964E-01  0.13253296156E+00  0.20388811349E-01 0.  0.
         14    1    1    2    0    0 -0.14960693748E-01  0.11243652576E-01 -0.13757308732E-01  0.23227260368E-01  0.00000000000E+00 0.  1.
     999901    1    3    3    0    0 -0.55659850416E-01 -0.72879748534E-01 -0.77692200233E-01  0.88816977807E+00  0.88000000000E+00 0. -1.
        -11    1    4    4    0    0  0.36768233958E-01  0.42321356060E-01  0.62625943207E-01  0.84055161000E-01  0.51100000000E-03 0. -1.
         11    1    4    4    0    0  0.33852310206E-01  0.19314739899E-01  0.28823565758E-01  0.48477800565E-01  0.51100000000E-03 0.  1.
</event>
<event>
 8    1  0.1204770E+005  0.1043930E+01  0.7957747E-01            NaN
         13   -1    0    0    0    0  0.00000000000E+00  0.00000000000E+00  0.74505805969E-08  0.10566000000E+00  0.10566000000E+00 0. -1.
     999900   -1    0    0    0    0 -0.00000000000E+00 -0.00000000000E+00 -0.74505805969E-08  0.93827000000E+00  0.93827000000E+00 0. -1.
     999902    2    1    2    0    0 -0.23773064716E-02  0.22935564241E-01 -0.87567760259E-03  0.10208549376E+01  0.10205941138E+01 0.  0.
     999903    2    3    3    0    0 -0.98259072072E-01 -0.14131771762E-01 -0.83256876168E-01  0.13104936208E+00  0.19689480788E-01 0.  0.
         14    1    1    2    0    0  0.23773064716E-02 -0.22935564241E-01  0.87567760259E-03  0.23075062391E-01  0.00000000000E+00 0.  1.
     999901    1    3    3    0    0  0.95881765600E-01  0.37067336002E-01  0.82381198565E-01  0.88980557553E+00  0.88000000000E+00 0.  1.
        -11    1    4    4    0    0 -0.12523599177E-01 -0.82437705669E-02 -0.91591618131E-02  0.17577020670E-01  0.51100000000E-03 0.  1.
         11    1    4    4    0    0 -0.85735472894E-01 -0.58880011948E-02 -0.74097714355E-01  0.11347234141E+00  0.51100000000E-03 0. -1.
</event>
<event>
 8    1  0.1204770E+005  0.1043930E+01  0.7957747E-01            NaN
         13   -1    0    0    0    0  0.00000000000E+00  0.00000000000E+00  0.74505805969E-08  0.10566000000E+00  0.10566000000E+00 0.  1.
     999900   -1    0    0    0    0 -0.00000000000E+00 -0.00000000000E+00 -0.74505805969E-08  0.93827000000E+00  0.93827000000E+00 0.  1.
     999902    2    1    2    0    0 -0.20009217892E-01 -0.97812241463E-02  0.76570706506E-02  0.10203785271E+01  0.10201066937E+01 0.  0.
     999903    2    3    3    0    0 -0.10885765135E+00  0.35062700475E-01 -0.62687086703E-01  0.13197922372E+00  0.20235202823E-01 0.  0.
         14    1    1    2    0    0  0.20009217892E-01  0.97812241463E-02 -0.76570706506E-02  0.23551472935E-01  0.00000000000E+00 0.  1.
     999901    1    3    3    0    0  0.88848433459E-01 -0.44843924621E-01  0.70344157353E-01  0.88839930334E+00  0.88000000000E+00 0. -1.
        -11    1    4    4    0    0 -0.61958377942E-01  0.12665312912E-01 -0.26089964027E-01  0.68411973311E-01  0.51100000000E-03 0.  1.
         11    1    4    4    0    0 -0.46899273408E-01  0.22397387563E-01 -0.36597122676E-01  0.63567250412E-01  0.51100000000E-03 0. -1.
</event>
<event>
 8    1  0.1204770E+005  0.1043930E+01  0.7957747E-01            NaN
         13   -1    0    0    0    0  0.00000000000E+00  0.00000000000E+00  0.74505805969E-08  0.10566000000E+00  0.10566000000E+00 0. -1.
     999900   -1    0    0    0    0 -0.00000000000E+00 -0.00000000000E+00 -0.74505805969E-08  0.93827000000E+00  0.93827000000E+00 0. -1.
     999902    2    1    2    0    0  0.96788002721E-02 -0.15501184563E-01  0.16492569379E-01  0.10193135270E+01  0.10190162391E+01 0.  0.
     999903    2    3    3    0    0  0.70362131000E-01 -0.15190186792E-01 -0.10510115996E+00  0.12888239640E+00  0.19566477040E-01 0.  0.
         14    1    1    2    0    0 -0.96788002721E-02  0.15501184563E-01 -0.16492569379E-01  0.24616472986E-01  0.00000000000E+00 0.  1.
     999901    1    3    3    0    0 -0.60683330728E-01 -0.31099777083E-03  0.12159372934E+00  0.89043113061E+00  0.88000000000E+00 0.  1.
        -11    1    4    4    0    0  0.15642303495E-01 -0.37508175862E-02 -0.11228484913E-01  0.19623717427E-01  0.51100000000E-03 0. -1.
         11    1    4    4    0    0  0.54719827505E-01 -0.11439369206E-01 -0.93872675047E-01  0.10925867898E+00  0.51100000000E-03 0.  1.
</event>
<event>
 8    1  0.1204770E+005  0.1043930E+01  0.7957747E-01            NaN
         13   -1    0    0    0    0  0.00000000000E+00  0.00000000000E+00  0.74505805969E-08  0.10566000000E+00  0.10566000000E+00 0.  1.
     999900   -1    0    0    0    0 -0.00000000000E+00 -0.00000000000E+00 -0.74505805969E-08  0.93827000000E+00  0.93827000000E+00 0.  1.
     999902    2    1    2    0    0 -0.20512017821E-01 -0.69352457585E-02 -0.10401734830E-01  0.10199084140E+01  0.10196254882E+01 0.  0.
     999903    2    3    3    0    0 -0.52978732680E-01 -0.11629615987E+00 -0.28307530349E-01  0.13236432230E+00  0.19683867174E-01 0.  0.
         14    1    1    2    0    0  0.20512017821E-01  0.69352457585E-02  0.10401734830E-01  0.24021586049E-01  0.00000000000E+00 0.  1.
     999901    1    3    3    0    0  0.32466714858E-01  0.10936091411E+00  0.17905795519E-01  0.88754409165E+00  0.88000000000E+00 0.  1.
        -11    1    4    4    0    0 -0.34235282028E-02 -0.26119669881E-01 -0.73617318875E-02  0.27357154776E-01  0.51100000000E-03 0. -1.
         11    1    4    4    0    0 -0.49555204477E-01 -0.90176489989E-01 -0.20945798462E-01  0.10500716752E+00  0.51100000000E-03 0.  1.
</event>
<event>
 8    1  0.1204770E+005  0.1043930E+01  0.7957747E-01            NaN
         13   -1    0    0    0    0  0.00000000000E+00  0.00000000000E+00  0.74505805969E-08  0.10566000000E+00  0.10566000000E+00 0.  1.
     999900   -1    0    0    0    0 -0.00000000000E+00 -0.00000000000E+00 -0.74505805969E-08  0.93827000000E+00  0.93827000000E+00 0. -1.
     999902    2    1    2    0    0  0.87993196103E-02  0.98188872174E-02  0.19978586285E-01  0.10199929475E+01  0.10197120331E+01 0.  0.
     999903    2    3    3    0    0  0.23638084145E-01  0.55133822793E-01  0.11740949015E+00  0.13333268938E+00  0.19852461923E-01 0.  0.
         14    1    1    2    0    0 -0.87993196103E-02 -0.98188872174E-02 -0.19978586285E-01  0.23937052486E-01  0.00000000000E+00 0. -1.
     999901    1    3    3    0    0 -0.14838764535E-01 -0.45314935576E-01 -0.97430903861E-01  0.88666025813E+00  0.88000000000E+00 0. -1.
        -11    1    4    4    0    0  0.12790155936E-01  0.37895998953E-01  0.57425414234E-01  0.69983099005E-01  0.51100000000E-03 0. -1.
         11    1    4    4    0    0  0.10847928210E-01  0.17237823840E-01  0.59984075912E-01  0.63349590379E-01  0.51100000000E-03 0.  1.
</event>
<event>
 8    1  0.1204770E+005  0.1043930E+01  0.7957747E-01            NaN
         13   -1    0    0    0    0  0.00000000000E+00  0.00000000000E+00  0.74505805969E-08  0.10566000000E+00  0.10566000000E+00 0.  1.
     999900   -1    0    0    0    0 -0.00000000000E+00 -0.00000000000E+00 -0.74505805969E-08  0.93827000000E+00  0.93827000000E+00 0.  1.
     999902    2    1    2    0    0  0.19143620955E-01  0.54747422886E-02 -0.11988833043E-01  0.10206881596E+01  0.10204235082E+01 0.  0.
     999903    2    3    3    0    0  0.79948486477E-01 -0.98114124763E-01 -0.32218074360E-01  0.13229798225E+00  0.21133145150E-01 0.  0.
         14    1    1    2    0    0 -0.19143620955E-01 -0.54747422886E-02  0.11988833043E-01  0.23241840378E-01  0.00000000000E+00 0.  1.
     999901    1    3    3    0    0 -0.60804865522E-01  0.10358886705E+00  0.20229241317E-01  0.88839017737E+00  0.88000000000E+00 0. -1.
        -11    1    4    4    0    0  0.44524220495E-01 -0.38664489841E-01 -0.11764968121E-01  0.60133389903E-01  0.51100000000E-03 0.  1.
         11    1    4    4    0    0  0.35424265981E-01 -0.59449634922E-01 -0.20453106240E-01  0.72164592346E-01  0.51100000000E-03 0. -1.
</event>
<event>
 8    1  0.1204770E+005  0.1043930E+01  0.7957747E-01            NaN
         13   -1    0    0    0    0  0.00000000000E+00  0.00000000000E+00  0.74505805969E-08  0.10566000000E+00  0.10566000000E+00 0.  1.
     999900   -1    0    0    0    0 -0.00000000000E+00 -0.00000000000E+00 -0.74505805969E-08  0.93827000000E+00  0.93827000000E+00 0.  1.
     999902    2    1    2    0    0  0.14668262137E-01 -0.24935439241E-01  0.16189295435E-01  0.10107784189E+01  0.10102346187E+01 0.  0.
     999903    2    3    3    0    0  0.12493678148E-01 -0.99923335877E-01 -0.68474863028E-01  0.12353779019E+00  0.20784939084E-01 0.  0.
         14    1    1    2    0    0 -0.14668262137E-01  0.24935439241E-01 -0.16189295435E-01  0.33151581123E-01  0.00000000000E+00 0. -1.
     999901    1    3    3    0    0  0.21745839895E-02  0.74987896636E-01  0.84664158463E-01  0.88724062868E+00  0.88000000000E+00 0. -1.
        -11    1    4    4    0    0  0.11034413850E-01 -0.20433258878E-01 -0.17689304265E-01  0.29196728649E-01  0.51100000000E-03 0.  1.
         11    1    4    4    0    0  0.14592642977E-02 -0.79490076999E-01 -0.50785558763E-01  0.94341061545E-01  0.51100000000E-03 0. -1.
</event>
<event>
 8    1  0.1204770E+005  0.1043930E+01  0.7957747E-01            NaN
         13   -1    0    0    0    0  0.00000000000E+00  0.00000000000E+00  0.74505805969E-08  0.10566000000E+00  0.10566000000E+00 0. -1.
     999900   -1    0    0    0    0 -0.00000000000E+00 -0.00000000000E+00 -0.74505805969E-08  0.93827000000E+00  0.93827000000E+00 0.  1.
     999902    2    1    2    0    0  0.11254008511E-01 -0.17973813525E-01 -0.28360244695E-03  0.10227217207E+01  0.10225017980E+01 0.  0.
     999903    2    3    3    0    0 -0.46407809831E-01 -0.99054986815E-01  0.74542714693E-01  0.13395964923E+00  0.20566868561E-01 0.  0.
         14    1    1    2    0    0 -0.11254008511E-01  0.17973813525E-01  0.28360244695E-03  0.21208279293E-01  0.00000000000E+00 0. -1.
     999901    1    3    3    0    0  0.57661818342E-01  0.81081173290E-01 -0.74826317140E-01  0.88876207148E+00  0.88000000000E+00 0.  1.
        -11    1    4    4    0    0 -0.22607967510E-01 -0.68159092568E-01  0.42221671441E-01  0.83304938359E-01  0.51100000000E-03 0.  1.
         11    1    4    4    0    0 -0.23799842321E-01 -0.30895894247E-01  0.32321043251E-01  0.50654710873E-01  0.51100000000E-03 0. -1.
</event>
<event>
 8    1  0.1204770E+005  0.1043930E+01  0.7957747E-01            NaN
         13   -1    0    0    0    0  0.00000000000E+00  0.00000000000E+00  0.74505805969E-08  0.10566000000E+00  0.10566000000E+00 0. -1.
     999900   -1    0    0    0    0 -0.00000000000E+00 -0.00000000000E+00 -0.74505805969E-08  0.93827000000E+00  0.93827000000E+00 0. -1.
     999902    2    1    2    0    0  0.21897261910E-01 -0.77301900603E-02 -0.98218055753E-02  0.10187166348E+01  0.10184045701E+01 0.  0.
     999903    2    3    3    0    0  0.29702100550E-01 -0.32277355652E-01 -0.12212979576E+00  0.13120519069E+00  0.19366790859E-01 0.  0.
         14    1    1    2    0    0 -0.21897261910E-01  0.77301900603E-02  0.98218055753E-02  0.25213365152E-01  0.00000000000E+00 0. -1.
     999901    1    3    3    0    0 -0.78048386404E-02  0.24547165592E-01  0.11230799018E+00  0.88751144415E+00  0.88000000000E+00 0.  1.
        -11    1    4    4    0    0  0.22939503986E-01 -0.29830116857E-01 -0.79351480679E-01  0.87823546511E-01  0.51100000000E-03 0. -1.
         11    1    4    4    0    0  0.67625965647E-02 -0.24472387946E-02 -0.42778315079E-01  0.43381644183E-01  0.51100000000E-03 0.  1.
</event>
<event>
 8    1  0.1204770E+005  0.1043930E+01  0.7957747E-01            NaN
         13   -1    0    0    0    0  0.00000000000E+00  0.00000000000E+00  0.74505805969E-08  0.10566000000E+00  0.10566000000E+00 0. -1.
     999900   -1    0    0    0    0 -0.00000000000E+00 -0.00000000000E+00 -0.74505805969E-08  0.93827000000E+00  0.93827000000E+00 0.  1.
     999902    2    1    2    0    0  0.36319265459E-01  0.11769785493E-01 -0.90185639950E-03  0.10057406004E+01  0.10050152860E+01 0.  0.
     999903    2    3    3    0    0 -0.38096782259E-01  0.55371155984E-01  0.93249842706E-01  0.11652557014E+00  0.19114015739E-01 0.  0.
         14    1    1    2    0    0 -0.36319265459E-01 -0.11769785493E-01  0.90185639950E-03  0.38189399563E-01  0.00000000000E+00 0. -1.
     999901    1    3    3    0    0  0.74416047718E-01 -0.43601370492E-01 -0.94151699105E-01  0.88921503030E+00  0.88000000000E+00 0. -1.
        -11    1    4    4    0    0 -0.35627895290E-01  0.47891221210E-01  0.70125031172E-01  0.92090700452E-01  0.51100000000E-03 0. -1.
         11    1    4    4    0    0 -0.24688869691E-02  0.74799347744E-02  0.23124811534E-01  0.24434869686E-01  0.51100000000E-03 0.  1.
</event>
<event>
 8    1  0.1204770E+005  0.1043930E+01  0.7957747E-01            NaN
         13   -1    0    0    0    0  0.00000000000E+00  0.00000000000E+00  0.74505805969E-08  0.10566000000E+00  0.10566000000E+00 0. -1.
     999900   -1    0    0    0    0 -0.00000000000E+00 -0.00000000000E+00 -0.74505805969E-08  0.93827000000E+00  0.93827000000E+00 0. -1.
     999902    2    1    2    0    0 -0.24463513252E-01  0.39758456712E-02 -0.85930744731E-03  0.10191306202E+01  0.10188288432E+01 0.  0.
     999903    2    3    3    0    0  0.44899178400E-01 -0.11785929758E+00  0.58251527642E-02  0.12800791981E+00  0.21103196026E-01 0.  0.
         14    1    1    2    0    0  0.24463513252E-01 -0.39758456712E-02  0.85930744731E-03  0.24799379805E-01  0.00000000000E+00 0.  1.
     999901    1    3    3    0    0 -0.69362691652E-01  0.12183514325E+00 -0.66844602115E-02  0.89112270038E+00  0.88000000000E+00 0. -1.
        -11    1    4    4    0    0  0.17859430473E-01 -0.69386416545E-01  0.99992378456E-02  0.72344176934E-01  0.51100000000E-03 0. -1.
         11    1    4    4    0    0  0.27039747927E-01 -0.48472881038E-01 -0.41740850814E-02  0.55663742880E-01  0.51100000000E-03 0.  1.
</event>
<event>
 8    1  0.1204770E+005  0.1043930E+01  0.7957747E-01            NaN
         13   -1    0    0    0    0  0.00000000000E+00  0.00000000000E+00  0.74505805969E-08  0.10566000000E+00  0.10566000000E+00 0.  1.
     999900   -1    0    0    0    0 -0.00000000000E+00 -0.00000000000E+00 -0.74505805969E-08  0.93827000000E+00  0.93827000000E+00 0.  1.
     999902    2    1    2    0    0  0.11482439225E-01 -0.12546449626E-01  0.17392882170E-01  0.10196036324E+01  0.10193133940E+01 0.  0.
     999903    2    3    3    0    0  0.10507900156E+00  0.24097836552E-01 -0.68976014877E-01  0.12968076692E+00  0.20907137178E-01 0.  0.
         14    1    1    2    0    0 -0.11482439225E-01  0.12546449626E-01 -0.17392882170E-01  0.24326367566E-01  0.00000000000E+00 0.  1.
     999901    1    3    3    0    0 -0.93596562334E-01 -0.36644286179E-01  0.86368897047E-01  0.88992286552E+00  0.88000000000E+00 0.  1.
        -11    1    4    4    0    0  0.73212456397E-01  0.14222818662E-01 -0.36177512650E-01  0.82894064232E-01  0.51100000000E-03 0.  1.
         11    1    4    4    0    0  0.31866545163E-01  0.98750178907E-02 -0.32798502227E-01  0.46786702687E-01  0.51100000000E-03 0. -1.
</event>
<event>
 8    1  0.1204770E+005  0.1043930E+01  0.7957747E-01            NaN
         13   -1    0    0    0    0  0.00000000000E+00  0.00000000000E+00  0.74505805969E-08  0.10566000000E+00  0.10566000000E+00 0. -1.
     999900   -1    0    0    0    0 -0.00000000000E+00 -0.00000000000E+00 -0.74505805969E-08  0.93827000000E+00  0.93827000000E+00 0. -1.
     999902    2    1    2    0    0 -0.32456083674E-02  0.21741026509E-01  0.55730395368E-02  0.10212525888E+01  0.10210007763E+01 0.  0.
     999903    2    3    3    0    0 -0.73774711283E-01  0.76422334914E-01  0.78730842267E-01  0.13371866614E+00  0.19976357288E-01 0.  0.
         14    1    1    2    0    0  0.32456083674E-02 -0.21741026509E-01 -0.55730395368E-02  0.22677411162E-01  0.00000000000E+00 0. -1.
     999901    1    3    3    0    0  0.70529102915E-01 -0.54681308405E-01 -0.73157802730E-01  0.88753392270E+00  0.88000000000E+00 0. -1.
        -11    1    4    4    0    0 -0.14203587207E-01  0.25717066655E-01  0.27209893088E-01  0.40046832705E-01  0.51100000000E-03 0.  1.
         11    1    4    4    0    0 -0.59571124076E-01  0.50705268259E-01  0.51520949179E-01  0.93671833430E-01  0.51100000000E-03 0. -1.
</event>
<event>
 8    1  0.1204770E+005  0.1043930E+01  0.7957747E-01            NaN
         13   -1    0    0    0    0  0.00000000000E+00  0.00000000000E+00  0.74505805969E-08  0.10566000000E+00  0.10566000000E+00 0.  1.
     999900   -1    0    0    0    0 -0.00000000000E+00 -0.00000000000E+00 -0.74505805969E-08  0.93827000000E+00  0.93827000000E+00 0.  1.
     999902    2    1    2    0    0  0.89378548311E-02  0.21203226305E-01 -0.47273539033E-03  0.10209151019E+01  0.10206556519E+01 0.  0.
     999903    2    3    3    0    0 -0.11170762905E+00  0.26792479816E-01  0.59526643756E-01  0.13064183037E+00  0.18095169640E-01 0.  0.
         14    1    1    2    0    0 -0.89378548311E-02 -0.21203226305E-01  0.47273539033E-03  0.23014898077E-01  0.00000000000E+00 0.  1.
     999901    1    3    3    0    0  0.12064548388E+00 -0.55892535106E-02 -0.59999379147E-01  0.89027327155E+00  0.88000000000E+00 0.  1.
        -11    1    4    4    0    0 -0.39236989221E-01  0.17985961733E-01  0.19258656592E-01  0.47267252060E-01  0.51100000000E-03 0. -1.
         11    1    4    4    0    0 -0.72470639829E-01  0.88065180822E-02  0.40267987165E-01  0.83374578315E-01  0.51100000000E-03 0.  1.
</event>
<event>
 8    1  0.1204770E+005  0.1043930E+01  0.7957747E-01            NaN
         13   -1    0    0    0    0  0.00000000000E+00  0.00000000000E+00  0.74505805969E-08  0.10566000000E+00  0.10566000000E+00 0.  1.
     999900   -1    0    0    0    0 -0.00000000000E+00 -0.00000000000E+00 -0.74505805969E-08  0.93827000000E+00  0.93827000000E+00 0.  1.
     999902    2    1    2    0    0  0.91971471552E-02  0.18190743716E-01  0.11585453207E-01  0.10204840324E+01  0.10202146573E+01 0.  0.
     999903    2    3    3    0    0 -0.84533571074E-02 -0.10899376415E+00  0.66647694091E-01  0.12946254568E+00  0.19171221556E-01 0.  0.
         14    1    1    2    0    0 -0.91971471552E-02 -0.18190743716E-01 -0.11585453207E-01  0.23445967644E-01  0.00000000000E+00 0. -1.
     999901    1    3    3    0    0  0.17650504263E-01  0.12718450787E+00 -0.55062240883E-01  0.89102148667E+00  0.88000000000E+00 0.  1.
        -11    1    4    4    0    0 -0.13037072275E-01 -0.97047118041E-01  0.61677231421E-01  0.11572575500E+00  0.51100000000E-03 0.  1.
         11    1    4    4    0    0  0.45837151674E-02 -0.11946646114E-01  0.49704626701E-02  0.13736790683E-01  0.51100000000E-03 0. -1.
</event>
<event>
 8    1  0.1204770E+005  0.1043930E+01  0.7957747E-01            NaN
         13   -1    0    0    0    0  0.00000000000E+00  0.00000000000E+00  0.74505805969E-08  0.10566000000E+00  0.10566000000E+00 0. -1.
     999900   -1    0    0    0    0 -0.00000000000E+00 -0.00000000000E+00 -0.74505805969E-08  0.93827000000E+00  0.93827000000E+00 0. -1.
     999902    2    1    2    0    0  0.12821102121E-01 -0.55713349270E-02 -0.21936735483E-01  0.10179176799E+01  0.10175852605E+01 0.  0.
     999903    2    3    3    0    0  0.10290404434E+00 -0.35724092498E-01 -0.70827450493E-01  0.13145593383E+00  0.19967014518E-01 0.  0.
         14    1    1    2    0    0 -0.12821102121E-01  0.55713349270E-02  0.21936735483E-01  0.26012320083E-01  0.00000000000E+00 0. -1.
     999901    1    3    3    0    0 -0.90082942217E-01  0.30152757571E-01  0.48890715010E-01  0.88646174609E+00  0.88000000000E+00 0. -1.
        -11    1    4    4    0    0  0.57334436908E-01 -0.27978244904E-01 -0.48378256255E-01  0.80067075897E-01  0.51100000000E-03 0.  1.
         11    1    4    4    0    0  0.45569607430E-01 -0.77458475939E-02 -0.22449194238E-01  0.51388857929E-01  0.51100000000E-03 0. -1.
</event>
<event>
 8    1  0.1204770E+005  0.1043930E+01  0.7957747E-01            NaN
         13   -1    0    0    0    0  0.00000000000E+00  0.00000000000E+00  0.74505805969E-08  0.10566000000E+00  0.10566000000E+00 0.  1.
     999900   -1    0    0    0    0 -0.00000000000E+00 -0.00000000000E+00 -0.74505805969E-08  0.93827000000E+00  0.93827000000E+00 0. -1.
     999902    2    1    2    0    0 -0.97056409494E-02  0.30033123795E-02  0.26748177157E-01  0.10153173396E+01  0.10149140928E+01 0.  0.
     999903    2    3    3    0    0  0.77686856484E-01  0.38123858642E-01  0.91742395723E-01  0.12790810495E+00  0.21334007352E-01 0.  0.
         14    1    1    2    0    0  0.97056409494E-02 -0.30033123795E-02 -0.26748177157E-01  0.28612660357E-01  0.00000000000E+00 0. -1.
     999901    1    3    3    0    0 -0.87392497434E-01 -0.35120546263E-01 -0.64994218566E-01  0.88740923470E+00  0.88000000000E+00 0. -1.
        -11    1    4    4    0    0  0.35553489365E-01  0.26879133472E-01  0.37080913522E-01  0.57980976974E-01  0.51100000000E-03 0.  1.
         11    1    4    4    0    0  0.42133367119E-01  0.11244725170E-01  0.54661482202E-01  0.69927127972E-01  0.51100000000E-03 0. -1.
</event>
<event>
 8    1  0.1204770E+005  0.1043930E+01  0.7957747E-01            NaN
         13   -1    0    0    0    0  0.00000000000E+00  0.00000000000E+00  0.74505805969E-08  0.10566000000E+00  0.10566000000E+00 0. -1.
     999900   -1    0    0    0    0 -0.00000000000E+00 -0.00000000000E+00 -0.74505805969E-08  0.93827000000E+00  0.93827000000E+00 0.  1.
     999902    2    1    2    0    0  0.18391606299E-01 -0.66687492021E-02  0.13624500715E-01  0.10200898990E+01  0.10198112823E+01 0.  0.
     999903    2    3    3    0    0 -0.12416794185E+00 -0.21372500333E-01  0.16636150287E-01  0.12849105693E+00  0.18940133606E-01 0.  0.
         14    1    1    2    0    0 -0.18391606299E-01  0.66687492021E-02 -0.13624500715E-01  0.23840101047E-01  0.00000000000E+00 0.  1.
     999901    1    3    3    0    0  0.14255954815E+00  0.14703751130E-01 -0.30116495716E-02  0.89159884202E+00  0.88000000000E+00 0. -1.
        -11    1    4    4    0    0 -0.23016309090E-01 -0.68103929827E-03  0.97605014547E-02  0.25014851754E-01  0.51100000000E-03 0.  1.
         11    1    4    4    0    0 -0.10115163276E+00 -0.20691461034E-01  0.68756488321E-02  0.10347620517E+00  0.51100000000E-03 0. -1.
</event>
<event>
 8    1  0.1204770E+005  0.1043930E+01  0.7957747E-01            NaN
         13   -1    0    0    0    0  0.00000000000E+00  0.00000000000E+00  0.74505805969E-08  0.10566000000E+00  0.10566000000E+00 0.  1.
     999900   -1    0    0    0    0 -0.00000000000E+00 -0.00000000000E+00 -0.74505805969E-08  0.93827000000E+00  0.93827000000E+00 0. -1.
     999902    2    1    2    0    0 -0.58584624706E-02 -0.12129124157E-01 -0.19381682347E-01  0.10203273127E+01  0.10200542820E+01 0.  0.
     999903    2    3    3    0    0 -0.12846811236E+00 -0.13620398896E-01 -0.16085234788E-01  0.13181945306E+00  0.20689665685E-01 0.  0.
         14    1    1    2    0    0  0.58584624706E-02  0.12129124157E-01  0.19381682347E-01  0.23602687261E-01  0.00000000000E+00 0.  1.
     999901    1    3    3    0    0  0.12260964989E+00  0.14912747383E-02 -0.32964475591E-02  0.88850785968E+00  0.88000000000E+00 0. -1.
        -11    1    4    4    0    0 -0.91356908727E-01 -0.76460907604E-02 -0.20579820130E-01  0.93959233679E-01  0.51100000000E-03 0. -1.
         11    1    4    4    0    0 -0.37111203637E-01 -0.59743081351E-02  0.44945853416E-02  0.37860219379E-01  0.51100000000E-03 0.  1.
</event>
<event>
 8    1  0.1204770E+005  0.1043930E+01  0.7957747E-01            NaN
         13   -1    0    0    0    0  0.00000000000E+00  0.00000000000E+00  0.74505805969E-08  0.10566000000E+00  0.10566000000E+00 0.  1.
     999900   -1    0    0    0    0 -0.00000000000E+00 -0.00000000000E+00 -0.74505805969E-08  0.93827000000E+00  0.93827000000E+00 0. -1.
     999902    2    1    2    0    0  0.13406843212E-01 -0.11340157105E-01  0.10791771522E-01  0.10233192033E+01  0.10231116200E+01 0.  0.
     999903    2    3    3    0    0 -0.49045064519E-01 -0.60965345867E-01 -0.10490602940E+00  0.13216888979E+00  0.18470210430E-01 0.  0.
         14    1    1    2    0    0 -0.13406843212E-01  0.11340157105E-01 -0.10791771522E-01  0.20610796701E-01  0.00000000000E+00 0. -1.
     999901    1    3    3    0    0  0.62451907730E-01  0.49625188762E-01  0.11569780092E+00  0.89115031351E+00  0.88000000000E+00 0.  1.
        -11    1    4    4    0    0 -0.41642985462E-01 -0.43951843473E-01 -0.89445578425E-01  0.10801238542E+00  0.51100000000E-03 0. -1.
         11    1    4    4    0    0 -0.74020790566E-02 -0.17013502393E-01 -0.15460450970E-01  0.24156504367E-01  0.51100000000E-03 0.  1.
</event>
<event>
 8    1  0.1204770E+005  0.1043930E+01  0.7957747E-01            NaN
         13   -1    0    0    0    0  0.00000000000E+00  0.00000000000E+00  0.74505805969E-08  0.10566000000E+00  0.10566000000E+00 0. -1.
     999900   -1    0    0    0    0 -0.00000000000E+00 -0.00000000000E+00 -0.74505805969E-08  0.93827000000E+00  0.93827000000E+00 0.  1.
     999902    2    1    2    0    0 -0.22547982836E-01  0.76211596254E-02 -0.76461662473E-04  0.10201287511E+01  0.10198510525E+01 0.  0.
     999903    2    3    3    0    0 -0.65679289266E-01  0.39602246696E-01  0.10577488059E+00  0.13216050492E+00  0.19898912415E-01 0.  0.
         14    1    1    2    0    0  0.22547982836E-01 -0.76211596254E-02  0.76461662473E-04  0.23801248925E-01  0.00000000000E+00 0. -1.
     999901    1    3    3    0    0  0.43131306430E-01 -0.31981087071E-01 -0.10585134225E+00  0.88796824616E+00  0.88000000000E+00 0.  1.
        -11    1    4    4    0    0 -0.32670999205E-01  0.17829291916E-01  0.35035601718E-01  0.51117828084E-01  0.51100000000E-03 0. -1.
         11    1    4    4    0    0 -0.33008290061E-01  0.21772954780E-01  0.70739278870E-01  0.81042676835E-01  0.51100000000E-03 0.  1.
</event>
<event>
 8    1  0.1204770E+005  0.1043930E+01  0.7957747E-01            NaN
         13   -1    0    0    0    0  0.00000000000E+00  0.00000000000E+00  0.74505805969E-08  0.10566000000E+00  0.10566000000E+00 0.  1.
     999900   -1    0    0    0    0 -0.00000000000E+00 -0.00000000000E+00 -0.74505805969E-08  0.93827000000E+00  0.93827000000E+00 0.  1.
     999902    2    1    2    0    0  0.29157071559E-02  0.79409106672E-02  0.21598608572E-01  0.10207338947E+01  0.10204702957E+01 0.  0.
     999903    2    3    3    0    0 -0.76694741828E-01 -0.10272038725E+00  0.38290944773E-02  0.13006027202E+00  0.21620615468E-01 0.  0.
         14    1    1    2    0    0 -0.29157071559E-02 -0.79409106672E-02 -0.21598608572E-01  0.23196105334E-01  0.00000000000E+00 0. -1.
     999901    1    3    3    0    0  0.79610448984E-01  0.11066129792E+00  0.17769514094E-01  0.89067362264E+00  0.88000000000E+00 0. -1.
        -11    1    4    4    0    0 -0.29900518081E-01 -0.23761576183E-01  0.22478187314E-02  0.38261825549E-01  0.51100000000E-03 0.  1.
         11    1    4    4    0    0 -0.46794223746E-01 -0.78958811065E-01  0.15812757460E-02  0.91798446473E-01  0.51100000000E-03 0. -1.
</event>
<event>
 8    1  0.1204770E+005  0.1043930E+01  0.7957747E-01            NaN
         13   -1    0    0    0    0  0.00000000000E+00  0.00000000000E+00  0.74505805969E-08  0.10566000000E+00  0.10566000000E+00 0.  1.
     999900   -1    0    0    0    0 -0.00000000000E+00 -0.00000000000E+00 -0.74505805969E-08  0.93827000000E+00  0.93827000000E+00 0.  1.
     999902    2    1    2    0    0  0.58928221635E-02  0.22567839248E-01 -0.81617525420E-02  0.10192187288E+01  0.10189191185E+01 0.  0.
     999903    2    3    3    0    0 -0.74042674173E-01  0.13449159449E-01  0.10266402481E+00  0.12862612447E+00  0.18481894348E-01 0.  0.
         14    1    1    2    0    0 -0.58928221635E-02 -0.22567839248E-01  0.81617525420E-02  0.24711271233E-01  0.00000000000E+00 0. -1.
     999901    1    3    3    0    0  0.79935496336E-01  0.91186797988E-02 -0.11082577735E+00  0.89059260429E+00  0.88000000000E+00 0.  1.
        -11    1    4    4    0    0 -0.46141781292E-01  0.77657010319E-02  0.77963141099E-01  0.90927897723E-01  0.51100000000E-03 0.  1.
         11    1    4    4    0    0 -0.27900892880E-01  0.56834584174E-02  0.24700883710E-01  0.37698226751E-01  0.51100000000E-03 0. -1.
</event>
<event>
 8    1  0.1204770E+005  0.1043930E+01  0.7957747E-01            NaN
         13   -1    0    0    0    0  0.00000000000E+00  0.00000000000E+00  0.74505805969E-08  0.10566000000E+00  0.10566000000E+00 0.  1.
     999900   -1    0    0    0    0 -0.00000000000E+00 -0.00000000000E+00 -0.74505805969E-08  0.93827000000E+00  0.93827000000E+00 0. -1.
     999902    2    1    2    0    0  0.11103041927E-01 -0.15477774695E-01 -0.14088382697E-01  0.10202377739E+01  0.10199626433E+01 0.  0.
     999903    2    3    3    0    0  0.64453653651E-01 -0.11475010135E+00 -0.21890629711E-02  0.13297069101E+00  0.18829589543E-01 0.  0.
         14    1    1    2    0    0 -0.11103041927E-01  0.15477774695E-01  0.14088382697E-01  0.23692226079E-01  0.00000000000E+00 0.  1.
     999901    1    3    3    0    0 -0.53350611724E-01  0.99272326653E-01 -0.11899319726E-01  0.88726708291E+00  0.88000000000E+00 0. -1.
        -11    1    4    4    0    0  0.28382181346E-01 -0.40568109613E-01  0.68630924561E-02  0.49986827211E-01  0.51100000000E-03 0.  1.
         11    1    4    4    0    0  0.36071472306E-01 -0.74181991734E-01 -0.90521554273E-02  0.82983863798E-01  0.51100000000E-03 0. -1.
</event>
<event>
 8    1  0.1204770E+005  0.1043930E+01  0.7957747E-01            NaN
         13   -1    0    0    0    0  0.00000000000E+00  0.00000000000E+00  0.74505805969E-08  0.10566000000E+00  0.10566000000E+00 0.  1.
     999900   -1    0    0    0    0 -0.00000000000E+00 -0.00000000000E+00 -0.74505805969E-08  0.93827000000E+00  0.93827000000E+00 0.  1.
     999902    2    1    2    0    0 -0.20158345674E-01  0.54989420138E-02  0.10437453476E-01  0.10205732515E+01  0.10203059463E+01 0.  0.
     999903    2    3    3    0    0  0.11628099577E+00 -0.44807876966E-01 -0.17207713374E-02  0.12855627168E+00  0.31539469215E-01 0.  0.
         14    1    1    2    0    0  0.20158345674E-01 -0.54989420138E-02 -0.10437453476E-01  0.23356748460E-01  0.00000000000E+00 0. -1.
     999901    1    3    3    0    0 -0.13643934144E+00  0.50306818980E-01  0.12158224814E-01  0.89201697986E+00  0.88000000000E+00 0. -1.
        -11    1    4    4    0    0  0.28512476075E-01 -0.35845432074E-02 -0.11790975726E-01  0.31066034049E-01  0.51100000000E-03 0.  1.
         11    1    4    4    0    0  0.87768519695E-01 -0.41223333759E-01  0.10070204389E-01  0.97490237630E-01  0.51100000000E-03 0. -1.
</event>
<event>
 8    1  0.1204770E+005  0.1043930E+01  0.7957747E-01            NaN
         13   -1    0    0    0    0  0.00000000000E+00  0.00000000000E+00  0.74505805969E-08  0.10566000000E+00  0.10566000000E+00 0. -1.
     999900   -1    0    0    0    0 -0.00000000000E+00 -0.00000000000E+00 -0.74505805969E-08  0.93827000000E+00  0.93827000000E+00 0. -1.
     999902    2    1    2    0    0  0.12395370224E-01  0.15261815304E-01  0.13584631086E-01  0.10200320835E+01  0.10197520978E+01 0.  0.
     999903    2    3    3    0    0 -0.41773549382E-01  0.12293818161E+00  0.90560109786E-02  0.13180408347E+00  0.20772076416E-01 0.  0.
         14    1    1    2    0    0 -0.12395370224E-01 -0.15261815304E-01 -0.13584631086E-01  0.23897916459E-01  0.00000000000E+00 0.  1.
     999901    1    3    3    0    0  0.54168919606E-01 -0.10767636631E+00  0.45286201072E-02  0.88822800007E+00  0.88000000000E+00 0.  1.
        -11    1    4    4    0    0 -0.22061429559E-01  0.78004322248E-01 -0.35404507790E-02  0.81142941013E-01  0.51100000000E-03 0. -1.
         11    1    4    4    0    0 -0.19712119823E-01  0.44933859362E-01  0.12596461758E-01  0.50661142455E-01  0.51100000000E-03 0.  1.
</event>
<event>
 8    1  0.1204770E+005  0.1043930E+01  0.7957747E-01            NaN
         13   -1    0    0    0    0  0.00000000000E+00  0.00000000000E+00  0.74505805969E-08  0.10566000000E+00  0.10566000000E+00 0. -1.
     999900   -1    0    0    0    0 -0.00000000000E+00 -0.00000000000E+00 -0.74505805969E-08  0.93827000000E+00  0.93827000000E+00 0.  1.
     999902    2    1    2    0    0  0.68536148369E-02  0.59414278036E-02 -0.21744333582E-01  0.10203696807E+01  0.10200976408E+01 0.  0.
     999903    2    3    3    0    0 -0.12733414118E+00 -0.12264585584E-01  0.62755425240E-02  0.12957064266E+00  0.19615438745E-01 0.  0.
         14    1    1    2    0    0 -0.68536148369E-02 -0.59414278036E-02  0.21744333582E-01  0.23560319260E-01  0.00000000000E+00 0. -1.
     999901    1    3    3    0    0  0.13418775601E+00  0.18206013388E-01 -0.28019876106E-01  0.89079903808E+00  0.88000000000E+00 0.  1.
        -11    1    4    4    0    0 -0.65448271092E-01  0.33091187430E-02  0.10905060191E-02  0.65542938446E-01  0.51100000000E-03 0. -1.
         11    1    4    4    0    0 -0.61885870083E-01 -0.15573704327E-01  0.51850365049E-02  0.64027704215E-01  0.51100000000E-03 0.  1.
</event>
<event>
 8    1  0.1204770E+005  0.1043930E+01  0.7957747E-01            NaN
         13   -1    0    0    0    0  0.00000000000E+00  0.00000000000E+00  0.74505805969E-08  0.10566000000E+00  0.10566000000E+00 0.  1.
     999900   -1    0    0    0    0 -0.00000000000E+00 -0.00000000000E+00 -0.74505805969E-08  0.93827000000E+00  0.93827000000E+00 0.  1.
     999902    2    1    2    0    0  0.18884092811E-02  0.15045477306E-01 -0.18650950642E-01  0.10198927282E+01  0.10196094284E+01 0.  0.
     999903    2    3    3    0    0 -0.25209034324E-01  0.11331452947E+00 -0.61646735373E-01  0.13296560853E+00  0.20096145574E-01 0.  0.
         14    1    1    2    0    0 -0.18884092811E-02 -0.15045477306E-01  0.18650950642E-01  0.24037271825E-01  0.00000000000E+00 0.  1.
     999901    1    3    3    0    0  0.27097443605E-01 -0.98269052168E-01  0.42995784731E-01  0.88692711965E+00  0.88000000000E+00 0.  1.
        -11    1    4    4    0    0 -0.11240792937E-01  0.48378954467E-01 -0.37702368758E-01  0.62358707429E-01  0.51100000000E-03 0. -1.
         11    1    4    4    0    0 -0.13968241387E-01  0.64935575007E-01 -0.23944366615E-01  0.70606901097E-01  0.51100000000E-03 0.  1.
</event>
<event>
 8    1  0.1204770E+005  0.1043930E+01  0.7957747E-01            NaN
         13   -1    0    0    0    0  0.00000000000E+00  0.00000000000E+00  0.74505805969E-08  0.10566000000E+00  0.10566000000E+00 0.  1.
     999900   -1    0    0    0    0 -0.00000000000E+00 -0.00000000000E+00 -0.74505805969E-08  0.93827000000E+00  0.93827000000E+00 0.  1.
     999902    2    1    2    0    0  0.21890105452E-01 -0.98129977617E-02 -0.93264906521E-03  0.10199228870E+01  0.10196403061E+01 0.  0.
     999903    2    3    3    0    0 -0.25420629987E-01  0.12265446932E+00  0.19722470788E-01  0.12851244868E+00  0.20884116893E-01 0.  0.
         14    1    1    2    0    0 -0.21890105452E-01  0.98129977617E-02  0.93264906521E-03  0.24007113030E-01  0.00000000000E+00 0.  1.
     999901    1    3    3    0    0  0.47310735439E-01 -0.13246746708E+00 -0.20655119853E-01  0.89141043829E+00  0.88000000000E+00 0. -1.
        -11    1    4    4    0    0  0.10743812208E-02  0.31721449440E-01 -0.10394934455E-03  0.31743921876E-01  0.51100000000E-03 0. -1.
         11    1    4    4    0    0 -0.26495011208E-01  0.90933019877E-01  0.19826420133E-01  0.96768526801E-01  0.51100000000E-03 0.  1.
</event>
<event>
 8    1  0.1204770E+005  0.1043930E+01  0.7957747E-01            NaN
         13   -1    0    0    0    0  0.00000000000E+00  0.00000000000E+00  0.74505805969E-08  0.10566000000E+00  0.10566000000E+00 0.  1.
     999900   -1    0    0    0    0 -0.00000000000E+00 -0.00000000000E+00 -0.74505805969E-08  0.93827000000E+00  0.93827000000E+00 0.  1.
     999902    2    1    2    0    0  0.21452289087E-01 -0.16920605704E-02 -0.91330232135E-02  0.10205531762E+01  0.10202854060E+01 0.  0.
     999903    2    3    3    0    0 -0.86984336631E-01  0.59017996986E-02  0.91752038146E-01  0.12814409733E+00  0.20034148809E-01 0.  0.
         14    1    1    2    0    0 -0.21452289087E-01  0.16920605704E-02  0.91330232135E-02  0.23376823759E-01  0.00000000000E+00 0.  1.
     999901    1    3    3    0    0  0.10843662572E+00 -0.75938602691E-02 -0.10088506136E+00  0.89240907891E+00  0.88000000000E+00 0.  1.
        -11    1    4    4    0    0 -0.51498790275E-01  0.12826306759E-01  0.58975086310E-01  0.79340793235E-01  0.51100000000E-03 0.  1.
         11    1    4    4    0    0 -0.35485546356E-01 -0.69245070607E-02  0.32776951837E-01  0.48803304099E-01  0.51100000000E-03 0. -1.
</event>
<event>
 8    1  0.1204770E+005  0.1043930E+01  0.7957747E-01            NaN
         13   -1    0    0    0    0  0.00000000000E+00  0.00000000000E+00  0.74505805969E-08  0.10566000000E+00  0.10566000000E+00 0.  1.
     999900   -1    0    0    0    0 -0.00000000000E+00 -0.00000000000E+00 -0.74505805969E-08  0.93827000000E+00  0.93827000000E+00 0.  1.
     999902    2    1    2    0    0 -0.26751183088E-01 -0.31158735362E-02  0.45566230244E-02  0.10166152187E+01  0.10162482008E+01 0.  0.
     999903    2    3    3    0    0 -0.37307444699E-01 -0.78569162062E-01  0.93333176787E-01  0.12887318977E+00  0.18227959199E-01 0.  0.
         14    1    1    2    0    0  0.26751183088E-01  0.31158735362E-02 -0.45566230244E-02  0.27314781308E-01  0.00000000000E+00 0. -1.
     999901    1    3    3    0    0  0.10556261610E-01  0.75453288526E-01 -0.88776553762E-01  0.88774202892E+00  0.88000000000E+00 0.  1.
        -11    1    4    4    0    0 -0.13440876882E-01 -0.22985965071E-01  0.40970011335E-01  0.48865271015E-01  0.51100000000E-03 0. -1.
         11    1    4    4    0    0 -0.23866567817E-01 -0.55583196991E-01  0.52363165452E-01  0.80007918760E-01  0.51100000000E-03 0.  1.
</event>
<event>
 8    1  0.1204770E+005  0.1043930E+01  0.7957747E-01            NaN
         13   -1    0    0    0    0  0.00000000000E+00  0.00000000000E+00  0.74505805969E-08  0.10566000000E+00  0.10566000000E+00 0.  1.
     999900   -1    0    0    0    0 -0.00000000000E+00 -0.00000000000E+00 -0.74505805969E-08  0.93827000000E+00  0.93827000000E+00 0. -1.
     999902    2    1    2    0    0 -0.21227106315E-01 -0.60770756774E-02  0.70868407923E-03  0.10218387546E+01  0.10215999301E+01 0.  0.
     999903    2    3    3    0    0 -0.71569250493E-01  0.27011122087E-01 -0.10739641892E+00  0.13317916080E+00  0.18733385799E-01 0.  0.
         14    1    1    2    0    0  0.21227106315E-01  0.60770756774E-02 -0.70868407923E-03  0.22091245425E-01  0.00000000000E+00 0. -1.
     999901    1    3    3    0    0  0.50342144178E-01 -0.33088197764E-01  0.10810510300E+00  0.88865959377E+00  0.88000000000E+00 0.  1.
        -11    1    4    4    0    0 -0.23469670326E-01  0.97758070634E-02 -0.21815366205E-01  0.33504673593E-01  0.51100000000E-03 0.  1.
         11    1    4    4    0    0 -0.48099580167E-01  0.17235315024E-01 -0.85581052711E-01  0.99674487209E-01  0.51100000000E-03 0. -1.
</event>
<event>
 8    1  0.1204770E+005  0.1043930E+01  0.7957747E-01            NaN
         13   -1    0    0    0    0  0.00000000000E+00  0.00000000000E+00  0.74505805969E-08  0.10566000000E+00  0.10566000000E+00 0. -1.
     999900   -1    0    0    0    0 -0.00000000000E+00 -0.00000000000E+00 -0.74505805969E-08  0.93827000000E+00  0.93827000000E+00 0.  1.
     999902    2    1    2    0    0  0.12260253949E-01 -0.18732976128E-01 -0.85720080986E-03  0.10215252457E+01  0.10212795184E+01 0.  0.
     999903    2    3    3    0    0  0.71164108978E-02 -0.11630466477E+00 -0.62999700204E-01  0.13393954068E+00  0.19834817403E-01 0.  0.
         14    1    1    2    0    0 -0.12260253949E-01  0.18732976128E-01  0.85720080986E-03  0.22404754288E-01  0.00000000000E+00 0.  1.
     999901    1    3    3    0    0  0.51438430512E-02  0.97571688639E-01  0.62142499394E-01  0.88758570503E+00  0.88000000000E+00 0. -1.
        -11    1    4    4    0    0  0.73527139016E-02 -0.69661476313E-01 -0.48087369712E-01  0.84967287415E-01  0.51100000000E-03 0. -1.
         11    1    4    4    0    0 -0.23630300375E-03 -0.46643188453E-01 -0.14912330492E-01  0.48972253265E-01  0.51100000000E-03 0.  1.
</event>
<event>
 8    1  0.1204770E+005  0.1043930E+01  0.7957747E-01            NaN
         13   -1    0    0    0    0  0.00000000000E+00  0.00000000000E+00  0.74505805969E-08  0.10566000000E+00  0.10566000000E+00 0.  1.
     999900   -1    0    0    0    0 -0.00000000000E+00 -0.00000000000E+00 -0.74505805969E-08  0.93827000000E+00  0.93827000000E+00 0.  1.
     999902    2    1    2    0    0 -0.97844259920E-03  0.18321610366E-01 -0.15017402672E-01  0.10202200624E+01  0.10199445155E+01 0.  0.
     999903    2    3    3    0    0  0.80588180616E-01  0.83055850757E-02 -0.10221078290E+00  0.13210063334E+00  0.20978455357E-01 0.  0.
         14    1    1    2    0    0  0.97844259920E-03 -0.18321610366E-01  0.15017402672E-01  0.23709937565E-01  0.00000000000E+00 0.  1.
     999901    1    3    3    0    0 -0.81566623215E-01  0.10016025290E-01  0.87193380226E-01  0.88811942910E+00  0.88000000000E+00 0. -1.
        -11    1    4    4    0    0  0.40467905677E-01  0.92185009906E-02 -0.37411869972E-01  0.55879703705E-01  0.51100000000E-03 0.  1.
         11    1    4    4    0    0  0.40120274939E-01 -0.91291591491E-03 -0.64798912926E-01  0.76220929632E-01  0.51100000000E-03 0. -1.
</event>
<event>
 8    1  0.1204770E+005  0.1043930E+01  0.7957747E-01            NaN
         13   -1    0    0    0    0  0.00000000000E+00  0.00000000000E+00  0.74505805969E-08  0.10566000000E+00  0.10566000000E+00 0.  1.
     999900   -1    0    0    0    0 -0.00000000000E+00 -0.00000000000E+00 -0.74505805969E-08  0.93827000000E+00  0.93827000000E+00 0. -1.
     999902    2    1    2    0    0  0.24558416687E-01 -0.45867078485E-02  0.61147994041E-03  0.10189394493E+01  0.10186329435E+01 0.  0.
     999903    2    3    3    0    0 -0.82835263677E-01  0.15155694942E-01  0.93236075575E-01  0.12736641199E+00  0.20925131240E-01 0.  0.
         14    1    1    2    0    0 -0.24558416687E-01  0.45867078485E-02 -0.61147994041E-03  0.24990550750E-01  0.00000000000E+00 0. -1.
     999901    1    3    3    0    0  0.10739368036E+00 -0.19742402791E-01 -0.92624595635E-01  0.89157303726E+00  0.88000000000E+00 0.  1.
        -11    1    4    4    0    0 -0.59022726680E-01  0.16583225518E-01  0.77348387906E-01  0.98700151296E-01  0.51100000000E-03 0. -1.
         11    1    4    4    0    0 -0.23812536997E-01 -0.14275305760E-02  0.15887687669E-01  0.28666260696E-01  0.51100000000E-03 0.  1.
</event>
<event>
 8    1  0.1204770E+005  0.1043930E+01  0.7957747E-01            NaN
         13   -1    0    0    0    0  0.00000000000E+00  0.00000000000E+00  0.74505805969E-08  0.10566000000E+00  0.10566000000E+00 0. -1.
     999900   -1    0    0    0    0 -0.00000000000E+00 -0.00000000000E+00 -0.74505805969E-08  0.93827000000E+00  0.93827000000E+00 0.  1.
     999902    2    1    2    0    0 -0.21061526109E-01 -0.98719936194E-02  0.45242258786E-02  0.10202337395E+01  0.10199585141E+01 0.  0.
     999903    2    3    3    0    0  0.95324427039E-01 -0.77114298480E-01  0.37564522484E-01  0.12941452171E+00  0.17425947876E-01 0.  0.
         14    1    1    2    0    0  0.21061526109E-01  0.98719936194E-02 -0.45242258786E-02  0.23696260462E-01  0.00000000000E+00 0. -1.
     999901    1    3    3    0    0 -0.11638595315E+00  0.67242304861E-01 -0.33040296606E-01  0.89081921783E+00  0.88000000000E+00 0. -1.
        -11    1    4    4    0    0  0.24436421168E-01 -0.23218550056E-01  0.28360598082E-02  0.33831111457E-01  0.51100000000E-03 0. -1.
         11    1    4    4    0    0  0.70888005871E-01 -0.53895748425E-01  0.34728462676E-01  0.95583410252E-01  0.51100000000E-03 0.  1.
</event>
<event>
 8    1  0.1204770E+005  0.1043930E+01  0.7957747E-01            NaN
         13   -1    0    0    0    0  0.00000000000E+00  0.00000000000E+00  0.74505805969E-08  0.10566000000E+00  0.10566000000E+00 0.  1.
     999900   -1    0    0    0    0 -0.00000000000E+00 -0.00000000000E+00 -0.74505805969E-08  0.93827000000E+00  0.93827000000E+00 0.  1.
     999902    2    1    2    0    0  0.19127297865E-01 -0.11284326951E-01  0.85059964260E-02  0.10201488828E+01  0.10198716594E+01 0.  0.
     999903    2    3    3    0    0  0.40515976223E-01  0.65744700072E-01  0.10465518305E+00  0.13130940765E+00  0.18042817982E-01 0.  0.
         14    1    1    2    0    0 -0.19127297865E-01  0.11284326951E-01 -0.85059964260E-02  0.23781117163E-01  0.00000000000E+00 0. -1.
     999901    1    3    3    0    0 -0.21388678358E-01 -0.77029027022E-01 -0.96149186624E-01  0.88883947519E+00  0.88000000000E+00 0.  1.
        -11    1    4    4    0    0  0.34867219468E-01  0.63705998598E-01  0.91340763989E-01  0.11669435949E+00  0.51100000000E-03 0.  1.
         11    1    4    4    0    0  0.56487567555E-02  0.20387014733E-02  0.13314419061E-01  0.14615048153E-01  0.51100000000E-03 0. -1.
</event>
<event>
 8    1  0.1204770E+005  0.1043930E+01  0.7957747E-01            NaN
         13   -1    0    0    0    0  0.00000000000E+00  0.00000000000E+00  0.74505805969E-08  0.10566000000E+00  0.10566000000E+00 0.  1.
     999900   -1    0    0    0    0 -0.00000000000E+00 -0.00000000000E+00 -0.74505805969E-08  0.93827000000E+00  0.93827000000E+00 0.  1.
     999902    2    1    2    0    0 -0.20273228151E-01  0.11021182648E-01 -0.21330526853E-02  0.10207563046E+01  0.10204932205E+01 0.  0.
     999903    2    3    3    0    0  0.82741962796E-01  0.79005110285E-01  0.58657246202E-01  0.13006589571E+00  0.19708496532E-01 0.  0.
         14    1    1    2    0    0  0.20273228151E-01 -0.11021182648E-01  0.21330526853E-02  0.23173695441E-01  0.00000000000E+00 0.  1.
     999901    1    3    3    0    0 -0.10301519095E+00 -0.67983927637E-01 -0.60790298887E-01  0.89069040885E+00  0.88000000000E+00 0.  1.
        -11    1    4    4    0    0  0.33889825783E-01  0.23383648263E-01  0.28757601104E-01  0.50225253010E-01  0.51100000000E-03 0. -1.
         11    1    4    4    0    0  0.48852137013E-01  0.55621462022E-01  0.29899645097E-01  0.79840642696E-01  0.51100000000E-03 0.  1.
</event>
<event>
 8    1  0.1204770E+005  0.1043930E+01  0.7957747E-01            NaN
         13   -1    0    0    0    0  0.00000000000E+00  0.00000000000E+00  0.74505805969E-08  0.10566000000E+00  0.10566000000E+00 0. -1.
     999900   -1    0    0    0    0 -0.00000000000E+00 -0.00000000000E+00 -0.74505805969E-08  0.93827000000E+00  0.93827000000E+00 0.  1.
     999902    2    1    2    0    0 -0.18021069431E-01  0.13247638318E-01  0.65053858099E-02  0.10206366767E+01  0.10203708380E+01 0.  0.
     999903    2    3    3    0    0 -0.78632910027E-01  0.55432394589E-01 -0.89149353913E-01  0.13237816812E+00  0.17902155820E-01 0.  0.
         14    1    1    2    0    0  0.18021069431E-01 -0.13247638318E-01 -0.65053858099E-02  0.23293323271E-01  0.00000000000E+00 0.  1.
     999901    1    3    3    0    0  0.60611840596E-01 -0.42184756271E-01  0.95654739722E-01  0.88825850861E+00  0.88000000000E+00 0. -1.
        -11    1    4    4    0    0 -0.13411994755E-01  0.37564737726E-02 -0.76336118153E-02  0.15891061918E-01  0.51100000000E-03 0.  1.
         11    1    4    4    0    0 -0.65220915272E-01  0.51675920817E-01 -0.81515742097E-01  0.11648710620E+00  0.51100000000E-03 0. -1.
</event>
<event>
 8    1  0.1204770E+005  0.1043930E+01  0.7957747E-01            NaN
         13   -1    0    0    0    0  0.00000000000E+00  0.00000000000E+00  0.74505805969E-08  0.10566000000E+00  0.10566000000E+00 0. -1.
     999900   -1    0    0    0    0 -0.00000000000E+00 -0.00000000000E+00 -0.74505805969E-08  0.93827000000E+00  0.93827000000E+00 0.  1.
     999902    2    1    2    0    0  0.87764984908E-02  0.20351854301E-01  0.68717052520E-02  0.10207255773E+01  0.10204617871E+01 0.  0.
     999903    2    3    3    0    0  0.11337936279E+00 -0.55547433550E-01  0.29076578140E-01  0.13100903959E+00  0.19429971135E-01 0.  0.
         14    1    1    2    0    0 -0.87764984908E-02 -0.20351854301E-01 -0.68717052520E-02  0.23204422689E-01  0.00000000000E+00 0. -1.
     999901    1    3    3    0    0 -0.10460286429E+00  0.75899287851E-01 -0.22204872888E-01  0.88971653772E+00  0.88000000000E+00 0. -1.
        -11    1    4    4    0    0  0.65680872729E-01 -0.29218266347E-01  0.25969608831E-01  0.76435370311E-01  0.51100000000E-03 0.  1.
         11    1    4    4    0    0  0.47698490057E-01 -0.26329167203E-01  0.31069693091E-02  0.54573669279E-01  0.51100000000E-03 0. -1.
</event>
<event>
 8    1  0.1204770E+005  0.1043930E+01  0.7957747E-01            NaN
         13   -1    0    0    0    0  0.00000000000E+00  0.00000000000E+00  0.74505805969E-08  0.10566000000E+00  0.10566000000E+00 0. -1.
     999900   -1    0    0    0    0 -0.00000000000E+00 -0.00000000000E+00 -0.74505805969E-08  0.93827000000E+00  0.93827000000E+00 0. -1.
     999902    2    1    2    0    0 -0.14150954832E-01  0.11235199458E-01 -0.15617706850E-01  0.10200471192E+01  0.10197674898E+01 0.  0.
     999903    2    3    3    0    0  0.66067407267E-01 -0.91423226978E-01 -0.62471877543E-01  0.12922219167E+00  0.85164900792E-02 0.  0.
         14    1    1    2    0    0  0.14150954832E-01 -0.11235199458E-01  0.15617706850E-01  0.23882880831E-01  0.00000000000E+00 0. -1.
     999901    1    3    3    0    0 -0.80218362098E-01  0.10265842644E+00  0.46854170693E-01  0.89082492750E+00  0.88000000000E+00 0.  1.
        -11    1    4    4    0    0  0.35948521606E-01 -0.56708658860E-01 -0.37966901555E-01  0.77135691674E-01  0.51100000000E-03 0.  1.
         11    1    4    4    0    0  0.30118885661E-01 -0.34714568118E-01 -0.24504975988E-01  0.52086499999E-01  0.51100000000E-03 0. -1.
</event>
<event>
 8    1  0.1204770E+005  0.1043930E+01  0.7957747E-01            NaN
         13   -1    0    0    0    0  0.00000000000E+00  0.00000000000E+00  0.74505805969E-08  0.10566000000E+00  0.10566000000E+00 0.  1.
     999900   -1    0    0    0    0 -0.00000000000E+00 -0.00000000000E+00 -0.74505805969E-08  0.93827000000E+00  0.93827000000E+00 0. -1.
     999902    2    1    2    0    0 -0.12186697264E-01 -0.10499880859E-02  0.20377499142E-01  0.10201632052E+01  0.10198863195E+01 0.  0.
     999903    2    3    3    0    0  0.71298755141E-01  0.58473601177E-01  0.91450329402E-01  0.13136388831E+00  0.19764460178E-01 0.  0.
         14    1    1    2    0    0  0.12186697264E-01  0.10499880859E-02 -0.20377499142E-01  0.23766794830E-01  0.00000000000E+00 0. -1.
     999901    1    3    3    0    0 -0.83485452405E-01 -0.59523589263E-01 -0.71072830260E-01  0.88879931686E+00  0.88000000000E+00 0. -1.
        -11    1    4    4    0    0  0.25927599479E-01  0.12834113925E-01  0.19836020615E-01  0.35081102176E-01  0.51100000000E-03 0.  1.
         11    1    4    4    0    0  0.45371155662E-01  0.45639487251E-01  0.71614308787E-01  0.96282786139E-01  0.51100000000E-03 0. -1.
</event>
<event>
 8    1  0.1204770E+005  0.1043930E+01  0.7957747E-01            NaN
         13   -1    0    0    0    0  0.00000000000E+00  0.00000000000E+00  0.74505805969E-08  0.10566000000E+00  0.10566000000E+00 0.  1.
     999900   -1    0    0    0    0 -0.00000000000E+00 -0.00000000000E+00 -0.74505805969E-08  0.93827000000E+00  0.93827000000E+00 0. -1.
     999902    2    1    2    0    0  0.24089799743E-01  0.39834101009E-02  0.27563659486E-02  0.10193579923E+01  0.10190617906E+01 0.  0.
     999903    2    3    3    0    0  0.18633620793E-01 -0.39009894236E-01 -0.12070215053E+00  0.12968378264E+00  0.19490784104E-01 0.  0.
         14    1    1    2    0    0 -0.24089799743E-01 -0.39834101009E-02 -0.27563659486E-02  0.24572007669E-01  0.00000000000E+00 0.  1.
     999901    1    3    3    0    0  0.54561789499E-02  0.42993304337E-01  0.12345851647E+00  0.88967420970E+00  0.88000000000E+00 0.  1.
        -11    1    4    4    0    0  0.76252559089E-02 -0.34774481466E-01 -0.91883318270E-01  0.98540420063E-01  0.51100000000E-03 0.  1.
         11    1    4    4    0    0  0.11008364884E-01 -0.42354127704E-02 -0.28818832256E-01  0.31143362573E-01  0.51100000000E-03 0. -1.
</event>
<event>
 8    1  0.1204770E+005  0.1043930E+01  0.7957747E-01            NaN
         13   -1    0    0    0    0  0.00000000000E+00  0.00000000000E+00  0.74505805969E-08  0.10566000000E+00  0.10566000000E+00 0.  1.
     999900   -1    0    0    0    0 -0.00000000000E+00 -0.00000000000E+00 -0.74505805969E-08  0.93827000000E+00  0.93827000000E+00 0.  1.
     999902    2    1    2    0    0 -0.23362729418E-01 -0.64828480468E-02 -0.56219755058E-02  0.10190412264E+01  0.10187372429E+01 0.  0.
     999903    2    3    3    0    0 -0.75886314200E-01 -0.32760481080E-01 -0.10072754576E+00  0.13197059194E+00  0.20933629873E-01 0.  0.
         14    1    1    2    0    0  0.23362729418E-01  0.64828480468E-02  0.56219755058E-02  0.24888773639E-01  0.00000000000E+00 0.  1.
     999901    1    3    3    0    0  0.52523584782E-01  0.26277633033E-01  0.95105570252E-01  0.88707063442E+00  0.88000000000E+00 0. -1.
        -11    1    4    4    0    0 -0.25993198272E-01 -0.21205573912E-01 -0.46967198682E-01  0.57719161414E-01  0.51100000000E-03 0.  1.
         11    1    4    4    0    0 -0.49893115928E-01 -0.11554907167E-01 -0.53760347076E-01  0.74251430528E-01  0.51100000000E-03 0. -1.
</event>
<event>
 8    1  0.1204770E+005  0.1043930E+01  0.7957747E-01            NaN
         13   -1    0    0    0    0  0.00000000000E+00  0.00000000000E+00  0.74505805969E-08  0.10566000000E+00  0.10566000000E+00 0.  1.
     999900   -1    0    0    0    0 -0.00000000000E+00 -0.00000000000E+00 -0.74505805969E-08  0.93827000000E+00  0.93827000000E+00 0. -1.
     999902    2    1    2    0    0  0.59652931250E-02  0.19517100458E-01  0.22386586737E-02  0.10233992054E+01  0.10231932467E+01 0.  0.
     999903    2    3    3    0    0 -0.34921376847E-01 -0.81581157307E-01 -0.94757597440E-01  0.13137854918E+00  0.20157706316E-01 0.  0.
         14    1    1    2    0    0 -0.59652931250E-02 -0.19517100458E-01 -0.22386586737E-02  0.20530794554E-01  0.00000000000E+00 0.  1.
     999901    1    3    3    0    0  0.40886669972E-01  0.10109825776E+00  0.96996256113E-01  0.89202065627E+00  0.88000000000E+00 0.  1.
        -11    1    4    4    0    0 -0.12189716981E-01 -0.32330132078E-01 -0.51391457743E-01  0.61928746881E-01  0.51100000000E-03 0.  1.
         11    1    4    4    0    0 -0.22731659866E-01 -0.49251025228E-01 -0.43366139696E-01  0.69449802299E-01  0.51100000000E-03 0. -1.
</event>
<event>
 8    1  0.1204770E+005  0.1043930E+01  0.7957747E-01            NaN
         13   -1    0    0    0    0  0.00000000000E+00  0.00000000000E+00  0.74505805969E-08  0.10566000000E+00  0.10566000000E+00 0. -1.
     999900   -1    0    0    0    0 -0.00000000000E+00 -0.00000000000E+00 -0.74505805969E-08  0.93827000000E+00  0.93827000000E+00 0. -1.
     999902    2    1    2    0    0 -0.37657010523E-02 -0.19400453532E-02 -0.22744352009E-01  0.10207945331E+01  0.10205323263E+01 0.  0.
     999903    2    3    3    0    0 -0.12445154507E-01 -0.12917274945E+00 -0.36264794140E-02  0.13139642935E+00  0.20282732073E-01 0.  0.
         14    1    1    2    0    0  0.37657010523E-02  0.19400453532E-02  0.22744352009E-01  0.23135466901E-01  0.00000000000E+00 0. -1.
     999901    1    3    3    0    0  0.86794534546E-02  0.12723270410E+00 -0.19117872595E-01  0.88939810375E+00  0.88000000000E+00 0.  1.
        -11    1    4    4    0    0  0.31670277030E-02 -0.72179331610E-01 -0.18110871001E-02  0.72273280911E-01  0.51100000000E-03 0.  1.
         11    1    4    4    0    0 -0.15612182210E-01 -0.56993417843E-01 -0.18153923139E-02  0.59123148437E-01  0.51100000000E-03 0. -1.
</event>
<event>
 8    1  0.1204770E+005  0.1043930E+01  0.7957747E-01            NaN
         13   -1    0    0    0    0  0.00000000000E+00  0.00000000000E+00  0.74505805969E-08  0.10566000000E+00  0.10566000000E+00 0. -1.
     999900   -1    0    0    0    0 -0.00000000000E+00 -0.00000000000E+00 -0.74505805969E-08  0.93827000000E+00  0.93827000000E+00 0. -1.
     999902    2    1    2    0    0  0.15124782637E-01 -0.16397947710E-01  0.93810717508E-02  0.10197296643E+01  0.10194424614E+01 0.  0.
     999903    2    3    3    0    0 -0.68609520601E-01  0.98734670660E-01 -0.35820626055E-01  0.12714345179E+00  0.20652810318E-01 0.  0.
         14    1    1    2    0    0 -0.15124782637E-01  0.16397947710E-01 -0.93810717508E-02  0.24200335661E-01  0.00000000000E+00 0.  1.
     999901    1    3    3    0    0  0.83734303239E-01 -0.11513261837E+00  0.45201697806E-01  0.89258621255E+00  0.88000000000E+00 0.  1.
        -11    1    4    4    0    0 -0.56414267337E-01  0.78117008382E-01 -0.19946110598E-01  0.98401956316E-01  0.51100000000E-03 0.  1.
         11    1    4    4    0    0 -0.12195253264E-01  0.20617662278E-01 -0.15874515457E-01  0.28741495472E-01  0.51100000000E-03 0. -1.
</event>
<event>
 8    1  0.1204770E+005  0.1043930E+01  0.7957747E-01            NaN
         13   -1    0    0    0    0  0.00000000000E+00  0.00000000000E+00  0.74505805969E-08  0.10566000000E+00  0.10566000000E+00 0. -1.
     999900   -1    0    0    0    0 -0.00000000000E+00 -0.00000000000E+00 -0.74505805969E-08  0.93827000000E+00  0.93827000000E+00 0. -1.
     999902    2    1    2    0    0 -0.93813933400E-02  0.20744269680E-01  0.67766760966E-02  0.10201758718E+01  0.10198992847E+01 0.  0.
     999903    2    3    3    0    0 -0.24790316639E-01  0.70013652657E-01 -0.10653380599E+00  0.13141033900E+00  0.20068732419E-01 0.  0.
         14    1    1    2    0    0  0.93813933400E-02 -0.20744269680E-01 -0.67766760966E-02  0.23754128156E-01  0.00000000000E+00 0.  1.
     999901    1    3    3    0    0  0.15408923299E-01 -0.49269382977E-01  0.11331048209E+00  0.88876553284E+00  0.88000000000E+00 0.  1.
        -11    1    4    4    0    0 -0.21135512203E-01  0.44505159899E-01 -0.55349405967E-01  0.74102881156E-01  0.51100000000E-03 0. -1.
         11    1    4    4    0    0 -0.36548044359E-02  0.25508492758E-01 -0.51184400021E-01  0.57307457846E-01  0.51100000000E-03 0.  1.
</event>
<event>
 8    1  0.1204770E+005  0.1043930E+01  0.7957747E-01            NaN
         13   -1    0    0    0    0  0.00000000000E+00  0.00000000000E+00  0.74505805969E-08  0.10566000000E+00  0.10566000000E+00 0.  1.
     999900   -1    0    0    0    0 -0.00000000000E+00 -0.00000000000E+00 -0.74505805969E-08  0.93827000000E+00  0.93827000000E+00 0.  1.
     999902    2    1    2    0    0  0.20867855193E-01 -0.47673283605E-02  0.11268931824E-01  0.10197394311E+01  0.10194524627E+01 0.  0.
     999903    2    3    3    0    0 -0.20926274763E-01 -0.36463672871E-01 -0.12008731974E+00  0.12844493857E+00  0.17596291313E-01 0.  0.
         14    1    1    2    0    0 -0.20867855193E-01  0.47673283605E-02 -0.11268931824E-01  0.24190568917E-01  0.00000000000E+00 0.  1.
     999901    1    3    3    0    0  0.41794129956E-01  0.31696344510E-01  0.13135625156E+00  0.89129449251E+00  0.88000000000E+00 0. -1.
        -11    1    4    4    0    0 -0.12614694651E-01 -0.16678713057E-01 -0.35764525303E-01  0.41432745282E-01  0.51100000000E-03 0.  1.
         11    1    4    4    0    0 -0.83115801117E-02 -0.19784959814E-01 -0.84322794436E-01  0.87012193291E-01  0.51100000000E-03 0. -1.
</event>
<event>
 8    1  0.1204770E+005  0.1043930E+01  0.7957747E-01            NaN
         13   -1    0    0    0    0  0.00000000000E+00  0.00000000000E+00  0.74505805969E-08  0.10566000000E+00  0.10566000000E+00 0.  1.
     999900   -1    0    0    0    0 -0.00000000000E+00 -0.00000000000E+00 -0.74505805969E-08  0.93827000000E+00  0.93827000000E+00 0.  1.
     999902    2    1    2    0    0 -0.45397031623E-02 -0.20130552247E-01  0.13374064109E-01  0.10193390742E+01  0.10190424106E+01 0.  0.
     999903    2    3    3    0    0  0.22573007136E-03  0.10745896481E+00 -0.62990016342E-01  0.12685194997E+00  0.24004061774E-01 0.  0.
         14    1    1    2    0    0  0.45397031623E-02  0.20130552247E-01 -0.13374064109E-01  0.24590925753E-01  0.00000000000E+00 0. -1.
     999901    1    3    3    0    0 -0.47654332336E-02 -0.12758951705E+00  0.76364080451E-01  0.89248712428E+00  0.88000000000E+00 0. -1.
        -11    1    4    4    0    0  0.63478919625E-03  0.10100304072E-01 -0.15519956526E-01  0.18535082175E-01  0.51100000000E-03 0.  1.
         11    1    4    4    0    0 -0.40905912489E-03  0.97358660734E-01 -0.47470059815E-01  0.10831686780E+00  0.51100000000E-03 0. -1.
</event>
<event>
 8    1  0.1204770E+005  0.1043930E+01  0.7957747E-01            NaN
         13   -1    0    0    0    0  0.00000000000E+00  0.00000000000E+00  0.74505805969E-08  0.10566000000E+00  0.10566000000E+00 0.  1.
     999900   -1    0    0    0    0 -0.00000000000E+00 -0.00000000000E+00 -0.74505805969E-08  0.93827000000E+00  0.93827000000E+00 0.  1.
     999902    2    1    2    0    0  0.19726908542E-01 -0.73878651556E-02  0.11621782392E-01  0.10198717935E+01  0.10195879942E+01 0.  0.
     999903    2    3    3    0    0  0.29078572759E-02  0.12150203613E+00 -0.38211629569E-01  0.12892911520E+00  0.19783520765E-01 0.  0.
         14    1    1    2    0    0 -0.19726908542E-01  0.73878651556E-02 -0.11621782392E-01  0.24058206462E-01  0.00000000000E+00 0. -1.
     999901    1    3    3    0    0  0.16819051266E-01 -0.12888990129E+00  0.49833411961E-01  0.89094267834E+00  0.88000000000E+00 0. -1.
        -11    1    4    4    0    0 -0.11075959755E-02  0.56398107410E-01 -0.27744964744E-01  0.62865073593E-01  0.51100000000E-03 0. -1.
         11    1    4    4    0    0  0.40154532514E-02  0.65103928721E-01 -0.10466664825E-01  0.66064041605E-01  0.51100000000E-03 0.  1.
</event>
<event>
 8    1  0.1204770E+005  0.1043930E+01  0.7957747E-01            NaN
         13   -1    0    0    0    0  0.00000000000E+00  0.00000000000E+00  0.74505805969E-08  0.10566000000E+00  0.10566000000E+00 0.  1.
     999900   -1    0    0    0    0 -0.00000000000E+00 -0.00000000000E+00 -0.74505805969E-08  0.93827000000E+00  0.93827000000E+00 0.  1.
     999902    2    1    2    0    0  0.21629894027E-01  0.34317485005E-02 -0.91368063568E-02  0.10202000518E+01  0.10199240340E+01 0.  0.
     999903    2    3    3    0    0  0.99901296572E-01  0.57025960626E-01  0.62545822762E-01  0.13220390798E+00  0.18266474736E-01 0.  0.
         14    1    1    2    0    0 -0.21629894027E-01 -0.34317485005E-02  0.91368063568E-02  0.23729948247E-01  0.00000000000E+00 0.  1.
     999901    1    3    3    0    0 -0.78271402545E-01 -0.53594212126E-01 -0.71682629119E-01  0.88799614377E+00  0.88000000000E+00 0. -1.
        -11    1    4    4    0    0  0.80102670550E-01  0.52288721590E-01  0.46988175078E-01  0.10657719246E+00  0.51100000000E-03 0. -1.
         11    1    4    4    0    0  0.19798626023E-01  0.47372390360E-02  0.15557647684E-01  0.25626715524E-01  0.51100000000E-03 0.  1.
</event>
<event>
 8    1  0.1204770E+005  0.1043930E+01  0.7957747E-01            NaN
         13   -1    0    0    0    0  0.00000000000E+00  0.00000000000E+00  0.74505805969E-08  0.10566000000E+00  0.10566000000E+00 0.  1.
     999900   -1    0    0    0    0 -0.00000000000E+00 -0.00000000000E+00 -0.74505805969E-08  0.93827000000E+00  0.93827000000E+00 0. -1.
     999902    2    1    2    0    0 -0.20894944764E-01 -0.76325464056E-02 -0.34530384494E-02  0.10214182707E+01  0.10211701649E+01 0.  0.
     999903    2    3    3    0    0  0.10309795608E+00  0.66376390590E-01 -0.34922041924E-01  0.12909441672E+00  0.20268340852E-01 0.  0.
         14    1    1    2    0    0  0.20894944764E-01  0.76325464056E-02  0.34530384494E-02  0.22511729295E-01  0.00000000000E+00 0. -1.
     999901    1    3    3    0    0 -0.12399290084E+00 -0.74008936995E-01  0.31469003475E-01  0.89232385399E+00  0.88000000000E+00 0.  1.
        -11    1    4    4    0    0  0.14807213614E-01  0.17092046947E-01 -0.17979410099E-02  0.22691085403E-01  0.51100000000E-03 0. -1.
         11    1    4    4    0    0  0.88290742461E-01  0.49284343643E-01 -0.33124100914E-01  0.10640333132E+00  0.51100000000E-03 0.  1.
</event>
<event>
 8    1  0.1204770E+005  0.1043930E+01  0.7957747E-01            NaN
         13   -1    0    0    0    0  0.00000000000E+00  0.00000000000E+00  0.74505805969E-08  0.10566000000E+00  0.10566000000E+00 0.  1.
     999900   -1    0    0    0    0 -0.00000000000E+00 -0.00000000000E+00 -0.74505805969E-08  0.93827000000E+00  0.93827000000E+00 0.  1.
     999902    2    1    2    0    0 -0.84536981107E-02 -0.20737741236E-01 -0.32941495814E-02  0.10212944009E+01  0.10210435265E+01 0.  0.
     999903    2    3    3    0    0  0.75653595849E-01  0.94446213370E-01  0.39488023267E-01  0.12878574854E+00  0.19568118478E-01 0.  0.
         14    1    1    2    0    0  0.84536981107E-02  0.20737741236E-01  0.32941495814E-02  0.22635599060E-01  0.00000000000E+00 0. -1.
     999901    1    3    3    0    0 -0.84107293959E-01 -0.11518395461E+00 -0.42782172848E-01  0.89250865240E+00  0.88000000000E+00 0. -1.
        -11    1    4    4    0    0  0.12964855696E-01  0.94936750012E-02  0.40365984810E-04  0.16077316277E-01  0.51100000000E-03 0. -1.
         11    1    4    4    0    0  0.62688740152E-01  0.84952538369E-01  0.39447657282E-01  0.11270843226E+00  0.51100000000E-03 0.  1.
</event>
<event>
 8    1  0.1204770E+005  0.1043930E+01  0.7957747E-01            NaN
         13   -1    0    0    0    0  0.00000000000E+00  0.00000000000E+00  0.74505805969E-08  0.10566000000E+00  0.10566000000E+00 0. -1.
     999900   -1    0    0    0    0 -0.00000000000E+00 -0.00000000000E+00 -0.74505805969E-08  0.93827000000E+00  0.93827000000E+00 0.  1.
     999902    2    1    2    0    0 -0.15238071008E-01 -0.10844906732E-01  0.19462432021E-01  0.10169374627E+01  0.10165791686E+01 0.  0.
     999903    2    3    3    0    0 -0.10838069644E+00 -0.17030746985E-01  0.68282941606E-01  0.13065463230E+00  0.19278255219E-01 0.  0.
         14    1    1    2    0    0  0.15238071008E-01  0.10844906732E-01 -0.19462432021E-01  0.26992537307E-01  0.00000000000E+00 0.  1.
     999901    1    3    3    0    0  0.93142625429E-01  0.61858402523E-02 -0.48820509585E-01  0.88628283039E+00  0.88000000000E+00 0.  1.
        -11    1    4    4    0    0 -0.86527615254E-02  0.25704513877E-02  0.18393913567E-02  0.92261575921E-02  0.51100000000E-03 0.  1.
         11    1    4    4    0    0 -0.99727934912E-01 -0.19601198372E-01  0.66443550249E-01  0.12142847471E+00  0.51100000000E-03 0. -1.
</event>
<event>
 8    1  0.1204770E+005  0.1043930E+01  0.7957747E-01            NaN
         13   -1    0    0    0    0  0.00000000000E+00  0.00000000000E+00  0.74505805969E-08  0.10566000000E+00  0.10566000000E+00 0.  1.
     999900   -1    0    0    0    0 -0.00000000000E+00 -0.00000000000E+00 -0.74505805969E-08  0.93827000000E+00  0.93827000000E+00 0.  1.
     999902    2    1    2    0    0  0.98831781846E-02 -0.14733453002E-01  0.15532241357E-01  0.10203502975E+01  0.10200778045E+01 0.  0.
     999903    2    3    3    0    0 -0.66257618364E-01 -0.78685060437E-01 -0.77359974044E-01  0.12989188035E+00  0.17490690938E-01 0.  0.
         14    1    1    2    0    0 -0.98831781846E-02  0.14733453002E-01 -0.15532241357E-01  0.23579702499E-01  0.00000000000E+00 0. -1.
     999901    1    3    3    0    0  0.76140796549E-01  0.63951607435E-01  0.92892215401E-01  0.89045841715E+00  0.88000000000E+00 0. -1.
        -11    1    4    4    0    0 -0.51303611768E-01 -0.62230166065E-01 -0.51096540828E-01  0.95476550810E-01  0.51100000000E-03 0. -1.
         11    1    4    4    0    0 -0.14954006596E-01 -0.16454894372E-01 -0.26263433216E-01  0.34415329540E-01  0.51100000000E-03 0.  1.
</event>
<event>
 8    1  0.1204770E+005  0.1043930E+01  0.7957747E-01            NaN
         13   -1    0    0    0    0  0.00000000000E+00  0.00000000000E+00  0.74505805969E-08  0.10566000000E+00  0.10566000000E+00 0. -1.
     999900   -1    0    0    0    0 -0.00000000000E+00 -0.00000000000E+00 -0.74505805969E-08  0.93827000000E+00  0.93827000000E+00 0. -1.
     999902    2    1    2    0    0  0.18702687406E-01 -0.12738046433E-01  0.53388977289E-02  0.10206802221E+01  0.10204153878E+01 0.  0.
     999903    2    3    3    0    0 -0.10000991504E+00  0.47175531719E-01  0.62973500726E-01  0.12882593676E+00  0.20073522119E-01 0.  0.
         14    1    1    2    0    0 -0.18702687406E-01  0.12738046433E-01 -0.53388977289E-02  0.23249777893E-01  0.00000000000E+00 0.  1.
     999901    1    3    3    0    0  0.11871260244E+00 -0.59913578151E-01 -0.57634602997E-01  0.89185428535E+00  0.88000000000E+00 0. -1.
        -11    1    4    4    0    0 -0.55035803631E-01  0.16940768267E-01  0.25764802313E-01  0.63087363790E-01  0.51100000000E-03 0. -1.
         11    1    4    4    0    0 -0.44974111406E-01  0.30234763452E-01  0.37208698413E-01  0.65738572972E-01  0.51100000000E-03 0.  1.
</event>
<event>
 8    1  0.1706758E+005  0.1043930E+01  0.7957747E-01            NaN
         13   -1    0    0    0    0  0.00000000000E+00  0.00000000000E+00  0.74505805969E-08  0.10566000000E+00  0.10566000000E+00 0. -1.
     999900   -1    0    0    0    0 -0.00000000000E+00 -0.00000000000E+00 -0.74505805969E-08  0.93827000000E+00  0.93827000000E+00 0.  1.
     999902    2    1    2    0    0 -0.14521235299E-01 -0.16662609350E-01  0.34420214812E-02  0.10215613537E+01  0.10213164265E+01 0.  0.
     999903    2    3    3    0    0 -0.29234504800E-01  0.19248580895E-01  0.12486993176E+00  0.13237586616E+00  0.26565126490E-01 0.  0.
         14    1    1    2    0    0  0.14521235299E-01  0.16662609350E-01 -0.34420214812E-02  0.22368646290E-01  0.00000000000E+00 0. -1.
     999901    1    3    3    0    0  0.14713269501E-01 -0.35911190245E-01 -0.12142791028E+00  0.88918548756E+00  0.88000000000E+00 0.  1.
        -11    1    4    4    0    0 -0.28353336702E-01  0.63492093605E-02  0.66224556181E-01  0.72319963523E-01  0.51100000000E-03 0.  1.
         11    1    4    4    0    0 -0.88116809727E-03  0.12899371534E-01  0.58645375578E-01  0.60055902632E-01  0.51100000000E-03 0. -1.
</event>
<event>
 8    1  0.1204770E+005  0.1043930E+01  0.7957747E-01            NaN
         13   -1    0    0    0    0  0.00000000000E+00  0.00000000000E+00  0.74505805969E-08  0.10566000000E+00  0.10566000000E+00 0. -1.
     999900   -1    0    0    0    0 -0.00000000000E+00 -0.00000000000E+00 -0.74505805969E-08  0.93827000000E+00  0.93827000000E+00 0.  1.
     999902    2    1    2    0    0 -0.85416873280E-02 -0.20335283904E-01 -0.10595005216E-01  0.10194608699E+01  0.10191671732E+01 0.  0.
     999903    2    3    3    0    0  0.39055371266E-01 -0.12222587995E+00  0.21400444734E-01  0.13172730490E+00  0.20727181847E-01 0.  0.
         14    1    1    2    0    0  0.85416873280E-02  0.20335283904E-01  0.10595005216E-01  0.24469130131E-01  0.00000000000E+00 0. -1.
     999901    1    3    3    0    0 -0.47597058594E-01  0.10189059605E+00 -0.31995449950E-01  0.88773356497E+00  0.88000000000E+00 0.  1.
        -11    1    4    4    0    0  0.79457663406E-02 -0.41750857962E-01 -0.12560063265E-02  0.42521853395E-01  0.51100000000E-03 0. -1.
         11    1    4    4    0    0  0.31109604926E-01 -0.80475021990E-01  0.22656451061E-01  0.89205451507E-01  0.51100000000E-03 0.  1.
</event>
<event>
 8    1  0.1204770E+005  0.1043930E+01  0.7957747E-01            NaN
         13   -1    0    0    0    0  0.00000000000E+00  0.00000000000E+00  0.74505805969E-08  0.10566000000E+00  0.10566000000E+00 0. -1.
     999900   -1    0    0    0    0 -0.00000000000E+00 -0.00000000000E+00 -0.74505805969E-08  0.93827000000E+00  0.93827000000E+00 0. -1.
     999902    2    1    2    0    0  0.70293419325E-03  0.23849190584E-01 -0.72693830565E-03  0.10200593811E+01  0.10197800422E+01 0.  0.
     999903    2    3    3    0    0  0.27966480611E-01  0.12325705363E+00 -0.37238062303E-01  0.13329092970E+00  0.20133885594E-01 0.  0.
         14    1    1    2    0    0 -0.70293419325E-03 -0.23849190584E-01  0.72693830565E-03  0.23870618914E-01  0.00000000000E+00 0.  1.
     999901    1    3    3    0    0 -0.27263546418E-01 -0.99407863045E-01  0.36511123998E-01  0.88676845139E+00  0.88000000000E+00 0.  1.
        -11    1    4    4    0    0  0.29780435506E-01  0.11470480740E+00 -0.30871286834E-01  0.12246372790E+00  0.51100000000E-03 0.  1.
         11    1    4    4    0    0 -0.18139548947E-02  0.85522462271E-02 -0.63667754688E-02  0.10827201797E-01  0.51100000000E-03 0. -1.
</event>
<event>
 8    1  0.1204770E+005  0.1043930E+01  0.7957747E-01            NaN
         13   -1    0    0    0    0  0.00000000000E+00  0.00000000000E+00  0.74505805969E-08  0.10566000000E+00  0.10566000000E+00 0. -1.
     999900   -1    0    0    0    0 -0.00000000000E+00 -0.00000000000E+00 -0.74505805969E-08  0.93827000000E+00  0.93827000000E+00 0.  1.
     999902    2    1    2    0    0  0.18283082991E-01 -0.11711324207E-01  0.96645671474E-02  0.10201638456E+01  0.10198869750E+01 0.  0.
     999903    2    3    3    0    0 -0.11798930594E+00 -0.40036201114E-01  0.25915230807E-01  0.12907656213E+00  0.21558895815E-01 0.  0.
         14    1    1    2    0    0 -0.18283082991E-01  0.11711324207E-01 -0.96645671474E-02  0.23766154432E-01  0.00000000000E+00 0.  1.
     999901    1    3    3    0    0  0.13627238893E+00  0.28324876906E-01 -0.16250663660E-01  0.89108728344E+00  0.88000000000E+00 0.  1.
        -11    1    4    4    0    0 -0.48297129196E-01 -0.27311555467E-01  0.86511775879E-02  0.56157259061E-01  0.51100000000E-03 0.  1.
         11    1    4    4    0    0 -0.69692176739E-01 -0.12724645647E-01  0.17264053220E-01  0.72919303069E-01  0.51100000000E-03 0. -1.
</event>
<event>
 8    1  0.1204770E+005  0.1043930E+01  0.7957747E-01            NaN
         13   -1    0    0    0    0  0.00000000000E+00  0.00000000000E+00  0.74505805969E-08  0.10566000000E+00  0.10566000000E+00 0.  1.
     999900   -1    0    0    0    0 -0.00000000000E+00 -0.00000000000E+00 -0.74505805969E-08  0.93827000000E+00  0.93827000000E+00 0.  1.
     999902    2    1    2    0    0 -0.94463050160E-02 -0.15375848982E-01  0.15854111547E-01  0.10199091286E+01  0.10196262199E+01 0.  0.
     999903    2    3    3    0    0 -0.86122191885E-01  0.38652052950E-01  0.90459392281E-01  0.13178517681E+00  0.16535357333E-01 0.  0.
         14    1    1    2    0    0  0.94463050160E-02  0.15375848982E-01 -0.15854111547E-01  0.24020871411E-01  0.00000000000E+00 0. -1.
     999901    1    3    3    0    0  0.76675886869E-01 -0.54027901932E-01 -0.74605280734E-01  0.88812395178E+00  0.88000000000E+00 0. -1.
        -11    1    4    4    0    0 -0.77499154771E-01  0.38270919063E-01  0.86470748553E-01  0.12226296951E+00  0.51100000000E-03 0.  1.
         11    1    4    4    0    0 -0.86230371140E-02  0.38113388745E-03  0.39886437276E-02  0.95222073016E-02  0.51100000000E-03 0. -1.
</event>
<event>
 8    1  0.1204770E+005  0.1043930E+01  0.7957747E-01            NaN
         13   -1    0    0    0    0  0.00000000000E+00  0.00000000000E+00  0.74505805969E-08  0.10566000000E+00  0.10566000000E+00 0.  1.
     999900   -1    0    0    0    0 -0.00000000000E+00 -0.00000000000E+00 -0.74505805969E-08  0.93827000000E+00  0.93827000000E+00 0.  1.
     999902    2    1    2    0    0  0.16131419853E-01 -0.98844671801E-02 -0.14918838325E-01  0.10198364919E+01  0.10195518491E+01 0.  0.
     999903    2    3    3    0    0 -0.36531596957E-01  0.17915968914E-01 -0.12323138092E+00  0.13119828399E+00  0.19273737570E-01 0.  0.
         14    1    1    2    0    0 -0.16131419853E-01  0.98844671801E-02  0.14918838325E-01  0.24093508148E-01  0.00000000000E+00 0. -1.
     999901    1    3    3    0    0  0.52663016810E-01 -0.27800436094E-01  0.10831254260E+00  0.88863820786E+00  0.88000000000E+00 0. -1.
        -11    1    4    4    0    0 -0.34184380814E-01  0.14936620040E-01 -0.85656047604E-01  0.93428550893E-01  0.51100000000E-03 0.  1.
         11    1    4    4    0    0 -0.23472161428E-02  0.29793488740E-02 -0.37575333318E-01  0.37769733098E-01  0.51100000000E-03 0. -1.
</event>
<event>
 8    1  0.1204770E+005  0.1043930E+01  0.7957747E-01            NaN
         13   -1    0    0    0    0  0.00000000000E+00  0.00000000000E+00  0.74505805969E-08  0.10566000000E+00  0.10566000000E+00 0. -1.
     999900   -1    0    0    0    0 -0.00000000000E+00 -0.00000000000E+00 -0.74505805969E-08  0.93827000000E+00  0.93827000000E+00 0.  1.
     999902    2    1    2    0    0 -0.24489009843E-01  0.27806532258E-02 -0.31325590472E-02  0.10190853514E+01  0.10187824581E+01 0.  0.
     999903    2    3    3    0    0 -0.98346291246E-01 -0.85228265264E-01 -0.61222768452E-03  0.13161319987E+00  0.19642030362E-01 0.  0.
         14    1    1    2    0    0  0.24489009843E-01 -0.27806532258E-02  0.31325590472E-02  0.24844648551E-01  0.00000000000E+00 0. -1.
     999901    1    3    3    0    0  0.73857281403E-01  0.88008918489E-01 -0.25203313627E-02  0.88747215157E+00  0.88000000000E+00 0. -1.
        -11    1    4    4    0    0 -0.73066396167E-01 -0.63960348744E-01  0.80963574988E-02  0.97444530816E-01  0.51100000000E-03 0. -1.
         11    1    4    4    0    0 -0.25279895079E-01 -0.21267916520E-01 -0.87085851833E-02  0.34168669058E-01  0.51100000000E-03 0.  1.
</event>
<event>
 8    1  0.1204770E+005  0.1043930E+01  0.7957747E-01            NaN
         13   -1    0    0    0    0  0.00000000000E+00  0.00000000000E+00  0.74505805969E-08  0.10566000000E+00  0.10566000000E+00 0. -1.
     999900   -1    0    0    0    0 -0.00000000000E+00 -0.00000000000E+00 -0.74505805969E-08  0.93827000000E+00  0.93827000000E+00 0. -1.
     999902    2    1    2    0    0 -0.15552170771E-01 -0.10075249147E-01  0.14625869415E-01  0.10203228672E+01  0.10200497325E+01 0.  0.
     999903    2    3    3    0    0  0.96922008279E-01  0.69391917348E-01  0.45463014293E-01  0.12907856795E+00  0.19628478148E-01 0.  0.
         14    1    1    2    0    0  0.15552170771E-01  0.10075249147E-01 -0.14625869415E-01  0.23607132761E-01  0.00000000000E+00 0.  1.
     999901    1    3    3    0    0 -0.11247417905E+00 -0.79467166495E-01 -0.30837144878E-01  0.89124429928E+00  0.88000000000E+00 0. -1.
        -11    1    4    4    0    0  0.77627200764E-01  0.53381981088E-01  0.43940811654E-01  0.10395515501E+00  0.51100000000E-03 0. -1.
         11    1    4    4    0    0  0.19294807515E-01  0.16009936260E-01  0.15222026393E-02  0.25123412945E-01  0.51100000000E-03 0.  1.
</event>
<event>
 8    1  0.1204770E+005  0.1043930E+01  0.7957747E-01            NaN
         13   -1    0    0    0    0  0.00000000000E+00  0.00000000000E+00  0.74505805969E-08  0.10566000000E+00  0.10566000000E+00 0.  1.
     999900   -1    0    0    0    0 -0.00000000000E+00 -0.00000000000E+00 -0.74505805969E-08  0.93827000000E+00  0.93827000000E+00 0.  1.
     999902    2    1    2    0    0  0.98639373827E-02 -0.17000633191E-01 -0.13703644653E-01  0.10199694352E+01  0.10196879621E+01 0.  0.
     999903    2    3    3    0    0  0.12092975100E+00 -0.38452223298E-01 -0.32053099410E-01  0.13253916290E+00  0.20896180706E-01 0.  0.
         14    1    1    2    0    0 -0.98639373827E-02  0.17000633191E-01  0.13703644653E-01  0.23960564817E-01  0.00000000000E+00 0.  1.
     999901    1    3    3    0    0 -0.11106581361E+00  0.21451590108E-01  0.18349454757E-01  0.88743027228E+00  0.88000000000E+00 0. -1.
        -11    1    4    4    0    0  0.52723883269E-01 -0.66190957996E-02 -0.16859227881E-01  0.55750470687E-01  0.51100000000E-03 0. -1.
         11    1    4    4    0    0  0.68205867728E-01 -0.31833127499E-01 -0.15193871530E-01  0.76788692214E-01  0.51100000000E-03 0.  1.
</event>
<event>
 8    1  0.1204770E+005  0.1043930E+01  0.7957747E-01            NaN
         13   -1    0    0    0    0  0.00000000000E+00  0.00000000000E+00  0.74505805969E-08  0.10566000000E+00  0.10566000000E+00 0. -1.
     999900   -1    0    0    0    0 -0.00000000000E+00 -0.00000000000E+00 -0.74505805969E-08  0.93827000000E+00  0.93827000000E+00 0. -1.
     999902    2    1    2    0    0 -0.88281019000E-02  0.50562870522E-02 -0.20474795709E-01  0.10210669582E+01  0.10208109592E+01 0.  0.
     999903    2    3    3    0    0  0.33878879172E-01 -0.43318735005E-01 -0.11961136593E+00  0.13315249803E+00  0.19960401215E-01 0.  0.
         14    1    1    2    0    0  0.88281019000E-02 -0.50562870522E-02  0.20474795709E-01  0.22863041819E-01  0.00000000000E+00 0. -1.
     999901    1    3    3    0    0 -0.42706981072E-01  0.48375022057E-01  0.99136570217E-01  0.88791446015E+00  0.88000000000E+00 0.  1.
        -11    1    4    4    0    0 -0.16302589283E-02 -0.45780183307E-02 -0.46383307111E-02  0.67373012991E-02  0.51100000000E-03 0.  1.
         11    1    4    4    0    0  0.35509138100E-01 -0.38740716674E-01 -0.11497303521E+00  0.12641519673E+00  0.51100000000E-03 0. -1.
</event>
<event>
 8    1  0.1204770E+005  0.1043930E+01  0.7957747E-01            NaN
         13   -1    0    0    0    0  0.00000000000E+00  0.00000000000E+00  0.74505805969E-08  0.10566000000E+00  0.10566000000E+00 0.  1.
     999900   -1    0    0    0    0 -0.00000000000E+00 -0.00000000000E+00 -0.74505805969E-08  0.93827000000E+00  0.93827000000E+00 0.  1.
     999902    2    1    2    0    0  0.73586141116E-02  0.21740328860E-01  0.30202354501E-02  0.10207802069E+01  0.10205176715E+01 0.  0.
     999903    2    3    3    0    0 -0.93911281008E-01  0.91280121218E-01  0.66317697011E-02  0.13223959576E+00  0.17086283610E-01 0.  0.
         14    1    1    2    0    0 -0.73586141116E-02 -0.21740328860E-01 -0.30202354501E-02  0.23149793147E-01  0.00000000000E+00 0. -1.
     999901    1    3    3    0    0  0.10126989512E+00 -0.69539792358E-01 -0.36115342510E-02  0.88854061109E+00  0.88000000000E+00 0.  1.
        -11    1    4    4    0    0 -0.83564796648E-01  0.73149254697E-01  0.77404571976E-02  0.11132863289E+00  0.51100000000E-03 0.  1.
         11    1    4    4    0    0 -0.10346484360E-01  0.18130866522E-01 -0.11086874965E-02  0.20910962876E-01  0.51100000000E-03 0. -1.
</event>
<event>
 8    1  0.1204770E+005  0.1043930E+01  0.7957747E-01            NaN
         13   -1    0    0    0    0  0.00000000000E+00  0.00000000000E+00  0.74505805969E-08  0.10566000000E+00  0.10566000000E+00 0. -1.
     999900   -1    0    0    0    0 -0.00000000000E+00 -0.00000000000E+00 -0.74505805969E-08  0.93827000000E+00  0.93827000000E+00 0. -1.
     999902    2    1    2    0    0  0.21074527699E-01 -0.45112666453E-02 -0.10170376256E-01  0.10200988482E+01  0.10198204431E+01 0.  0.
     999903    2    3    3    0    0  0.55376447517E-01 -0.24022966660E-01 -0.11659459492E+00  0.13280890544E+00  0.20006297377E-01 0.  0.
         14    1    1    2    0    0 -0.21074527699E-01  0.45112666453E-02  0.10170376256E-01  0.23831151833E-01  0.00000000000E+00 0. -1.
     999901    1    3    3    0    0 -0.34301919818E-01  0.19511700014E-01  0.10642421866E+00  0.88728994272E+00  0.88000000000E+00 0. -1.
        -11    1    4    4    0    0  0.15563693738E-01 -0.16208369775E-01 -0.50119424504E-01  0.54928659616E-01  0.51100000000E-03 0. -1.
         11    1    4    4    0    0  0.39812753779E-01 -0.78145968847E-02 -0.66475170412E-01  0.77880245828E-01  0.51100000000E-03 0.  1.
</event>
<event>
 8    1  0.1204770E+005  0.1043930E+01  0.7957747E-01            NaN
         13   -1    0    0    0    0  0.00000000000E+00  0.00000000000E+00  0.74505805969E-08  0.10566000000E+00  0.10566000000E+00 0. -1.
     999900   -1    0    0    0    0 -0.00000000000E+00 -0.00000000000E+00 -0.74505805969E-08  0.93827000000E+00  0.93827000000E+00 0. -1.
     999902    2    1    2    0    0 -0.11760454699E-01  0.19378649495E-01  0.10345095769E-01  0.10190129103E+01  0.10187082262E+01 0.  0.
     999903    2    3    3    0    0 -0.52129390740E-01 -0.44077859347E-01  0.10939068716E+00  0.13026862276E+00  0.18527292709E-01 0.  0.
         14    1    1    2    0    0  0.11760454699E-01 -0.19378649495E-01 -0.10345095769E-01  0.24917089667E-01  0.00000000000E+00 0.  1.
     999901    1    3    3    0    0  0.40368936041E-01  0.63456508842E-01 -0.99045591395E-01  0.88874428757E+00  0.88000000000E+00 0. -1.
        -11    1    4    4    0    0 -0.22529010459E-01 -0.15216038913E-01  0.59881897430E-01  0.65766153249E-01  0.51100000000E-03 0. -1.
         11    1    4    4    0    0 -0.29600380281E-01 -0.28861820434E-01  0.49508789735E-01  0.64502469515E-01  0.51100000000E-03 0.  1.
</event>
<event>
 8    1  0.1204770E+005  0.1043930E+01  0.7957747E-01            NaN
         13   -1    0    0    0    0  0.00000000000E+00  0.00000000000E+00  0.74505805969E-08  0.10566000000E+00  0.10566000000E+00 0. -1.
     999900   -1    0    0    0    0 -0.00000000000E+00 -0.00000000000E+00 -0.74505805969E-08  0.93827000000E+00  0.93827000000E+00 0. -1.
     999902    2    1    2    0    0  0.19365810010E-01 -0.94875854133E-02 -0.53557342669E-02  0.10217099018E+01  0.10214682524E+01 0.  0.
     999903    2    3    3    0    0 -0.45095322802E-01  0.11972349680E+00 -0.14874248199E-01  0.12989078140E+00  0.16824625052E-01 0.  0.
         14    1    1    2    0    0 -0.19365810010E-01  0.94875854133E-02  0.53557342669E-02  0.22220098197E-01  0.00000000000E+00 0.  1.
     999901    1    3    3    0    0  0.64461132813E-01 -0.12921108221E+00  0.95185139320E-02  0.89181912040E+00  0.88000000000E+00 0. -1.
        -11    1    4    4    0    0 -0.24909100752E-01  0.43298919406E-01 -0.72116495848E-02  0.50473049568E-01  0.51100000000E-03 0. -1.
         11    1    4    4    0    0 -0.20186222051E-01  0.76424577395E-01 -0.76625986140E-02  0.79417731831E-01  0.51100000000E-03 0.  1.
</event>
<event>
 8    1  0.1204770E+005  0.1043930E+01  0.7957747E-01            NaN
         13   -1    0    0    0    0  0.00000000000E+00  0.00000000000E+00  0.74505805969E-08  0.10566000000E+00  0.10566000000E+00 0.  1.
     999900   -1    0    0    0    0 -0.00000000000E+00 -0.00000000000E+00 -0.74505805969E-08  0.93827000000E+00  0.93827000000E+00 0. -1.
     999902    2    1    2    0    0 -0.13401881794E-01 -0.63135876626E-02  0.20478588535E-01  0.10186546283E+01  0.10183410074E+01 0.  0.
     999903    2    3    3    0    0 -0.78998733312E-01  0.60383744982E-01  0.83704315392E-01  0.13144046385E+00  0.19575152598E-01 0.  0.
         14    1    1    2    0    0  0.13401881794E-01  0.63135876626E-02 -0.20478588535E-01  0.25275371672E-01  0.00000000000E+00 0. -1.
     999901    1    3    3    0    0  0.65596851518E-01 -0.66697332645E-01 -0.63225726857E-01  0.88721416448E+00  0.88000000000E+00 0. -1.
        -11    1    4    4    0    0 -0.15593066508E-01  0.22038325891E-01  0.26445635365E-01  0.37795029859E-01  0.51100000000E-03 0.  1.
         11    1    4    4    0    0 -0.63405666804E-01  0.38345419091E-01  0.57258680027E-01  0.93645433992E-01  0.51100000000E-03 0. -1.
</event>
<event>
 7    1  0.1204770E+005  0.1043930E+01  0.7957747E-01            NaN
         13   -1    0    0    0    0  0.00000000000E+00  0.00000000000E+00  0.74505805969E-08  0.10566000000E+00  0.10566000000E+00 0.  1.
     999900   -1    0    0    0    0 -0.00000000000E+00 -0.00000000000E+00 -0.74505805969E-08  0.93827000000E+00  0.93827000000E+00 0.  1.
     999902    2    1    2    0    0  0.22454617957E-03  0.23984817892E-01  0.70220944452E-03  0.10199338543E+01  0.10196515347E+01 0.  0.
         14    1    1    2    0    0 -0.22454617957E-03 -0.23984817892E-01 -0.70220944452E-03  0.23996145699E-01  0.00000000000E+00 0. -1.
     999901    1    3    3    0    0 -0.17005060198E-01 -0.41845859189E-01 -0.10626360003E+00  0.88754278809E+00  0.88000000000E+00 0.  1.
        -11    1    3    3    0    0  0.14550150584E-02  0.59412894649E-02  0.42700255483E-01  0.43139180899E-01  0.51100000000E-03 0.  1.
         11    1    3    3    0    0  0.15774591319E-01  0.59889387616E-01  0.64265553993E-01  0.89251885310E-01  0.51100000000E-03 0. -1.
</event>
<event>
 8    1  0.1204770E+005  0.1043930E+01  0.7957747E-01            NaN
         13   -1    0    0    0    0  0.00000000000E+00  0.00000000000E+00  0.74505805969E-08  0.10566000000E+00  0.10566000000E+00 0.  1.
     999900   -1    0    0    0    0 -0.00000000000E+00 -0.00000000000E+00 -0.74505805969E-08  0.93827000000E+00  0.93827000000E+00 0. -1.
     999902    2    1    2    0    0  0.19258252489E-01  0.12810325887E-01 -0.56267691157E-02  0.10201256880E+01  0.10198479171E+01 0.  0.
     999903    2    3    3    0    0  0.91234294904E-01  0.25985108231E-01  0.89853321863E-01  0.13194182566E+00  0.18333125576E-01 0.  0.
         14    1    1    2    0    0 -0.19258252489E-01 -0.12810325887E-01  0.56267691157E-02  0.23804311982E-01  0.00000000000E+00 0. -1.
     999901    1    3    3    0    0 -0.71976042414E-01 -0.13174782344E-01 -0.95480090979E-01  0.88818386235E+00  0.88000000000E+00 0. -1.
        -11    1    4    4    0    0  0.86858028379E-01  0.24541511514E-01  0.78287788792E-01  0.11948155454E+00  0.51100000000E-03 0. -1.
         11    1    4    4    0    0  0.43762665252E-02  0.14435967170E-02  0.11565533071E-01  0.12460271121E-01  0.51100000000E-03 0.  1.
</event>
<event>
 8    1  0.1204770E+005  0.1043930E+01  0.7957747E-01            NaN
         13   -1    0    0    0    0  0.00000000000E+00  0.00000000000E+00  0.74505805969E-08  0.10566000000E+00  0.10566000000E+00 0.  1.
     999900   -1    0    0    0    0 -0.00000000000E+00 -0.00000000000E+00 -0.74505805969E-08  0.93827000000E+00  0.93827000000E+00 0. -1.
     999902    2    1    2    0    0  0.14399498815E-01  0.18474533840E-01  0.17051229277E-03  0.10205060157E+01  0.10202371514E+01 0.  0.
     999903    2    3    3    0    0  0.15964050295E-01  0.23861229430E-01  0.12679937144E+00  0.13142428025E+00  0.19236727108E-01 0.  0.
         14    1    1    2    0    0 -0.14399498815E-01 -0.18474533840E-01 -0.17051229277E-03  0.23423984314E-01  0.00000000000E+00 0.  1.
     999901    1    3    3    0    0 -0.15645514798E-02 -0.53866955907E-02 -0.12662885915E+00  0.88908173543E+00  0.88000000000E+00 0. -1.
        -11    1    4    4    0    0  0.44203807029E-02  0.25012204266E-02  0.62229576811E-01  0.62438587590E-01  0.51100000000E-03 0.  1.
         11    1    4    4    0    0  0.11543669592E-01  0.21360009004E-01  0.64569794632E-01  0.68985692663E-01  0.51100000000E-03 0. -1.
</event>
<event>
 8    1  0.1204770E+005  0.1043930E+01  0.7957747E-01            NaN
         13   -1    0    0    0    0  0.00000000000E+00  0.00000000000E+00  0.74505805969E-08  0.10566000000E+00  0.10566000000E+00 0. -1.
     999900   -1    0    0    0    0 -0.00000000000E+00 -0.00000000000E+00 -0.74505805969E-08  0.93827000000E+00  0.93827000000E+00 0. -1.
     999902    2    1    2    0    0  0.13130471571E-01 -0.18285636153E-01 -0.75967208619E-02  0.10201711292E+01  0.10198944303E+01 0.  0.
     999903    2    3    3    0    0 -0.21381464389E-01 -0.11628177673E+00  0.55110610259E-01  0.13184319052E+00  0.19152777980E-01 0.  0.
         14    1    1    2    0    0 -0.13130471571E-01  0.18285636153E-01  0.75967208619E-02  0.23758870787E-01  0.00000000000E+00 0. -1.
     999901    1    3    3    0    0  0.34511935959E-01  0.97996140575E-01 -0.62707331121E-01  0.88832793870E+00  0.88000000000E+00 0.  1.
        -11    1    4    4    0    0 -0.12801392229E-01 -0.50057920848E-01  0.14429333015E-01  0.53648279142E-01  0.51100000000E-03 0. -1.
         11    1    4    4    0    0 -0.85800721595E-02 -0.66223855880E-01  0.40681277244E-01  0.78194911375E-01  0.51100000000E-03 0.  1.
</event>
<event>
 8    1  0.1204770E+005  0.1043930E+01  0.7957747E-01            NaN
         13   -1    0    0    0    0  0.00000000000E+00  0.00000000000E+00  0.74505805969E-08  0.10566000000E+00  0.10566000000E+00 0. -1.
     999900   -1    0    0    0    0 -0.00000000000E+00 -0.00000000000E+00 -0.74505805969E-08  0.93827000000E+00  0.93827000000E+00 0.  1.
     999902    2    1    2    0    0  0.22707497887E-01  0.16664990533E-02 -0.44981245392E-02  0.10207213636E+01  0.10204574765E+01 0.  0.
     999903    2    3    3    0    0  0.92003039727E-01 -0.82708649434E-01 -0.43867701853E-01  0.13310038513E+00  0.22046705983E-01 0.  0.
         14    1    1    2    0    0 -0.22707497887E-01 -0.16664990533E-02  0.44981245392E-02  0.23208636404E-01  0.00000000000E+00 0. -1.
     999901    1    3    3    0    0 -0.69295541840E-01  0.84375148487E-01  0.39369577314E-01  0.88762097847E+00  0.88000000000E+00 0. -1.
        -11    1    4    4    0    0  0.14655336082E-01 -0.20976237847E-01 -0.16392971767E-01  0.30393618973E-01  0.51100000000E-03 0. -1.
         11    1    4    4    0    0  0.77347703645E-01 -0.61732411586E-01 -0.27474730086E-01  0.10270676615E+00  0.51100000000E-03 0.  1.
</event>
<event>
 8    1  0.1204770E+005  0.1043930E+01  0.7957747E-01            NaN
         13   -1    0    0    0    0  0.00000000000E+00  0.00000000000E+00  0.74505805969E-08  0.10566000000E+00  0.10566000000E+00 0. -1.
     999900   -1    0    0    0    0 -0.00000000000E+00 -0.00000000000E+00 -0.74505805969E-08  0.93827000000E+00  0.93827000000E+00 0.  1.
     999902    2    1    2    0    0  0.32683533028E-02  0.23054197231E-02 -0.23379712275E-01  0.10202106400E+01  0.10199348714E+01 0.  0.
     999903    2    3    3    0    0 -0.12416389681E-01  0.58654480144E-01  0.11146281512E+00  0.12802022591E+00  0.19253683116E-01 0.  0.
         14    1    1    2    0    0 -0.32683533028E-02 -0.23054197231E-02  0.23379712275E-01  0.23719360014E-01  0.00000000000E+00 0. -1.
     999901    1    3    3    0    0  0.15684742984E-01 -0.56349060421E-01 -0.13484252740E+00  0.89219041408E+00  0.88000000000E+00 0.  1.
        -11    1    4    4    0    0 -0.53109952772E-02  0.10315869164E-01  0.38457608655E-01  0.40173033392E-01  0.51100000000E-03 0.  1.
         11    1    4    4    0    0 -0.71053944039E-02  0.48338610979E-01  0.73005206467E-01  0.87847192519E-01  0.51100000000E-03 0. -1.
</event>
<event>
 8    1  0.1204770E+005  0.1043930E+01  0.7957747E-01            NaN
         13   -1    0    0    0    0  0.00000000000E+00  0.00000000000E+00  0.74505805969E-08  0.10566000000E+00  0.10566000000E+00 0.  1.
     999900   -1    0    0    0    0 -0.00000000000E+00 -0.00000000000E+00 -0.74505805969E-08  0.93827000000E+00  0.93827000000E+00 0. -1.
     999902    2    1    2    0    0 -0.20598904631E-01 -0.32142062577E-02  0.11037836313E-01  0.10203401754E+01  0.10200674457E+01 0.  0.
     999903    2    3    3    0    0 -0.21680864737E-02  0.61130502253E-01  0.11480330295E+00  0.13171921648E+00  0.20700597056E-01 0.  0.
         14    1    1    2    0    0  0.20598904631E-01  0.32142062577E-02 -0.11037836313E-01  0.23589824593E-01  0.00000000000E+00 0. -1.
     999901    1    3    3    0    0 -0.18430818157E-01 -0.64344708510E-01 -0.10376546664E+00  0.88862095892E+00  0.88000000000E+00 0. -1.
        -11    1    4    4    0    0  0.80842340982E-02  0.24431278263E-01  0.56222065524E-01  0.61833841634E-01  0.51100000000E-03 0. -1.
         11    1    4    4    0    0 -0.10252320572E-01  0.36699223990E-01  0.58581237426E-01  0.69885374850E-01  0.51100000000E-03 0.  1.
</event>
<event>
 8    1  0.1204770E+005  0.1043930E+01  0.7957747E-01            NaN
         13   -1    0    0    0    0  0.00000000000E+00  0.00000000000E+00  0.74505805969E-08  0.10566000000E+00  0.10566000000E+00 0.  1.
     999900   -1    0    0    0    0 -0.00000000000E+00 -0.00000000000E+00 -0.74505805969E-08  0.93827000000E+00  0.93827000000E+00 0. -1.
     999902    2    1    2    0    0 -0.32611718405E-02  0.21180287004E-01  0.98251975031E-02  0.10203551340E+01  0.10200827541E+01 0.  0.
     999903    2    3    3    0    0  0.11051228481E-01  0.31796134152E-01 -0.12392549259E+00  0.13007046714E+00  0.20680302442E-01 0.  0.
         14    1    1    2    0    0  0.32611718405E-02 -0.21180287004E-01 -0.98251975031E-02  0.23574865966E-01  0.00000000000E+00 0. -1.
     999901    1    3    3    0    0 -0.14312400321E-01 -0.10615847147E-01  0.13375069009E+00  0.89028466690E+00  0.88000000000E+00 0.  1.
        -11    1    4    4    0    0  0.80136110639E-02  0.34117901277E-02 -0.13986092276E-01  0.16484240120E-01  0.51100000000E-03 0.  1.
         11    1    4    4    0    0  0.30376174170E-02  0.28384344024E-01 -0.10993940031E+00  0.11358622702E+00  0.51100000000E-03 0. -1.
</event>
<event>
 8    1  0.1204770E+005  0.1043930E+01  0.7957747E-01            NaN
         13   -1    0    0    0    0  0.00000000000E+00  0.00000000000E+00  0.74505805969E-08  0.10566000000E+00  0.10566000000E+00 0. -1.
     999900   -1    0    0    0    0 -0.00000000000E+00 -0.00000000000E+00 -0.74505805969E-08  0.93827000000E+00  0.93827000000E+00 0.  1.
     999902    2    1    2    0    0 -0.10829085172E-01  0.46670713130E-02  0.20138101548E-01  0.10205934670E+01  0.10203266296E+01 0.  0.
     999903    2    3    3    0    0  0.53598837972E-01  0.11355284599E+00 -0.28370974183E-01  0.13022264554E+00  0.19645380378E-01 0.  0.
         14    1    1    2    0    0  0.10829085172E-01 -0.46670713130E-02 -0.20138101548E-01  0.23336533039E-01  0.00000000000E+00 0.  1.
     999901    1    3    3    0    0 -0.64427923144E-01 -0.10888577468E+00  0.48509075732E-01  0.89037082142E+00  0.88000000000E+00 0. -1.
        -11    1    4    4    0    0  0.39116885151E-01  0.96702263668E-01 -0.18669677045E-01  0.10597299875E+00  0.51100000000E-03 0. -1.
         11    1    4    4    0    0  0.14481952820E-01  0.16850582326E-01 -0.97012971385E-02  0.24249646789E-01  0.51100000000E-03 0.  1.
</event>
<event>
 8    1  0.1204770E+005  0.1043930E+01  0.7957747E-01            NaN
         13   -1    0    0    0    0  0.00000000000E+00  0.00000000000E+00  0.74505805969E-08  0.10566000000E+00  0.10566000000E+00 0.  1.
     999900   -1    0    0    0    0 -0.00000000000E+00 -0.00000000000E+00 -0.74505805969E-08  0.93827000000E+00  0.93827000000E+00 0. -1.
     999902    2    1    2    0    0 -0.92346355686E-02 -0.15887157650E-02 -0.20764192187E-01  0.10211494340E+01  0.10208952994E+01 0.  0.
     999903    2    3    3    0    0 -0.98585978404E-01 -0.69623858214E-01  0.47828329282E-01  0.13136441663E+00  0.20059514021E-01 0.  0.
         14    1    1    2    0    0  0.92346355686E-02  0.15887157650E-02  0.20764192187E-01  0.22780566039E-01  0.00000000000E+00 0.  1.
     999901    1    3    3    0    0  0.89351342835E-01  0.68035142449E-01 -0.68592521469E-01  0.88978501734E+00  0.88000000000E+00 0. -1.
        -11    1    4    4    0    0 -0.72482205343E-01 -0.44328019054E-01  0.41143688750E-01  0.94401841135E-01  0.51100000000E-03 0. -1.
         11    1    4    4    0    0 -0.26103773061E-01 -0.25295839160E-01  0.66846405325E-02  0.36962575490E-01  0.51100000000E-03 0.  1.
</event>
<event>
 8    1  0.1204770E+005  0.1043930E+01  0.7957747E-01            NaN
         13   -1    0    0    0    0  0.00000000000E+00  0.00000000000E+00  0.74505805969E-08  0.10566000000E+00  0.10566000000E+00 0. -1.
     999900   -1    0    0    0    0 -0.00000000000E+00 -0.00000000000E+00 -0.74505805969E-08  0.93827000000E+00  0.93827000000E+00 0.  1.
     999902    2    1    2    0    0  0.12089241411E-01  0.19382493537E-01 -0.15855906332E-01  0.10161227963E+01  0.10157422392E+01 0.  0.
     999903    2    3    3    0    0 -0.62480418983E-01 -0.10425797269E+00 -0.16989073278E-01  0.12435551541E+00  0.20053378211E-01 0.  0.
         14    1    1    2    0    0 -0.12089241411E-01 -0.19382493537E-01  0.15855906332E-01  0.27807203729E-01  0.00000000000E+00 0. -1.
     999901    1    3    3    0    0  0.74569660393E-01  0.12364046623E+00  0.11331669463E-02  0.89176728086E+00  0.88000000000E+00 0. -1.
        -11    1    4    4    0    0 -0.32429465779E-01 -0.65905240041E-01 -0.17968229113E-01  0.75619371156E-01  0.51100000000E-03 0. -1.
         11    1    4    4    0    0 -0.30050953204E-01 -0.38352732648E-01  0.97915583482E-03  0.48736144259E-01  0.51100000000E-03 0.  1.
</event>
<event>
 8    1  0.1204770E+005  0.1043930E+01  0.7957747E-01            NaN
         13   -1    0    0    0    0  0.00000000000E+00  0.00000000000E+00  0.74505805969E-08  0.10566000000E+00  0.10566000000E+00 0.  1.
     999900   -1    0    0    0    0 -0.00000000000E+00 -0.00000000000E+00 -0.74505805969E-08  0.93827000000E+00  0.93827000000E+00 0.  1.
     999902    2    1    2    0    0 -0.36826014448E-02 -0.22296326691E-01  0.67675365498E-02  0.10203400172E+01  0.10200672838E+01 0.  0.
     999903    2    3    3    0    0  0.48544820897E-01  0.10758039427E-01 -0.11778348713E+00  0.12942293225E+00  0.20124872758E-01 0.  0.
         14    1    1    2    0    0  0.36826014448E-02  0.22296326691E-01 -0.67675365498E-02  0.23589982795E-01  0.00000000000E+00 0. -1.
     999901    1    3    3    0    0 -0.52227422342E-01 -0.33054366118E-01  0.12455102368E+00  0.89091708495E+00  0.88000000000E+00 0. -1.
        -11    1    4    4    0    0  0.35375461279E-01  0.14582170766E-01 -0.70840088605E-01  0.80514857259E-01  0.51100000000E-03 0.  1.
         11    1    4    4    0    0  0.13169359619E-01 -0.38241313391E-02 -0.46943398525E-01  0.48908074991E-01  0.51100000000E-03 0. -1.
</event>
<event>
 8    1  0.1204770E+005  0.1043930E+01  0.7957747E-01            NaN
         13   -1    0    0    0    0  0.00000000000E+00  0.00000000000E+00  0.74505805969E-08  0.10566000000E+00  0.10566000000E+00 0. -1.
     999900   -1    0    0    0    0 -0.00000000000E+00 -0.00000000000E+00 -0.74505805969E-08  0.93827000000E+00  0.93827000000E+00 0. -1.
     999902    2    1    2    0    0  0.67304869014E-02 -0.25188280488E-01  0.93957643954E-03  0.10178410803E+01  0.10175066747E+01 0.  0.
     999903    2    3    3    0    0 -0.40318056679E-01  0.34000435652E-01  0.11491447645E+00  0.12727544688E+00  0.14564585850E-01 0.  0.
         14    1    1    2    0    0 -0.67304869014E-02  0.25188280488E-01 -0.93957643954E-03  0.26088919712E-01  0.00000000000E+00 0.  1.
     999901    1    3    3    0    0  0.47048543581E-01 -0.59188716140E-01 -0.11397490002E+00  0.89056563341E+00  0.88000000000E+00 0. -1.
        -11    1    4    4    0    0 -0.13406531784E-01  0.19124845000E-01  0.40468448108E-01  0.46727413838E-01  0.51100000000E-03 0.  1.
         11    1    4    4    0    0 -0.26911524895E-01  0.14875590652E-01  0.74446028347E-01  0.80548033043E-01  0.51100000000E-03 0. -1.
</event>
<event>
 8    1  0.1204770E+005  0.1043930E+01  0.7957747E-01            NaN
         13   -1    0    0    0    0  0.00000000000E+00  0.00000000000E+00  0.74505805969E-08  0.10566000000E+00  0.10566000000E+00 0.  1.
     999900   -1    0    0    0    0 -0.00000000000E+00 -0.00000000000E+00 -0.74505805969E-08  0.93827000000E+00  0.93827000000E+00 0. -1.
     999902    2    1    2    0    0  0.27565920428E-01  0.20790056792E-01 -0.92784509350E-03  0.10093906409E+01  0.10087995334E+01 0.  0.
     999903    2    3    3    0    0 -0.75382550567E-01 -0.30811863018E-01 -0.83111069138E-01  0.11809090000E+00  0.20152196360E-01 0.  0.
         14    1    1    2    0    0 -0.27565920428E-01 -0.20790056792E-01  0.92784509350E-03  0.34539359099E-01  0.00000000000E+00 0.  1.
     999901    1    3    3    0    0  0.10294847099E+00  0.51601919810E-01  0.82183224044E-01  0.89129974090E+00  0.88000000000E+00 0.  1.
        -11    1    4    4    0    0 -0.39554894582E-01 -0.23354076645E-01 -0.56614181540E-01  0.72906990432E-01  0.51100000000E-03 0. -1.
         11    1    4    4    0    0 -0.35827655985E-01 -0.74577863728E-02 -0.26496887597E-01  0.45183909573E-01  0.51100000000E-03 0.  1.
</event>
<event>
 8    1  0.1204770E+005  0.1043930E+01  0.7957747E-01            NaN
         13   -1    0    0    0    0  0.00000000000E+00  0.00000000000E+00  0.74505805969E-08  0.10566000000E+00  0.10566000000E+00 0.  1.
     999900   -1    0    0    0    0 -0.00000000000E+00 -0.00000000000E+00 -0.74505805969E-08  0.93827000000E+00  0.93827000000E+00 0. -1.
     999902    2    1    2    0    0  0.17103702186E-01 -0.13149250910E-01 -0.11286665055E-01  0.10195819357E+01  0.10192911730E+01 0.  0.
     999903    2    3    3    0    0 -0.56333852088E-01  0.10854924505E+00  0.28776343276E-01  0.12727669478E+00  0.20367562689E-01 0.  0.
         14    1    1    2    0    0 -0.17103702186E-01  0.13149250910E-01  0.11286665055E-01  0.24348064318E-01  0.00000000000E+00 0. -1.
     999901    1    3    3    0    0  0.73437554274E-01 -0.12169849596E+00 -0.40063008331E-01  0.89230524090E+00  0.88000000000E+00 0. -1.
        -11    1    4    4    0    0 -0.40414499328E-01  0.91558094383E-01  0.28203937183E-01  0.10398047700E+00  0.51100000000E-03 0.  1.
         11    1    4    4    0    0 -0.15919352760E-01  0.16991150671E-01  0.57240609327E-03  0.23296217787E-01  0.51100000000E-03 0. -1.
</event>
<event>
 8    1  0.1204770E+005  0.1043930E+01  0.7957747E-01            NaN
         13   -1    0    0    0    0  0.00000000000E+00  0.00000000000E+00  0.74505805969E-08  0.10566000000E+00  0.10566000000E+00 0.  1.
     999900   -1    0    0    0    0 -0.00000000000E+00 -0.00000000000E+00 -0.74505805969E-08  0.93827000000E+00  0.93827000000E+00 0.  1.
     999902    2    1    2    0    0  0.18635018112E-02  0.69718824983E-02  0.22469394029E-01  0.10203301387E+01  0.10200571741E+01 0.  0.
     999903    2    3    3    0    0 -0.60668150185E-01 -0.65177685699E-01 -0.90088319846E-01  0.12803814243E+00  0.18684361998E-01 0.  0.
         14    1    1    2    0    0 -0.18635018112E-02 -0.69718824983E-02 -0.22469394029E-01  0.23599861283E-01  0.00000000000E+00 0. -1.
     999901    1    3    3    0    0  0.62531651996E-01  0.72149568197E-01  0.11255771387E+00  0.89229199629E+00  0.88000000000E+00 0. -1.
        -11    1    4    4    0    0 -0.18144294715E-01 -0.30877959889E-01 -0.29034226355E-01  0.46107605215E-01  0.51100000000E-03 0.  1.
         11    1    4    4    0    0 -0.42523855470E-01 -0.34299725810E-01 -0.61054093491E-01  0.81930537211E-01  0.51100000000E-03 0. -1.
</event>
<event>
 8    1  0.1204770E+005  0.1043930E+01  0.7957747E-01            NaN
         13   -1    0    0    0    0  0.00000000000E+00  0.00000000000E+00  0.74505805969E-08  0.10566000000E+00  0.10566000000E+00 0. -1.
     999900   -1    0    0    0    0 -0.00000000000E+00 -0.00000000000E+00 -0.74505805969E-08  0.93827000000E+00  0.93827000000E+00 0.  1.
     999902    2    1    2    0    0 -0.27532405016E-02  0.21860697409E-01 -0.97505356972E-02  0.10198355324E+01  0.10195508667E+01 0.  0.
     999903    2    3    3    0    0  0.33190517718E-01 -0.68323082612E-01 -0.10303721845E+00  0.12959541132E+00  0.20215047984E-01 0.  0.
         14    1    1    2    0    0  0.27532405016E-02 -0.21860697409E-01  0.97505356972E-02  0.24094467640E-01  0.00000000000E+00 0. -1.
     999901    1    3    3    0    0 -0.35943758220E-01  0.90183780021E-01  0.93286682751E-01  0.89024012104E+00  0.88000000000E+00 0. -1.
        -11    1    4    4    0    0  0.20750384276E-01 -0.34450763282E-01 -0.69665326418E-01  0.80442229981E-01  0.51100000000E-03 0. -1.
         11    1    4    4    0    0  0.12440133442E-01 -0.33872319330E-01 -0.33371892030E-01  0.49153181337E-01  0.51100000000E-03 0.  1.
</event>
<event>
 8    1  0.1204770E+005  0.1043930E+01  0.7957747E-01            NaN
         13   -1    0    0    0    0  0.00000000000E+00  0.00000000000E+00  0.74505805969E-08  0.10566000000E+00  0.10566000000E+00 0. -1.
     999900   -1    0    0    0    0 -0.00000000000E+00 -0.00000000000E+00 -0.74505805969E-08  0.93827000000E+00  0.93827000000E+00 0. -1.
     999902    2    1    2    0    0 -0.22421355206E-01  0.24102682721E-02 -0.70837458104E-02  0.10202930371E+01  0.10200192035E+01 0.  0.
     999903    2    3    3    0    0  0.12483016473E-01  0.86056633283E-02  0.12710080952E+00  0.12941583285E+00  0.19077706140E-01 0.  0.
         14    1    1    2    0    0  0.22421355206E-01 -0.24102682721E-02  0.70837458104E-02  0.23636962942E-01  0.00000000000E+00 0. -1.
     999901    1    3    3    0    0 -0.34904371679E-01 -0.61953950563E-02 -0.13418455533E+00  0.89087720420E+00  0.88000000000E+00 0. -1.
        -11    1    4    4    0    0  0.80922358150E-02  0.13733278001E-01  0.64179159693E-01  0.66131028005E-01  0.51100000000E-03 0.  1.
         11    1    4    4    0    0  0.43907806580E-02 -0.51276146731E-02  0.62921649825E-01  0.63284804849E-01  0.51100000000E-03 0. -1.
</event>
<event>
 8    1  0.1204770E+005  0.1043930E+01  0.7957747E-01            NaN
         13   -1    0    0    0    0  0.00000000000E+00  0.00000000000E+00  0.74505805969E-08  0.10566000000E+00  0.10566000000E+00 0.  1.
     999900   -1    0    0    0    0 -0.00000000000E+00 -0.00000000000E+00 -0.74505805969E-08  0.93827000000E+00  0.93827000000E+00 0.  1.
     999902    2    1    2    0    0  0.18245998674E-01  0.12475282335E-01  0.73058596054E-02  0.10206507233E+01  0.10203852088E+01 0.  0.
     999903    2    3    3    0    0 -0.76555117918E-01 -0.16688838962E-01 -0.10021399033E+00  0.12857543739E+00  0.18697481593E-01 0.  0.
         14    1    1    2    0    0 -0.18245998674E-01 -0.12475282335E-01 -0.73058596054E-02  0.23279276654E-01  0.00000000000E+00 0. -1.
     999901    1    3    3    0    0  0.94801116592E-01  0.29164121297E-01  0.10751984993E+00  0.89207528595E+00  0.88000000000E+00 0. -1.
        -11    1    4    4    0    0 -0.20873977558E-01  0.37397173786E-02 -0.27910701058E-01  0.35056765106E-01  0.51100000000E-03 0.  1.
         11    1    4    4    0    0 -0.55681140360E-01 -0.20428556341E-01 -0.72303289271E-01  0.93518672288E-01  0.51100000000E-03 0. -1.
</event>
<event>
 8    1  0.1204770E+005  0.1043930E+01  0.7957747E-01            NaN
         13   -1    0    0    0    0  0.00000000000E+00  0.00000000000E+00  0.74505805969E-08  0.10566000000E+00  0.10566000000E+00 0.  1.
     999900   -1    0    0    0    0 -0.00000000000E+00 -0.00000000000E+00 -0.74505805969E-08  0.93827000000E+00  0.93827000000E+00 0.  1.
     999902    2    1    2    0    0 -0.19076102665E-01  0.66235090087E-02 -0.55887842439E-02  0.10229775998E+01  0.10227630061E+01 0.  0.
     999903    2    3    3    0    0  0.74819475050E-01  0.10317464430E+00  0.28132752934E-01  0.13209284671E+00  0.20349626310E-01 0.  0.
         14    1    1    2    0    0  0.19076102665E-01 -0.66235090087E-02  0.55887842439E-02  0.20952400192E-01  0.00000000000E+00 0. -1.
     999901    1    3    3    0    0 -0.93895577715E-01 -0.96551135287E-01 -0.33721537178E-01  0.89088475310E+00  0.88000000000E+00 0. -1.
        -11    1    4    4    0    0  0.37988440401E-01  0.50035351512E-01  0.35658252186E-02  0.62925624634E-01  0.51100000000E-03 0.  1.
         11    1    4    4    0    0  0.36831034649E-01  0.53139292783E-01  0.24566927715E-01  0.69167222072E-01  0.51100000000E-03 0. -1.
</event>
<event>
 8    1  0.1204770E+005  0.1043930E+01  0.7957747E-01            NaN
         13   -1    0    0    0    0  0.00000000000E+00  0.00000000000E+00  0.74505805969E-08  0.10566000000E+00  0.10566000000E+00 0. -1.
     999900   -1    0    0    0    0 -0.00000000000E+00 -0.00000000000E+00 -0.74505805969E-08  0.93827000000E+00  0.93827000000E+00 0. -1.
     999902    2    1    2    0    0  0.62379485361E-02  0.33352476481E-02  0.23629647964E-01  0.10192643125E+01  0.10189658201E+01 0.  0.
     999903    2    3    3    0    0  0.12711967384E+00  0.48284953546E-02  0.24141529609E-01  0.13099921503E+00  0.19881022126E-01 0.  0.
         14    1    1    2    0    0 -0.62379485361E-02 -0.33352476481E-02 -0.23629647964E-01  0.24665687538E-01  0.00000000000E+00 0.  1.
     999901    1    3    3    0    0 -0.12088172530E+00 -0.14932477066E-02 -0.51188164475E-03  0.88826509744E+00  0.88000000000E+00 0.  1.
        -11    1    4    4    0    0  0.87360510341E-01  0.55712070874E-02  0.25591129333E-01  0.91203421739E-01  0.51100000000E-03 0. -1.
         11    1    4    4    0    0  0.39759163500E-01 -0.74271173277E-03 -0.14495997246E-02  0.39795793286E-01  0.51100000000E-03 0.  1.
</event>
<event>
 8    1  0.1204770E+005  0.1043930E+01  0.7957747E-01            NaN
         13   -1    0    0    0    0  0.00000000000E+00  0.00000000000E+00  0.74505805969E-08  0.10566000000E+00  0.10566000000E+00 0.  1.
     999900   -1    0    0    0    0 -0.00000000000E+00 -0.00000000000E+00 -0.74505805969E-08  0.93827000000E+00  0.93827000000E+00 0. -1.
     999902    2    1    2    0    0 -0.33490307632E-02 -0.23835053802E-01  0.16138819699E-02  0.10198067661E+01  0.10195214122E+01 0.  0.
     999903    2    3    3    0    0 -0.11806988382E+00  0.40168176487E-01 -0.29781882606E-01  0.12950177253E+00  0.18159534401E-01 0.  0.
         14    1    1    2    0    0  0.33490307632E-02  0.23835053802E-01 -0.16138819699E-02  0.24123233859E-01  0.00000000000E+00 0.  1.
     999901    1    3    3    0    0  0.11472085306E+00 -0.64003230289E-01  0.31395764575E-01  0.89030499361E+00  0.88000000000E+00 0.  1.
        -11    1    4    4    0    0 -0.31990732459E-01  0.42380938150E-02 -0.12641056802E-01  0.34661590277E-01  0.51100000000E-03 0. -1.
         11    1    4    4    0    0 -0.86079151361E-01  0.35930082672E-01 -0.17140825804E-01  0.94840182255E-01  0.51100000000E-03 0.  1.
</event>
<event>
 8    1  0.1228400E+005  0.1043930E+01  0.7957747E-01            NaN
         13   -1    0    0    0    0  0.00000000000E+00  0.00000000000E+00  0.74505805969E-08  0.10566000000E+00  0.10566000000E+00 0. -1.
     999900   -1    0    0    0    0 -0.00000000000E+00 -0.00000000000E+00 -0.74505805969E-08  0.93827000000E+00  0.93827000000E+00 0. -1.
     999902    2    1    2    0    0 -0.15935739575E-01 -0.13891176170E-01  0.85815012315E-02  0.10211143314E+01  0.10208594041E+01 0.  0.
     999903    2    3    3    0    0  0.26618765980E-01  0.18740045416E-01 -0.12388318119E+00  0.12958610712E+00  0.19640992161E-01 0.  0.
         14    1    1    2    0    0  0.15935739575E-01  0.13891176170E-01 -0.85815012315E-02  0.22815668620E-01  0.00000000000E+00 0. -1.
     999901    1    3    3    0    0 -0.42554505555E-01 -0.32631221586E-01  0.13246468242E+00  0.89152822426E+00  0.88000000000E+00 0. -1.
        -11    1    4    4    0    0  0.23631352921E-01  0.11718680637E-01 -0.64117623902E-01  0.69333246950E-01  0.51100000000E-03 0. -1.
         11    1    4    4    0    0  0.29874130592E-02  0.70213647791E-02 -0.59765557284E-01  0.60252860170E-01  0.51100000000E-03 0.  1.
</event>
<event>
 8    1  0.1204770E+005  0.1043930E+01  0.7957747E-01            NaN
         13   -1    0    0    0    0  0.00000000000E+00  0.00000000000E+00  0.74505805969E-08  0.10566000000E+00  0.10566000000E+00 0.  1.
     999900   -1    0    0    0    0 -0.00000000000E+00 -0.00000000000E+00 -0.74505805969E-08  0.93827000000E+00  0.93827000000E+00 0. -1.
     999902    2    1    2    0    0 -0.12874495497E-01 -0.11065306489E-01 -0.16367679834E-01  0.10203483422E+01  0.10200758035E+01 0.  0.
     999903    2    3    3    0    0  0.10160514300E+00  0.69191448321E-01 -0.33609886392E-01  0.12914464605E+00  0.20920170541E-01 0.  0.
         14    1    1    2    0    0  0.12874495497E-01  0.11065306489E-01  0.16367679834E-01  0.23581657811E-01  0.00000000000E+00 0.  1.
     999901    1    3    3    0    0 -0.11447963850E+00 -0.80256754809E-01  0.17242206558E-01  0.89120369614E+00  0.88000000000E+00 0. -1.
        -11    1    4    4    0    0  0.78539317908E-01  0.42289990902E-01 -0.22366486726E-01  0.91964061662E-01  0.51100000000E-03 0.  1.
         11    1    4    4    0    0  0.23065825093E-01  0.26901457418E-01 -0.11243399666E-01  0.37180584389E-01  0.51100000000E-03 0. -1.
</event>
<event>
 8    1  0.1204770E+005  0.1043930E+01  0.7957747E-01            NaN
         13   -1    0    0    0    0  0.00000000000E+00  0.00000000000E+00  0.74505805969E-08  0.10566000000E+00  0.10566000000E+00 0.  1.
     999900   -1    0    0    0    0 -0.00000000000E+00 -0.00000000000E+00 -0.74505805969E-08  0.93827000000E+00  0.93827000000E+00 0.  1.
     999902    2    1    2    0    0  0.80681501945E-02  0.16777703085E-01 -0.15696267866E-01  0.10195792466E+01  0.10192884189E+01 0.  0.
     999903    2    3    3    0    0  0.29233968670E-01 -0.25963841447E-01 -0.12424874810E+00  0.13162740526E+00  0.18954588452E-01 0.  0.
         14    1    1    2    0    0 -0.80681501945E-02 -0.16777703085E-01  0.15696267866E-01  0.24350753443E-01  0.00000000000E+00 0. -1.
     999901    1    3    3    0    0 -0.21165818476E-01  0.42741544531E-01  0.10855248024E+00  0.88795184130E+00  0.88000000000E+00 0. -1.
        -11    1    4    4    0    0  0.19532647642E-01 -0.27274564351E-01 -0.92315848643E-01  0.98223740593E-01  0.51100000000E-03 0. -1.
         11    1    4    4    0    0  0.97013210285E-02  0.13107229047E-02 -0.31932899458E-01  0.33403664665E-01  0.51100000000E-03 0.  1.
</event>
<event>
 8    1  0.1204770E+005  0.1043930E+01  0.7957747E-01            NaN
         13   -1    0    0    0    0  0.00000000000E+00  0.00000000000E+00  0.74505805969E-08  0.10566000000E+00  0.10566000000E+00 0. -1.
     999900   -1    0    0    0    0 -0.00000000000E+00 -0.00000000000E+00 -0.74505805969E-08  0.93827000000E+00  0.93827000000E+00 0. -1.
     999902    2    1    2    0    0 -0.17198819919E-01 -0.76306444089E-02  0.16781949334E-01  0.10187177021E+01  0.10184056641E+01 0.  0.
     999903    2    3    3    0    0 -0.41209806200E-01  0.10836462618E+00 -0.50971508219E-01  0.12819989698E+00  0.19899211094E-01 0.  0.
         14    1    1    2    0    0  0.17198819919E-01  0.76306444089E-02 -0.16781949334E-01  0.25212297875E-01  0.00000000000E+00 0.  1.
     999901    1    3    3    0    0  0.24010986281E-01 -0.11599527059E+00  0.67753457553E-01  0.89051780514E+00  0.88000000000E+00 0. -1.
        -11    1    4    4    0    0 -0.24357131472E-01  0.41407333968E-01 -0.14913127738E-01  0.50304072000E-01  0.51100000000E-03 0. -1.
         11    1    4    4    0    0 -0.16852674728E-01  0.66957292214E-01 -0.36058380481E-01  0.77895824984E-01  0.51100000000E-03 0.  1.
</event>
<event>
 8    1  0.1204770E+005  0.1043930E+01  0.7957747E-01            NaN
         13   -1    0    0    0    0  0.00000000000E+00  0.00000000000E+00  0.74505805969E-08  0.10566000000E+00  0.10566000000E+00 0. -1.
     999900   -1    0    0    0    0 -0.00000000000E+00 -0.00000000000E+00 -0.74505805969E-08  0.93827000000E+00  0.93827000000E+00 0. -1.
     999902    2    1    2    0    0 -0.34010338237E-02 -0.20447576167E-02 -0.22679110687E-01  0.10209063138E+01  0.10206466634E+01 0.  0.
     999903    2    3    3    0    0 -0.79586822990E-01 -0.69867704023E-01 -0.78314202202E-01  0.13326928779E+00  0.20298530555E-01 0.  0.
         14    1    1    2    0    0  0.34010338237E-02  0.20447576167E-02  0.22679110687E-01  0.23023686202E-01  0.00000000000E+00 0. -1.
     999901    1    3    3    0    0  0.76185789166E-01  0.67822946406E-01  0.55635091515E-01  0.88763702601E+00  0.88000000000E+00 0.  1.
        -11    1    4    4    0    0 -0.51115890236E-01 -0.31478703386E-01 -0.43848754764E-01  0.74341895435E-01  0.51100000000E-03 0.  1.
         11    1    4    4    0    0 -0.28470932753E-01 -0.38389000637E-01 -0.34465447438E-01  0.58927392356E-01  0.51100000000E-03 0. -1.
</event>
<event>
 8    1  0.1204770E+005  0.1043930E+01  0.7957747E-01            NaN
         13   -1    0    0    0    0  0.00000000000E+00  0.00000000000E+00  0.74505805969E-08  0.10566000000E+00  0.10566000000E+00 0.  1.
     999900   -1    0    0    0    0 -0.00000000000E+00 -0.00000000000E+00 -0.74505805969E-08  0.93827000000E+00  0.93827000000E+00 0.  1.
     999902    2    1    2    0    0 -0.31780298074E-02 -0.17433379343E-01 -0.13726177869E-01  0.10215150374E+01  0.10212690836E+01 0.  0.
     999903    2    3    3    0    0 -0.12163822839E+00 -0.66605006002E-02  0.44964070731E-01  0.13157491648E+00  0.21212499056E-01 0.  0.
         14    1    1    2    0    0  0.31780298074E-02  0.17433379343E-01  0.13726177869E-01  0.22414962584E-01  0.00000000000E+00 0.  1.
     999901    1    3    3    0    0  0.11846019858E+00 -0.10772878742E-01 -0.58690248600E-01  0.88994012093E+00  0.88000000000E+00 0. -1.
        -11    1    4    4    0    0 -0.26081625104E-01 -0.14058876429E-04  0.19173266100E-01  0.32374783701E-01  0.51100000000E-03 0. -1.
         11    1    4    4    0    0 -0.95556603288E-01 -0.66464417238E-02  0.25790804631E-01  0.99200132782E-01  0.51100000000E-03 0.  1.
</event>
<event>
 8    1  0.1204770E+005  0.1043930E+01  0.7957747E-01            NaN
         13   -1    0    0    0    0  0.00000000000E+00  0.00000000000E+00  0.74505805969E-08  0.10566000000E+00  0.10566000000E+00 0.  1.
     999900   -1    0    0    0    0 -0.00000000000E+00 -0.00000000000E+00 -0.74505805969E-08  0.93827000000E+00  0.93827000000E+00 0.  1.
     999902    2    1    2    0    0 -0.19336019571E-01 -0.60496241296E-02 -0.12035346865E-01  0.10203645766E+01  0.10200924174E+01 0.  0.
     999903    2    3    3    0    0 -0.13652847908E-01  0.43683128201E-01  0.11841770931E+00  0.12934064599E+00  0.24731212689E-01 0.  0.
         14    1    1    2    0    0  0.19336019571E-01  0.60496241296E-02  0.12035346865E-01  0.23565423380E-01  0.00000000000E+00 0.  1.
     999901    1    3    3    0    0 -0.56831716630E-02 -0.49732752331E-01 -0.13045305617E+00  0.89102393063E+00  0.88000000000E+00 0. -1.
        -11    1    4    4    0    0 -0.16741150665E-01  0.19051812209E-01  0.42821659203E-01  0.49771410387E-01  0.51100000000E-03 0.  1.
         11    1    4    4    0    0  0.30883027569E-02  0.24631315992E-01  0.75596050106E-01  0.79569235600E-01  0.51100000000E-03 0. -1.
</event>
<event>
 8    1  0.1204770E+005  0.1043930E+01  0.7957747E-01            NaN
         13   -1    0    0    0    0  0.00000000000E+00  0.00000000000E+00  0.74505805969E-08  0.10566000000E+00  0.10566000000E+00 0. -1.
     999900   -1    0    0    0    0 -0.00000000000E+00 -0.00000000000E+00 -0.74505805969E-08  0.93827000000E+00  0.93827000000E+00 0.  1.
     999902    2    1    2    0    0 -0.44723805064E-02  0.13241902529E-01 -0.18530246145E-01  0.10207196533E+01  0.10204557269E+01 0.  0.
     999903    2    3    3    0    0 -0.12334832694E+00  0.75409769240E-02  0.38540267417E-01  0.13087638921E+00  0.19276953785E-01 0.  0.
         14    1    1    2    0    0  0.44723805064E-02 -0.13241902529E-01  0.18530246145E-01  0.23210346662E-01  0.00000000000E+00 0. -1.
     999901    1    3    3    0    0  0.11887594644E+00  0.57009256049E-02 -0.57070513562E-01  0.88984326413E+00  0.88000000000E+00 0. -1.
        -11    1    4    4    0    0 -0.79644049048E-02 -0.31234275099E-02 -0.53930136113E-03  0.85871713535E-02  0.51100000000E-03 0.  1.
         11    1    4    4    0    0 -0.11538392204E+00  0.10664404434E-01  0.39079568778E-01  0.12228921786E+00  0.51100000000E-03 0. -1.
</event>
<event>
 8    1  0.1204770E+005  0.1043930E+01  0.7957747E-01            NaN
         13   -1    0    0    0    0  0.00000000000E+00  0.00000000000E+00  0.74505805969E-08  0.10566000000E+00  0.10566000000E+00 0. -1.
     999900   -1    0    0    0    0 -0.00000000000E+00 -0.00000000000E+00 -0.74505805969E-08  0.93827000000E+00  0.93827000000E+00 0.  1.
     999902    2    1    2    0    0 -0.12470367138E-01  0.85493208992E-02 -0.19002464650E-01  0.10196463716E+01  0.10193571644E+01 0.  0.
     999903    2    3    3    0    0  0.70604115975E-01 -0.10405113145E+00  0.12884281157E-01  0.12802033108E+00  0.20288452876E-01 0.  0.
         14    1    1    2    0    0  0.12470367138E-01 -0.85493208992E-02  0.19002464650E-01  0.24283628378E-01  0.00000000000E+00 0.  1.
     999901    1    3    3    0    0 -0.83074483114E-01  0.11260045235E+00 -0.31886745807E-01  0.89162604054E+00  0.88000000000E+00 0.  1.
        -11    1    4    4    0    0  0.17993692022E-01 -0.29734971818E-01  0.12577613732E-01  0.36964834502E-01  0.51100000000E-03 0.  1.
         11    1    4    4    0    0  0.52610423954E-01 -0.74316159633E-01  0.30666742531E-03  0.91055496578E-01  0.51100000000E-03 0. -1.
</event>
<event>
 8    1  0.1204770E+005  0.1043930E+01  0.7957747E-01            NaN
         13   -1    0    0    0    0  0.00000000000E+00  0.00000000000E+00  0.74505805969E-08  0.10566000000E+00  0.10566000000E+00 0. -1.
     999900   -1    0    0    0    0 -0.00000000000E+00 -0.00000000000E+00 -0.74505805969E-08  0.93827000000E+00  0.93827000000E+00 0.  1.
     999902    2    1    2    0    0  0.14241668192E-01 -0.16040321975E-02 -0.20107861744E-01  0.10192374073E+01  0.10189382554E+01 0.  0.
     999903    2    3    3    0    0 -0.76789037050E-01 -0.36328944633E-01  0.92016045435E-01  0.12678898892E+00  0.19802693371E-01 0.  0.
         14    1    1    2    0    0 -0.14241668192E-01  0.16040321975E-02  0.20107861744E-01  0.24692592737E-01  0.00000000000E+00 0. -1.
     999901    1    3    3    0    0  0.91030705242E-01  0.34724912436E-01 -0.11212390718E+00  0.89244841834E+00  0.88000000000E+00 0.  1.
        -11    1    4    4    0    0 -0.17063302439E-01 -0.96782385394E-03  0.25136913922E-01  0.30400962742E-01  0.51100000000E-03 0.  1.
         11    1    4    4    0    0 -0.59725734611E-01 -0.35361120779E-01  0.66879131513E-01  0.96388026178E-01  0.51100000000E-03 0. -1.
</event>
<event>
 8    1  0.1204770E+005  0.1043930E+01  0.7957747E-01            NaN
         13   -1    0    0    0    0  0.00000000000E+00  0.00000000000E+00  0.74505805969E-08  0.10566000000E+00  0.10566000000E+00 0. -1.
     999900   -1    0    0    0    0 -0.00000000000E+00 -0.00000000000E+00 -0.74505805969E-08  0.93827000000E+00  0.93827000000E+00 0.  1.
     999902    2    1    2    0    0  0.98155206944E-02 -0.21675705644E-01 -0.82464314936E-03  0.10201211634E+01  0.10198432857E+01 0.  0.
     999903    2    3    3    0    0 -0.54988218961E-01 -0.11710928565E+00 -0.19846850879E-01  0.13238869403E+00  0.19864033035E-01 0.  0.
         14    1    1    2    0    0 -0.98155206944E-02  0.21675705644E-01  0.82464314936E-03  0.23808836553E-01  0.00000000000E+00 0.  1.
     999901    1    3    3    0    0  0.64803739655E-01  0.95433580004E-01  0.19022207730E-01  0.88773246941E+00  0.88000000000E+00 0. -1.
        -11    1    4    4    0    0 -0.20838778891E-01 -0.24460070993E-01 -0.56291905839E-02  0.32626656070E-01  0.51100000000E-03 0.  1.
         11    1    4    4    0    0 -0.34149440069E-01 -0.92649214655E-01 -0.14217660296E-01  0.99762037963E-01  0.51100000000E-03 0. -1.
</event>
<event>
 8    1  0.1204770E+005  0.1043930E+01  0.7957747E-01            NaN
         13   -1    0    0    0    0  0.00000000000E+00  0.00000000000E+00  0.74505805969E-08  0.10566000000E+00  0.10566000000E+00 0. -1.
     999900   -1    0    0    0    0 -0.00000000000E+00 -0.00000000000E+00 -0.74505805969E-08  0.93827000000E+00  0.93827000000E+00 0. -1.
     999902    2    1    2    0    0  0.20018711096E-02  0.91071939737E-03 -0.23336961636E-01  0.10204896358E+01  0.10202203909E+01 0.  0.
     999903    2    3    3    0    0 -0.67455749706E-01 -0.10946347989E+00  0.87554437713E-02  0.13030047190E+00  0.19209986528E-01 0.  0.
         14    1    1    2    0    0 -0.20018711096E-02 -0.91071939737E-03  0.23336961636E-01  0.23440364249E-01  0.00000000000E+00 0. -1.
     999901    1    3    3    0    0  0.69457620816E-01  0.11037419929E+00 -0.32092405407E-01  0.89018916385E+00  0.88000000000E+00 0.  1.
        -11    1    4    4    0    0 -0.13191437656E-01 -0.30490536036E-01 -0.46395095299E-02  0.33548069764E-01  0.51100000000E-03 0.  1.
         11    1    4    4    0    0 -0.54264312051E-01 -0.78972943856E-01  0.13394953301E-01  0.96752402133E-01  0.51100000000E-03 0. -1.
</event>
<event>
 8    1  0.1204770E+005  0.1043930E+01  0.7957747E-01            NaN
         13   -1    0    0    0    0  0.00000000000E+00  0.00000000000E+00  0.74505805969E-08  0.10566000000E+00  0.10566000000E+00 0. -1.
     999900   -1    0    0    0    0 -0.00000000000E+00 -0.00000000000E+00 -0.74505805969E-08  0.93827000000E+00  0.93827000000E+00 0.  1.
     999902    2    1    2    0    0  0.11686232226E-01 -0.13813043681E-01  0.16731491890E-01  0.10192863189E+01  0.10189883654E+01 0.  0.
     999903    2    3    3    0    0  0.38609211481E-01 -0.20433853736E-01 -0.11937932831E+00  0.12839079338E+00  0.18015499127E-01 0.  0.
         14    1    1    2    0    0 -0.11686232226E-01  0.13813043681E-01 -0.16731491890E-01  0.24643681142E-01  0.00000000000E+00 0. -1.
     999901    1    3    3    0    0 -0.26922979255E-01  0.66208100543E-02  0.13611082020E+00  0.89089552548E+00  0.88000000000E+00 0. -1.
        -11    1    4    4    0    0  0.17764102467E-01 -0.16492184021E-01 -0.45915789620E-01  0.51923754946E-01  0.51100000000E-03 0.  1.
         11    1    4    4    0    0  0.20845109014E-01 -0.39416697145E-02 -0.73463538686E-01  0.76467038436E-01  0.51100000000E-03 0. -1.
</event>
<event>
 8    1  0.1204770E+005  0.1043930E+01  0.7957747E-01            NaN
         13   -1    0    0    0    0  0.00000000000E+00  0.00000000000E+00  0.74505805969E-08  0.10566000000E+00  0.10566000000E+00 0.  1.
     999900   -1    0    0    0    0 -0.00000000000E+00 -0.00000000000E+00 -0.74505805969E-08  0.93827000000E+00  0.93827000000E+00 0.  1.
     999902    2    1    2    0    0 -0.17122645159E-01  0.10663294182E-01  0.10490488135E-01  0.10211936599E+01  0.10209405222E+01 0.  0.
     999903    2    3    3    0    0 -0.85118692149E-01  0.27170555847E-01 -0.95282016639E-01  0.13210211519E+00  0.19719921034E-01 0.  0.
         14    1    1    2    0    0  0.17122645159E-01 -0.10663294182E-01 -0.10490488135E-01  0.22736340105E-01  0.00000000000E+00 0. -1.
     999901    1    3    3    0    0  0.67996046990E-01 -0.16507261665E-01  0.10577250477E+00  0.88909154470E+00  0.88000000000E+00 0. -1.
        -11    1    4    4    0    0 -0.46083724302E-01  0.13010488894E-01 -0.36889878171E-01  0.60449207598E-01  0.51100000000E-03 0.  1.
         11    1    4    4    0    0 -0.39034967847E-01  0.14160066952E-01 -0.58392138468E-01  0.71652907595E-01  0.51100000000E-03 0. -1.
</event>
<event>
 8    1  0.1204770E+005  0.1043930E+01  0.7957747E-01            NaN
         13   -1    0    0    0    0  0.00000000000E+00  0.00000000000E+00  0.74505805969E-08  0.10566000000E+00  0.10566000000E+00 0.  1.
     999900   -1    0    0    0    0 -0.00000000000E+00 -0.00000000000E+00 -0.74505805969E-08  0.93827000000E+00  0.93827000000E+00 0. -1.
     999902    2    1    2    0    0  0.19878823537E-01  0.13098317617E-01 -0.38989060563E-02  0.10198066707E+01  0.10195213144E+01 0.  0.
     999903    2    3    3    0    0  0.63770394797E-01 -0.77699892435E-01 -0.81106953911E-01  0.13068808036E+00  0.19927364067E-01 0.  0.
         14    1    1    2    0    0 -0.19878823537E-01 -0.13098317617E-01  0.38989060563E-02  0.24123329332E-01  0.00000000000E+00 0.  1.
     999901    1    3    3    0    0 -0.43891571260E-01  0.90798210052E-01  0.77208047855E-01  0.88911859031E+00  0.88000000000E+00 0. -1.
        -11    1    4    4    0    0  0.35696857118E-01 -0.51588704347E-01 -0.60511194718E-01  0.87163787387E-01  0.51100000000E-03 0. -1.
         11    1    4    4    0    0  0.28073537679E-01 -0.26111188088E-01 -0.20595759192E-01  0.43524292974E-01  0.51100000000E-03 0.  1.
</event>
<event>
 8    1  0.1204770E+005  0.1043930E+01  0.7957747E-01            NaN
         13   -1    0    0    0    0  0.00000000000E+00  0.00000000000E+00  0.74505805969E-08  0.10566000000E+00  0.10566000000E+00 0. -1.
     999900   -1    0    0    0    0 -0.00000000000E+00 -0.00000000000E+00 -0.74505805969E-08  0.93827000000E+00  0.93827000000E+00 0. -1.
     999902    2    1    2    0    0  0.21326186840E-01  0.11359235208E-01 -0.51929374548E-02  0.10192155292E+01  0.10189158404E+01 0.  0.
     999903    2    3    3    0    0  0.33128041931E-02 -0.99347449302E-01 -0.79671817285E-01  0.12897536185E+00  0.20153291048E-01 0.  0.
         14    1    1    2    0    0 -0.21326186840E-01 -0.11359235208E-01  0.51929374548E-02  0.24714470843E-01  0.00000000000E+00 0.  1.
     999901    1    3    3    0    0  0.18013382647E-01  0.11070668451E+00  0.74478879830E-01  0.89024016731E+00  0.88000000000E+00 0.  1.
        -11    1    4    4    0    0 -0.50663911314E-02 -0.65422457368E-01 -0.59752655715E-01  0.88749125253E-01  0.51100000000E-03 0. -1.
         11    1    4    4    0    0  0.83791953245E-02 -0.33924991933E-01 -0.19919161570E-01  0.40226236595E-01  0.51100000000E-03 0.  1.
</event>
<event>
 7    1  0.1204770E+005  0.1043930E+01  0.7957747E-01            NaN
         13   -1    0    0    0    0  0.00000000000E+00  0.00000000000E+00  0.74505805969E-08  0.10566000000E+00  0.10566000000E+00 0.  1.
     999900   -1    0    0    0    0 -0.00000000000E+00 -0.00000000000E+00 -0.74505805969E-08  0.93827000000E+00  0.93827000000E+00 0.  1.
     999903    2    1    2    0    0  0.58735882977E-01 -0.16769980066E-01  0.48137797713E-01  0.79978585261E-01  0.18659859359E-01 0.  0.
         14    1    1    2    0    0 -0.76087920388E-01 -0.28837938300E-01 -0.20506160804E-02  0.81395352083E-01  0.00000000000E+00 0.  1.
     999901    1    1    2    0    0  0.17352037411E-01  0.45607918366E-01 -0.46087181633E-01  0.88255606266E+00  0.88000000000E+00 0.  1.
        -11    1    3    3    0    0  0.51395003071E-01 -0.10915997654E-01  0.32656303444E-01  0.61865181008E-01  0.51100000000E-03 0. -1.
         11    1    3    3    0    0  0.73408799055E-02 -0.58539824113E-02  0.15481494269E-01  0.18113404253E-01  0.51100000000E-03 0.  1.
</event>
<event>
 8    1  0.1204770E+005  0.1043930E+01  0.7957747E-01            NaN
         13   -1    0    0    0    0  0.00000000000E+00  0.00000000000E+00  0.74505805969E-08  0.10566000000E+00  0.10566000000E+00 0. -1.
     999900   -1    0    0    0    0 -0.00000000000E+00 -0.00000000000E+00 -0.74505805969E-08  0.93827000000E+00  0.93827000000E+00 0.  1.
     999902    2    1    2    0    0  0.20769610319E-01 -0.10163003687E-01  0.94693157846E-02  0.10189433776E+01  0.10186369694E+01 0.  0.
     999903    2    3    3    0    0  0.11835429999E+00 -0.48267343006E-01 -0.25110356281E-01  0.13205529784E+00  0.21693200954E-01 0.  0.
         14    1    1    2    0    0 -0.20769610319E-01  0.10163003687E-01 -0.94693157846E-02  0.24986622384E-01  0.00000000000E+00 0.  1.
     999901    1    3    3    0    0 -0.97584689670E-01  0.38104339320E-01  0.34579672066E-01  0.88688807978E+00  0.88000000000E+00 0. -1.
        -11    1    4    4    0    0  0.10212160441E+00 -0.41734204333E-01 -0.13722478713E-01  0.11117163956E+00  0.51100000000E-03 0.  1.
         11    1    4    4    0    0  0.16232695576E-01 -0.65331386734E-02 -0.11387877569E-01  0.20883658279E-01  0.51100000000E-03 0. -1.
</event>
<event>
 8    1  0.1204770E+005  0.1043930E+01  0.7957747E-01            NaN
         13   -1    0    0    0    0  0.00000000000E+00  0.00000000000E+00  0.74505805969E-08  0.10566000000E+00  0.10566000000E+00 0. -1.
     999900   -1    0    0    0    0 -0.00000000000E+00 -0.00000000000E+00 -0.74505805969E-08  0.93827000000E+00  0.93827000000E+00 0. -1.
     999902    2    1    2    0    0 -0.77240825588E-02 -0.18142795842E-01 -0.14882032830E-01  0.10192258021E+01  0.10189263655E+01 0.  0.
     999903    2    3    3    0    0  0.11016069688E+00 -0.32368668131E-01 -0.57562040160E-01  0.13022592602E+00  0.21501012181E-01 0.  0.
         14    1    1    2    0    0  0.77240825588E-02  0.18142795842E-01  0.14882032830E-01  0.24704197892E-01  0.00000000000E+00 0. -1.
     999901    1    3    3    0    0 -0.11788477944E+00  0.14225872289E-01  0.42680007330E-01  0.88899987609E+00  0.88000000000E+00 0. -1.
        -11    1    4    4    0    0  0.76866593227E-01 -0.31965141944E-01 -0.37109316018E-01  0.91146069088E-01  0.51100000000E-03 0.  1.
         11    1    4    4    0    0  0.33294103656E-01 -0.40352618684E-03 -0.20452724142E-01  0.39079856928E-01  0.51100000000E-03 0. -1.
</event>
<event>
 8    1  0.1204770E+005  0.1043930E+01  0.7957747E-01            NaN
         13   -1    0    0    0    0  0.00000000000E+00  0.00000000000E+00  0.74505805969E-08  0.10566000000E+00  0.10566000000E+00 0. -1.
     999900   -1    0    0    0    0 -0.00000000000E+00 -0.00000000000E+00 -0.74505805969E-08  0.93827000000E+00  0.93827000000E+00 0.  1.
     999902    2    1    2    0    0  0.22167726250E-01 -0.65009082800E-02  0.55879798312E-02  0.10201624714E+01  0.10198855684E+01 0.  0.
     999903    2    3    3    0    0  0.12698981690E-01 -0.53086406560E-01 -0.11683616024E+00  0.13041670109E+00  0.19452426192E-01 0.  0.
         14    1    1    2    0    0 -0.22167726250E-01  0.65009082800E-02 -0.55879798312E-02  0.23767528566E-01  0.00000000000E+00 0.  1.
     999901    1    3    3    0    0  0.94687445598E-02  0.46585498280E-01  0.12242414008E+00  0.88974577035E+00  0.88000000000E+00 0. -1.
        -11    1    4    4    0    0  0.55149366794E-02 -0.44935890564E-01 -0.79066627640E-01  0.91112246788E-01  0.51100000000E-03 0.  1.
         11    1    4    4    0    0  0.71840450107E-02 -0.81505159955E-02 -0.37769532605E-01  0.39304454301E-01  0.51100000000E-03 0. -1.
</event>
<event>
 8    1  0.1204770E+005  0.1043930E+01  0.7957747E-01            NaN
         13   -1    0    0    0    0  0.00000000000E+00  0.00000000000E+00  0.74505805969E-08  0.10566000000E+00  0.10566000000E+00 0.  1.
     999900   -1    0    0    0    0 -0.00000000000E+00 -0.00000000000E+00 -0.74505805969E-08  0.93827000000E+00  0.93827000000E+00 0. -1.
     999902    2    1    2    0    0 -0.22396718663E-01  0.10022220199E-01  0.15188775515E-02  0.10193461660E+01  0.10190496756E+01 0.  0.
     999903    2    3    3    0    0  0.55401016897E-01  0.89786454802E-01  0.72363998825E-01  0.12949569993E+00  0.20042650389E-01 0.  0.
         14    1    1    2    0    0  0.22396718663E-01 -0.10022220199E-01 -0.15188775515E-02  0.24583833989E-01  0.00000000000E+00 0. -1.
     999901    1    3    3    0    0 -0.77797735561E-01 -0.79764234603E-01 -0.70845121273E-01  0.88985046608E+00  0.88000000000E+00 0. -1.
        -11    1    4    4    0    0  0.46666331729E-01  0.63903698039E-01  0.60962451808E-01  0.99890494000E-01  0.51100000000E-03 0.  1.
         11    1    4    4    0    0  0.87346851685E-02  0.25882756763E-01  0.11401547017E-01  0.29605205928E-01  0.51100000000E-03 0. -1.
</event>
<event>
 7    1  0.1204770E+005  0.1043930E+01  0.7957747E-01            NaN
         13   -1    0    0    0    0  0.00000000000E+00  0.00000000000E+00  0.74505805969E-08  0.10566000000E+00  0.10566000000E+00 0. -1.
     999900   -1    0    0    0    0 -0.00000000000E+00 -0.00000000000E+00 -0.74505805969E-08  0.93827000000E+00  0.93827000000E+00 0.  1.
     999903    2    1    2    0    0  0.46136358518E-01  0.34810608092E-01 -0.20568352132E-01  0.64322632665E-01  0.19339130037E-01 0.  0.
         14    1    1    2    0    0  0.49409489232E-01  0.27390499326E-01  0.71104339443E-01  0.90814999681E-01  0.00000000000E+00 0. -1.
     999901    1    1    2    0    0 -0.95545847749E-01 -0.62201107418E-01 -0.50535987311E-01  0.88879236765E+00  0.88000000000E+00 0. -1.
        -11    1    3    3    0    0  0.13811150148E-01  0.40541416096E-02  0.16101184125E-02  0.14492671765E-01  0.51100000000E-03 0. -1.
         11    1    3    3    0    0  0.32325208370E-01  0.30756466482E-01 -0.22178470544E-01  0.49829960900E-01  0.51100000000E-03 0.  1.
</event>
<event>
 7    1  0.1204770E+005  0.1043930E+01  0.7957747E-01            NaN
         13   -1    0    0    0    0  0.00000000000E+00  0.00000000000E+00  0.74505805969E-08  0.10566000000E+00  0.10566000000E+00 0. -1.
     999900   -1    0    0    0    0 -0.00000000000E+00 -0.00000000000E+00 -0.74505805969E-08  0.93827000000E+00  0.93827000000E+00 0.  1.
     999903    2    1    2    0    0 -0.96750713976E-01 -0.96567412112E-02  0.41575152521E-01  0.10801723973E+00  0.22029014184E-01 0.  0.
         14    1    1    2    0    0 -0.33706885371E-01  0.56386876914E-02  0.27133555626E-01  0.43636896787E-01  0.00000000000E+00 0. -1.
     999901    1    1    2    0    0  0.13045759935E+00  0.40180535198E-02 -0.68708708146E-01  0.89227586348E+00  0.88000000000E+00 0.  1.
        -11    1    3    3    0    0 -0.47367551895E-01  0.33842447281E-02  0.28137145349E-01  0.55200526757E-01  0.51100000000E-03 0.  1.
         11    1    3    3    0    0 -0.49383162081E-01 -0.13040985939E-01  0.13438007171E-01  0.52816712972E-01  0.51100000000E-03 0. -1.
</event>
<event>
 8    1  0.1204770E+005  0.1043930E+01  0.7957747E-01            NaN
         13   -1    0    0    0    0  0.00000000000E+00  0.00000000000E+00  0.74505805969E-08  0.10566000000E+00  0.10566000000E+00 0. -1.
     999900   -1    0    0    0    0 -0.00000000000E+00 -0.00000000000E+00 -0.74505805969E-08  0.93827000000E+00  0.93827000000E+00 0.  1.
     999902    2    1    2    0    0  0.21867197036E-01  0.12781653513E-01 -0.11925678207E-02  0.10185732023E+01  0.10182575319E+01 0.  0.
     999903    2    3    3    0    0  0.16874171169E-01 -0.19266449551E-02 -0.12641794694E+00  0.12957226869E+00  0.22782139727E-01 0.  0.
         14    1    1    2    0    0 -0.21867197036E-01 -0.12781653513E-01  0.11925678207E-02  0.25356797723E-01  0.00000000000E+00 0.  1.
     999901    1    3    3    0    0  0.49930258673E-02  0.14708298468E-01  0.12522537912E+00  0.88900093359E+00  0.88000000000E+00 0. -1.
        -11    1    4    4    0    0  0.47868327118E-02  0.10190412092E-01 -0.47645917341E-01  0.48960727387E-01  0.51100000000E-03 0.  1.
         11    1    4    4    0    0  0.12087338457E-01 -0.12117057047E-01 -0.78772029598E-01  0.80611541298E-01  0.51100000000E-03 0. -1.
</event>
<event>
 8    1  0.1204770E+005  0.1043930E+01  0.7957747E-01            NaN
         13   -1    0    0    0    0  0.00000000000E+00  0.00000000000E+00  0.74505805969E-08  0.10566000000E+00  0.10566000000E+00 0. -1.
     999900   -1    0    0    0    0 -0.00000000000E+00 -0.00000000000E+00 -0.74505805969E-08  0.93827000000E+00  0.93827000000E+00 0. -1.
     999902    2    1    2    0    0  0.68555563063E-02  0.16832668398E-01 -0.13634079800E-01  0.10212094034E+01  0.10209566201E+01 0.  0.
     999903    2    3    3    0    0  0.96942593333E-02 -0.66924674241E-01 -0.11168406942E+00  0.13180670994E+00  0.18077243574E-01 0.  0.
         14    1    1    2    0    0 -0.68555563063E-02 -0.16832668398E-01  0.13634079800E-01  0.22720596596E-01  0.00000000000E+00 0. -1.
     999901    1    3    3    0    0 -0.28387030271E-02  0.83757342639E-01  0.98049989624E-01  0.88940269347E+00  0.88000000000E+00 0.  1.
        -11    1    4    4    0    0  0.13508817613E-01 -0.61836447366E-01 -0.97370906019E-01  0.11613607896E+00  0.51100000000E-03 0.  1.
         11    1    4    4    0    0 -0.38145582793E-02 -0.50882268748E-02 -0.14313163405E-01  0.15670630978E-01  0.51100000000E-03 0. -1.
</event>
<event>
 8    1  0.1204770E+005  0.1043930E+01  0.7957747E-01            NaN
         13   -1    0    0    0    0  0.00000000000E+00  0.00000000000E+00  0.74505805969E-08  0.10566000000E+00  0.10566000000E+00 0.  1.
     999900   -1    0    0    0    0 -0.00000000000E+00 -0.00000000000E+00 -0.74505805969E-08  0.93827000000E+00  0.93827000000E+00 0. -1.
     999902    2    1    2    0    0 -0.21382272268E-02  0.21194632863E-01 -0.18913358640E-01  0.10154431677E+01  0.10150435100E+01 0.  0.
     999903    2    3    3    0    0 -0.33363554473E-01  0.10775913567E+00  0.55765906741E-01  0.12749867234E+00  0.20516262030E-01 0.  0.
         14    1    1    2    0    0  0.21382272268E-02 -0.21194632863E-01  0.18913358640E-01  0.28486832272E-01  0.00000000000E+00 0.  1.
     999901    1    3    3    0    0  0.31225327246E-01 -0.86564502804E-01 -0.74679265381E-01  0.88794449539E+00  0.88000000000E+00 0. -1.
        -11    1    4    4    0    0 -0.26336046648E-01  0.52945204485E-01  0.24570405072E-01  0.64037082674E-01  0.51100000000E-03 0.  1.
         11    1    4    4    0    0 -0.70275078250E-02  0.54813931182E-01  0.31195501669E-01  0.63461589669E-01  0.51100000000E-03 0. -1.
</event>
<event>
 8    1  0.1204770E+005  0.1043930E+01  0.7957747E-01            NaN
         13   -1    0    0    0    0  0.00000000000E+00  0.00000000000E+00  0.74505805969E-08  0.10566000000E+00  0.10566000000E+00 0.  1.
     999900   -1    0    0    0    0 -0.00000000000E+00 -0.00000000000E+00 -0.74505805969E-08  0.93827000000E+00  0.93827000000E+00 0. -1.
     999902    2    1    2    0    0  0.10988831335E-01  0.19740281798E-01 -0.78294651918E-02  0.10200190472E+01  0.10197387523E+01 0.  0.
     999903    2    3    3    0    0  0.56853257096E-01  0.58222360752E-01 -0.10313141004E+00  0.13285115064E+00  0.19778886647E-01 0.  0.
         14    1    1    2    0    0 -0.10988831335E-01 -0.19740281798E-01  0.78294651918E-02  0.23910952820E-01  0.00000000000E+00 0.  1.
     999901    1    3    3    0    0 -0.45864425761E-01 -0.38482078954E-01  0.95301944847E-01  0.88716789654E+00  0.88000000000E+00 0.  1.
        -11    1    4    4    0    0  0.54117888007E-01  0.59572373048E-01 -0.97519396786E-01  0.12644329679E+00  0.51100000000E-03 0.  1.
         11    1    4    4    0    0  0.27353690896E-02 -0.13500122963E-02 -0.56120132537E-02  0.64078538542E-02  0.51100000000E-03 0. -1.
</event>
<event>
 8    1  0.1204770E+005  0.1043930E+01  0.7957747E-01            NaN
         13   -1    0    0    0    0  0.00000000000E+00  0.00000000000E+00  0.74505805969E-08  0.10566000000E+00  0.10566000000E+00 0. -1.
     999900   -1    0    0    0    0 -0.00000000000E+00 -0.00000000000E+00 -0.74505805969E-08  0.93827000000E+00  0.93827000000E+00 0. -1.
     999902    2    1    2    0    0  0.88375041094E-02 -0.23733875801E-01 -0.18652180326E-02  0.10185355640E+01  0.10182189440E+01 0.  0.
     999903    2    3    3    0    0 -0.39492398390E-01  0.59734823131E-01  0.10301646552E+00  0.12707442034E+00  0.20189539656E-01 0.  0.
         14    1    1    2    0    0 -0.88375041094E-02  0.23733875801E-01  0.18652180326E-02  0.25394435960E-01  0.00000000000E+00 0.  1.
     999901    1    3    3    0    0  0.48329902500E-01 -0.83468698932E-01 -0.10488168356E+00  0.89146114370E+00  0.88000000000E+00 0. -1.
        -11    1    4    4    0    0 -0.22408643310E-01  0.18103423446E-01  0.48153011289E-01  0.56114658091E-01  0.51100000000E-03 0. -1.
         11    1    4    4    0    0 -0.17083755080E-01  0.41631399685E-01  0.54863454234E-01  0.70959762252E-01  0.51100000000E-03 0.  1.
</event>
<event>
 8    1  0.1204770E+005  0.1043930E+01  0.7957747E-01            NaN
         13   -1    0    0    0    0  0.00000000000E+00  0.00000000000E+00  0.74505805969E-08  0.10566000000E+00  0.10566000000E+00 0. -1.
     999900   -1    0    0    0    0 -0.00000000000E+00 -0.00000000000E+00 -0.74505805969E-08  0.93827000000E+00  0.93827000000E+00 0. -1.
     999902    2    1    2    0    0  0.65218761106E-02  0.22450216761E-01 -0.15029077806E-02  0.10205033948E+01  0.10202344696E+01 0.  0.
     999903    2    3    3    0    0  0.12694068964E+00  0.31739367424E-01  0.48922393856E-02  0.13223098336E+00  0.18432927663E-01 0.  0.
         14    1    1    2    0    0 -0.65218761106E-02 -0.22450216761E-01  0.15029077806E-02  0.23426605226E-01  0.00000000000E+00 0. -1.
     999901    1    3    3    0    0 -0.12041881353E+00 -0.92891506626E-02 -0.63951471662E-02  0.88827241141E+00  0.88000000000E+00 0.  1.
        -11    1    4    4    0    0  0.93761768150E-01  0.19434404277E-01 -0.36432882727E-02  0.95825361500E-01  0.51100000000E-03 0. -1.
         11    1    4    4    0    0  0.33178921494E-01  0.12304963147E-01  0.85355276584E-02  0.36405621859E-01  0.51100000000E-03 0.  1.
</event>
<event>
 8    1  0.1204770E+005  0.1043930E+01  0.7957747E-01            NaN
         13   -1    0    0    0    0  0.00000000000E+00  0.00000000000E+00  0.74505805969E-08  0.10566000000E+00  0.10566000000E+00 0. -1.
     999900   -1    0    0    0    0 -0.00000000000E+00 -0.00000000000E+00 -0.74505805969E-08  0.93827000000E+00  0.93827000000E+00 0.  1.
     999902    2    1    2    0    0 -0.19877655560E-01  0.91645197038E-02 -0.94241131191E-02  0.10200988540E+01  0.10198204491E+01 0.  0.
     999903    2    3    3    0    0 -0.40856596729E-01 -0.87354879351E-01 -0.86737531119E-01  0.13120432990E+00  0.19774742377E-01 0.  0.
         14    1    1    2    0    0  0.19877655560E-01 -0.91645197038E-02  0.94241131191E-02  0.23831146008E-01  0.00000000000E+00 0. -1.
     999901    1    3    3    0    0  0.20978941170E-01  0.96519399054E-01  0.77313418000E-01  0.88889452410E+00  0.88000000000E+00 0. -1.
        -11    1    4    4    0    0 -0.23147731652E-01 -0.50845041643E-01 -0.62944633324E-01  0.84162484074E-01  0.51100000000E-03 0. -1.
         11    1    4    4    0    0 -0.17708865078E-01 -0.36509837708E-01 -0.23792897795E-01  0.47041845821E-01  0.51100000000E-03 0.  1.
</event>
<event>
 8    1  0.1204770E+005  0.1043930E+01  0.7957747E-01            NaN
         13   -1    0    0    0    0  0.00000000000E+00  0.00000000000E+00  0.74505805969E-08  0.10566000000E+00  0.10566000000E+00 0.  1.
     999900   -1    0    0    0    0 -0.00000000000E+00 -0.00000000000E+00 -0.74505805969E-08  0.93827000000E+00  0.93827000000E+00 0.  1.
     999902    2    1    2    0    0  0.12118776241E-01  0.42494908744E-02  0.19546439383E-01  0.10205422638E+01  0.10202742406E+01 0.  0.
     999903    2    3    3    0    0  0.17058607969E-02  0.62328928926E-01 -0.11086834762E+00  0.12897641287E+00  0.21338210609E-01 0.  0.
         14    1    1    2    0    0 -0.12118776241E-01 -0.42494908744E-02 -0.19546439383E-01  0.23387736163E-01  0.00000000000E+00 0. -1.
     999901    1    3    3    0    0  0.10412915444E-01 -0.58079438052E-01  0.13041478700E+00  0.89156585096E+00  0.88000000000E+00 0. -1.
        -11    1    4    4    0    0  0.16770319181E-02  0.38162503948E-01 -0.46265466029E-01  0.59999530094E-01  0.51100000000E-03 0. -1.
         11    1    4    4    0    0  0.28828878824E-04  0.24166424978E-01 -0.64602881591E-01  0.68976882781E-01  0.51100000000E-03 0.  1.
</event>
<event>
 8    1  0.1204770E+005  0.1043930E+01  0.7957747E-01            NaN
         13   -1    0    0    0    0  0.00000000000E+00  0.00000000000E+00  0.74505805969E-08  0.10566000000E+00  0.10566000000E+00 0.  1.
     999900   -1    0    0    0    0 -0.00000000000E+00 -0.00000000000E+00 -0.74505805969E-08  0.93827000000E+00  0.93827000000E+00 0. -1.
     999902    2    1    2    0    0 -0.19203023771E-01 -0.19092241060E-01 -0.44697221661E-02  0.10164846323E+01  0.10161140485E+01 0.  0.
     999903    2    3    3    0    0 -0.49237836599E-01 -0.72022102256E-01 -0.93842548997E-01  0.12986681028E+00  0.21152225510E-01 0.  0.
         14    1    1    2    0    0  0.19203023771E-01  0.19092241060E-01  0.44697221661E-02  0.27445367676E-01  0.00000000000E+00 0.  1.
     999901    1    3    3    0    0  0.30034812828E-01  0.52929861196E-01  0.89372826831E-01  0.88661782204E+00  0.88000000000E+00 0.  1.
        -11    1    4    4    0    0 -0.23192899373E-01 -0.16877583306E-01 -0.27263651059E-01  0.39576902224E-01  0.51100000000E-03 0. -1.
         11    1    4    4    0    0 -0.26044937226E-01 -0.55144518950E-01 -0.66578897938E-01  0.90289908057E-01  0.51100000000E-03 0.  1.
</event>
<event>
 8    1  0.1204770E+005  0.1043930E+01  0.7957747E-01            NaN
         13   -1    0    0    0    0  0.00000000000E+00  0.00000000000E+00  0.74505805969E-08  0.10566000000E+00  0.10566000000E+00 0.  1.
     999900   -1    0    0    0    0 -0.00000000000E+00 -0.00000000000E+00 -0.74505805969E-08  0.93827000000E+00  0.93827000000E+00 0.  1.
     999902    2    1    2    0    0 -0.55704909426E-02 -0.10761676606E-01  0.23703005866E-01  0.10173090207E+01  0.10169606517E+01 0.  0.
     999903    2    3    3    0    0  0.38110877189E-01 -0.17296536585E-01 -0.11597678321E+00  0.12519848393E+00  0.21735615831E-01 0.  0.
         14    1    1    2    0    0  0.55704909426E-02  0.10761676606E-01 -0.23703005866E-01  0.26620979317E-01  0.00000000000E+00 0. -1.
     999901    1    3    3    0    0 -0.43681368132E-01  0.65348599791E-02  0.13967978908E+00  0.89211053676E+00  0.88000000000E+00 0. -1.
        -11    1    4    4    0    0  0.13586419980E-01 -0.11044389749E-01 -0.75119954143E-01  0.77135192903E-01  0.51100000000E-03 0.  1.
         11    1    4    4    0    0  0.24524457209E-01 -0.62521468364E-02 -0.40856829067E-01  0.48063291022E-01  0.51100000000E-03 0. -1.
</event>
<event>
 8    1  0.1204770E+005  0.1043930E+01  0.7957747E-01            NaN
         13   -1    0    0    0    0  0.00000000000E+00  0.00000000000E+00  0.74505805969E-08  0.10566000000E+00  0.10566000000E+00 0. -1.
     999900   -1    0    0    0    0 -0.00000000000E+00 -0.00000000000E+00 -0.74505805969E-08  0.93827000000E+00  0.93827000000E+00 0. -1.
     999902    2    1    2    0    0 -0.25029631548E-01 -0.49606691430E-03  0.10211938836E-01  0.10168927621E+01  0.10165332643E+01 0.  0.
     999903    2    3    3    0    0 -0.10027703340E+00 -0.67660083905E-01  0.44400323084E-01  0.13047185629E+00  0.20448623694E-01 0.  0.
         14    1    1    2    0    0  0.25029631548E-01  0.49606691430E-03 -0.10211938836E-01  0.27037237888E-01  0.00000000000E+00 0.  1.
     999901    1    3    3    0    0  0.75247401857E-01  0.67164016991E-01 -0.34188384248E-01  0.88642090582E+00  0.88000000000E+00 0. -1.
        -11    1    4    4    0    0 -0.71713143517E-01 -0.44125298397E-01  0.39924227451E-01  0.93188099939E-01  0.51100000000E-03 0.  1.
         11    1    4    4    0    0 -0.28563889887E-01 -0.23534785508E-01  0.44760956332E-02  0.37283756349E-01  0.51100000000E-03 0. -1.
</event>
<event>
 8    1  0.1204770E+005  0.1043930E+01  0.7957747E-01            NaN
         13   -1    0    0    0    0  0.00000000000E+00  0.00000000000E+00  0.74505805969E-08  0.10566000000E+00  0.10566000000E+00 0. -1.
     999900   -1    0    0    0    0 -0.00000000000E+00 -0.00000000000E+00 -0.74505805969E-08  0.93827000000E+00  0.93827000000E+00 0. -1.
     999902    2    1    2    0    0 -0.52341530949E-02 -0.27050673680E-01 -0.16899707314E-02  0.10163258100E+01  0.10159508653E+01 0.  0.
     999903    2    3    3    0    0  0.79078174954E-01  0.63712484029E-01 -0.72029883381E-01  0.12486957283E+00  0.95638770024E-02 0.  0.
         14    1    1    2    0    0  0.52341530949E-02  0.27050673680E-01  0.16899707314E-02  0.27604190012E-01  0.00000000000E+00 0.  1.
     999901    1    3    3    0    0 -0.84312328049E-01 -0.90763157709E-01  0.70339912649E-01  0.89145623716E+00  0.88000000000E+00 0. -1.
        -11    1    4    4    0    0  0.57350173918E-01  0.48862055525E-01 -0.48847275906E-01  0.89793431848E-01  0.51100000000E-03 0.  1.
         11    1    4    4    0    0  0.21728001036E-01  0.14850428504E-01 -0.23182607475E-01  0.35076140981E-01  0.51100000000E-03 0. -1.
</event>
<event>
 8    1  0.1204770E+005  0.1043930E+01  0.7957747E-01            NaN
         13   -1    0    0    0    0  0.00000000000E+00  0.00000000000E+00  0.74505805969E-08  0.10566000000E+00  0.10566000000E+00 0.  1.
     999900   -1    0    0    0    0 -0.00000000000E+00 -0.00000000000E+00 -0.74505805969E-08  0.93827000000E+00  0.93827000000E+00 0. -1.
     999902    2    1    2    0    0 -0.32484126335E-02  0.11188013405E-01 -0.20415101400E-01  0.10204246773E+01  0.10201539207E+01 0.  0.
     999903    2    3    3    0    0  0.96047028226E-01  0.74822617578E-01  0.42030763791E-01  0.13036376172E+00  0.20116399576E-01 0.  0.
         14    1    1    2    0    0  0.32484126335E-02 -0.11188013405E-01  0.20415101400E-01  0.23505322669E-01  0.00000000000E+00 0.  1.
     999901    1    3    3    0    0 -0.99295440860E-01 -0.63634604173E-01 -0.62445865191E-01  0.89006091561E+00  0.88000000000E+00 0.  1.
        -11    1    4    4    0    0  0.81094475976E-01  0.58928362343E-01  0.26859962015E-01  0.10378142706E+00  0.51100000000E-03 0.  1.
         11    1    4    4    0    0  0.14952552250E-01  0.15894255235E-01  0.15170801777E-01  0.26582334657E-01  0.51100000000E-03 0. -1.
</event>
<event>
 8    1  0.1204770E+005  0.1043930E+01  0.7957747E-01            NaN
         13   -1    0    0    0    0  0.00000000000E+00  0.00000000000E+00  0.74505805969E-08  0.10566000000E+00  0.10566000000E+00 0. -1.
     999900   -1    0    0    0    0 -0.00000000000E+00 -0.00000000000E+00 -0.74505805969E-08  0.93827000000E+00  0.93827000000E+00 0. -1.
     999902    2    1    2    0    0  0.15334461748E-01  0.79424355833E-02  0.34239364296E-02  0.10263245650E+01  0.10261735533E+01 0.  0.
     999903    2    3    3    0    0  0.12875578410E+00  0.39966610909E-01 -0.22151432146E-01  0.13809934378E+00  0.20133575954E-01 0.  0.
         14    1    1    2    0    0 -0.15334461748E-01 -0.79424355833E-02 -0.34239364296E-02  0.17605434979E-01  0.00000000000E+00 0.  1.
     999901    1    3    3    0    0 -0.11342132235E+00 -0.32024175326E-01  0.25575368576E-01  0.88822522124E+00  0.88000000000E+00 0. -1.
        -11    1    4    4    0    0  0.79358366690E-01  0.22416946540E-01 -0.37910577006E-02  0.82552426345E-01  0.51100000000E-03 0.  1.
         11    1    4    4    0    0  0.49397417408E-01  0.17549664369E-01 -0.18360374446E-01  0.55546917437E-01  0.51100000000E-03 0. -1.
</event>
<event>
 8    1  0.1204770E+005  0.1043930E+01  0.7957747E-01            NaN
         13   -1    0    0    0    0  0.00000000000E+00  0.00000000000E+00  0.74505805969E-08  0.10566000000E+00  0.10566000000E+00 0. -1.
     999900   -1    0    0    0    0 -0.00000000000E+00 -0.00000000000E+00 -0.74505805969E-08  0.93827000000E+00  0.93827000000E+00 0. -1.
     999902    2    1    2    0    0 -0.17260088003E-01  0.29727160850E-03  0.15993054600E-01  0.10203975372E+01  0.10201261477E+01 0.  0.
     999903    2    3    3    0    0 -0.35333279807E-01 -0.11955896897E+00  0.35744436598E-01  0.13186938588E+00  0.23855449291E-01 0.  0.
         14    1    1    2    0    0  0.17260088003E-01 -0.29727160850E-03 -0.15993054600E-01  0.23532462764E-01  0.00000000000E+00 0.  1.
     999901    1    3    3    0    0  0.18073191804E-01  0.11985624058E+00 -0.19751381998E-01  0.88852815136E+00  0.88000000000E+00 0. -1.
        -11    1    4    4    0    0 -0.25813878840E-01 -0.64954405315E-01  0.95016511904E-02  0.70540581278E-01  0.51100000000E-03 0.  1.
         11    1    4    4    0    0 -0.95194009668E-02 -0.54604563654E-01  0.26242785407E-01  0.61328804599E-01  0.51100000000E-03 0. -1.
</event>
<event>
 8    1  0.1204770E+005  0.1043930E+01  0.7957747E-01            NaN
         13   -1    0    0    0    0  0.00000000000E+00  0.00000000000E+00  0.74505805969E-08  0.10566000000E+00  0.10566000000E+00 0. -1.
     999900   -1    0    0    0    0 -0.00000000000E+00 -0.00000000000E+00 -0.74505805969E-08  0.93827000000E+00  0.93827000000E+00 0.  1.
     999902    2    1    2    0    0  0.21575990658E-01 -0.72648209736E-02 -0.29573276627E-02  0.10209725005E+01  0.10207143577E+01 0.  0.
     999903    2    3    3    0    0 -0.55235660535E-01  0.41196361569E-02 -0.11570517717E+00  0.13038746065E+00  0.23350637580E-01 0.  0.
         14    1    1    2    0    0 -0.21575990658E-01  0.72648209736E-02  0.29573276627E-02  0.22957499506E-01  0.00000000000E+00 0. -1.
     999901    1    3    3    0    0  0.76811651194E-01 -0.11384457131E-01  0.11274784950E+00  0.89058503984E+00  0.88000000000E+00 0. -1.
        -11    1    4    4    0    0 -0.49675301076E-01 -0.32445424682E-02 -0.10526968240E+00  0.11644797012E+00  0.51100000000E-03 0. -1.
         11    1    4    4    0    0 -0.55603594596E-02  0.73641786250E-02 -0.10435494771E-01  0.13939490531E-01  0.51100000000E-03 0.  1.
</event>
<event>
 7    1  0.1204770E+005  0.1043930E+01  0.7957747E-01            NaN
         13   -1    0    0    0    0  0.00000000000E+00  0.00000000000E+00  0.74505805969E-08  0.10566000000E+00  0.10566000000E+00 0. -1.
     999900   -1    0    0    0    0 -0.00000000000E+00 -0.00000000000E+00 -0.74505805969E-08  0.93827000000E+00  0.93827000000E+00 0. -1.
     999903    2    1    2    0    0  0.28966680291E-01  0.23871605279E-01 -0.51105178740E-01  0.67038343854E-01  0.21759553004E-01 0.  0.
         14    1    1    2    0    0  0.30025330073E-01 -0.45954355132E-01  0.76639711552E-01  0.94270719677E-01  0.00000000000E+00 0. -1.
     999901    1    1    2    0    0 -0.58992010365E-01  0.22082749853E-01 -0.25534532812E-01  0.88262093647E+00  0.88000000000E+00 0. -1.
        -11    1    3    3    0    0  0.73481146237E-02  0.82124836606E-02 -0.32959745707E-01  0.34756950880E-01  0.51100000000E-03 0.  1.
         11    1    3    3    0    0  0.21618565668E-01  0.15659121618E-01 -0.18145433033E-01  0.32281392974E-01  0.51100000000E-03 0. -1.
</event>
<event>
 8    1  0.1204770E+005  0.1043930E+01  0.7957747E-01            NaN
         13   -1    0    0    0    0  0.00000000000E+00  0.00000000000E+00  0.74505805969E-08  0.10566000000E+00  0.10566000000E+00 0. -1.
     999900   -1    0    0    0    0 -0.00000000000E+00 -0.00000000000E+00 -0.74505805969E-08  0.93827000000E+00  0.93827000000E+00 0.  1.
     999902    2    1    2    0    0 -0.21205483744E-01 -0.16443960821E-02  0.11652218393E-01  0.10196781800E+01  0.10193897390E+01 0.  0.
     999903    2    3    3    0    0  0.80693048655E-01  0.30910019795E-01 -0.91483832244E-01  0.12722081641E+00  0.18682803374E-01 0.  0.
         14    1    1    2    0    0  0.21205483744E-01  0.16443960821E-02 -0.11652218393E-01  0.24251819989E-01  0.00000000000E+00 0.  1.
     999901    1    3    3    0    0 -0.10189853240E+00 -0.32554415878E-01  0.10313605064E+00  0.89245736360E+00  0.88000000000E+00 0. -1.
        -11    1    4    4    0    0  0.40084426958E-01  0.24466416238E-01 -0.54177954551E-01  0.71699921119E-01  0.51100000000E-03 0. -1.
         11    1    4    4    0    0  0.40608621696E-01  0.64436035575E-02 -0.37305877693E-01  0.55520895295E-01  0.51100000000E-03 0.  1.
</event>
<event>
 8    1  0.1204770E+005  0.1043930E+01  0.7957747E-01            NaN
         13   -1    0    0    0    0  0.00000000000E+00  0.00000000000E+00  0.74505805969E-08  0.10566000000E+00  0.10566000000E+00 0. -1.
     999900   -1    0    0    0    0 -0.00000000000E+00 -0.00000000000E+00 -0.74505805969E-08  0.93827000000E+00  0.93827000000E+00 0.  1.
     999902    2    1    2    0    0 -0.43553209017E-02 -0.18875583040E-01  0.14090827234E-01  0.10199757130E+01  0.10196943891E+01 0.  0.
     999903    2    3    3    0    0 -0.75429558666E-01 -0.61480614669E-01 -0.85462494962E-01  0.13049406619E+00  0.15980580847E-01 0.  0.
         14    1    1    2    0    0  0.43553209017E-02  0.18875583040E-01 -0.14090827234E-01  0.23954287035E-01  0.00000000000E+00 0.  1.
     999901    1    3    3    0    0  0.71074237764E-01  0.42605031629E-01  0.99553322196E-01  0.88948164678E+00  0.88000000000E+00 0. -1.
        -11    1    4    4    0    0 -0.52558875798E-01 -0.50330040567E-01 -0.68261732746E-01  0.99777120058E-01  0.51100000000E-03 0. -1.
         11    1    4    4    0    0 -0.22870682868E-01 -0.11150574102E-01 -0.17200762216E-01  0.30716946129E-01  0.51100000000E-03 0.  1.
</event>
<event>
 8    1  0.1204770E+005  0.1043930E+01  0.7957747E-01            NaN
         13   -1    0    0    0    0  0.00000000000E+00  0.00000000000E+00  0.74505805969E-08  0.10566000000E+00  0.10566000000E+00 0.  1.
     999900   -1    0    0    0    0 -0.00000000000E+00 -0.00000000000E+00 -0.74505805969E-08  0.93827000000E+00  0.93827000000E+00 0. -1.
     999902    2    1    2    0    0 -0.15894613351E-01 -0.16858948701E-01 -0.41029967074E-02  0.10203992230E+01  0.10201278728E+01 0.  0.
     999903    2    3    3    0    0  0.59951775360E-01 -0.83459503207E-01 -0.79459868448E-01  0.13142961346E+00  0.20004213464E-01 0.  0.
         14    1    1    2    0    0  0.15894613351E-01  0.16858948701E-01  0.41029967074E-02  0.23530777014E-01  0.00000000000E+00 0. -1.
     999901    1    3    3    0    0 -0.75846388712E-01  0.66600554506E-01  0.75356871740E-01  0.88896960953E+00  0.88000000000E+00 0.  1.
        -11    1    4    4    0    0  0.18048735816E-01 -0.11602834574E-01 -0.17841471331E-01  0.27909888122E-01  0.51100000000E-03 0.  1.
         11    1    4    4    0    0  0.41903039544E-01 -0.71856668632E-01 -0.61618397117E-01  0.10351972534E+00  0.51100000000E-03 0. -1.
</event>
<event>
 8    1  0.1204770E+005  0.1043930E+01  0.7957747E-01            NaN
         13   -1    0    0    0    0  0.00000000000E+00  0.00000000000E+00  0.74505805969E-08  0.10566000000E+00  0.10566000000E+00 0. -1.
     999900   -1    0    0    0    0 -0.00000000000E+00 -0.00000000000E+00 -0.74505805969E-08  0.93827000000E+00  0.93827000000E+00 0. -1.
     999902    2    1    2    0    0 -0.35992857202E-02 -0.81234464156E-02 -0.21976168671E-01  0.10202256285E+01  0.10199502124E+01 0.  0.
     999903    2    3    3    0    0 -0.74210268056E-01  0.81016603574E-01  0.64373205897E-01  0.12871675370E+00  0.18794656306E-01 0.  0.
         14    1    1    2    0    0  0.35992857202E-02  0.81234464156E-02  0.21976168671E-01  0.23704371513E-01  0.00000000000E+00 0. -1.
     999901    1    3    3    0    0  0.70610982336E-01 -0.89140049990E-01 -0.86349374568E-01  0.89150887479E+00  0.88000000000E+00 0.  1.
        -11    1    4    4    0    0 -0.48827149768E-01  0.40298035821E-01  0.40097467248E-01  0.74940578102E-01  0.51100000000E-03 0. -1.
         11    1    4    4    0    0 -0.25383118288E-01  0.40718567753E-01  0.24275738649E-01  0.53776175597E-01  0.51100000000E-03 0.  1.
</event>
<event>
 8    1  0.1204770E+005  0.1043930E+01  0.7957747E-01            NaN
         13   -1    0    0    0    0  0.00000000000E+00  0.00000000000E+00  0.74505805969E-08  0.10566000000E+00  0.10566000000E+00 0. -1.
     999900   -1    0    0    0    0 -0.00000000000E+00 -0.00000000000E+00 -0.74505805969E-08  0.93827000000E+00  0.93827000000E+00 0.  1.
     999902    2    1    2    0    0 -0.20509036112E-01 -0.29676901079E-02 -0.97164020534E-02  0.10210425315E+01  0.10207859790E+01 0.  0.
     999903    2    3    3    0    0  0.39824074308E-01  0.46824421294E-01  0.11193940385E+00  0.12923567252E+00  0.19822855319E-01 0.  0.
         14    1    1    2    0    0  0.20509036112E-01  0.29676901079E-02  0.97164020534E-02  0.22887468529E-01  0.00000000000E+00 0. -1.
     999901    1    3    3    0    0 -0.60333110420E-01 -0.49792111402E-01 -0.12165580590E+00  0.89180685896E+00  0.88000000000E+00 0.  1.
        -11    1    4    4    0    0  0.82947118055E-02  0.23768175273E-01  0.37497149371E-01  0.45166644017E-01  0.51100000000E-03 0.  1.
         11    1    4    4    0    0  0.31529362503E-01  0.23056246021E-01  0.74442254475E-01  0.84069028498E-01  0.51100000000E-03 0. -1.
</event>
<event>
 8    1  0.1204770E+005  0.1043930E+01  0.7957747E-01            NaN
         13   -1    0    0    0    0  0.00000000000E+00  0.00000000000E+00  0.74505805969E-08  0.10566000000E+00  0.10566000000E+00 0. -1.
     999900   -1    0    0    0    0 -0.00000000000E+00 -0.00000000000E+00 -0.74505805969E-08  0.93827000000E+00  0.93827000000E+00 0.  1.
     999902    2    1    2    0    0  0.47133446217E-02 -0.12439302350E-01 -0.18748036818E-01  0.10209421609E+01  0.10206833276E+01 0.  0.
     999903    2    3    3    0    0 -0.13424066513E-02 -0.10307090416E+00  0.78093869078E-01  0.13098198536E+00  0.20789775386E-01 0.  0.
         14    1    1    2    0    0 -0.47133446217E-02  0.12439302350E-01  0.18748036818E-01  0.22987839068E-01  0.00000000000E+00 0. -1.
     999901    1    3    3    0    0  0.60557512730E-02  0.90631601811E-01 -0.96841905896E-01  0.88996017557E+00  0.88000000000E+00 0.  1.
        -11    1    4    4    0    0 -0.92246976063E-02 -0.26384479625E-01  0.23441441970E-01  0.36482847115E-01  0.51100000000E-03 0. -1.
         11    1    4    4    0    0  0.78822909551E-02 -0.76686424536E-01  0.54652427108E-01  0.94499138243E-01  0.51100000000E-03 0.  1.
</event>
<event>
 8    1  0.1204770E+005  0.1043930E+01  0.7957747E-01            NaN
         13   -1    0    0    0    0  0.00000000000E+00  0.00000000000E+00  0.74505805969E-08  0.10566000000E+00  0.10566000000E+00 0. -1.
     999900   -1    0    0    0    0 -0.00000000000E+00 -0.00000000000E+00 -0.74505805969E-08  0.93827000000E+00  0.93827000000E+00 0. -1.
     999902    2    1    2    0    0 -0.21465971777E-01 -0.91543441737E-02 -0.80903935008E-02  0.10192309225E+01  0.10189316115E+01 0.  0.
     999903    2    3    3    0    0 -0.10191891740E-01  0.12428409487E+00  0.23853144044E-01  0.12852709324E+00  0.19995757591E-01 0.  0.
         14    1    1    2    0    0  0.21465971777E-01  0.91543441737E-02  0.80903935008E-02  0.24699077484E-01  0.00000000000E+00 0. -1.
     999901    1    3    3    0    0 -0.11274080037E-01 -0.13343843904E+00 -0.31943537545E-01  0.89070382928E+00  0.88000000000E+00 0.  1.
        -11    1    4    4    0    0 -0.14323389270E-01  0.76235069410E-01  0.20212860889E-01  0.80160876708E-01  0.51100000000E-03 0.  1.
         11    1    4    4    0    0  0.41314975301E-02  0.48049025458E-01  0.36402831552E-02  0.48366216533E-01  0.51100000000E-03 0. -1.
</event>
<event>
 8    1  0.1204770E+005  0.1043930E+01  0.7957747E-01            NaN
         13   -1    0    0    0    0  0.00000000000E+00  0.00000000000E+00  0.74505805969E-08  0.10566000000E+00  0.10566000000E+00 0. -1.
     999900   -1    0    0    0    0 -0.00000000000E+00 -0.00000000000E+00 -0.74505805969E-08  0.93827000000E+00  0.93827000000E+00 0.  1.
     999902    2    1    2    0    0 -0.27633114443E-02  0.98182183960E-03  0.25356868351E-01  0.10184041183E+01  0.10180841702E+01 0.  0.
     999903    2    3    3    0    0  0.30468928157E-01  0.89322733616E-01  0.88977951554E-01  0.13107321008E+00  0.18873373169E-01 0.  0.
         14    1    1    2    0    0  0.27633114443E-02 -0.98182183960E-03 -0.25356868351E-01  0.25525881706E-01  0.00000000000E+00 0.  1.
     999901    1    3    3    0    0 -0.33232239601E-01 -0.88340911776E-01 -0.63621083202E-01  0.88733090821E+00  0.88000000000E+00 0.  1.
        -11    1    4    4    0    0  0.29400764664E-01  0.60061327182E-01  0.59291400447E-01  0.89372810595E-01  0.51100000000E-03 0.  1.
         11    1    4    4    0    0  0.10681634929E-02  0.29261406434E-01  0.29686551107E-01  0.41700399487E-01  0.51100000000E-03 0. -1.
</event>
<event>
 8    1  0.1204770E+005  0.1043930E+01  0.7957747E-01            NaN
         13   -1    0    0    0    0  0.00000000000E+00  0.00000000000E+00  0.74505805969E-08  0.10566000000E+00  0.10566000000E+00 0. -1.
     999900   -1    0    0    0    0 -0.00000000000E+00 -0.00000000000E+00 -0.74505805969E-08  0.93827000000E+00  0.93827000000E+00 0.  1.
     999902    2    1    2    0    0  0.25397961313E-01  0.91743176359E-02  0.99971541058E-03  0.10169073433E+01  0.10165482384E+01 0.  0.
     999903    2    3    3    0    0 -0.85358208632E-01  0.29964429839E-01  0.85135315417E-01  0.12574071629E+00  0.19463169480E-01 0.  0.
         14    1    1    2    0    0 -0.25397961313E-01 -0.91743176359E-02 -0.99971541058E-03  0.27022656676E-01  0.00000000000E+00 0. -1.
     999901    1    3    3    0    0  0.11075616994E+00 -0.20790112203E-01 -0.84135600006E-01  0.89116662703E+00  0.88000000000E+00 0. -1.
        -11    1    4    4    0    0 -0.39294275347E-01  0.92630335836E-02  0.49760670193E-01  0.64079866458E-01  0.51100000000E-03 0. -1.
         11    1    4    4    0    0 -0.46063933285E-01  0.20701396256E-01  0.35374645224E-01  0.61660849835E-01  0.51100000000E-03 0.  1.
</event>
<event>
 8    1  0.1204770E+005  0.1043930E+01  0.7957747E-01            NaN
         13   -1    0    0    0    0  0.00000000000E+00  0.00000000000E+00  0.74505805969E-08  0.10566000000E+00  0.10566000000E+00 0. -1.
     999900   -1    0    0    0    0 -0.00000000000E+00 -0.00000000000E+00 -0.74505805969E-08  0.93827000000E+00  0.93827000000E+00 0. -1.
     999902    2    1    2    0    0 -0.14116164506E-01 -0.17750090280E-01  0.73077787773E-02  0.10201028005E+01  0.10198244889E+01 0.  0.
     999903    2    3    3    0    0  0.71045605536E-01  0.56760255522E-01  0.89544450133E-01  0.12905443547E+00  0.19173786586E-01 0.  0.
         14    1    1    2    0    0  0.14116164506E-01  0.17750090280E-01 -0.73077787773E-02  0.23827199499E-01  0.00000000000E+00 0.  1.
     999901    1    3    3    0    0 -0.85161770041E-01 -0.74510345802E-01 -0.82236671356E-01  0.89104836503E+00  0.88000000000E+00 0. -1.
        -11    1    4    4    0    0  0.38660455295E-01  0.19942566545E-01  0.36194145896E-01  0.56591643218E-01  0.51100000000E-03 0.  1.
         11    1    4    4    0    0  0.32385150241E-01  0.36817688978E-01  0.53350304237E-01  0.72462792252E-01  0.51100000000E-03 0. -1.
</event>
<event>
 8    1  0.1204770E+005  0.1043930E+01  0.7957747E-01            NaN
         13   -1    0    0    0    0  0.00000000000E+00  0.00000000000E+00  0.74505805969E-08  0.10566000000E+00  0.10566000000E+00 0. -1.
     999900   -1    0    0    0    0 -0.00000000000E+00 -0.00000000000E+00 -0.74505805969E-08  0.93827000000E+00  0.93827000000E+00 0. -1.
     999902    2    1    2    0    0 -0.49477168220E-02  0.22094491140E-01  0.66103971314E-02  0.10203430589E+01  0.10200703966E+01 0.  0.
     999903    2    3    3    0    0  0.92826436915E-01  0.59107318629E-01 -0.68184651314E-01  0.13100395945E+00  0.20061610344E-01 0.  0.
         14    1    1    2    0    0  0.49477168220E-02 -0.22094491140E-01 -0.66103971314E-02  0.23586941105E-01  0.00000000000E+00 0. -1.
     999901    1    3    3    0    0 -0.97774153737E-01 -0.37012827490E-01  0.74795048445E-01  0.88933909945E+00  0.88000000000E+00 0.  1.
        -11    1    4    4    0    0  0.14824871706E-01  0.54037589709E-02 -0.17582239755E-01  0.23629932457E-01  0.51100000000E-03 0. -1.
         11    1    4    4    0    0  0.78001565209E-01  0.53703559658E-01 -0.50602411558E-01  0.10737402699E+00  0.51100000000E-03 0.  1.
</event>
<event>
 8    1  0.1204770E+005  0.1043930E+01  0.7957747E-01            NaN
         13   -1    0    0    0    0  0.00000000000E+00  0.00000000000E+00  0.74505805969E-08  0.10566000000E+00  0.10566000000E+00 0. -1.
     999900   -1    0    0    0    0 -0.00000000000E+00 -0.00000000000E+00 -0.74505805969E-08  0.93827000000E+00  0.93827000000E+00 0.  1.
     999902    2    1    2    0    0  0.83176630077E-02  0.21062777954E-01 -0.42917471775E-02  0.10208812858E+01  0.10206210641E+01 0.  0.
     999903    2    3    3    0    0 -0.34559246244E-01  0.68226574719E-01  0.10527148363E+00  0.13179920036E+00  0.20969905860E-01 0.  0.
         14    1    1    2    0    0 -0.83176630077E-02 -0.21062777954E-01  0.42917471775E-02  0.23048714214E-01  0.00000000000E+00 0.  1.
     999901    1    3    3    0    0  0.42876909251E-01 -0.47163796764E-01 -0.10956323081E+00  0.88908208542E+00  0.88000000000E+00 0.  1.
        -11    1    4    4    0    0 -0.32049608908E-01  0.60981561920E-01  0.80973648084E-01  0.10631519708E+00  0.51100000000E-03 0. -1.
         11    1    4    4    0    0 -0.25096373362E-02  0.72450127982E-02  0.24297835548E-01  0.25484003283E-01  0.51100000000E-03 0.  1.
</event>
<event>
 8    1  0.1204770E+005  0.1043930E+01  0.7957747E-01            NaN
         13   -1    0    0    0    0  0.00000000000E+00  0.00000000000E+00  0.74505805969E-08  0.10566000000E+00  0.10566000000E+00 0. -1.
     999900   -1    0    0    0    0 -0.00000000000E+00 -0.00000000000E+00 -0.74505805969E-08  0.93827000000E+00  0.93827000000E+00 0. -1.
     999902    2    1    2    0    0  0.76536489300E-02 -0.33098036717E-02 -0.22907072187E-01  0.10195524058E+01  0.10192609289E+01 0.  0.
     999903    2    3    3    0    0 -0.29980382288E-01  0.60096507321E-01 -0.11190479932E+00  0.13199549157E+00  0.19741128892E-01 0.  0.
         14    1    1    2    0    0 -0.76536489300E-02  0.33098036717E-02  0.22907072187E-01  0.24377594190E-01  0.00000000000E+00 0. -1.
     999901    1    3    3    0    0  0.37634031218E-01 -0.63406310993E-01  0.88997727133E-01  0.88755691424E+00  0.88000000000E+00 0.  1.
        -11    1    4    4    0    0 -0.18579717669E-01  0.19333805278E-01 -0.33696139510E-01  0.43066145336E-01  0.51100000000E-03 0. -1.
         11    1    4    4    0    0 -0.11400664619E-01  0.40762702043E-01 -0.78208659810E-01  0.88929346235E-01  0.51100000000E-03 0.  1.
</event>
<event>
 8    1  0.1204770E+005  0.1043930E+01  0.7957747E-01            NaN
         13   -1    0    0    0    0  0.00000000000E+00  0.00000000000E+00  0.74505805969E-08  0.10566000000E+00  0.10566000000E+00 0. -1.
     999900   -1    0    0    0    0 -0.00000000000E+00 -0.00000000000E+00 -0.74505805969E-08  0.93827000000E+00  0.93827000000E+00 0. -1.
     999902    2    1    2    0    0 -0.16116693146E-01  0.11710574511E-01  0.90345390627E-02  0.10220551686E+01  0.10218210506E+01 0.  0.
     999903    2    3    3    0    0  0.37895652503E-01 -0.11001516722E+00 -0.53543669813E-01  0.12983853463E+00  0.21253305660E-01 0.  0.
         14    1    1    2    0    0  0.16116693146E-01 -0.11710574511E-01 -0.90345390627E-02  0.21874831414E-01  0.00000000000E+00 0. -1.
     999901    1    3    3    0    0 -0.54012345648E-01  0.12172574173E+00  0.62578208876E-01  0.89221663396E+00  0.88000000000E+00 0. -1.
        -11    1    4    4    0    0  0.14923936791E-01 -0.30103041982E-01 -0.25156393709E-01  0.41976449247E-01  0.51100000000E-03 0. -1.
         11    1    4    4    0    0  0.22971715712E-01 -0.79912125235E-01 -0.28387276104E-01  0.87862085383E-01  0.51100000000E-03 0.  1.
</event>
<event>
 8    1  0.1204770E+005  0.1043930E+01  0.7957747E-01            NaN
         13   -1    0    0    0    0  0.00000000000E+00  0.00000000000E+00  0.74505805969E-08  0.10566000000E+00  0.10566000000E+00 0.  1.
     999900   -1    0    0    0    0 -0.00000000000E+00 -0.00000000000E+00 -0.74505805969E-08  0.93827000000E+00  0.93827000000E+00 0. -1.
     999902    2    1    2    0    0 -0.15040124107E-01  0.30080222669E-02  0.17578108596E-01  0.10206009745E+01  0.10203343107E+01 0.  0.
     999903    2    3    3    0    0  0.12058309896E+00 -0.30071044751E-01  0.30388199853E-01  0.12950503027E+00  0.20088770170E-01 0.  0.
         14    1    1    2    0    0  0.15040124107E-01 -0.30080222669E-02 -0.17578108596E-01  0.23329025546E-01  0.00000000000E+00 0. -1.
     999901    1    3    3    0    0 -0.13562322307E+00  0.33079067017E-01 -0.12810091257E-01  0.89109594419E+00  0.88000000000E+00 0.  1.
        -11    1    4    4    0    0  0.57645648363E-01 -0.19898171159E-01  0.23583645095E-01  0.65386599756E-01  0.51100000000E-03 0. -1.
         11    1    4    4    0    0  0.62937450596E-01 -0.10172873591E-01  0.68045547584E-02  0.64118430510E-01  0.51100000000E-03 0.  1.
</event>
<event>
 8    1  0.1204770E+005  0.1043930E+01  0.7957747E-01            NaN
         13   -1    0    0    0    0  0.00000000000E+00  0.00000000000E+00  0.74505805969E-08  0.10566000000E+00  0.10566000000E+00 0.  1.
     999900   -1    0    0    0    0 -0.00000000000E+00 -0.00000000000E+00 -0.74505805969E-08  0.93827000000E+00  0.93827000000E+00 0.  1.
     999902    2    1    2    0    0  0.11524780719E-01  0.20207222655E-01  0.63180538502E-02  0.10198246018E+01  0.10195396747E+01 0.  0.
     999903    2    3    3    0    0  0.11611696234E+00 -0.47081220984E-01 -0.29732876011E-01  0.13034895365E+00  0.20174624902E-01 0.  0.
         14    1    1    2    0    0 -0.11524780719E-01 -0.20207222655E-01 -0.63180538502E-02  0.24105398202E-01  0.00000000000E+00 0. -1.
     999901    1    3    3    0    0 -0.10459218162E+00  0.67288443639E-01  0.36050929861E-01  0.88947564815E+00  0.88000000000E+00 0. -1.
        -11    1    4    4    0    0  0.41760257344E-01 -0.67492290500E-02 -0.10861593533E-01  0.43677299840E-01  0.51100000000E-03 0. -1.
         11    1    4    4    0    0  0.74356704994E-01 -0.40331991934E-01 -0.18871282478E-01  0.86671653811E-01  0.51100000000E-03 0.  1.
</event>
<event>
 8    1  0.1204770E+005  0.1043930E+01  0.7957747E-01            NaN
         13   -1    0    0    0    0  0.00000000000E+00  0.00000000000E+00  0.74505805969E-08  0.10566000000E+00  0.10566000000E+00 0. -1.
     999900   -1    0    0    0    0 -0.00000000000E+00 -0.00000000000E+00 -0.74505805969E-08  0.93827000000E+00  0.93827000000E+00 0. -1.
     999902    2    1    2    0    0  0.15414726326E-01  0.61148107201E-02  0.16744886588E-01  0.10203631605E+01  0.10200909682E+01 0.  0.
     999903    2    3    3    0    0  0.12821278032E-01  0.67518860967E-01  0.11220061320E+00  0.13307009779E+00  0.19886969792E-01 0.  0.
         14    1    1    2    0    0 -0.15414726326E-01 -0.61148107201E-02 -0.16744886588E-01  0.23566839514E-01  0.00000000000E+00 0.  1.
     999901    1    3    3    0    0  0.25934482942E-02 -0.61404050247E-01 -0.95455726611E-01  0.88729306269E+00  0.88000000000E+00 0. -1.
        -11    1    4    4    0    0 -0.13355274100E-02  0.31254775178E-01  0.62887582418E-01  0.70240684423E-01  0.51100000000E-03 0.  1.
         11    1    4    4    0    0  0.14156805442E-01  0.36264085789E-01  0.49313030781E-01  0.62829413369E-01  0.51100000000E-03 0. -1.
</event>
<event>
 8    1  0.1204770E+005  0.1043930E+01  0.7957747E-01            NaN
         13   -1    0    0    0    0  0.00000000000E+00  0.00000000000E+00  0.74505805969E-08  0.10566000000E+00  0.10566000000E+00 0. -1.
     999900   -1    0    0    0    0 -0.00000000000E+00 -0.00000000000E+00 -0.74505805969E-08  0.93827000000E+00  0.93827000000E+00 0.  1.
     999902    2    1    2    0    0  0.54154269235E-02 -0.21564110503E-01  0.77265388091E-02  0.10203920070E+01  0.10201204884E+01 0.  0.
     999903    2    3    3    0    0 -0.87430797836E-01 -0.90880526640E-01 -0.32938580661E-01  0.13186578968E+00  0.20005545717E-01 0.  0.
         14    1    1    2    0    0 -0.54154269235E-02  0.21564110503E-01 -0.77265388091E-02  0.23537992958E-01  0.00000000000E+00 0.  1.
     999901    1    3    3    0    0  0.92846224759E-01  0.69316416137E-01  0.40665119470E-01  0.88852621736E+00  0.88000000000E+00 0. -1.
        -11    1    4    4    0    0 -0.33653081871E-01 -0.24647291537E-01 -0.46238467098E-02  0.41972133361E-01  0.51100000000E-03 0.  1.
         11    1    4    4    0    0 -0.53777715965E-01 -0.66233235103E-01 -0.28314733951E-01  0.89893656319E-01  0.51100000000E-03 0. -1.
</event>
<event>
 8    1  0.1204770E+005  0.1043930E+01  0.7957747E-01            NaN
         13   -1    0    0    0    0  0.00000000000E+00  0.00000000000E+00  0.74505805969E-08  0.10566000000E+00  0.10566000000E+00 0. -1.
     999900   -1    0    0    0    0 -0.00000000000E+00 -0.00000000000E+00 -0.74505805969E-08  0.93827000000E+00  0.93827000000E+00 0. -1.
     999902    2    1    2    0    0 -0.16138619639E-01 -0.13045603095E-01  0.11012313211E-01  0.10204371533E+01  0.10201666874E+01 0.  0.
     999903    2    3    3    0    0 -0.27212290273E-01 -0.12195016351E+00 -0.38239520633E-01  0.13228819473E+00  0.20628970051E-01 0.  0.
         14    1    1    2    0    0  0.16138619639E-01  0.13045603095E-01 -0.11012313211E-01  0.23492846703E-01  0.00000000000E+00 0.  1.
     999901    1    3    3    0    0  0.11073670634E-01  0.10890456042E+00  0.49251833844E-01  0.88814895856E+00  0.88000000000E+00 0.  1.
        -11    1    4    4    0    0 -0.18533935159E-01 -0.47561371122E-01 -0.22351444631E-01  0.55726465647E-01  0.51100000000E-03 0.  1.
         11    1    4    4    0    0 -0.86783551142E-02 -0.74388792389E-01 -0.15888076002E-01  0.76561729086E-01  0.51100000000E-03 0. -1.
</event>
<event>
 8    1  0.1204770E+005  0.1043930E+01  0.7957747E-01            NaN
         13   -1    0    0    0    0  0.00000000000E+00  0.00000000000E+00  0.74505805969E-08  0.10566000000E+00  0.10566000000E+00 0. -1.
     999900   -1    0    0    0    0 -0.00000000000E+00 -0.00000000000E+00 -0.74505805969E-08  0.93827000000E+00  0.93827000000E+00 0.  1.
     999902    2    1    2    0    0 -0.22111930782E-01  0.21281076915E-02  0.98929162711E-02  0.10196125964E+01  0.10193225744E+01 0.  0.
     999903    2    3    3    0    0 -0.82487606462E-01 -0.10036157022E+00  0.55798677497E-02  0.13159910626E+00  0.20261782928E-01 0.  0.
         14    1    1    2    0    0  0.22111930782E-01 -0.21281076915E-02 -0.98929162711E-02  0.24317403595E-01  0.00000000000E+00 0.  1.
     999901    1    3    3    0    0  0.60375675680E-01  0.10248967791E+00  0.43130485214E-02  0.88801349015E+00  0.88000000000E+00 0. -1.
        -11    1    4    4    0    0 -0.71918303445E-02 -0.16989126102E-01 -0.38819033048E-02  0.18859563189E-01  0.51100000000E-03 0.  1.
         11    1    4    4    0    0 -0.75295776117E-01 -0.83372444119E-01  0.94617710545E-02  0.11273954307E+00  0.51100000000E-03 0. -1.
</event>
<event>
 8    1  0.1204770E+005  0.1043930E+01  0.7957747E-01            NaN
         13   -1    0    0    0    0  0.00000000000E+00  0.00000000000E+00  0.74505805969E-08  0.10566000000E+00  0.10566000000E+00 0.  1.
     999900   -1    0    0    0    0 -0.00000000000E+00 -0.00000000000E+00 -0.74505805969E-08  0.93827000000E+00  0.93827000000E+00 0. -1.
     999902    2    1    2    0    0  0.23841788889E-01 -0.25901814757E-03 -0.13269929036E-02  0.10200499058E+01  0.10197703425E+01 0.  0.
     999903    2    3    3    0    0 -0.10952290182E-01 -0.99298153221E-01 -0.81260097366E-01  0.13021358413E+00  0.19295029782E-01 0.  0.
         14    1    1    2    0    0 -0.23841788889E-01  0.25901814757E-03  0.13269929036E-02  0.23880094179E-01  0.00000000000E+00 0.  1.
     999901    1    3    3    0    0  0.34794079071E-01  0.99039135074E-01  0.79933104462E-01  0.88983632169E+00  0.88000000000E+00 0.  1.
        -11    1    4    4    0    0  0.70665834728E-03 -0.58516493182E-01 -0.38939183826E-01  0.70293673245E-01  0.51100000000E-03 0.  1.
         11    1    4    4    0    0 -0.11658948529E-01 -0.40781660040E-01 -0.42320913540E-01  0.59919910883E-01  0.51100000000E-03 0. -1.
</event>
<event>
 8    1  0.1204770E+005  0.1043930E+01  0.7957747E-01            NaN
         13   -1    0    0    0    0  0.00000000000E+00  0.00000000000E+00  0.74505805969E-08  0.10566000000E+00  0.10566000000E+00 0.  1.
     999900   -1    0    0    0    0 -0.00000000000E+00 -0.00000000000E+00 -0.74505805969E-08  0.93827000000E+00  0.93827000000E+00 0. -1.
     999902    2    1    2    0    0 -0.11687668421E-02  0.48456348147E-02 -0.23255497626E-01  0.10201463005E+01  0.10198690161E+01 0.  0.
     999903    2    3    3    0    0 -0.85093655421E-01 -0.96116840900E-01  0.37443293401E-02  0.12999698769E+00  0.20144962335E-01 0.  0.
         14    1    1    2    0    0  0.11687668421E-02 -0.48456348147E-02  0.23255497626E-01  0.23783699513E-01  0.00000000000E+00 0.  1.
     999901    1    3    3    0    0  0.83924888579E-01  0.10096247571E+00 -0.26999826966E-01  0.89014931280E+00  0.88000000000E+00 0.  1.
        -11    1    4    4    0    0 -0.58323548028E-01 -0.51885100908E-01  0.55517317335E-02  0.78260991542E-01  0.51100000000E-03 0. -1.
         11    1    4    4    0    0 -0.26770107393E-01 -0.44231739992E-01 -0.18074023934E-02  0.51735996144E-01  0.51100000000E-03 0.  1.
</event>
<event>
 8    1  0.1204770E+005  0.1043930E+01  0.7957747E-01            NaN
         13   -1    0    0    0    0  0.00000000000E+00  0.00000000000E+00  0.74505805969E-08  0.10566000000E+00  0.10566000000E+00 0. -1.
     999900   -1    0    0    0    0 -0.00000000000E+00 -0.00000000000E+00 -0.74505805969E-08  0.93827000000E+00  0.93827000000E+00 0.  1.
     999902    2    1    2    0    0  0.24333636659E-01  0.51587325404E-02  0.20050699806E-02  0.10189748663E+01  0.10186692394E+01 0.  0.
     999903    2    3    3    0    0 -0.61885155536E-01  0.33404931440E-01 -0.10512199643E+00  0.12784763840E+00  0.18674115516E-01 0.  0.
         14    1    1    2    0    0 -0.24333636659E-01 -0.51587325404E-02 -0.20050699806E-02  0.24955133743E-01  0.00000000000E+00 0. -1.
     999901    1    3    3    0    0  0.86218792195E-01 -0.28246198899E-01  0.10712706641E+00  0.89112722786E+00  0.88000000000E+00 0.  1.
        -11    1    4    4    0    0 -0.25674870293E-01  0.17327655943E-01 -0.31148788514E-01  0.43931250516E-01  0.51100000000E-03 0. -1.
         11    1    4    4    0    0 -0.36210285243E-01  0.16077275497E-01 -0.73973207913E-01  0.83916387879E-01  0.51100000000E-03 0.  1.
</event>
<event>
 8    1  0.1204770E+005  0.1043930E+01  0.7957747E-01            NaN
         13   -1    0    0    0    0  0.00000000000E+00  0.00000000000E+00  0.74505805969E-08  0.10566000000E+00  0.10566000000E+00 0. -1.
     999900   -1    0    0    0    0 -0.00000000000E+00 -0.00000000000E+00 -0.74505805969E-08  0.93827000000E+00  0.93827000000E+00 0. -1.
     999902    2    1    2    0    0  0.74926904657E-03  0.24179378724E-02  0.21945350848E-01  0.10218391365E+01  0.10216003204E+01 0.  0.
     999903    2    3    3    0    0  0.42306787591E-01  0.12344966144E+00  0.11600217563E-01  0.13252326051E+00  0.19954105889E-01 0.  0.
         14    1    1    2    0    0 -0.74926904657E-03 -0.24179378724E-02 -0.21945350848E-01  0.22090863530E-01  0.00000000000E+00 0.  1.
     999901    1    3    3    0    0 -0.41557518544E-01 -0.12103172357E+00  0.10345133285E-01  0.88931587596E+00  0.88000000000E+00 0. -1.
        -11    1    4    4    0    0  0.30677908976E-01  0.66286454816E-01  0.12895102096E-01  0.74172589076E-01  0.51100000000E-03 0.  1.
         11    1    4    4    0    0  0.11628878615E-01  0.57163206625E-01 -0.12948845331E-02  0.58350671431E-01  0.51100000000E-03 0. -1.
</event>
<event>
 8    1  0.1204770E+005  0.1043930E+01  0.7957747E-01            NaN
         13   -1    0    0    0    0  0.00000000000E+00  0.00000000000E+00  0.74505805969E-08  0.10566000000E+00  0.10566000000E+00 0.  1.
     999900   -1    0    0    0    0 -0.00000000000E+00 -0.00000000000E+00 -0.74505805969E-08  0.93827000000E+00  0.93827000000E+00 0.  1.
     999902    2    1    2    0    0 -0.23861162384E-01 -0.42952343988E-02 -0.71386522089E-02  0.10186562099E+01  0.10183426288E+01 0.  0.
     999903    2    3    3    0    0  0.10394460648E+00  0.32217533342E-01 -0.62174507652E-01  0.12697440450E+00  0.20356309222E-01 0.  0.
         14    1    1    2    0    0  0.23861162384E-01  0.42952343988E-02  0.71386522089E-02  0.25273790064E-01  0.00000000000E+00 0.  1.
     999901    1    3    3    0    0 -0.12780576886E+00 -0.36512767741E-01  0.55035855443E-01  0.89168180544E+00  0.88000000000E+00 0.  1.
        -11    1    4    4    0    0  0.51261895750E-01  0.21953240413E-01 -0.41245668036E-01  0.69362763593E-01  0.51100000000E-03 0.  1.
         11    1    4    4    0    0  0.52682710730E-01  0.10264292929E-01 -0.20928839616E-01  0.57611640906E-01  0.51100000000E-03 0. -1.
</event>
<event>
 8    1  0.1204770E+005  0.1043930E+01  0.7957747E-01            NaN
         13   -1    0    0    0    0  0.00000000000E+00  0.00000000000E+00  0.74505805969E-08  0.10566000000E+00  0.10566000000E+00 0. -1.
     999900   -1    0    0    0    0 -0.00000000000E+00 -0.00000000000E+00 -0.74505805969E-08  0.93827000000E+00  0.93827000000E+00 0.  1.
     999902    2    1    2    0    0  0.10487903891E-01  0.16671197811E-01 -0.18622158919E-01  0.10168244698E+01  0.10164631290E+01 0.  0.
     999903    2    3    3    0    0  0.84429769659E-02  0.86527754683E-01  0.90814398627E-01  0.12729623507E+00  0.19968482005E-01 0.  0.
         14    1    1    2    0    0 -0.10487903891E-01 -0.16671197811E-01  0.18622158919E-01  0.27105530198E-01  0.00000000000E+00 0. -1.
     999901    1    3    3    0    0  0.20449269256E-02 -0.69856556871E-01 -0.10943655755E+00  0.88952823474E+00  0.88000000000E+00 0.  1.
        -11    1    4    4    0    0 -0.39959696253E-02  0.54124385332E-01  0.59656645847E-01  0.80651059358E-01  0.51100000000E-03 0. -1.
         11    1    4    4    0    0  0.12438946591E-01  0.32403369351E-01  0.31157752781E-01  0.46645175709E-01  0.51100000000E-03 0.  1.
</event>
<event>
 8    1  0.1204770E+005  0.1043930E+01  0.7957747E-01            NaN
         13   -1    0    0    0    0  0.00000000000E+00  0.00000000000E+00  0.74505805969E-08  0.10566000000E+00  0.10566000000E+00 0. -1.
     999900   -1    0    0    0    0 -0.00000000000E+00 -0.00000000000E+00 -0.74505805969E-08  0.93827000000E+00  0.93827000000E+00 0.  1.
     999902    2    1    2    0    0 -0.94652249505E-02  0.11163243282E-01 -0.29187328320E-01  0.10112786812E+01  0.10107514346E+01 0.  0.
     999903    2    3    3    0    0  0.39898133517E-01 -0.25365958909E-01  0.10710542107E+00  0.11867191600E+00  0.19394831631E-01 0.  0.
         14    1    1    2    0    0  0.94652249505E-02 -0.11163243282E-01  0.29187328320E-01  0.32651318785E-01  0.00000000000E+00 0. -1.
     999901    1    3    3    0    0 -0.49363358467E-01  0.36529202191E-01 -0.13629274939E+00  0.89260676522E+00  0.88000000000E+00 0.  1.
        -11    1    4    4    0    0  0.20731952639E-01 -0.24078050046E-02  0.50604123649E-01  0.54741664538E-01  0.51100000000E-03 0. -1.
         11    1    4    4    0    0  0.19166180878E-01 -0.22958153904E-01  0.56501297425E-01  0.63930251461E-01  0.51100000000E-03 0.  1.
</event>
<event>
 8    1  0.1204770E+005  0.1043930E+01  0.7957747E-01            NaN
         13   -1    0    0    0    0  0.00000000000E+00  0.00000000000E+00  0.74505805969E-08  0.10566000000E+00  0.10566000000E+00 0. -1.
     999900   -1    0    0    0    0 -0.00000000000E+00 -0.00000000000E+00 -0.74505805969E-08  0.93827000000E+00  0.93827000000E+00 0. -1.
     999902    2    1    2    0    0  0.93809773320E-02  0.23869983446E-01 -0.82059722983E-02  0.10170020066E+01  0.10166454469E+01 0.  0.
     999903    2    3    3    0    0 -0.24894140772E-01  0.12540181272E+00 -0.16213965867E-01  0.13046513541E+00  0.20320580481E-01 0.  0.
         14    1    1    2    0    0 -0.93809773320E-02 -0.23869983446E-01  0.82059722983E-02  0.26927993367E-01  0.00000000000E+00 0.  1.
     999901    1    3    3    0    0  0.34275118104E-01 -0.10153182927E+00  0.80079935689E-02  0.88653687122E+00  0.88000000000E+00 0. -1.
        -11    1    4    4    0    0 -0.90329127931E-02  0.36839622258E-01  0.43182579779E-02  0.38179310557E-01  0.51100000000E-03 0.  1.
         11    1    4    4    0    0 -0.15861227979E-01  0.88562190458E-01 -0.20532223845E-01  0.92285824853E-01  0.51100000000E-03 0. -1.
</event>
<event>
 8    1  0.1204770E+005  0.1043930E+01  0.7957747E-01            NaN
         13   -1    0    0    0    0  0.00000000000E+00  0.00000000000E+00  0.74505805969E-08  0.10566000000E+00  0.10566000000E+00 0. -1.
     999900   -1    0    0    0    0 -0.00000000000E+00 -0.00000000000E+00 -0.74505805969E-08  0.93827000000E+00  0.93827000000E+00 0. -1.
     999902    2    1    2    0    0  0.81945242921E-02  0.56945438758E-02 -0.21164196144E-01  0.10205312552E+01  0.10202629767E+01 0.  0.
     999903    2    3    3    0    0 -0.53152997009E-01 -0.70257060941E-01  0.90680572561E-01  0.12809558980E+00  0.20596557564E-01 0.  0.
         14    1    1    2    0    0 -0.81945242921E-02 -0.56945438758E-02  0.21164196144E-01  0.23398744769E-01  0.00000000000E+00 0. -1.
     999901    1    3    3    0    0  0.61347521302E-01  0.75951604816E-01 -0.11184476871E+00  0.89243566543E+00  0.88000000000E+00 0. -1.
        -11    1    4    4    0    0 -0.19912900527E-01 -0.42749714340E-01  0.51179060526E-01  0.69596113691E-01  0.51100000000E-03 0. -1.
         11    1    4    4    0    0 -0.33240096482E-01 -0.27507346601E-01  0.39501512035E-01  0.58499476111E-01  0.51100000000E-03 0.  1.
</event>
<event>
 8    1  0.1204770E+005  0.1043930E+01  0.7957747E-01            NaN
         13   -1    0    0    0    0  0.00000000000E+00  0.00000000000E+00  0.74505805969E-08  0.10566000000E+00  0.10566000000E+00 0.  1.
     999900   -1    0    0    0    0 -0.00000000000E+00 -0.00000000000E+00 -0.74505805969E-08  0.93827000000E+00  0.93827000000E+00 0.  1.
     999902    2    1    2    0    0  0.19245692769E-01  0.56489524924E-02 -0.12316400383E-01  0.10203927726E+01  0.10201212719E+01 0.  0.
     999903    2    3    3    0    0 -0.49240100257E-01  0.89261888078E-01 -0.81157571962E-01  0.13111186438E+00  0.14542948775E-01 0.  0.
         14    1    1    2    0    0 -0.19245692769E-01 -0.56489524924E-02  0.12316400383E-01  0.23537227382E-01  0.00000000000E+00 0. -1.
     999901    1    3    3    0    0  0.68485793026E-01 -0.83612935586E-01  0.68841171579E-01  0.88928090823E+00  0.88000000000E+00 0. -1.
        -11    1    4    4    0    0 -0.47432521836E-01  0.76780169519E-01 -0.69232334274E-01  0.11374715728E+00  0.51100000000E-03 0. -1.
         11    1    4    4    0    0 -0.18075784204E-02  0.12481718559E-01 -0.11925237688E-01  0.17364707105E-01  0.51100000000E-03 0.  1.
</event>
<event>
 8    1  0.1204770E+005  0.1043930E+01  0.7957747E-01            NaN
         13   -1    0    0    0    0  0.00000000000E+00  0.00000000000E+00  0.74505805969E-08  0.10566000000E+00  0.10566000000E+00 0.  1.
     999900   -1    0    0    0    0 -0.00000000000E+00 -0.00000000000E+00 -0.74505805969E-08  0.93827000000E+00  0.93827000000E+00 0.  1.
     999902    2    1    2    0    0 -0.15418524830E-01 -0.17936451533E-01 -0.45005822191E-02  0.10198529893E+01  0.10195687409E+01 0.  0.
     999903    2    3    3    0    0  0.10034371476E+00 -0.51489642246E-01  0.60017887427E-01  0.12929735063E+00  0.19890040693E-01 0.  0.
         14    1    1    2    0    0  0.15418524830E-01  0.17936451533E-01  0.45005822191E-02  0.24077010650E-01  0.00000000000E+00 0.  1.
     999901    1    3    3    0    0 -0.11576223959E+00  0.33553190713E-01 -0.64518469646E-01  0.89055563872E+00  0.88000000000E+00 0. -1.
        -11    1    4    4    0    0  0.44798151969E-01 -0.32555217246E-01  0.23378834090E-01  0.60112790603E-01  0.51100000000E-03 0.  1.
         11    1    4    4    0    0  0.55545562794E-01 -0.18934425001E-01  0.36639053338E-01  0.69184560031E-01  0.51100000000E-03 0. -1.
</event>
<event>
 8    1  0.1204770E+005  0.1043930E+01  0.7957747E-01            NaN
         13   -1    0    0    0    0  0.00000000000E+00  0.00000000000E+00  0.74505805969E-08  0.10566000000E+00  0.10566000000E+00 0.  1.
     999900   -1    0    0    0    0 -0.00000000000E+00 -0.00000000000E+00 -0.74505805969E-08  0.93827000000E+00  0.93827000000E+00 0.  1.
     999902    2    1    2    0    0 -0.48367887255E-02 -0.92314893940E-02  0.21335369362E-01  0.10201852552E+01  0.10199088890E+01 0.  0.
     999903    2    3    3    0    0 -0.11504291864E+00  0.46663371499E-01  0.38017540679E-01  0.13139511042E+00  0.20174198270E-01 0.  0.
         14    1    1    2    0    0  0.48367887255E-02  0.92314893940E-02 -0.21335369362E-01  0.23744744838E-01  0.00000000000E+00 0. -1.
     999901    1    3    3    0    0  0.11020612991E+00 -0.55894860893E-01 -0.16682171317E-01  0.88879014474E+00  0.88000000000E+00 0.  1.
        -11    1    4    4    0    0 -0.59069544800E-01  0.25232195890E-01  0.30095648933E-01  0.70935774035E-01  0.51100000000E-03 0.  1.
         11    1    4    4    0    0 -0.55973373837E-01  0.21431175609E-01  0.79218917456E-02  0.60459336389E-01  0.51100000000E-03 0. -1.
</event>
<event>
 8    1  0.1204770E+005  0.1043930E+01  0.7957747E-01            NaN
         13   -1    0    0    0    0  0.00000000000E+00  0.00000000000E+00  0.74505805969E-08  0.10566000000E+00  0.10566000000E+00 0. -1.
     999900   -1    0    0    0    0 -0.00000000000E+00 -0.00000000000E+00 -0.74505805969E-08  0.93827000000E+00  0.93827000000E+00 0. -1.
     999902    2    1    2    0    0 -0.25335829478E-01 -0.49029481326E-02  0.26042894108E-02  0.10179930480E+01  0.10176625768E+01 0.  0.
     999903    2    3    3    0    0  0.73042550619E-01  0.55040472611E-01 -0.84925149376E-01  0.12617864914E+00  0.18550004737E-01 0.  0.
         14    1    1    2    0    0  0.25335829478E-01  0.49029481326E-02 -0.26042894108E-02  0.25936952001E-01  0.00000000000E+00 0. -1.
     999901    1    3    3    0    0 -0.98378380097E-01 -0.59943420744E-01  0.87529438787E-01  0.89181439886E+00  0.88000000000E+00 0.  1.
        -11    1    4    4    0    0  0.35938705443E-01  0.37318122296E-01 -0.53004396865E-01  0.74121252072E-01  0.51100000000E-03 0.  1.
         11    1    4    4    0    0  0.37103845176E-01  0.17722350315E-01 -0.31920752511E-01  0.52057397067E-01  0.51100000000E-03 0. -1.
</event>
<event>
 8    1  0.1204770E+005  0.1043930E+01  0.7957747E-01            NaN
         13   -1    0    0    0    0  0.00000000000E+00  0.00000000000E+00  0.74505805969E-08  0.10566000000E+00  0.10566000000E+00 0.  1.
     999900   -1    0    0    0    0 -0.00000000000E+00 -0.00000000000E+00 -0.74505805969E-08  0.93827000000E+00  0.93827000000E+00 0.  1.
     999902    2    1    2    0    0 -0.62144663880E-02 -0.22636799253E-01 -0.40607733410E-02  0.10201070247E+01  0.10198288129E+01 0.  0.
     999903    2    3    3    0    0 -0.48164022007E-01 -0.14912959881E-01  0.11876739796E+00  0.13055310131E+00  0.19905980394E-01 0.  0.
         14    1    1    2    0    0  0.62144663880E-02  0.22636799253E-01  0.40607733410E-02  0.23822975319E-01  0.00000000000E+00 0.  1.
     999901    1    3    3    0    0  0.41949555619E-01 -0.77238393723E-02 -0.12282817130E+00  0.88955392337E+00  0.88000000000E+00 0.  1.
        -11    1    4    4    0    0 -0.28858143178E-01  0.26250458901E-03  0.53017999615E-01  0.60365807711E-01  0.51100000000E-03 0. -1.
         11    1    4    4    0    0 -0.19305878828E-01 -0.15175464470E-01  0.65749398349E-01  0.70187293604E-01  0.51100000000E-03 0.  1.
</event>
<event>
 8    1  0.1204770E+005  0.1043930E+01  0.7957747E-01            NaN
         13   -1    0    0    0    0  0.00000000000E+00  0.00000000000E+00  0.74505805969E-08  0.10566000000E+00  0.10566000000E+00 0. -1.
     999900   -1    0    0    0    0 -0.00000000000E+00 -0.00000000000E+00 -0.74505805969E-08  0.93827000000E+00  0.93827000000E+00 0.  1.
     999902    2    1    2    0    0 -0.14099920200E-01  0.39121992536E-02 -0.18552645166E-01  0.10203013374E+01  0.10200276984E+01 0.  0.
     999903    2    3    3    0    0  0.83398720065E-01  0.10374571070E-01 -0.98856393737E-01  0.13125890922E+00  0.19832711213E-01 0.  0.
         14    1    1    2    0    0  0.14099920200E-01 -0.39121992536E-02  0.18552645166E-01  0.23628662580E-01  0.00000000000E+00 0. -1.
     999901    1    3    3    0    0 -0.97498640265E-01 -0.64623718166E-02  0.80303748571E-01  0.88904242820E+00  0.88000000000E+00 0. -1.
        -11    1    4    4    0    0  0.28231446168E-01  0.91070503948E-02 -0.46701356574E-01  0.55328390059E-01  0.51100000000E-03 0. -1.
         11    1    4    4    0    0  0.55167273898E-01  0.12675206754E-02 -0.52155037163E-01  0.75930519163E-01  0.51100000000E-03 0.  1.
</event>
