<event>
 8    1  0.1150863E+005  0.1043930E+01  0.7957747E-01            NaN
         13   -1    0    0    0    0  0.00000000000E+00  0.00000000000E+00  0.74505805969E-08  0.10566000000E+00  0.10566000000E+00 0.  1.
     999900   -1    0    0    0    0 -0.00000000000E+00 -0.00000000000E+00 -0.74505805969E-08  0.93827000000E+00  0.93827000000E+00 0.  1.
     999902    2    1    2    0    0 -0.22548744764E-01  0.16750294033E-02  0.79969322294E-02  0.10199466195E+01  0.10196646038E+01 0.  0.
     999903    2    3    3    0    0 -0.50563708442E-01  0.11081991854E-01  0.12019487624E+00  0.13233087621E+00  0.19625324718E-01 0.  0.
         14    1    1    2    0    0  0.22548744764E-01 -0.16750294033E-02 -0.79969322294E-02  0.23983380475E-01  0.00000000000E+00 0. -1.
     999901    1    3    3    0    0  0.28014963677E-01 -0.94069624510E-02 -0.11219794401E+00  0.88761574331E+00  0.88000000000E+00 0.  1.
        -11    1    4    4    0    0 -0.14994461913E-01 -0.11269174614E-03  0.57105703417E-01  0.59043789439E-01  0.51100000000E-03 0. -1.
         11    1    4    4    0    0 -0.35569246528E-01  0.11194683600E-01  0.63089172823E-01  0.73287086775E-01  0.51100000000E-03 0.  1.
</event>
<event>
 8    1  0.1150863E+005  0.1043930E+01  0.7957747E-01            NaN
         13   -1    0    0    0    0  0.00000000000E+00  0.00000000000E+00  0.74505805969E-08  0.10566000000E+00  0.10566000000E+00 0. -1.
     999900   -1    0    0    0    0 -0.00000000000E+00 -0.00000000000E+00 -0.74505805969E-08  0.93827000000E+00  0.93827000000E+00 0.  1.
     999902    2    1    2    0    0  0.24875881690E-02 -0.21095640110E-01  0.10178109086E-01  0.10203756367E+01  0.10201037359E+01 0.  0.
     999903    2    3    3    0    0  0.74091194927E-01 -0.92597508996E-01 -0.55095968501E-01  0.13217504056E+00  0.19258031154E-01 0.  0.
         14    1    1    2    0    0 -0.24875881690E-02  0.21095640110E-01 -0.10178109086E-01  0.23554363314E-01  0.00000000000E+00 0. -1.
     999901    1    3    3    0    0 -0.71603606758E-01  0.71501868886E-01  0.65274077587E-01  0.88820059613E+00  0.88000000000E+00 0. -1.
        -11    1    4    4    0    0  0.31190728488E-01 -0.26996062377E-01 -0.24825748244E-01  0.48147978404E-01  0.51100000000E-03 0.  1.
         11    1    4    4    0    0  0.42900466439E-01 -0.65601446619E-01 -0.30270220257E-01  0.84027062156E-01  0.51100000000E-03 0. -1.
</event>
<event>
 7    1  0.1150863E+005  0.1043930E+01  0.7957747E-01            NaN
         13   -1    0    0    0    0  0.00000000000E+00  0.00000000000E+00  0.74505805969E-08  0.10566000000E+00  0.10566000000E+00 0.  1.
     999900   -1    0    0    0    0 -0.00000000000E+00 -0.00000000000E+00 -0.74505805969E-08  0.93827000000E+00  0.93827000000E+00 0. -1.
     999903    2    1    2    0    0  0.75068985847E-01 -0.24722157254E-01 -0.45181036520E-01  0.92730678120E-01  0.17638449711E-01 0.  0.
         14    1    1    2    0    0  0.78459394448E-02 -0.57011831542E-01  0.26441814550E-01  0.63333066073E-01  0.00000000000E+00 0.  1.
     999901    1    1    2    0    0 -0.82914925292E-01  0.81733988796E-01  0.18739221970E-01  0.88786625581E+00  0.88000000000E+00 0.  1.
        -11    1    3    3    0    0  0.22548714514E-01 -0.16187772046E-01 -0.14985841349E-01  0.31548772591E-01  0.51100000000E-03 0. -1.
         11    1    3    3    0    0  0.52520271333E-01 -0.85343852076E-02 -0.30195195171E-01  0.61181905529E-01  0.51100000000E-03 0.  1.
</event>
<event>
 8    1  0.1150863E+005  0.1043930E+01  0.7957747E-01            NaN
         13   -1    0    0    0    0  0.00000000000E+00  0.00000000000E+00  0.74505805969E-08  0.10566000000E+00  0.10566000000E+00 0. -1.
     999900   -1    0    0    0    0 -0.00000000000E+00 -0.00000000000E+00 -0.74505805969E-08  0.93827000000E+00  0.93827000000E+00 0.  1.
     999902    2    1    2    0    0  0.41107812803E-02 -0.11375042344E-01 -0.20650208885E-01  0.10199984050E+01  0.10197176202E+01 0.  0.
     999903    2    3    3    0    0  0.11020100965E+00  0.24168875402E-01 -0.64801863516E-01  0.13181606156E+00  0.21161179131E-01 0.  0.
         14    1    1    2    0    0 -0.41107812803E-02  0.11375042344E-01  0.20650208885E-01  0.23931594975E-01  0.00000000000E+00 0. -1.
     999901    1    3    3    0    0 -0.10609022837E+00 -0.35543917746E-01  0.44151654631E-01  0.88818234347E+00  0.88000000000E+00 0. -1.
        -11    1    4    4    0    0  0.58674589468E-01  0.11572072046E-01 -0.46304434024E-01  0.75637173611E-01  0.51100000000E-03 0.  1.
         11    1    4    4    0    0  0.51526420184E-01  0.12596803356E-01 -0.18497429493E-01  0.56178887944E-01  0.51100000000E-03 0. -1.
</event>
<event>
 8    1  0.1150863E+005  0.1043930E+01  0.7957747E-01            NaN
         13   -1    0    0    0    0  0.00000000000E+00  0.00000000000E+00  0.74505805969E-08  0.10566000000E+00  0.10566000000E+00 0. -1.
     999900   -1    0    0    0    0 -0.00000000000E+00 -0.00000000000E+00 -0.74505805969E-08  0.93827000000E+00  0.93827000000E+00 0.  1.
     999902    2    1    2    0    0  0.20194012874E-01 -0.16309541352E-01  0.23499652534E-01  0.10089152465E+01  0.10083074638E+01 0.  0.
     999903    2    3    3    0    0 -0.33271098038E-01 -0.11487700130E+00  0.10990431670E-01  0.12171146895E+00  0.19728170047E-01 0.  0.
         14    1    1    2    0    0 -0.20194012874E-01  0.16309541352E-01 -0.23499652534E-01  0.35014753523E-01  0.00000000000E+00 0.  1.
     999901    1    3    3    0    0  0.53465110913E-01  0.98567459951E-01  0.12509220864E-01  0.88720377752E+00  0.88000000000E+00 0. -1.
        -11    1    4    4    0    0 -0.61385069156E-03 -0.16304438478E-01  0.70853633446E-02  0.17795365169E-01  0.51100000000E-03 0. -1.
         11    1    4    4    0    0 -0.32657247347E-01 -0.98572562824E-01  0.39050683254E-02  0.10391610378E+00  0.51100000000E-03 0.  1.
</event>
<event>
 8    1  0.1150863E+005  0.1043930E+01  0.7957747E-01            NaN
         13   -1    0    0    0    0  0.00000000000E+00  0.00000000000E+00  0.74505805969E-08  0.10566000000E+00  0.10566000000E+00 0. -1.
     999900   -1    0    0    0    0 -0.00000000000E+00 -0.00000000000E+00 -0.74505805969E-08  0.93827000000E+00  0.93827000000E+00 0. -1.
     999902    2    1    2    0    0  0.96296017771E-03 -0.22155048565E-01  0.62258531650E-02  0.10208966608E+01  0.10206367901E+01 0.  0.
     999903    2    3    3    0    0  0.10786402885E+00 -0.71486844016E-01 -0.20901741495E-01  0.13264142102E+00  0.20293993823E-01 0.  0.
         14    1    1    2    0    0 -0.96296017771E-03  0.22155048565E-01 -0.62258531650E-02  0.23033339247E-01  0.00000000000E+00 0.  1.
     999901    1    3    3    0    0 -0.10690106867E+00  0.49331795451E-01  0.27127594660E-01  0.88825523974E+00  0.88000000000E+00 0. -1.
        -11    1    4    4    0    0  0.64497428526E-01 -0.54318986528E-01 -0.12492475271E-01  0.85245490458E-01  0.51100000000E-03 0.  1.
         11    1    4    4    0    0  0.43366600322E-01 -0.17167857487E-01 -0.84092662234E-02  0.47395930560E-01  0.51100000000E-03 0. -1.
</event>
<event>
 8    1  0.1150863E+005  0.1043930E+01  0.7957747E-01            NaN
         13   -1    0    0    0    0  0.00000000000E+00  0.00000000000E+00  0.74505805969E-08  0.10566000000E+00  0.10566000000E+00 0.  1.
     999900   -1    0    0    0    0 -0.00000000000E+00 -0.00000000000E+00 -0.74505805969E-08  0.93827000000E+00  0.93827000000E+00 0.  1.
     999902    2    1    2    0    0  0.16734821116E-01 -0.98679905496E-02 -0.13616429213E-01  0.10202057799E+01  0.10199298970E+01 0.  0.
     999903    2    3    3    0    0 -0.12341104838E-01  0.43667841654E-01 -0.12189326519E+00  0.13147895572E+00  0.19224058719E-01 0.  0.
         14    1    1    2    0    0 -0.16734821116E-01  0.98679905496E-02  0.13616429213E-01  0.23724220109E-01  0.00000000000E+00 0.  1.
     999901    1    3    3    0    0  0.29075925953E-01 -0.53535832203E-01  0.10827683598E+00  0.88872682418E+00  0.88000000000E+00 0. -1.
        -11    1    4    4    0    0  0.28224353641E-02  0.21063073134E-01 -0.41974013835E-01  0.47049953769E-01  0.51100000000E-03 0. -1.
         11    1    4    4    0    0 -0.15163540202E-01  0.22604768520E-01 -0.79919251357E-01  0.84429001946E-01  0.51100000000E-03 0.  1.
</event>
<event>
 8    1  0.1150863E+005  0.1043930E+01  0.7957747E-01            NaN
         13   -1    0    0    0    0  0.00000000000E+00  0.00000000000E+00  0.74505805969E-08  0.10566000000E+00  0.10566000000E+00 0. -1.
     999900   -1    0    0    0    0 -0.00000000000E+00 -0.00000000000E+00 -0.74505805969E-08  0.93827000000E+00  0.93827000000E+00 0.  1.
     999902    2    1    2    0    0  0.19718738980E-01 -0.95356071431E-02 -0.74406577764E-02  0.10207973422E+01  0.10205351997E+01 0.  0.
     999903    2    3    3    0    0 -0.51374936389E-01 -0.72407746499E-01 -0.94583378392E-01  0.13141493265E+00  0.21014357337E-01 0.  0.
         14    1    1    2    0    0 -0.19718738980E-01  0.95356071431E-02  0.74406577764E-02  0.23132657839E-01  0.00000000000E+00 0.  1.
     999901    1    3    3    0    0  0.71093675370E-01  0.62872139356E-01  0.87142720615E-01  0.88938240951E+00  0.88000000000E+00 0. -1.
        -11    1    4    4    0    0 -0.29043297132E-01 -0.49370132109E-01 -0.47380404215E-01  0.74337654506E-01  0.51100000000E-03 0.  1.
         11    1    4    4    0    0 -0.22331639258E-01 -0.23037614389E-01 -0.47202974176E-01  0.57077278148E-01  0.51100000000E-03 0. -1.
</event>
<event>
 8    1  0.1150863E+005  0.1043930E+01  0.7957747E-01            NaN
         13   -1    0    0    0    0  0.00000000000E+00  0.00000000000E+00  0.74505805969E-08  0.10566000000E+00  0.10566000000E+00 0.  1.
     999900   -1    0    0    0    0 -0.00000000000E+00 -0.00000000000E+00 -0.74505805969E-08  0.93827000000E+00  0.93827000000E+00 0.  1.
     999902    2    1    2    0    0  0.51172451220E-02  0.21385956885E-01 -0.21509603236E-02  0.10218353857E+01  0.10215964876E+01 0.  0.
     999903    2    3    3    0    0 -0.68800427291E-01 -0.10692364580E+00 -0.13826580223E-01  0.12938734997E+00  0.19589466126E-01 0.  0.
         14    1    1    2    0    0 -0.51172451220E-02 -0.21385956885E-01  0.21509603236E-02  0.22094614272E-01  0.00000000000E+00 0.  1.
     999901    1    3    3    0    0  0.73917672413E-01  0.12830960269E+00  0.11675619899E-01  0.89244803576E+00  0.88000000000E+00 0.  1.
        -11    1    4    4    0    0 -0.41311234839E-01 -0.80633044603E-01 -0.92501301859E-02  0.91072125457E-01  0.51100000000E-03 0.  1.
         11    1    4    4    0    0 -0.27489192453E-01 -0.26290601200E-01 -0.45764500371E-02  0.38315224508E-01  0.51100000000E-03 0. -1.
</event>
<event>
 8    1  0.1150863E+005  0.1043930E+01  0.7957747E-01            NaN
         13   -1    0    0    0    0  0.00000000000E+00  0.00000000000E+00  0.74505805969E-08  0.10566000000E+00  0.10566000000E+00 0. -1.
     999900   -1    0    0    0    0 -0.00000000000E+00 -0.00000000000E+00 -0.74505805969E-08  0.93827000000E+00  0.93827000000E+00 0. -1.
     999902    2    1    2    0    0  0.40904000059E-02 -0.60872476524E-02  0.22431940523E-01  0.10203296205E+01  0.10200566438E+01 0.  0.
     999903    2    3    3    0    0  0.69848381674E-01  0.10025969315E+00 -0.37659192017E-01  0.12946221838E+00  0.20284199584E-01 0.  0.
         14    1    1    2    0    0 -0.40904000059E-02  0.60872476524E-02 -0.22431940523E-01  0.23600379485E-01  0.00000000000E+00 0.  1.
     999901    1    3    3    0    0 -0.65757981668E-01 -0.10634694080E+00  0.60091132540E-01  0.89086740213E+00  0.88000000000E+00 0.  1.
        -11    1    4    4    0    0  0.23131326296E-01  0.48635558888E-01 -0.11419642852E-01  0.55055837187E-01  0.51100000000E-03 0.  1.
         11    1    4    4    0    0  0.46717055378E-01  0.51624134261E-01 -0.26239549165E-01  0.74406381196E-01  0.51100000000E-03 0. -1.
</event>
<event>
 8    1  0.1150863E+005  0.1043930E+01  0.7957747E-01            NaN
         13   -1    0    0    0    0  0.00000000000E+00  0.00000000000E+00  0.74505805969E-08  0.10566000000E+00  0.10566000000E+00 0. -1.
     999900   -1    0    0    0    0 -0.00000000000E+00 -0.00000000000E+00 -0.74505805969E-08  0.93827000000E+00  0.93827000000E+00 0.  1.
     999902    2    1    2    0    0 -0.87086912999E-02 -0.21330140427E-01 -0.53348312308E-02  0.10202809700E+01  0.10200068535E+01 0.  0.
     999903    2    3    3    0    0 -0.99886095904E-01 -0.35351595666E-01  0.75686393899E-01  0.13175727352E+00  0.20114209728E-01 0.  0.
         14    1    1    2    0    0  0.87086912999E-02  0.21330140427E-01  0.53348312308E-02  0.23649029981E-01  0.00000000000E+00 0. -1.
     999901    1    3    3    0    0  0.91177404604E-01  0.14021455239E-01 -0.81021225130E-01  0.88852369650E+00  0.88000000000E+00 0.  1.
        -11    1    4    4    0    0 -0.30400595447E-01 -0.50518706625E-02  0.13250519356E-01  0.33549291869E-01  0.51100000000E-03 0.  1.
         11    1    4    4    0    0 -0.69485500457E-01 -0.30299725003E-01  0.62435874543E-01  0.98207981651E-01  0.51100000000E-03 0. -1.
</event>
<event>
 8    1  0.1150863E+005  0.1043930E+01  0.7957747E-01            NaN
         13   -1    0    0    0    0  0.00000000000E+00  0.00000000000E+00  0.74505805969E-08  0.10566000000E+00  0.10566000000E+00 0.  1.
     999900   -1    0    0    0    0 -0.00000000000E+00 -0.00000000000E+00 -0.74505805969E-08  0.93827000000E+00  0.93827000000E+00 0.  1.
     999902    2    1    2    0    0 -0.14003806404E-01  0.17926448368E-01 -0.47366174800E-02  0.10206942584E+01  0.10204297474E+01 0.  0.
     999903    2    3    3    0    0  0.38356713446E-01  0.11700351732E+00 -0.44743029063E-01  0.13268614882E+00  0.21038414986E-01 0.  0.
         14    1    1    2    0    0  0.14003806404E-01 -0.17926448368E-01  0.47366174800E-02  0.23235741650E-01  0.00000000000E+00 0.  1.
     999901    1    3    3    0    0 -0.52360519850E-01 -0.99077068956E-01  0.40006411583E-01  0.88800810953E+00  0.88000000000E+00 0. -1.
        -11    1    4    4    0    0  0.29847190236E-01  0.10907901043E+00 -0.42622361161E-01  0.12085533532E+00  0.51100000000E-03 0. -1.
         11    1    4    4    0    0  0.85095232104E-02  0.79245068892E-02 -0.21206679021E-02  0.11830813499E-01  0.51100000000E-03 0.  1.
</event>
<event>
 8    1  0.1150863E+005  0.1043930E+01  0.7957747E-01            NaN
         13   -1    0    0    0    0  0.00000000000E+00  0.00000000000E+00  0.74505805969E-08  0.10566000000E+00  0.10566000000E+00 0.  1.
     999900   -1    0    0    0    0 -0.00000000000E+00 -0.00000000000E+00 -0.74505805969E-08  0.93827000000E+00  0.93827000000E+00 0. -1.
     999902    2    1    2    0    0 -0.14809936092E-01 -0.31938025382E-02  0.18234375374E-01  0.10202228908E+01  0.10199474103E+01 0.  0.
     999903    2    3    3    0    0  0.98967098697E-01  0.79151682733E-01  0.97391179798E-02  0.12904492765E+00  0.22321904701E-01 0.  0.
         14    1    1    2    0    0  0.14809936092E-01  0.31938025382E-02 -0.18234375374E-01  0.23707109208E-01  0.00000000000E+00 0. -1.
     999901    1    3    3    0    0 -0.11377703479E+00 -0.82345485271E-01  0.84952573943E-02  0.89117796314E+00  0.88000000000E+00 0.  1.
        -11    1    4    4    0    0  0.48830419929E-01  0.53024380506E-01  0.36109549315E-02  0.72175445652E-01  0.51100000000E-03 0.  1.
         11    1    4    4    0    0  0.50136678768E-01  0.26127302227E-01  0.61281630483E-02  0.56869481999E-01  0.51100000000E-03 0. -1.
</event>
<event>
 8    1  0.1150863E+005  0.1043930E+01  0.7957747E-01            NaN
         13   -1    0    0    0    0  0.00000000000E+00  0.00000000000E+00  0.74505805969E-08  0.10566000000E+00  0.10566000000E+00 0.  1.
     999900   -1    0    0    0    0 -0.00000000000E+00 -0.00000000000E+00 -0.74505805969E-08  0.93827000000E+00  0.93827000000E+00 0. -1.
     999902    2    1    2    0    0  0.19433841290E-01 -0.73800360795E-03  0.13734537889E-01  0.10201212544E+01  0.10198433788E+01 0.  0.
     999903    2    3    3    0    0  0.42241206562E-01 -0.78936792824E-01  0.95721183312E-01  0.13256447504E+00  0.19886133707E-01 0.  0.
         14    1    1    2    0    0 -0.19433841290E-01  0.73800360795E-03 -0.13734537889E-01  0.23808745612E-01  0.00000000000E+00 0. -1.
     999901    1    3    3    0    0 -0.22807365272E-01  0.78198789216E-01 -0.81986645423E-01  0.88755677935E+00  0.88000000000E+00 0. -1.
        -11    1    4    4    0    0  0.40515289154E-01 -0.75079860530E-01  0.95832593653E-01  0.12830674667E+00  0.51100000000E-03 0.  1.
         11    1    4    4    0    0  0.17259174076E-02 -0.38569322936E-02 -0.11141034127E-03  0.42577283708E-02  0.51100000000E-03 0. -1.
</event>
<event>
 8    1  0.1150863E+005  0.1043930E+01  0.7957747E-01            NaN
         13   -1    0    0    0    0  0.00000000000E+00  0.00000000000E+00  0.74505805969E-08  0.10566000000E+00  0.10566000000E+00 0.  1.
     999900   -1    0    0    0    0 -0.00000000000E+00 -0.00000000000E+00 -0.74505805969E-08  0.93827000000E+00  0.93827000000E+00 0. -1.
     999902    2    1    2    0    0 -0.13949583468E-01  0.10515712946E-01  0.16183459440E-01  0.10201166538E+01  0.10198386695E+01 0.  0.
     999903    2    3    3    0    0  0.53146650670E-01 -0.88241895655E-01  0.76928724274E-01  0.12997904810E+00  0.19113495217E-01 0.  0.
         14    1    1    2    0    0  0.13949583468E-01 -0.10515712946E-01 -0.16183459440E-01  0.23813346197E-01  0.00000000000E+00 0. -1.
     999901    1    3    3    0    0 -0.67096234138E-01  0.98757608601E-01 -0.60745264835E-01  0.89013760571E+00  0.88000000000E+00 0. -1.
        -11    1    4    4    0    0  0.43988167994E-01 -0.73975037024E-01  0.54546696200E-01  0.10189636016E+00  0.51100000000E-03 0.  1.
         11    1    4    4    0    0  0.91584826765E-02 -0.14266858631E-01  0.22382028075E-01  0.28082687939E-01  0.51100000000E-03 0. -1.
</event>
<event>
 8    1  0.1150863E+005  0.1043930E+01  0.7957747E-01            NaN
         13   -1    0    0    0    0  0.00000000000E+00  0.00000000000E+00  0.74505805969E-08  0.10566000000E+00  0.10566000000E+00 0. -1.
     999900   -1    0    0    0    0 -0.00000000000E+00 -0.00000000000E+00 -0.74505805969E-08  0.93827000000E+00  0.93827000000E+00 0. -1.
     999902    2    1    2    0    0 -0.28148024329E-02  0.60273926075E-05  0.23408925880E-01  0.10203524480E+01  0.10200800053E+01 0.  0.
     999903    2    3    3    0    0 -0.20172931263E-01  0.73103495363E-01  0.10760366180E+00  0.13314711772E+00  0.19963434929E-01 0.  0.
         14    1    1    2    0    0  0.28148024329E-02 -0.60273926076E-05 -0.23408925880E-01  0.23577552034E-01  0.00000000000E+00 0.  1.
     999901    1    3    3    0    0  0.17358128831E-01 -0.73097467970E-01 -0.84194735922E-01  0.88720533025E+00  0.88000000000E+00 0. -1.
        -11    1    4    4    0    0 -0.23767376750E-01  0.64351057134E-01  0.90109883849E-01  0.11325192731E+00  0.51100000000E-03 0.  1.
         11    1    4    4    0    0  0.35944454863E-02  0.87524382289E-02  0.17493777952E-01  0.19895190408E-01  0.51100000000E-03 0. -1.
</event>
<event>
 8    1  0.1150863E+005  0.1043930E+01  0.7957747E-01            NaN
         13   -1    0    0    0    0  0.00000000000E+00  0.00000000000E+00  0.74505805969E-08  0.10566000000E+00  0.10566000000E+00 0.  1.
     999900   -1    0    0    0    0 -0.00000000000E+00 -0.00000000000E+00 -0.74505805969E-08  0.93827000000E+00  0.93827000000E+00 0. -1.
     999902    2    1    2    0    0  0.25086950267E-02  0.11158237048E-01  0.20346434629E-01  0.10205895371E+01  0.10203226088E+01 0.  0.
     999903    2    3    3    0    0  0.70830659124E-01  0.20077748520E-01  0.10947741206E+00  0.13340760562E+00  0.19803717568E-01 0.  0.
         14    1    1    2    0    0 -0.25086950267E-02 -0.11158237048E-01 -0.20346434629E-01  0.23340462867E-01  0.00000000000E+00 0. -1.
     999901    1    3    3    0    0 -0.68321964098E-01 -0.89195114720E-02 -0.89130977427E-01  0.88718193151E+00  0.88000000000E+00 0. -1.
        -11    1    4    4    0    0  0.45102611207E-01  0.21480000379E-01  0.64698541288E-01  0.81742267646E-01  0.51100000000E-03 0.  1.
         11    1    4    4    0    0  0.25728047917E-01 -0.14022518597E-02  0.44778870768E-01  0.51665337976E-01  0.51100000000E-03 0. -1.
</event>
<event>
 8    1  0.1150863E+005  0.1043930E+01  0.7957747E-01            NaN
         13   -1    0    0    0    0  0.00000000000E+00  0.00000000000E+00  0.74505805969E-08  0.10566000000E+00  0.10566000000E+00 0.  1.
     999900   -1    0    0    0    0 -0.00000000000E+00 -0.00000000000E+00 -0.74505805969E-08  0.93827000000E+00  0.93827000000E+00 0. -1.
     999902    2    1    2    0    0 -0.89769840529E-02 -0.18353914755E-01  0.13920947291E-01  0.10192066264E+01  0.10189067190E+01 0.  0.
     999903    2    3    3    0    0  0.31102788730E-01 -0.89218608723E-01  0.90185539249E-01  0.13216407891E+00  0.20163547700E-01 0.  0.
         14    1    1    2    0    0  0.89769840529E-02  0.18353914755E-01 -0.13920947291E-01  0.24723373616E-01  0.00000000000E+00 0. -1.
     999901    1    3    3    0    0 -0.40079772783E-01  0.70864693969E-01 -0.76264591958E-01  0.88704254747E+00  0.88000000000E+00 0.  1.
        -11    1    4    4    0    0  0.17560538307E-01 -0.24817517031E-01  0.23085400222E-01  0.38176936514E-01  0.51100000000E-03 0. -1.
         11    1    4    4    0    0  0.13542250422E-01 -0.64401091693E-01  0.67100139027E-01  0.93987142398E-01  0.51100000000E-03 0.  1.
</event>
<event>
 8    1  0.1150863E+005  0.1043930E+01  0.7957747E-01            NaN
         13   -1    0    0    0    0  0.00000000000E+00  0.00000000000E+00  0.74505805969E-08  0.10566000000E+00  0.10566000000E+00 0.  1.
     999900   -1    0    0    0    0 -0.00000000000E+00 -0.00000000000E+00 -0.74505805969E-08  0.93827000000E+00  0.93827000000E+00 0. -1.
     999902    2    1    2    0    0  0.41086502815E-02  0.11745426082E-01  0.19982356383E-01  0.10203900211E+01  0.10201184561E+01 0.  0.
     999903    2    3    3    0    0 -0.30527543178E-01  0.36150610231E-01 -0.11792723953E+00  0.12864211076E+00  0.20078877622E-01 0.  0.
         14    1    1    2    0    0 -0.41086502815E-02 -0.11745426082E-01 -0.19982356383E-01  0.23539978921E-01  0.00000000000E+00 0.  1.
     999901    1    3    3    0    0  0.34636193459E-01 -0.24405184148E-01  0.13790959591E+00  0.89174791032E+00  0.88000000000E+00 0.  1.
        -11    1    4    4    0    0 -0.27487592197E-01  0.22593352311E-01 -0.67153502537E-01  0.75999219190E-01  0.51100000000E-03 0.  1.
         11    1    4    4    0    0 -0.30399509805E-02  0.13557257920E-01 -0.50773736989E-01  0.52642891572E-01  0.51100000000E-03 0. -1.
</event>
<event>
 8    1  0.1150863E+005  0.1043930E+01  0.7957747E-01            NaN
         13   -1    0    0    0    0  0.00000000000E+00  0.00000000000E+00  0.74505805969E-08  0.10566000000E+00  0.10566000000E+00 0. -1.
     999900   -1    0    0    0    0 -0.00000000000E+00 -0.00000000000E+00 -0.74505805969E-08  0.93827000000E+00  0.93827000000E+00 0.  1.
     999902    2    1    2    0    0 -0.18296206556E-01 -0.16881902656E-02 -0.14841010060E-01  0.10203110089E+01  0.10200375964E+01 0.  0.
     999903    2    3    3    0    0 -0.11168320997E+00  0.54221010310E-01 -0.43682641446E-01  0.13313638640E+00  0.20101414707E-01 0.  0.
         14    1    1    2    0    0  0.18296206556E-01  0.16881902656E-02  0.14841010060E-01  0.23618991094E-01  0.00000000000E+00 0. -1.
     999901    1    3    3    0    0  0.93387003410E-01 -0.55909200576E-01  0.28841631386E-01  0.88717462250E+00  0.88000000000E+00 0. -1.
        -11    1    4    4    0    0 -0.65183314520E-01  0.33628603881E-01 -0.35980824458E-01  0.81698398641E-01  0.51100000000E-03 0.  1.
         11    1    4    4    0    0 -0.46499895446E-01  0.20592406430E-01 -0.77018169875E-02  0.51437987761E-01  0.51100000000E-03 0. -1.
</event>
<event>
 8    1  0.1150863E+005  0.1043930E+01  0.7957747E-01            NaN
         13   -1    0    0    0    0  0.00000000000E+00  0.00000000000E+00  0.74505805969E-08  0.10566000000E+00  0.10566000000E+00 0. -1.
     999900   -1    0    0    0    0 -0.00000000000E+00 -0.00000000000E+00 -0.74505805969E-08  0.93827000000E+00  0.93827000000E+00 0.  1.
     999902    2    1    2    0    0  0.11137690717E-02 -0.23046667115E-01 -0.69219634491E-02  0.10198405225E+01  0.10195559761E+01 0.  0.
     999903    2    3    3    0    0 -0.51922362889E-01  0.33660770615E-01 -0.11273666147E+00  0.13010723940E+00  0.19732198525E-01 0.  0.
         14    1    1    2    0    0 -0.11137690717E-02  0.23046667115E-01  0.69219634491E-02  0.24089477467E-01  0.00000000000E+00 0.  1.
     999901    1    3    3    0    0  0.53036131961E-01 -0.56707437730E-01  0.10581469803E+00  0.88973328313E+00  0.88000000000E+00 0.  1.
        -11    1    4    4    0    0 -0.26111733674E-01  0.11341503927E-01 -0.68912646120E-01  0.74563169615E-01  0.51100000000E-03 0. -1.
         11    1    4    4    0    0 -0.25810629216E-01  0.22319266688E-01 -0.43824015355E-01  0.55544069790E-01  0.51100000000E-03 0.  1.
</event>
<event>
 8    1  0.1150863E+005  0.1043930E+01  0.7957747E-01            NaN
         13   -1    0    0    0    0  0.00000000000E+00  0.00000000000E+00  0.74505805969E-08  0.10566000000E+00  0.10566000000E+00 0. -1.
     999900   -1    0    0    0    0 -0.00000000000E+00 -0.00000000000E+00 -0.74505805969E-08  0.93827000000E+00  0.93827000000E+00 0. -1.
     999902    2    1    2    0    0  0.63716892857E-02  0.20906669704E-01  0.39982981764E-02  0.10217112320E+01  0.10214696119E+01 0.  0.
     999903    2    3    3    0    0 -0.10759757641E+00  0.73688758188E-01 -0.14216107850E-01  0.13260679103E+00  0.19369867669E-01 0.  0.
         14    1    1    2    0    0 -0.63716892857E-02 -0.20906669704E-01 -0.39982981764E-02  0.22218767985E-01  0.00000000000E+00 0.  1.
     999901    1    3    3    0    0  0.11396926569E+00 -0.52782088484E-01  0.18214406026E-01  0.88910444098E+00  0.88000000000E+00 0.  1.
        -11    1    4    4    0    0 -0.65721611757E-01  0.33872833888E-01 -0.10763519036E-01  0.74718227967E-01  0.51100000000E-03 0. -1.
         11    1    4    4    0    0 -0.41875964651E-01  0.39815924299E-01 -0.34525888144E-02  0.57888563066E-01  0.51100000000E-03 0.  1.
</event>
<event>
 8    1  0.1150863E+005  0.1043930E+01  0.7957747E-01            NaN
         13   -1    0    0    0    0  0.00000000000E+00  0.00000000000E+00  0.74505805969E-08  0.10566000000E+00  0.10566000000E+00 0.  1.
     999900   -1    0    0    0    0 -0.00000000000E+00 -0.00000000000E+00 -0.74505805969E-08  0.93827000000E+00  0.93827000000E+00 0.  1.
     999902    2    1    2    0    0  0.39156232423E-02  0.20080458223E-01 -0.11401502890E-01  0.10205088306E+01  0.10202400316E+01 0.  0.
     999903    2    3    3    0    0 -0.87700781510E-01  0.39281299000E-01  0.85074433872E-01  0.13030107716E+00  0.22500308508E-01 0.  0.
         14    1    1    2    0    0 -0.39156232423E-02 -0.20080458223E-01  0.11401502890E-01  0.23421169398E-01  0.00000000000E+00 0.  1.
     999901    1    3    3    0    0  0.91616404752E-01 -0.19200840777E-01 -0.96475936762E-01  0.89020775344E+00  0.88000000000E+00 0.  1.
        -11    1    4    4    0    0 -0.20210826668E-01  0.15489650479E-01  0.12473313916E-01  0.28359327700E-01  0.51100000000E-03 0. -1.
         11    1    4    4    0    0 -0.67489954842E-01  0.23791648521E-01  0.72601119956E-01  0.10194174946E+00  0.51100000000E-03 0.  1.
</event>
<event>
 8    1  0.1150863E+005  0.1043930E+01  0.7957747E-01            NaN
         13   -1    0    0    0    0  0.00000000000E+00  0.00000000000E+00  0.74505805969E-08  0.10566000000E+00  0.10566000000E+00 0.  1.
     999900   -1    0    0    0    0 -0.00000000000E+00 -0.00000000000E+00 -0.74505805969E-08  0.93827000000E+00  0.93827000000E+00 0.  1.
     999902    2    1    2    0    0 -0.19001829201E-02  0.21730658466E-01  0.89067416339E-02  0.10203681185E+01  0.10200960421E+01 0.  0.
     999903    2    3    3    0    0 -0.20232417774E-01 -0.99173297021E-01 -0.75600163006E-01  0.12790229048E+00  0.19972923964E-01 0.  0.
         14    1    1    2    0    0  0.19001829201E-02 -0.21730658466E-01 -0.89067416339E-02  0.23561881484E-01  0.00000000000E+00 0.  1.
     999901    1    3    3    0    0  0.18332234854E-01  0.12090395549E+00  0.84506904640E-01  0.89246582804E+00  0.88000000000E+00 0. -1.
        -11    1    4    4    0    0 -0.15665182858E-01 -0.66668363846E-01 -0.61954762919E-01  0.92351082620E-01  0.51100000000E-03 0.  1.
         11    1    4    4    0    0 -0.45672349159E-02 -0.32504933175E-01 -0.13645400087E-01  0.35551207856E-01  0.51100000000E-03 0. -1.
</event>
<event>
 8    1  0.1150863E+005  0.1043930E+01  0.7957747E-01            NaN
         13   -1    0    0    0    0  0.00000000000E+00  0.00000000000E+00  0.74505805969E-08  0.10566000000E+00  0.10566000000E+00 0.  1.
     999900   -1    0    0    0    0 -0.00000000000E+00 -0.00000000000E+00 -0.74505805969E-08  0.93827000000E+00  0.93827000000E+00 0.  1.
     999902    2    1    2    0    0  0.21977018263E-01 -0.54536500210E-03  0.61236754754E-02  0.10211092604E+01  0.10208542185E+01 0.  0.
     999903    2    3    3    0    0  0.27375220642E-01  0.12668720806E+00 -0.12157041734E-01  0.13175474567E+00  0.20309307024E-01 0.  0.
         14    1    1    2    0    0 -0.21977018263E-01  0.54536500210E-03 -0.61236754754E-02  0.22820739604E-01  0.00000000000E+00 0. -1.
     999901    1    3    3    0    0 -0.53982023784E-02 -0.12723257306E+00  0.18280717209E-01  0.88935451472E+00  0.88000000000E+00 0. -1.
        -11    1    4    4    0    0  0.12743447006E-01  0.93125222160E-01 -0.14298582704E-01  0.95075827803E-01  0.51100000000E-03 0.  1.
         11    1    4    4    0    0  0.14631773635E-01  0.33561985902E-01  0.21415409702E-02  0.36678917870E-01  0.51100000000E-03 0. -1.
</event>
<event>
 8    1  0.1150863E+005  0.1043930E+01  0.7957747E-01            NaN
         13   -1    0    0    0    0  0.00000000000E+00  0.00000000000E+00  0.74505805969E-08  0.10566000000E+00  0.10566000000E+00 0.  1.
     999900   -1    0    0    0    0 -0.00000000000E+00 -0.00000000000E+00 -0.74505805969E-08  0.93827000000E+00  0.93827000000E+00 0.  1.
     999902    2    1    2    0    0  0.24688038108E-02  0.20109356671E-01 -0.11146068114E-01  0.10208060719E+01  0.10205441295E+01 0.  0.
     999903    2    3    3    0    0 -0.70916802980E-01 -0.80813775147E-01 -0.70438725555E-01  0.13002745456E+00  0.19633279993E-01 0.  0.
         14    1    1    2    0    0 -0.24688038108E-02 -0.20109356671E-01  0.11146068114E-01  0.23123928135E-01  0.00000000000E+00 0.  1.
     999901    1    3    3    0    0  0.73385606791E-01  0.10092313182E+00  0.59292657441E-01  0.89077861730E+00  0.88000000000E+00 0. -1.
        -11    1    4    4    0    0 -0.56799635432E-01 -0.61980462821E-01 -0.63883150557E-01  0.10558927220E+00  0.51100000000E-03 0.  1.
         11    1    4    4    0    0 -0.14117167548E-01 -0.18833312326E-01 -0.65555749983E-02  0.24438182365E-01  0.51100000000E-03 0. -1.
</event>
<event>
 8    1  0.1150863E+005  0.1043930E+01  0.7957747E-01            NaN
         13   -1    0    0    0    0  0.00000000000E+00  0.00000000000E+00  0.74505805969E-08  0.10566000000E+00  0.10566000000E+00 0. -1.
     999900   -1    0    0    0    0 -0.00000000000E+00 -0.00000000000E+00 -0.74505805969E-08  0.93827000000E+00  0.93827000000E+00 0. -1.
     999902    2    1    2    0    0  0.23577071970E-01 -0.48250857916E-02 -0.13612173398E-02  0.10198257952E+01  0.10195408966E+01 0.  0.
     999903    2    3    3    0    0 -0.10823246386E+00  0.13629045186E-01  0.62955589319E-01  0.12749684225E+00  0.19799531604E-01 0.  0.
         14    1    1    2    0    0 -0.23577071970E-01  0.48250857916E-02  0.13612173398E-02  0.24104204783E-01  0.00000000000E+00 0.  1.
     999901    1    3    3    0    0  0.13180953583E+00 -0.18454130977E-01 -0.64316806659E-01  0.89232895297E+00  0.88000000000E+00 0. -1.
        -11    1    4    4    0    0 -0.83975981237E-01  0.70197687252E-02  0.56746511148E-01  0.10159562110E+00  0.51100000000E-03 0. -1.
         11    1    4    4    0    0 -0.24256482620E-01  0.66092764605E-02  0.62090781713E-02  0.25901221152E-01  0.51100000000E-03 0.  1.
</event>
<event>
 8    1  0.1236297E+005  0.1043930E+01  0.7957747E-01            NaN
         13   -1    0    0    0    0  0.00000000000E+00  0.00000000000E+00  0.74505805969E-08  0.10566000000E+00  0.10566000000E+00 0. -1.
     999900   -1    0    0    0    0 -0.00000000000E+00 -0.00000000000E+00 -0.74505805969E-08  0.93827000000E+00  0.93827000000E+00 0. -1.
     999902    2    1    2    0    0  0.12383120235E-01  0.19701710134E-01  0.90783083022E-03  0.10206421661E+01  0.10203764541E+01 0.  0.
     999903    2    3    3    0    0  0.23700945764E-01  0.78358033331E-01 -0.10220824298E+00  0.13260974438E+00  0.20907012054E-01 0.  0.
         14    1    1    2    0    0 -0.12383120235E-01 -0.19701710134E-01 -0.90783083022E-03  0.23287833857E-01  0.00000000000E+00 0.  1.
     999901    1    3    3    0    0 -0.11317825529E-01 -0.58656323198E-01  0.10311607381E+00  0.88803242176E+00  0.88000000000E+00 0.  1.
        -11    1    4    4    0    0  0.50149488238E-02  0.43277546457E-01 -0.42391611887E-01  0.60789847988E-01  0.51100000000E-03 0. -1.
         11    1    4    4    0    0  0.18685996940E-01  0.35080486874E-01 -0.59816631095E-01  0.71819896390E-01  0.51100000000E-03 0.  1.
</event>
<event>
 8    1  0.1150863E+005  0.1043930E+01  0.7957747E-01            NaN
         13   -1    0    0    0    0  0.00000000000E+00  0.00000000000E+00  0.74505805969E-08  0.10566000000E+00  0.10566000000E+00 0. -1.
     999900   -1    0    0    0    0 -0.00000000000E+00 -0.00000000000E+00 -0.74505805969E-08  0.93827000000E+00  0.93827000000E+00 0.  1.
     999902    2    1    2    0    0  0.31470127378E-02 -0.15021243802E-01  0.18223322819E-01  0.10201049932E+01  0.10198267334E+01 0.  0.
     999903    2    3    3    0    0 -0.10496094673E-01 -0.12864112061E+00  0.23715190216E-01  0.13267850532E+00  0.19556830265E-01 0.  0.
         14    1    1    2    0    0 -0.31470127378E-02  0.15021243802E-01 -0.18223322819E-01  0.23825006802E-01  0.00000000000E+00 0.  1.
     999901    1    3    3    0    0  0.13643107411E-01  0.11361987681E+00 -0.54918673968E-02  0.88742648788E+00  0.88000000000E+00 0.  1.
        -11    1    4    4    0    0 -0.28487598371E-02 -0.11195186944E+00  0.22826893403E-01  0.11429201498E+00  0.51100000000E-03 0. -1.
         11    1    4    4    0    0 -0.76473348364E-02 -0.16689251171E-01  0.88829681281E-03  0.18386490339E-01  0.51100000000E-03 0.  1.
</event>
<event>
 8    1  0.1150863E+005  0.1043930E+01  0.7957747E-01            NaN
         13   -1    0    0    0    0  0.00000000000E+00  0.00000000000E+00  0.74505805969E-08  0.10566000000E+00  0.10566000000E+00 0. -1.
     999900   -1    0    0    0    0 -0.00000000000E+00 -0.00000000000E+00 -0.74505805969E-08  0.93827000000E+00  0.93827000000E+00 0.  1.
     999902    2    1    2    0    0  0.12409966645E-01 -0.20726098431E-01 -0.12825835717E-02  0.10197386080E+01  0.10194516198E+01 0.  0.
     999903    2    3    3    0    0  0.21691449465E-01 -0.10055062699E+00  0.80737795201E-01  0.13227849966E+00  0.19951499478E-01 0.  0.
         14    1    1    2    0    0 -0.12409966645E-01  0.20726098431E-01  0.12825835717E-02  0.24191392042E-01  0.00000000000E+00 0. -1.
     999901    1    3    3    0    0 -0.92814828199E-02  0.79824528557E-01 -0.82020378773E-01  0.88746010830E+00  0.88000000000E+00 0.  1.
        -11    1    4    4    0    0 -0.15749644204E-02 -0.18062011981E-01  0.21303977813E-01  0.27979231251E-01  0.51100000000E-03 0.  1.
         11    1    4    4    0    0  0.23266413886E-01 -0.82488615007E-01  0.59433817388E-01  0.10429926841E+00  0.51100000000E-03 0. -1.
</event>
<event>
 8    1  0.1150863E+005  0.1043930E+01  0.7957747E-01            NaN
         13   -1    0    0    0    0  0.00000000000E+00  0.00000000000E+00  0.74505805969E-08  0.10566000000E+00  0.10566000000E+00 0. -1.
     999900   -1    0    0    0    0 -0.00000000000E+00 -0.00000000000E+00 -0.74505805969E-08  0.93827000000E+00  0.93827000000E+00 0.  1.
     999902    2    1    2    0    0  0.88688031136E-02 -0.11456210993E-02  0.22067017330E-01  0.10201198893E+01  0.10198419815E+01 0.  0.
     999903    2    3    3    0    0 -0.62425624086E-03 -0.83899773252E-01 -0.95304066955E-01  0.12842804833E+00  0.19270100479E-01 0.  0.
         14    1    1    2    0    0 -0.88688031136E-02  0.11456210993E-02 -0.22067017330E-01  0.23810110672E-01  0.00000000000E+00 0.  1.
     999901    1    3    3    0    0  0.94930593545E-02  0.82754152153E-01  0.11737108428E+00  0.89169184100E+00  0.88000000000E+00 0. -1.
        -11    1    4    4    0    0 -0.84024638866E-02 -0.24921710888E-01 -0.34208764388E-01  0.43153143048E-01  0.51100000000E-03 0.  1.
         11    1    4    4    0    0  0.77782076457E-02 -0.58978062363E-01 -0.61095302567E-01  0.85274905283E-01  0.51100000000E-03 0. -1.
</event>
<event>
 8    1  0.1150863E+005  0.1043930E+01  0.7957747E-01            NaN
         13   -1    0    0    0    0  0.00000000000E+00  0.00000000000E+00  0.74505805969E-08  0.10566000000E+00  0.10566000000E+00 0. -1.
     999900   -1    0    0    0    0 -0.00000000000E+00 -0.00000000000E+00 -0.74505805969E-08  0.93827000000E+00  0.93827000000E+00 0.  1.
     999902    2    1    2    0    0  0.20603384180E-01  0.74688636752E-02 -0.50816381322E-02  0.10214331911E+01  0.10211854178E+01 0.  0.
     999903    2    3    3    0    0  0.42938468670E-01  0.27972251764E-01 -0.12149856000E+00  0.13324844421E+00  0.19159562699E-01 0.  0.
         14    1    1    2    0    0 -0.20603384180E-01 -0.74688636752E-02  0.50816381322E-02  0.22496808893E-01  0.00000000000E+00 0. -1.
     999901    1    3    3    0    0 -0.22335084490E-01 -0.20503388088E-01  0.11641692186E+00  0.88818474690E+00  0.88000000000E+00 0. -1.
        -11    1    4    4    0    0  0.32119539784E-02 -0.22004088708E-03 -0.24373721745E-01  0.24590740108E-01  0.51100000000E-03 0. -1.
         11    1    4    4    0    0  0.39726514692E-01  0.28192292651E-01 -0.97124838251E-01  0.10865770410E+00  0.51100000000E-03 0.  1.
</event>
<event>
 8    1  0.1150863E+005  0.1043930E+01  0.7957747E-01            NaN
         13   -1    0    0    0    0  0.00000000000E+00  0.00000000000E+00  0.74505805969E-08  0.10566000000E+00  0.10566000000E+00 0.  1.
     999900   -1    0    0    0    0 -0.00000000000E+00 -0.00000000000E+00 -0.74505805969E-08  0.93827000000E+00  0.93827000000E+00 0.  1.
     999902    2    1    2    0    0 -0.10941863903E-02 -0.13766353986E-01  0.19136345064E-01  0.10203310710E+01  0.10200581283E+01 0.  0.
     999903    2    3    3    0    0 -0.12214068447E+00 -0.14263373167E-01 -0.37788201074E-01  0.13022270365E+00  0.20204301252E-01 0.  0.
         14    1    1    2    0    0  0.10941863903E-02  0.13766353986E-01 -0.19136345064E-01  0.23598928966E-01  0.00000000000E+00 0. -1.
     999901    1    3    3    0    0  0.12104649808E+00  0.49701918063E-03  0.56924546139E-01  0.89010836738E+00  0.88000000000E+00 0. -1.
        -11    1    4    4    0    0 -0.11782987066E+00 -0.16801549668E-01 -0.33589468157E-01  0.12367167818E+00  0.51100000000E-03 0.  1.
         11    1    4    4    0    0 -0.43108138087E-02  0.25381765017E-02 -0.41987329171E-02  0.65510254737E-02  0.51100000000E-03 0. -1.
</event>
<event>
 8    1  0.1150863E+005  0.1043930E+01  0.7957747E-01            NaN
         13   -1    0    0    0    0  0.00000000000E+00  0.00000000000E+00  0.74505805969E-08  0.10566000000E+00  0.10566000000E+00 0.  1.
     999900   -1    0    0    0    0 -0.00000000000E+00 -0.00000000000E+00 -0.74505805969E-08  0.93827000000E+00  0.93827000000E+00 0.  1.
     999902    2    1    2    0    0  0.15332043593E-01  0.12613607354E-01  0.13266629214E-01  0.10200515976E+01  0.10197720744E+01 0.  0.
     999903    2    3    3    0    0 -0.29150920582E-01 -0.87378044889E-01  0.89171807015E-01  0.13002987839E+00  0.21713111436E-01 0.  0.
         14    1    1    2    0    0 -0.15332043593E-01 -0.12613607354E-01 -0.13266629214E-01  0.23878402416E-01  0.00000000000E+00 0.  1.
     999901    1    3    3    0    0  0.44482964176E-01  0.99991652243E-01 -0.75905177801E-01  0.89002171919E+00  0.88000000000E+00 0.  1.
        -11    1    4    4    0    0 -0.96684699735E-02 -0.48126409477E-01  0.59351279887E-01  0.77022504153E-01  0.51100000000E-03 0.  1.
         11    1    4    4    0    0 -0.19482450609E-01 -0.39251635412E-01  0.29820527128E-01  0.53007374236E-01  0.51100000000E-03 0. -1.
</event>
<event>
 8    1  0.1150863E+005  0.1043930E+01  0.7957747E-01            NaN
         13   -1    0    0    0    0  0.00000000000E+00  0.00000000000E+00  0.74505805969E-08  0.10566000000E+00  0.10566000000E+00 0. -1.
     999900   -1    0    0    0    0 -0.00000000000E+00 -0.00000000000E+00 -0.74505805969E-08  0.93827000000E+00  0.93827000000E+00 0. -1.
     999902    2    1    2    0    0  0.21194018356E-01  0.10478451716E-01  0.45896820585E-03  0.10202826954E+01  0.10200086193E+01 0.  0.
     999903    2    3    3    0    0  0.10403001180E+00 -0.69188009548E-01  0.37815075069E-01  0.13202370972E+00  0.19775136082E-01 0.  0.
         14    1    1    2    0    0 -0.21194018356E-01 -0.10478451716E-01 -0.45896820585E-03  0.23647304630E-01  0.00000000000E+00 0.  1.
     999901    1    3    3    0    0 -0.82835993442E-01  0.79666461264E-01 -0.37356106863E-01  0.88825898565E+00  0.88000000000E+00 0.  1.
        -11    1    4    4    0    0  0.62499554928E-01 -0.50116415965E-01  0.30582409868E-01  0.85751935428E-01  0.51100000000E-03 0. -1.
         11    1    4    4    0    0  0.41530456870E-01 -0.19071593583E-01  0.72326652013E-02  0.46271774297E-01  0.51100000000E-03 0.  1.
</event>
<event>
 8    1  0.1150863E+005  0.1043930E+01  0.7957747E-01            NaN
         13   -1    0    0    0    0  0.00000000000E+00  0.00000000000E+00  0.74505805969E-08  0.10566000000E+00  0.10566000000E+00 0. -1.
     999900   -1    0    0    0    0 -0.00000000000E+00 -0.00000000000E+00 -0.74505805969E-08  0.93827000000E+00  0.93827000000E+00 0. -1.
     999902    2    1    2    0    0  0.13813548922E-01 -0.49616935249E-02 -0.17260375062E-01  0.10212727035E+01  0.10210213425E+01 0.  0.
     999903    2    3    3    0    0  0.44440547962E-01  0.74422940027E-01  0.96514307708E-01  0.12987794722E+00  0.62875493975E-02 0.  0.
         14    1    1    2    0    0 -0.13813548922E-01  0.49616935249E-02  0.17260375062E-01  0.22657296479E-01  0.00000000000E+00 0. -1.
     999901    1    3    3    0    0 -0.30626999040E-01 -0.79384633552E-01 -0.11377468277E+00  0.89139475630E+00  0.88000000000E+00 0. -1.
        -11    1    4    4    0    0  0.28187192244E-01  0.52781725338E-01  0.66182918592E-01  0.89223697360E-01  0.51100000000E-03 0. -1.
         11    1    4    4    0    0  0.16253355718E-01  0.21641214689E-01  0.30331389116E-01  0.40654249864E-01  0.51100000000E-03 0.  1.
</event>
<event>
 8    1  0.1150863E+005  0.1043930E+01  0.7957747E-01            NaN
         13   -1    0    0    0    0  0.00000000000E+00  0.00000000000E+00  0.74505805969E-08  0.10566000000E+00  0.10566000000E+00 0. -1.
     999900   -1    0    0    0    0 -0.00000000000E+00 -0.00000000000E+00 -0.74505805969E-08  0.93827000000E+00  0.93827000000E+00 0. -1.
     999902    2    1    2    0    0  0.91212441261E-02  0.21647733780E-01 -0.27487048517E-02  0.10202788510E+01  0.10200046847E+01 0.  0.
     999903    2    3    3    0    0  0.47461477743E-01  0.10086227815E+00  0.69544097824E-01  0.13293947571E+00  0.20266515191E-01 0.  0.
         14    1    1    2    0    0 -0.91212441261E-02 -0.21647733780E-01  0.27487048517E-02  0.23651149033E-01  0.00000000000E+00 0. -1.
     999901    1    3    3    0    0 -0.38340233617E-01 -0.79214544370E-01 -0.72292802675E-01  0.88733937525E+00  0.88000000000E+00 0. -1.
        -11    1    4    4    0    0  0.13042234576E-01  0.51410399269E-01  0.33109042744E-01  0.62526785206E-01  0.51100000000E-03 0.  1.
         11    1    4    4    0    0  0.34419243167E-01  0.49451878881E-01  0.36435055080E-01  0.70412690509E-01  0.51100000000E-03 0. -1.
</event>
<event>
 8    1  0.1150863E+005  0.1043930E+01  0.7957747E-01            NaN
         13   -1    0    0    0    0  0.00000000000E+00  0.00000000000E+00  0.74505805969E-08  0.10566000000E+00  0.10566000000E+00 0. -1.
     999900   -1    0    0    0    0 -0.00000000000E+00 -0.00000000000E+00 -0.74505805969E-08  0.93827000000E+00  0.93827000000E+00 0.  1.
     999902    2    1    2    0    0  0.20596473566E-01 -0.11442579593E-01 -0.52469617837E-03  0.10203625933E+01  0.10200903878E+01 0.  0.
     999903    2    3    3    0    0  0.13096981005E-01  0.12317811949E+00  0.32194579822E-01  0.12949249840E+00  0.19683397573E-01 0.  0.
         14    1    1    2    0    0 -0.20596473566E-01  0.11442579593E-01  0.52469617837E-03  0.23567406670E-01  0.00000000000E+00 0. -1.
     999901    1    3    3    0    0  0.74994925610E-02 -0.13462069908E+00 -0.32719276000E-01  0.89087009493E+00  0.88000000000E+00 0.  1.
        -11    1    4    4    0    0  0.47893155684E-02  0.72735702125E-01  0.93359317899E-02  0.73490411964E-01  0.51100000000E-03 0. -1.
         11    1    4    4    0    0  0.83076654364E-02  0.50442417367E-01  0.22858648032E-01  0.56002086440E-01  0.51100000000E-03 0.  1.
</event>
<event>
 8    1  0.1150863E+005  0.1043930E+01  0.7957747E-01            NaN
         13   -1    0    0    0    0  0.00000000000E+00  0.00000000000E+00  0.74505805969E-08  0.10566000000E+00  0.10566000000E+00 0. -1.
     999900   -1    0    0    0    0 -0.00000000000E+00 -0.00000000000E+00 -0.74505805969E-08  0.93827000000E+00  0.93827000000E+00 0. -1.
     999902    2    1    2    0    0 -0.94896844511E-02  0.21643895796E-01 -0.42835442730E-02  0.10199120674E+01  0.10196292287E+01 0.  0.
     999903    2    3    3    0    0  0.43823018308E-01  0.58674917045E-01 -0.10705905226E+00  0.13155608813E+00  0.21958160900E-01 0.  0.
         14    1    1    2    0    0  0.94896844511E-02 -0.21643895796E-01  0.42835442730E-02  0.24017932629E-01  0.00000000000E+00 0. -1.
     999901    1    3    3    0    0 -0.53312702759E-01 -0.37031021249E-01  0.10277550798E+00  0.88835597924E+00  0.88000000000E+00 0.  1.
        -11    1    4    4    0    0  0.42796705140E-01  0.47011026497E-01 -0.80899939069E-01  0.10289147606E+00  0.51100000000E-03 0. -1.
         11    1    4    4    0    0  0.10263131679E-02  0.11663890549E-01 -0.26159113189E-01  0.28664612073E-01  0.51100000000E-03 0.  1.
</event>
<event>
 8    1  0.1150863E+005  0.1043930E+01  0.7957747E-01            NaN
         13   -1    0    0    0    0  0.00000000000E+00  0.00000000000E+00  0.74505805969E-08  0.10566000000E+00  0.10566000000E+00 0.  1.
     999900   -1    0    0    0    0 -0.00000000000E+00 -0.00000000000E+00 -0.74505805969E-08  0.93827000000E+00  0.93827000000E+00 0.  1.
     999902    2    1    2    0    0  0.17426717228E-02  0.20874361222E-01 -0.10653606615E-01  0.10204294639E+01  0.10201588189E+01 0.  0.
     999903    2    3    3    0    0  0.81039913840E-01 -0.70194176915E-01  0.68528268068E-01  0.12866082773E+00  0.19047177230E-01 0.  0.
         14    1    1    2    0    0 -0.17426717228E-02 -0.20874361222E-01  0.10653606615E-01  0.23500536059E-01  0.00000000000E+00 0. -1.
     999901    1    3    3    0    0 -0.79297242117E-01  0.91068538137E-01 -0.79181874683E-01  0.89176863621E+00  0.88000000000E+00 0.  1.
        -11    1    4    4    0    0  0.69667680391E-01 -0.52529986035E-01  0.49531196903E-01  0.10033237619E+00  0.51100000000E-03 0.  1.
         11    1    4    4    0    0  0.11372233450E-01 -0.17664190880E-01  0.18997071165E-01  0.28328451545E-01  0.51100000000E-03 0. -1.
</event>
<event>
 8    1  0.1150863E+005  0.1043930E+01  0.7957747E-01            NaN
         13   -1    0    0    0    0  0.00000000000E+00  0.00000000000E+00  0.74505805969E-08  0.10566000000E+00  0.10566000000E+00 0.  1.
     999900   -1    0    0    0    0 -0.00000000000E+00 -0.00000000000E+00 -0.74505805969E-08  0.93827000000E+00  0.93827000000E+00 0. -1.
     999902    2    1    2    0    0 -0.21353250605E-01  0.74787710799E-03 -0.94111973833E-02  0.10205828103E+01  0.10203157263E+01 0.  0.
     999903    2    3    3    0    0  0.69271892338E-01  0.37164203435E-01  0.99664239070E-01  0.12848611362E+00  0.19898436082E-01 0.  0.
         14    1    1    2    0    0  0.21353250605E-01 -0.74787710799E-03  0.94111973833E-02  0.23347189719E-01  0.00000000000E+00 0.  1.
     999901    1    3    3    0    0 -0.90625142944E-01 -0.36416326327E-01 -0.10907543645E+00  0.89209669666E+00  0.88000000000E+00 0. -1.
        -11    1    4    4    0    0  0.44664145370E-01  0.31631932542E-01  0.77668388368E-01  0.95016339178E-01  0.51100000000E-03 0.  1.
         11    1    4    4    0    0  0.24607746968E-01  0.55322708930E-02  0.21995850702E-01  0.33469774442E-01  0.51100000000E-03 0. -1.
</event>
<event>
 8    1  0.1150863E+005  0.1043930E+01  0.7957747E-01            NaN
         13   -1    0    0    0    0  0.00000000000E+00  0.00000000000E+00  0.74505805969E-08  0.10566000000E+00  0.10566000000E+00 0.  1.
     999900   -1    0    0    0    0 -0.00000000000E+00 -0.00000000000E+00 -0.74505805969E-08  0.93827000000E+00  0.93827000000E+00 0.  1.
     999902    2    1    2    0    0  0.67158409871E-02 -0.15446966892E-01 -0.17953915005E-01  0.10193118285E+01  0.10190144990E+01 0.  0.
     999903    2    3    3    0    0 -0.99183548042E-01 -0.74764017644E-01 -0.35799818110E-01  0.13080090035E+00  0.20005349742E-01 0.  0.
         14    1    1    2    0    0 -0.67158409871E-02  0.15446966892E-01  0.17953915005E-01  0.24618171547E-01  0.00000000000E+00 0.  1.
     999901    1    3    3    0    0  0.10589938903E+00  0.59317050752E-01  0.17845903106E-01  0.88851092811E+00  0.88000000000E+00 0. -1.
        -11    1    4    4    0    0 -0.78618265560E-01 -0.60054600263E-01 -0.36634686948E-01  0.10549762131E+00  0.51100000000E-03 0.  1.
         11    1    4    4    0    0 -0.20565282482E-01 -0.14709417382E-01  0.83486883714E-03  0.25303279041E-01  0.51100000000E-03 0. -1.
</event>
<event>
 8    1  0.1150863E+005  0.1043930E+01  0.7957747E-01            NaN
         13   -1    0    0    0    0  0.00000000000E+00  0.00000000000E+00  0.74505805969E-08  0.10566000000E+00  0.10566000000E+00 0. -1.
     999900   -1    0    0    0    0 -0.00000000000E+00 -0.00000000000E+00 -0.74505805969E-08  0.93827000000E+00  0.93827000000E+00 0. -1.
     999902    2    1    2    0    0  0.21946835557E-02 -0.11351490775E-01  0.21258483014E-01  0.10197309075E+01  0.10194437344E+01 0.  0.
     999903    2    3    3    0    0 -0.12443479758E+00 -0.18642286145E-01  0.28565443326E-01  0.13060685941E+00  0.20263600148E-01 0.  0.
         14    1    1    2    0    0 -0.21946835557E-02  0.11351490775E-01 -0.21258483014E-01  0.24199092520E-01  0.00000000000E+00 0.  1.
     999901    1    3    3    0    0  0.12662948113E+00  0.72907953701E-02 -0.73069603121E-02  0.88912404807E+00  0.88000000000E+00 0. -1.
        -11    1    4    4    0    0 -0.10890407557E+00 -0.99400248382E-02  0.27513239898E-01  0.11276586922E+00  0.51100000000E-03 0.  1.
         11    1    4    4    0    0 -0.15530722008E-01 -0.87022613068E-02  0.10522034283E-02  0.17840990191E-01  0.51100000000E-03 0. -1.
</event>
<event>
 8    1  0.1150863E+005  0.1043930E+01  0.7957747E-01            NaN
         13   -1    0    0    0    0  0.00000000000E+00  0.00000000000E+00  0.74505805969E-08  0.10566000000E+00  0.10566000000E+00 0.  1.
     999900   -1    0    0    0    0 -0.00000000000E+00 -0.00000000000E+00 -0.74505805969E-08  0.93827000000E+00  0.93827000000E+00 0.  1.
     999902    2    1    2    0    0  0.90901553452E-02  0.11497838961E-01  0.20822125363E-01  0.10184664549E+01  0.10181480873E+01 0.  0.
     999903    2    3    3    0    0 -0.27089267154E-01 -0.12288006897E+00  0.87705504226E-02  0.12744927593E+00  0.18249811908E-01 0.  0.
         14    1    1    2    0    0 -0.90901553452E-02 -0.11497838961E-01 -0.20822125363E-01  0.25463545110E-01  0.00000000000E+00 0. -1.
     999901    1    3    3    0    0  0.36179422499E-01  0.13437790793E+00  0.12051574940E-01  0.89101717896E+00  0.88000000000E+00 0. -1.
        -11    1    4    4    0    0 -0.98909775379E-02 -0.83342586731E-01  0.81734956154E-02  0.84326065669E-01  0.51100000000E-03 0. -1.
         11    1    4    4    0    0 -0.17198289616E-01 -0.39537482237E-01  0.59705480721E-03  0.43123210256E-01  0.51100000000E-03 0.  1.
</event>
<event>
 8    1  0.1150863E+005  0.1043930E+01  0.7957747E-01            NaN
         13   -1    0    0    0    0  0.00000000000E+00  0.00000000000E+00  0.74505805969E-08  0.10566000000E+00  0.10566000000E+00 0. -1.
     999900   -1    0    0    0    0 -0.00000000000E+00 -0.00000000000E+00 -0.74505805969E-08  0.93827000000E+00  0.93827000000E+00 0.  1.
     999902    2    1    2    0    0  0.53301302546E-02 -0.12798217437E-01 -0.18673005528E-01  0.10206730485E+01  0.10204080488E+01 0.  0.
     999903    2    3    3    0    0 -0.28438203717E-01 -0.91609771083E-01  0.85990860874E-01  0.13033261568E+00  0.19775767176E-01 0.  0.
         14    1    1    2    0    0 -0.53301302546E-02  0.12798217437E-01  0.18673005528E-01  0.23256951510E-01  0.00000000000E+00 0. -1.
     999901    1    3    3    0    0  0.33768333972E-01  0.78811553646E-01 -0.10466386640E+00  0.89034043281E+00  0.88000000000E+00 0.  1.
        -11    1    4    4    0    0 -0.18268406218E-01 -0.68144327652E-01  0.51303365618E-01  0.87233482687E-01  0.51100000000E-03 0.  1.
         11    1    4    4    0    0 -0.10169797499E-01 -0.23465443431E-01  0.34687495256E-01  0.43099132993E-01  0.51100000000E-03 0. -1.
</event>
<event>
 8    1  0.1150863E+005  0.1043930E+01  0.7957747E-01            NaN
         13   -1    0    0    0    0  0.00000000000E+00  0.00000000000E+00  0.74505805969E-08  0.10566000000E+00  0.10566000000E+00 0. -1.
     999900   -1    0    0    0    0 -0.00000000000E+00 -0.00000000000E+00 -0.74505805969E-08  0.93827000000E+00  0.93827000000E+00 0. -1.
     999902    2    1    2    0    0 -0.20884924839E-01 -0.30186530714E-01  0.49097912746E-02  0.10068960592E+01  0.10062147689E+01 0.  0.
     999903    2    3    3    0    0  0.46484322893E-01 -0.95346885161E-01  0.53560895864E-01  0.12058267369E+00  0.20483916689E-01 0.  0.
         14    1    1    2    0    0  0.20884924839E-01  0.30186530714E-01 -0.49097912746E-02  0.37033940817E-01  0.00000000000E+00 0. -1.
     999901    1    3    3    0    0 -0.67369247733E-01  0.65160354446E-01 -0.48651104590E-01  0.88631338550E+00  0.88000000000E+00 0.  1.
        -11    1    4    4    0    0  0.70412612392E-02 -0.36340416162E-01  0.16864199421E-01  0.40680063296E-01  0.51100000000E-03 0.  1.
         11    1    4    4    0    0  0.39443061654E-01 -0.59006468999E-01  0.36696696444E-01  0.79902610391E-01  0.51100000000E-03 0. -1.
</event>
<event>
 8    1  0.1150863E+005  0.1043930E+01  0.7957747E-01            NaN
         13   -1    0    0    0    0  0.00000000000E+00  0.00000000000E+00  0.74505805969E-08  0.10566000000E+00  0.10566000000E+00 0.  1.
     999900   -1    0    0    0    0 -0.00000000000E+00 -0.00000000000E+00 -0.74505805969E-08  0.93827000000E+00  0.93827000000E+00 0. -1.
     999902    2    1    2    0    0  0.21491050158E-01  0.18693466256E-02 -0.11447363443E-01  0.10195086605E+01  0.10192161238E+01 0.  0.
     999903    2    3    3    0    0 -0.10321082639E+00 -0.69687031857E-01 -0.20652096643E-01  0.12779368337E+00  0.19898726590E-01 0.  0.
         14    1    1    2    0    0 -0.21491050158E-01 -0.18693466256E-02  0.11447363443E-01  0.24421339510E-01  0.00000000000E+00 0.  1.
     999901    1    3    3    0    0  0.12470187654E+00  0.71556378483E-01  0.92047331995E-02  0.89171497712E+00  0.88000000000E+00 0.  1.
        -11    1    4    4    0    0 -0.45410482215E-01 -0.42605761841E-01 -0.93452341119E-02  0.62967907370E-01  0.51100000000E-03 0.  1.
         11    1    4    4    0    0 -0.57800344171E-01 -0.27081270017E-01 -0.11306862531E-01  0.64825775995E-01  0.51100000000E-03 0. -1.
</event>
<event>
 8    1  0.1150863E+005  0.1043930E+01  0.7957747E-01            NaN
         13   -1    0    0    0    0  0.00000000000E+00  0.00000000000E+00  0.74505805969E-08  0.10566000000E+00  0.10566000000E+00 0.  1.
     999900   -1    0    0    0    0 -0.00000000000E+00 -0.00000000000E+00 -0.74505805969E-08  0.93827000000E+00  0.93827000000E+00 0. -1.
     999902    2    1    2    0    0  0.10124169434E-01  0.16181663444E-01  0.14231102136E-01  0.10201209827E+01  0.10198431007E+01 0.  0.
     999903    2    3    3    0    0  0.58704118155E-01  0.10232511747E+00  0.59219730374E-01  0.13343914414E+00  0.19555704300E-01 0.  0.
         14    1    1    2    0    0 -0.10124169434E-01 -0.16181663444E-01 -0.14231102136E-01  0.23809017337E-01  0.00000000000E+00 0. -1.
     999901    1    3    3    0    0 -0.48579948721E-01 -0.86143454026E-01 -0.44988628238E-01  0.88668183852E+00  0.88000000000E+00 0.  1.
        -11    1    4    4    0    0  0.37267769578E-01  0.45345214351E-01  0.28852435912E-01  0.65404887378E-01  0.51100000000E-03 0.  1.
         11    1    4    4    0    0  0.21436348577E-01  0.56979903119E-01  0.30367294462E-01  0.68034256766E-01  0.51100000000E-03 0. -1.
</event>
<event>
 8    1  0.1150863E+005  0.1043930E+01  0.7957747E-01            NaN
         13   -1    0    0    0    0  0.00000000000E+00  0.00000000000E+00  0.74505805969E-08  0.10566000000E+00  0.10566000000E+00 0. -1.
     999900   -1    0    0    0    0 -0.00000000000E+00 -0.00000000000E+00 -0.74505805969E-08  0.93827000000E+00  0.93827000000E+00 0. -1.
     999902    2    1    2    0    0  0.23081039206E-01  0.21989925690E-02  0.54432124529E-02  0.10201140704E+01  0.10198360252E+01 0.  0.
     999903    2    3    3    0    0  0.12501705291E+00  0.34940812990E-01  0.21587633704E-01  0.13347794438E+00  0.22365414695E-01 0.  0.
         14    1    1    2    0    0 -0.23081039206E-01 -0.21989925690E-02 -0.54432124529E-02  0.23815929563E-01  0.00000000000E+00 0.  1.
     999901    1    3    3    0    0 -0.10193601371E+00 -0.32741820421E-01 -0.16144421251E-01  0.88663612606E+00  0.88000000000E+00 0.  1.
        -11    1    4    4    0    0  0.12106020163E+00  0.37126771699E-01  0.23033898387E-01  0.12870427806E+00  0.51100000000E-03 0.  1.
         11    1    4    4    0    0  0.39568512859E-02 -0.21859587087E-02 -0.14462646828E-02  0.47736663172E-02  0.51100000000E-03 0. -1.
</event>
<event>
 8    1  0.1150863E+005  0.1043930E+01  0.7957747E-01            NaN
         13   -1    0    0    0    0  0.00000000000E+00  0.00000000000E+00  0.74505805969E-08  0.10566000000E+00  0.10566000000E+00 0. -1.
     999900   -1    0    0    0    0 -0.00000000000E+00 -0.00000000000E+00 -0.74505805969E-08  0.93827000000E+00  0.93827000000E+00 0.  1.
     999902    2    1    2    0    0  0.13510137271E-01 -0.18775991441E-01  0.20655355490E-02  0.10207065614E+01  0.10204423337E+01 0.  0.
     999903    2    3    3    0    0 -0.11452521741E+00 -0.39687906950E-01  0.43401864258E-01  0.13023530844E+00  0.19656000722E-01 0.  0.
         14    1    1    2    0    0 -0.13510137271E-01  0.18775991441E-01 -0.20655355490E-02  0.23223438608E-01  0.00000000000E+00 0.  1.
     999901    1    3    3    0    0  0.12803535468E+00  0.20911915509E-01 -0.41336328709E-01  0.89047125295E+00  0.88000000000E+00 0. -1.
        -11    1    4    4    0    0 -0.63025816015E-01 -0.25164885092E-01  0.14422100215E-01  0.69381431389E-01  0.51100000000E-03 0.  1.
         11    1    4    4    0    0 -0.51499401391E-01 -0.14523021858E-01  0.28979764043E-01  0.60853877054E-01  0.51100000000E-03 0. -1.
</event>
<event>
 8    1  0.1150863E+005  0.1043930E+01  0.7957747E-01            NaN
         13   -1    0    0    0    0  0.00000000000E+00  0.00000000000E+00  0.74505805969E-08  0.10566000000E+00  0.10566000000E+00 0.  1.
     999900   -1    0    0    0    0 -0.00000000000E+00 -0.00000000000E+00 -0.74505805969E-08  0.93827000000E+00  0.93827000000E+00 0.  1.
     999902    2    1    2    0    0  0.13534461957E-01  0.55401467759E-03  0.19726661198E-01  0.10200003165E+01  0.10197195770E+01 0.  0.
     999903    2    3    3    0    0 -0.11228924177E-01  0.12745455429E+00  0.15989703398E-01  0.13054490042E+00  0.20385000973E-01 0.  0.
         14    1    1    2    0    0 -0.13534461957E-01 -0.55401467759E-03 -0.19726661198E-01  0.23929683549E-01  0.00000000000E+00 0. -1.
     999901    1    3    3    0    0  0.24763386134E-01 -0.12690053961E+00  0.37369577997E-02  0.88945541603E+00  0.88000000000E+00 0.  1.
        -11    1    4    4    0    0  0.30325090904E-02  0.11511811692E-01  0.58890861753E-02  0.13291364746E-01  0.51100000000E-03 0. -1.
         11    1    4    4    0    0 -0.14261433267E-01  0.11594274260E+00  0.10100617223E-01  0.11725353568E+00  0.51100000000E-03 0.  1.
</event>
<event>
 8    1  0.1150863E+005  0.1043930E+01  0.7957747E-01            NaN
         13   -1    0    0    0    0  0.00000000000E+00  0.00000000000E+00  0.74505805969E-08  0.10566000000E+00  0.10566000000E+00 0.  1.
     999900   -1    0    0    0    0 -0.00000000000E+00 -0.00000000000E+00 -0.74505805969E-08  0.93827000000E+00  0.93827000000E+00 0. -1.
     999902    2    1    2    0    0 -0.17267954104E-01 -0.14116029152E-01  0.73690960700E-02  0.10204406813E+01  0.10201702975E+01 0.  0.
     999903    2    3    3    0    0 -0.50054985878E-01 -0.13471182267E-01  0.12038277162E+00  0.13260764733E+00  0.20144529359E-01 0.  0.
         14    1    1    2    0    0  0.17267954104E-01  0.14116029152E-01 -0.73690960700E-02  0.23489318740E-01  0.00000000000E+00 0.  1.
     999901    1    3    3    0    0  0.32787031774E-01 -0.64484688527E-03 -0.11301367555E+00  0.88783303393E+00  0.88000000000E+00 0. -1.
        -11    1    4    4    0    0 -0.16113591740E-01 -0.72663642550E-02  0.64927086386E-01  0.67292165635E-01  0.51100000000E-03 0. -1.
         11    1    4    4    0    0 -0.33941394139E-01 -0.62048180120E-02  0.55455685237E-01  0.65315481693E-01  0.51100000000E-03 0.  1.
</event>
<event>
 8    1  0.1150863E+005  0.1043930E+01  0.7957747E-01            NaN
         13   -1    0    0    0    0  0.00000000000E+00  0.00000000000E+00  0.74505805969E-08  0.10566000000E+00  0.10566000000E+00 0. -1.
     999900   -1    0    0    0    0 -0.00000000000E+00 -0.00000000000E+00 -0.74505805969E-08  0.93827000000E+00  0.93827000000E+00 0.  1.
     999902    2    1    2    0    0  0.21022776159E-01  0.65166707728E-02  0.85915028856E-02  0.10203029385E+01  0.10200293369E+01 0.  0.
     999903    2    3    3    0    0  0.75606406315E-01  0.30821766066E-01  0.10321096456E+00  0.13321615980E+00  0.20681684798E-01 0.  0.
         14    1    1    2    0    0 -0.21022776159E-01 -0.65166707728E-02 -0.85915028856E-02  0.23627061544E-01  0.00000000000E+00 0.  1.
     999901    1    3    3    0    0 -0.54583630156E-01 -0.24305095293E-01 -0.94619461679E-01  0.88708677866E+00  0.88000000000E+00 0.  1.
        -11    1    4    4    0    0  0.10599592998E-01  0.12212137062E-01  0.25554274962E-01  0.30245160823E-01  0.51100000000E-03 0.  1.
         11    1    4    4    0    0  0.65006813316E-01  0.18609629003E-01  0.77656689603E-01  0.10297099898E+00  0.51100000000E-03 0. -1.
</event>
<event>
 8    1  0.1150863E+005  0.1043930E+01  0.7957747E-01            NaN
         13   -1    0    0    0    0  0.00000000000E+00  0.00000000000E+00  0.74505805969E-08  0.10566000000E+00  0.10566000000E+00 0.  1.
     999900   -1    0    0    0    0 -0.00000000000E+00 -0.00000000000E+00 -0.74505805969E-08  0.93827000000E+00  0.93827000000E+00 0. -1.
     999902    2    1    2    0    0 -0.10254864046E-01  0.20981024367E-01 -0.36381837699E-02  0.10202952374E+01  0.10200214554E+01 0.  0.
     999903    2    3    3    0    0  0.13993779380E-01 -0.26006405543E-02 -0.12854455088E+00  0.13083152701E+00  0.19763544842E-01 0.  0.
         14    1    1    2    0    0  0.10254864046E-01 -0.20981024367E-01  0.36381837699E-02  0.23634762560E-01  0.00000000000E+00 0.  1.
     999901    1    3    3    0    0 -0.24248643426E-01  0.23581664922E-01  0.12490636711E+00  0.88946371043E+00  0.88000000000E+00 0.  1.
        -11    1    4    4    0    0  0.10488668593E-02  0.54256312579E-02 -0.73709415598E-01  0.73918040187E-01  0.51100000000E-03 0.  1.
         11    1    4    4    0    0  0.12944912520E-01 -0.80262718122E-02 -0.54835135287E-01  0.56913486822E-01  0.51100000000E-03 0. -1.
</event>
<event>
 8    1  0.1150863E+005  0.1043930E+01  0.7957747E-01            NaN
         13   -1    0    0    0    0  0.00000000000E+00  0.00000000000E+00  0.74505805969E-08  0.10566000000E+00  0.10566000000E+00 0.  1.
     999900   -1    0    0    0    0 -0.00000000000E+00 -0.00000000000E+00 -0.74505805969E-08  0.93827000000E+00  0.93827000000E+00 0.  1.
     999902    2    1    2    0    0  0.10746555345E-01 -0.12506182011E-01 -0.17204710265E-01  0.10200994504E+01  0.10198210596E+01 0.  0.
     999903    2    3    3    0    0 -0.52324819839E-01  0.78595805867E-01  0.83317843122E-01  0.12747279028E+00  0.19805600444E-01 0.  0.
         14    1    1    2    0    0 -0.10746555345E-01  0.12506182011E-01  0.17204710265E-01  0.23830549628E-01  0.00000000000E+00 0.  1.
     999901    1    3    3    0    0  0.63071375183E-01 -0.91101987878E-01 -0.10052255339E+00  0.89262666009E+00  0.88000000000E+00 0. -1.
        -11    1    4    4    0    0 -0.41543432478E-01  0.52738435939E-01  0.67916588855E-01  0.95499338060E-01  0.51100000000E-03 0. -1.
         11    1    4    4    0    0 -0.10781387361E-01  0.25857369928E-01  0.15401254267E-01  0.31973452222E-01  0.51100000000E-03 0.  1.
</event>
<event>
 8    1  0.1150863E+005  0.1043930E+01  0.7957747E-01            NaN
         13   -1    0    0    0    0  0.00000000000E+00  0.00000000000E+00  0.74505805969E-08  0.10566000000E+00  0.10566000000E+00 0. -1.
     999900   -1    0    0    0    0 -0.00000000000E+00 -0.00000000000E+00 -0.74505805969E-08  0.93827000000E+00  0.93827000000E+00 0. -1.
     999902    2    1    2    0    0  0.10896076733E-01 -0.20680623324E-01 -0.67167918093E-03  0.10205448803E+01  0.10202769178E+01 0.  0.
     999903    2    3    3    0    0 -0.76434735340E-02 -0.11997385240E+00  0.53072519385E-01  0.13313781525E+00  0.21373759369E-01 0.  0.
         14    1    1    2    0    0 -0.10896076733E-01  0.20680623324E-01  0.67167918093E-03  0.23385119674E-01  0.00000000000E+00 0. -1.
     999901    1    3    3    0    0  0.18539550267E-01  0.99293229074E-01 -0.53744198566E-01  0.88740706507E+00  0.88000000000E+00 0. -1.
        -11    1    4    4    0    0 -0.10118401242E-01 -0.29853751012E-01  0.18682100491E-01  0.36645743176E-01  0.51100000000E-03 0.  1.
         11    1    4    4    0    0  0.24749277075E-02 -0.90120101385E-01  0.34390418894E-01  0.96492072076E-01  0.51100000000E-03 0. -1.
</event>
<event>
 8    1  0.1150863E+005  0.1043930E+01  0.7957747E-01            NaN
         13   -1    0    0    0    0  0.00000000000E+00  0.00000000000E+00  0.74505805969E-08  0.10566000000E+00  0.10566000000E+00 0. -1.
     999900   -1    0    0    0    0 -0.00000000000E+00 -0.00000000000E+00 -0.74505805969E-08  0.93827000000E+00  0.93827000000E+00 0. -1.
     999902    2    1    2    0    0  0.17792472248E-01 -0.95907549606E-02 -0.11162496146E-01  0.10208398296E+01  0.10205786602E+01 0.  0.
     999903    2    3    3    0    0  0.95143303916E-01  0.76245595441E-01  0.45066007008E-01  0.13150711638E+00  0.19938344161E-01 0.  0.
         14    1    1    2    0    0 -0.17792472248E-01  0.95907549606E-02  0.11162496146E-01  0.23090170411E-01  0.00000000000E+00 0. -1.
     999901    1    3    3    0    0 -0.77350831668E-01 -0.85836350401E-01 -0.56228503153E-01  0.88933271321E+00  0.88000000000E+00 0. -1.
        -11    1    4    4    0    0  0.34669534293E-01  0.38603806117E-01  0.24375447276E-01  0.57329346810E-01  0.51100000000E-03 0. -1.
         11    1    4    4    0    0  0.60473769623E-01  0.37641789324E-01  0.20690559732E-01  0.74177769574E-01  0.51100000000E-03 0.  1.
</event>
<event>
 8    1  0.1150863E+005  0.1043930E+01  0.7957747E-01            NaN
         13   -1    0    0    0    0  0.00000000000E+00  0.00000000000E+00  0.74505805969E-08  0.10566000000E+00  0.10566000000E+00 0. -1.
     999900   -1    0    0    0    0 -0.00000000000E+00 -0.00000000000E+00 -0.74505805969E-08  0.93827000000E+00  0.93827000000E+00 0. -1.
     999902    2    1    2    0    0  0.23432220582E-01  0.18191578432E-02  0.62544499859E-02  0.10196093001E+01  0.10193191985E+01 0.  0.
     999903    2    3    3    0    0 -0.14017741902E-01 -0.10763533027E+00  0.69155973141E-01  0.12981191519E+00  0.16932905678E-01 0.  0.
         14    1    1    2    0    0 -0.23432220582E-01 -0.18191578432E-02 -0.62544499859E-02  0.24320699851E-01  0.00000000000E+00 0. -1.
     999901    1    3    3    0    0  0.37449962483E-01  0.10945448811E+00 -0.62901523155E-01  0.88979738496E+00  0.88000000000E+00 0. -1.
        -11    1    4    4    0    0  0.36911906722E-02 -0.29258583478E-01  0.17873246015E-01  0.34487731729E-01  0.51100000000E-03 0. -1.
         11    1    4    4    0    0 -0.17708932574E-01 -0.78376746792E-01  0.51282727126E-01  0.95324183464E-01  0.51100000000E-03 0.  1.
</event>
<event>
 8    1  0.1150863E+005  0.1043930E+01  0.7957747E-01            NaN
         13   -1    0    0    0    0  0.00000000000E+00  0.00000000000E+00  0.74505805969E-08  0.10566000000E+00  0.10566000000E+00 0.  1.
     999900   -1    0    0    0    0 -0.00000000000E+00 -0.00000000000E+00 -0.74505805969E-08  0.93827000000E+00  0.93827000000E+00 0.  1.
     999902    2    1    2    0    0 -0.31130203605E-02  0.14623422980E-01  0.19028667360E-01  0.10197302980E+01  0.10194431103E+01 0.  0.
     999903    2    3    3    0    0  0.87065963642E-01  0.57865230306E-01 -0.73323173038E-01  0.12926358583E+00  0.20097761419E-01 0.  0.
         14    1    1    2    0    0  0.31130203605E-02 -0.14623422980E-01 -0.19028667360E-01  0.24199702001E-01  0.00000000000E+00 0.  1.
     999901    1    3    3    0    0 -0.90178984002E-01 -0.43241807326E-01  0.92351840398E-01  0.89046671217E+00  0.88000000000E+00 0. -1.
        -11    1    4    4    0    0  0.39688401746E-01  0.19830056295E-01 -0.21033561340E-01  0.49102669881E-01  0.51100000000E-03 0.  1.
         11    1    4    4    0    0  0.47377561896E-01  0.38035174012E-01 -0.52289611698E-01  0.80160915949E-01  0.51100000000E-03 0. -1.
</event>
<event>
 8    1  0.1150863E+005  0.1043930E+01  0.7957747E-01            NaN
         13   -1    0    0    0    0  0.00000000000E+00  0.00000000000E+00  0.74505805969E-08  0.10566000000E+00  0.10566000000E+00 0. -1.
     999900   -1    0    0    0    0 -0.00000000000E+00 -0.00000000000E+00 -0.74505805969E-08  0.93827000000E+00  0.93827000000E+00 0. -1.
     999902    2    1    2    0    0  0.20854535833E-01  0.21110742293E-02 -0.80552941066E-02  0.10214743534E+01  0.10212274960E+01 0.  0.
     999903    2    3    3    0    0 -0.61736890766E-01 -0.29192485977E-01 -0.11020752024E+00  0.13117309323E+00  0.19925811153E-01 0.  0.
         14    1    1    2    0    0 -0.20854535833E-01 -0.21110742293E-02  0.80552941066E-02  0.22455646558E-01  0.00000000000E+00 0. -1.
     999901    1    3    3    0    0  0.82591426599E-01  0.31303560206E-01  0.10215222614E+00  0.89030126021E+00  0.88000000000E+00 0.  1.
        -11    1    4    4    0    0 -0.45778280098E-01 -0.23053580441E-01 -0.96436545529E-01  0.10921257681E+00  0.51100000000E-03 0. -1.
         11    1    4    4    0    0 -0.15958610668E-01 -0.61389055357E-02 -0.13770974716E-01  0.21960516416E-01  0.51100000000E-03 0.  1.
</event>
<event>
 8    1  0.1150863E+005  0.1043930E+01  0.7957747E-01            NaN
         13   -1    0    0    0    0  0.00000000000E+00  0.00000000000E+00  0.74505805969E-08  0.10566000000E+00  0.10566000000E+00 0. -1.
     999900   -1    0    0    0    0 -0.00000000000E+00 -0.00000000000E+00 -0.74505805969E-08  0.93827000000E+00  0.93827000000E+00 0. -1.
     999902    2    1    2    0    0 -0.66019445617E-02 -0.15844084104E-01  0.16602911240E-01  0.10200495198E+01  0.10197699473E+01 0.  0.
     999903    2    3    3    0    0  0.10005751088E+00  0.76631728188E-01 -0.14110395385E-01  0.12826965767E+00  0.19237322377E-01 0.  0.
         14    1    1    2    0    0  0.66019445617E-02  0.15844084104E-01 -0.16602911240E-01  0.23880480203E-01  0.00000000000E+00 0.  1.
     999901    1    3    3    0    0 -0.10665945544E+00 -0.92475812292E-01  0.30713306625E-01  0.89177986213E+00  0.88000000000E+00 0.  1.
        -11    1    4    4    0    0  0.55400920813E-01  0.52931362799E-01 -0.12858289338E-01  0.77695481981E-01  0.51100000000E-03 0. -1.
         11    1    4    4    0    0  0.44656590066E-01  0.23700365389E-01 -0.12521060474E-02  0.50574175687E-01  0.51100000000E-03 0.  1.
</event>
<event>
 8    1  0.1150863E+005  0.1043930E+01  0.7957747E-01            NaN
         13   -1    0    0    0    0  0.00000000000E+00  0.00000000000E+00  0.74505805969E-08  0.10566000000E+00  0.10566000000E+00 0.  1.
     999900   -1    0    0    0    0 -0.00000000000E+00 -0.00000000000E+00 -0.74505805969E-08  0.93827000000E+00  0.93827000000E+00 0.  1.
     999902    2    1    2    0    0  0.16095672253E-01 -0.65319264012E-02 -0.18022191312E-01  0.10188992967E+01  0.10185917930E+01 0.  0.
     999903    2    3    3    0    0  0.19110528610E-01 -0.56461240629E-01  0.11147081636E+00  0.12801744999E+00  0.20239580147E-01 0.  0.
         14    1    1    2    0    0 -0.16095672253E-01  0.65319264012E-02  0.18022191312E-01  0.25030703295E-01  0.00000000000E+00 0.  1.
     999901    1    3    3    0    0 -0.30148563572E-02  0.49929314228E-01 -0.12949300767E+00  0.89088184672E+00  0.88000000000E+00 0.  1.
        -11    1    4    4    0    0  0.11263411511E-01 -0.10511564691E-01  0.37968677220E-01  0.40978518787E-01  0.51100000000E-03 0.  1.
         11    1    4    4    0    0  0.78471170991E-02 -0.45949675939E-01  0.73502139136E-01  0.87038931199E-01  0.51100000000E-03 0. -1.
</event>
<event>
 8    1  0.1150863E+005  0.1043930E+01  0.7957747E-01            NaN
         13   -1    0    0    0    0  0.00000000000E+00  0.00000000000E+00  0.74505805969E-08  0.10566000000E+00  0.10566000000E+00 0.  1.
     999900   -1    0    0    0    0 -0.00000000000E+00 -0.00000000000E+00 -0.74505805969E-08  0.93827000000E+00  0.93827000000E+00 0. -1.
     999902    2    1    2    0    0  0.90398353791E-02  0.58940407423E-03  0.22696077011E-01  0.10194927757E+01  0.10191998537E+01 0.  0.
     999903    2    3    3    0    0  0.54714216360E-01 -0.11649555827E+00  0.56526523182E-02  0.13040025192E+00  0.20184465617E-01 0.  0.
         14    1    1    2    0    0 -0.90398353791E-02 -0.58940407423E-03 -0.22696077011E-01  0.24437224321E-01  0.00000000000E+00 0. -1.
     999901    1    3    3    0    0 -0.45674380981E-01  0.11708496235E+00  0.17043424693E-01  0.88909252376E+00  0.88000000000E+00 0.  1.
        -11    1    4    4    0    0  0.33893526672E-01 -0.66176524601E-01 -0.63857491364E-02  0.74626687395E-01  0.51100000000E-03 0.  1.
         11    1    4    4    0    0  0.20820689688E-01 -0.50319033672E-01  0.12038401455E-01  0.55773564521E-01  0.51100000000E-03 0. -1.
</event>
<event>
 8    1  0.1150863E+005  0.1043930E+01  0.7957747E-01            NaN
         13   -1    0    0    0    0  0.00000000000E+00  0.00000000000E+00  0.74505805969E-08  0.10566000000E+00  0.10566000000E+00 0. -1.
     999900   -1    0    0    0    0 -0.00000000000E+00 -0.00000000000E+00 -0.74505805969E-08  0.93827000000E+00  0.93827000000E+00 0. -1.
     999902    2    1    2    0    0 -0.48586586500E-02  0.84376198968E-02  0.21078079244E-01  0.10207117869E+01  0.10204476795E+01 0.  0.
     999903    2    3    3    0    0  0.31491616010E-01 -0.67592851636E-02 -0.12244857146E+00  0.12821406265E+00  0.20193647320E-01 0.  0.
         14    1    1    2    0    0  0.48586586500E-02 -0.84376198968E-02 -0.21078079244E-01  0.23218213067E-01  0.00000000000E+00 0.  1.
     999901    1    3    3    0    0 -0.36350274660E-01  0.15196905060E-01  0.14352665071E+00  0.89249772429E+00  0.88000000000E+00 0.  1.
        -11    1    4    4    0    0  0.25473168140E-01  0.37501399276E-02 -0.77939325330E-01  0.82083770615E-01  0.51100000000E-03 0.  1.
         11    1    4    4    0    0  0.60184478695E-02 -0.10509425091E-01 -0.44509246135E-01  0.46130292032E-01  0.51100000000E-03 0. -1.
</event>
<event>
 7    1  0.1150863E+005  0.1043930E+01  0.7957747E-01            NaN
         13   -1    0    0    0    0  0.00000000000E+00  0.00000000000E+00  0.74505805969E-08  0.10566000000E+00  0.10566000000E+00 0.  1.
     999900   -1    0    0    0    0 -0.00000000000E+00 -0.00000000000E+00 -0.74505805969E-08  0.93827000000E+00  0.93827000000E+00 0.  1.
     999902    2    1    2    0    0 -0.16240966229E-02 -0.95205579125E-02  0.21828485301E-01  0.10200603229E+01  0.10197810064E+01 0.  0.
         14    1    1    2    0    0  0.16240966229E-02  0.95205579125E-02 -0.21828485301E-01  0.23869677068E-01  0.00000000000E+00 0. -1.
     999901    1    3    3    0    0 -0.51540953217E-01 -0.70359612458E-01 -0.75996804524E-01  0.88757110094E+00  0.88000000000E+00 0. -1.
        -11    1    3    3    0    0  0.17236489867E-01  0.28102173249E-01  0.12179423752E-01  0.35148658696E-01  0.51100000000E-03 0.  1.
         11    1    3    3    0    0  0.32680366727E-01  0.32736881297E-01  0.85645866073E-01  0.97340563297E-01  0.51100000000E-03 0. -1.
</event>
<event>
 8    1  0.1150863E+005  0.1043930E+01  0.7957747E-01            NaN
         13   -1    0    0    0    0  0.00000000000E+00  0.00000000000E+00  0.74505805969E-08  0.10566000000E+00  0.10566000000E+00 0.  1.
     999900   -1    0    0    0    0 -0.00000000000E+00 -0.00000000000E+00 -0.74505805969E-08  0.93827000000E+00  0.93827000000E+00 0.  1.
     999902    2    1    2    0    0  0.23879070288E-02 -0.17906691030E-01 -0.15250438075E-01  0.10202883515E+01  0.10200144080E+01 0.  0.
     999903    2    3    3    0    0  0.10325088479E+00 -0.22844839087E-01  0.73176435941E-01  0.13011025826E+00  0.19780208424E-01 0.  0.
         14    1    1    2    0    0 -0.23879070288E-02  0.17906691030E-01  0.15250438075E-01  0.23641648527E-01  0.00000000000E+00 0. -1.
     999901    1    3    3    0    0 -0.10086297776E+00  0.49381480569E-02 -0.88426874016E-01  0.89017809321E+00  0.88000000000E+00 0.  1.
        -11    1    4    4    0    0  0.93074644502E-02 -0.67417264957E-02  0.13136134699E-01  0.17461355230E-01  0.51100000000E-03 0.  1.
         11    1    4    4    0    0  0.93943420336E-01 -0.16103112591E-01  0.60040301242E-01  0.11264890303E+00  0.51100000000E-03 0. -1.
</event>
<event>
 8    1  0.1150863E+005  0.1043930E+01  0.7957747E-01            NaN
         13   -1    0    0    0    0  0.00000000000E+00  0.00000000000E+00  0.74505805969E-08  0.10566000000E+00  0.10566000000E+00 0.  1.
     999900   -1    0    0    0    0 -0.00000000000E+00 -0.00000000000E+00 -0.74505805969E-08  0.93827000000E+00  0.93827000000E+00 0.  1.
     999902    2    1    2    0    0  0.21389560497E-01 -0.50920078009E-02  0.83854676836E-02  0.10203979387E+01  0.10201265585E+01 0.  0.
     999903    2    3    3    0    0 -0.12298065210E+00 -0.28099855598E-01 -0.21612774429E-02  0.12827499134E+00  0.23150801408E-01 0.  0.
         14    1    1    2    0    0 -0.21389560497E-01  0.50920078009E-02 -0.83854676836E-02  0.23532061320E-01  0.00000000000E+00 0.  1.
     999901    1    3    3    0    0  0.14437021260E+00  0.23007847797E-01  0.10546745126E-01  0.89212294734E+00  0.88000000000E+00 0. -1.
        -11    1    4    4    0    0 -0.11765454552E+00 -0.23032411182E-01 -0.58549462995E-02  0.12003176898E+00  0.51100000000E-03 0.  1.
         11    1    4    4    0    0 -0.53261065807E-02 -0.50674444159E-02  0.36936688567E-02  0.82432223578E-02  0.51100000000E-03 0. -1.
</event>
<event>
 8    1  0.1150863E+005  0.1043930E+01  0.7957747E-01            NaN
         13   -1    0    0    0    0  0.00000000000E+00  0.00000000000E+00  0.74505805969E-08  0.10566000000E+00  0.10566000000E+00 0.  1.
     999900   -1    0    0    0    0 -0.00000000000E+00 -0.00000000000E+00 -0.74505805969E-08  0.93827000000E+00  0.93827000000E+00 0. -1.
     999902    2    1    2    0    0 -0.11991774315E-01 -0.96766862620E-02  0.13351828388E-01  0.10235409777E+01  0.10233378821E+01 0.  0.
     999903    2    3    3    0    0 -0.49016054562E-01 -0.10886752767E+00 -0.58277787452E-01  0.13430511350E+00  0.19668523510E-01 0.  0.
         14    1    1    2    0    0  0.11991774315E-01  0.96766862620E-02 -0.13351828388E-01  0.20389022280E-01  0.00000000000E+00 0.  1.
     999901    1    3    3    0    0  0.37024280247E-01  0.99190841406E-01  0.71629615840E-01  0.88923586422E+00  0.88000000000E+00 0.  1.
        -11    1    4    4    0    0 -0.32533455724E-01 -0.81317822720E-01 -0.33601349804E-01  0.93810052036E-01  0.51100000000E-03 0. -1.
         11    1    4    4    0    0 -0.16482598837E-01 -0.27549704948E-01 -0.24676437647E-01  0.40495061466E-01  0.51100000000E-03 0.  1.
</event>
<event>
 8    1  0.1150863E+005  0.1043930E+01  0.7957747E-01            NaN
         13   -1    0    0    0    0  0.00000000000E+00  0.00000000000E+00  0.74505805969E-08  0.10566000000E+00  0.10566000000E+00 0.  1.
     999900   -1    0    0    0    0 -0.00000000000E+00 -0.00000000000E+00 -0.74505805969E-08  0.93827000000E+00  0.93827000000E+00 0.  1.
     999902    2    1    2    0    0  0.10845695585E-01 -0.16184890875E-01 -0.14675327235E-01  0.10195385049E+01  0.10192466914E+01 0.  0.
     999903    2    3    3    0    0 -0.11343294848E+00  0.61255365865E-02 -0.58157690428E-01  0.12946342239E+00  0.21769354147E-01 0.  0.
         14    1    1    2    0    0 -0.10845695585E-01  0.16184890875E-01  0.14675327235E-01  0.24391495133E-01  0.00000000000E+00 0.  1.
     999901    1    3    3    0    0  0.12427864407E+00 -0.22310427461E-01  0.43482363193E-01  0.89007508248E+00  0.88000000000E+00 0.  1.
        -11    1    4    4    0    0 -0.72918880878E-02 -0.35652047950E-02 -0.88735610165E-02  0.12036757172E-01  0.51100000000E-03 0. -1.
         11    1    4    4    0    0 -0.10614106040E+00  0.96907413815E-02 -0.49284129412E-01  0.11742666521E+00  0.51100000000E-03 0.  1.
</event>
<event>
 8    1  0.1150863E+005  0.1043930E+01  0.7957747E-01            NaN
         13   -1    0    0    0    0  0.00000000000E+00  0.00000000000E+00  0.74505805969E-08  0.10566000000E+00  0.10566000000E+00 0.  1.
     999900   -1    0    0    0    0 -0.00000000000E+00 -0.00000000000E+00 -0.74505805969E-08  0.93827000000E+00  0.93827000000E+00 0.  1.
     999902    2    1    2    0    0  0.19894314854E-01 -0.13430111688E-02 -0.15313541073E-01  0.10187885604E+01  0.10184782958E+01 0.  0.
     999903    2    3    3    0    0 -0.22619127761E-01  0.12204306382E+00  0.25292175518E-01  0.12823797765E+00  0.19978748762E-01 0.  0.
         14    1    1    2    0    0 -0.19894314854E-01  0.13430111688E-02  0.15313541073E-01  0.25141439551E-01  0.00000000000E+00 0.  1.
     999901    1    3    3    0    0  0.42513442615E-01 -0.12338607499E+00 -0.40605716591E-01  0.89055058280E+00  0.88000000000E+00 0.  1.
        -11    1    4    4    0    0 -0.21100222738E-01  0.60637236908E-01  0.10544204800E-01  0.65065622838E-01  0.51100000000E-03 0. -1.
         11    1    4    4    0    0 -0.15189050235E-02  0.61405826912E-01  0.14747970719E-01  0.63172354812E-01  0.51100000000E-03 0.  1.
</event>
<event>
 8    1  0.1150863E+005  0.1043930E+01  0.7957747E-01            NaN
         13   -1    0    0    0    0  0.00000000000E+00  0.00000000000E+00  0.74505805969E-08  0.10566000000E+00  0.10566000000E+00 0. -1.
     999900   -1    0    0    0    0 -0.00000000000E+00 -0.00000000000E+00 -0.74505805969E-08  0.93827000000E+00  0.93827000000E+00 0.  1.
     999902    2    1    2    0    0  0.40398893604E-02  0.38615128221E-04  0.24091831122E-01  0.10195017679E+01  0.10192090640E+01 0.  0.
     999903    2    3    3    0    0  0.55469689884E-01 -0.11589830765E+00  0.30343980240E-02  0.13015942102E+00  0.20566066673E-01 0.  0.
         14    1    1    2    0    0 -0.40398893604E-02 -0.38615128221E-04 -0.24091831122E-01  0.24428232110E-01  0.00000000000E+00 0.  1.
     999901    1    3    3    0    0 -0.51429800524E-01  0.11593692277E+00  0.21057433099E-01  0.88934234687E+00  0.88000000000E+00 0.  1.
        -11    1    4    4    0    0  0.42518201392E-01 -0.83552378111E-01 -0.66704383954E-02  0.93986984243E-01  0.51100000000E-03 0. -1.
         11    1    4    4    0    0  0.12951488492E-01 -0.32345929535E-01  0.97048364193E-02  0.36172436779E-01  0.51100000000E-03 0.  1.
</event>
<event>
 8    1  0.1150863E+005  0.1043930E+01  0.7957747E-01            NaN
         13   -1    0    0    0    0  0.00000000000E+00  0.00000000000E+00  0.74505805969E-08  0.10566000000E+00  0.10566000000E+00 0. -1.
     999900   -1    0    0    0    0 -0.00000000000E+00 -0.00000000000E+00 -0.74505805969E-08  0.93827000000E+00  0.93827000000E+00 0. -1.
     999902    2    1    2    0    0  0.28796127504E-03  0.13382526102E-01 -0.19364965554E-01  0.10203890396E+01  0.10201174517E+01 0.  0.
     999903    2    3    3    0    0  0.70711431162E-01  0.10401562941E+00  0.32547197294E-01  0.13141845673E+00  0.19802349802E-01 0.  0.
         14    1    1    2    0    0 -0.28796127504E-03 -0.13382526102E-01  0.19364965554E-01  0.23540960420E-01  0.00000000000E+00 0. -1.
     999901    1    3    3    0    0 -0.70423469887E-01 -0.90633103310E-01 -0.51912162848E-01  0.88897058285E+00  0.88000000000E+00 0. -1.
        -11    1    4    4    0    0  0.60868061461E-01  0.98695030460E-01  0.27732957208E-01  0.11922670833E+00  0.51100000000E-03 0.  1.
         11    1    4    4    0    0  0.98433697005E-02  0.53205989523E-02  0.48142400856E-02  0.12191748393E-01  0.51100000000E-03 0. -1.
</event>
<event>
 8    1  0.1150863E+005  0.1043930E+01  0.7957747E-01            NaN
         13   -1    0    0    0    0  0.00000000000E+00  0.00000000000E+00  0.74505805969E-08  0.10566000000E+00  0.10566000000E+00 0.  1.
     999900   -1    0    0    0    0 -0.00000000000E+00 -0.00000000000E+00 -0.74505805969E-08  0.93827000000E+00  0.93827000000E+00 0. -1.
     999902    2    1    2    0    0 -0.13215619315E-03  0.10135261909E-01 -0.21275835888E-01  0.10203630275E+01  0.10200908321E+01 0.  0.
     999903    2    3    3    0    0  0.38743667807E-01 -0.17226036566E-01 -0.12417944641E+00  0.13309242426E+00  0.22254221063E-01 0.  0.
         14    1    1    2    0    0  0.13215619315E-03 -0.10135261909E-01  0.21275835888E-01  0.23566972481E-01  0.00000000000E+00 0.  1.
     999901    1    3    3    0    0 -0.38875824000E-01  0.27361298475E-01  0.10290361052E+00  0.88727060326E+00  0.88000000000E+00 0.  1.
        -11    1    4    4    0    0  0.34900567614E-01 -0.71815050163E-02 -0.79289460849E-01  0.86929300911E-01  0.51100000000E-03 0.  1.
         11    1    4    4    0    0  0.38431001922E-02 -0.10044531550E-01 -0.44889985558E-01  0.46163123351E-01  0.51100000000E-03 0. -1.
</event>
<event>
 8    1  0.1150863E+005  0.1043930E+01  0.7957747E-01            NaN
         13   -1    0    0    0    0  0.00000000000E+00  0.00000000000E+00  0.74505805969E-08  0.10566000000E+00  0.10566000000E+00 0.  1.
     999900   -1    0    0    0    0 -0.00000000000E+00 -0.00000000000E+00 -0.74505805969E-08  0.93827000000E+00  0.93827000000E+00 0.  1.
     999902    2    1    2    0    0 -0.17787299604E-01  0.59816040357E-02  0.17258974131E-01  0.10184341219E+01  0.10181149349E+01 0.  0.
     999903    2    3    3    0    0  0.85829821503E-01  0.20213668820E-01 -0.88119289363E-01  0.12599721212E+00  0.18301301513E-01 0.  0.
         14    1    1    2    0    0  0.17787299604E-01 -0.59816040357E-02 -0.17258974131E-01  0.25495878140E-01  0.00000000000E+00 0. -1.
     999901    1    3    3    0    0 -0.10361712111E+00 -0.14232064784E-01  0.10537826349E+00  0.89243690974E+00  0.88000000000E+00 0. -1.
        -11    1    4    4    0    0  0.49241857986E-01  0.20241395327E-01 -0.56543442232E-01  0.77665285960E-01  0.51100000000E-03 0. -1.
         11    1    4    4    0    0  0.36587963517E-01 -0.27726507517E-04 -0.31575847130E-01  0.48331926158E-01  0.51100000000E-03 0.  1.
</event>
<event>
 8    1  0.1150863E+005  0.1043930E+01  0.7957747E-01            NaN
         13   -1    0    0    0    0  0.00000000000E+00  0.00000000000E+00  0.74505805969E-08  0.10566000000E+00  0.10566000000E+00 0.  1.
     999900   -1    0    0    0    0 -0.00000000000E+00 -0.00000000000E+00 -0.74505805969E-08  0.93827000000E+00  0.93827000000E+00 0.  1.
     999902    2    1    2    0    0 -0.21285091353E-01 -0.39014251555E-03  0.10916352883E-01  0.10200056591E+01  0.10197250466E+01 0.  0.
     999903    2    3    3    0    0  0.40299049972E-01  0.10941034169E+00 -0.51483562751E-01  0.12885892473E+00  0.18958611525E-01 0.  0.
         14    1    1    2    0    0  0.21285091353E-01  0.39014251555E-03 -0.10916352883E-01  0.23924340855E-01  0.00000000000E+00 0. -1.
     999901    1    3    3    0    0 -0.61584141325E-01 -0.10980048420E+00  0.62399915634E-01  0.89114673442E+00  0.88000000000E+00 0. -1.
        -11    1    4    4    0    0  0.32805109153E-01  0.91247295896E-01 -0.34620884120E-01  0.10296169644E+00  0.51100000000E-03 0. -1.
         11    1    4    4    0    0  0.74939408186E-02  0.18163045793E-01 -0.16862678631E-01  0.25897228289E-01  0.51100000000E-03 0.  1.
</event>
<event>
 8    1  0.1150863E+005  0.1043930E+01  0.7957747E-01            NaN
         13   -1    0    0    0    0  0.00000000000E+00  0.00000000000E+00  0.74505805969E-08  0.10566000000E+00  0.10566000000E+00 0. -1.
     999900   -1    0    0    0    0 -0.00000000000E+00 -0.00000000000E+00 -0.74505805969E-08  0.93827000000E+00  0.93827000000E+00 0. -1.
     999902    2    1    2    0    0  0.12325127803E-01  0.20424969196E-01  0.10684251148E-02  0.10200505177E+01  0.10197709689E+01 0.  0.
     999903    2    3    3    0    0  0.11431050864E+00  0.64693904641E-01  0.69078104546E-02  0.13303594344E+00  0.19966239507E-01 0.  0.
         14    1    1    2    0    0 -0.12325127803E-01 -0.20424969196E-01 -0.10684251148E-02  0.23879482286E-01  0.00000000000E+00 0.  1.
     999901    1    3    3    0    0 -0.10198538083E+00 -0.44268935446E-01 -0.58393853398E-02  0.88701457427E+00  0.88000000000E+00 0.  1.
        -11    1    4    4    0    0  0.36274827353E-01  0.15736964902E-01 -0.60553698544E-02  0.40005546976E-01  0.51100000000E-03 0.  1.
         11    1    4    4    0    0  0.78035681283E-01  0.48956939739E-01  0.12963180309E-01  0.93030396466E-01  0.51100000000E-03 0. -1.
</event>
<event>
 8    1  0.1150863E+005  0.1043930E+01  0.7957747E-01            NaN
         13   -1    0    0    0    0  0.00000000000E+00  0.00000000000E+00  0.74505805969E-08  0.10566000000E+00  0.10566000000E+00 0.  1.
     999900   -1    0    0    0    0 -0.00000000000E+00 -0.00000000000E+00 -0.74505805969E-08  0.93827000000E+00  0.93827000000E+00 0. -1.
     999902    2    1    2    0    0  0.66727505047E-02  0.55047952597E-02 -0.21999064577E-01  0.10202913196E+01  0.10200174457E+01 0.  0.
     999903    2    3    3    0    0  0.11241039966E+00  0.20104854229E-01  0.59444820979E-01  0.13010778868E+00  0.18816131858E-01 0.  0.
         14    1    1    2    0    0 -0.66727505047E-02 -0.55047952597E-02  0.21999064577E-01  0.23638680429E-01  0.00000000000E+00 0.  1.
     999901    1    3    3    0    0 -0.10573764916E+00 -0.14600058970E-01 -0.81443885557E-01  0.89018353089E+00  0.88000000000E+00 0.  1.
        -11    1    4    4    0    0  0.25449648774E-01  0.12448429469E-01  0.16915359634E-01  0.33000583805E-01  0.51100000000E-03 0. -1.
         11    1    4    4    0    0  0.86960750891E-01  0.76564247604E-02  0.42529461345E-01  0.97107204876E-01  0.51100000000E-03 0.  1.
</event>
<event>
 8    1  0.1150863E+005  0.1043930E+01  0.7957747E-01            NaN
         13   -1    0    0    0    0  0.00000000000E+00  0.00000000000E+00  0.74505805969E-08  0.10566000000E+00  0.10566000000E+00 0. -1.
     999900   -1    0    0    0    0 -0.00000000000E+00 -0.00000000000E+00 -0.74505805969E-08  0.93827000000E+00  0.93827000000E+00 0. -1.
     999902    2    1    2    0    0  0.71515466900E-02 -0.95290776482E-02  0.21425716940E-01  0.10194145092E+01  0.10191196850E+01 0.  0.
     999903    2    3    3    0    0 -0.55049758380E-01 -0.10109319640E+00  0.60484270700E-01  0.13162029839E+00  0.20377578122E-01 0.  0.
         14    1    1    2    0    0 -0.71515466900E-02  0.95290776482E-02 -0.21425716940E-01  0.24515490762E-01  0.00000000000E+00 0. -1.
     999901    1    3    3    0    0  0.62201305070E-01  0.91564118751E-01 -0.39058553760E-01  0.88779421085E+00  0.88000000000E+00 0. -1.
        -11    1    4    4    0    0 -0.47683766039E-01 -0.69823208271E-01  0.40201409605E-01  0.93623909405E-01  0.51100000000E-03 0. -1.
         11    1    4    4    0    0 -0.73659923408E-02 -0.31269988128E-01  0.20282861095E-01  0.37996388985E-01  0.51100000000E-03 0.  1.
</event>
<event>
 8    1  0.1150863E+005  0.1043930E+01  0.7957747E-01            NaN
         13   -1    0    0    0    0  0.00000000000E+00  0.00000000000E+00  0.74505805969E-08  0.10566000000E+00  0.10566000000E+00 0. -1.
     999900   -1    0    0    0    0 -0.00000000000E+00 -0.00000000000E+00 -0.74505805969E-08  0.93827000000E+00  0.93827000000E+00 0.  1.
     999902    2    1    2    0    0  0.12378365631E-01  0.19463965144E-01  0.38717578197E-02  0.10205406780E+01  0.10202726180E+01 0.  0.
     999903    2    3    3    0    0  0.12593144629E+00 -0.14384435933E-02  0.38400662561E-01  0.13232704487E+00  0.13230178938E-01 0.  0.
         14    1    1    2    0    0 -0.12378365631E-01 -0.19463965144E-01 -0.38717578197E-02  0.23389321996E-01  0.00000000000E+00 0. -1.
     999901    1    3    3    0    0 -0.11355308066E+00  0.20902408737E-01 -0.34528904741E-01  0.88821363313E+00  0.88000000000E+00 0.  1.
        -11    1    4    4    0    0  0.94544389282E-01 -0.31568871616E-02  0.34289012824E-01  0.10062109621E+00  0.51100000000E-03 0. -1.
         11    1    4    4    0    0  0.31387057009E-01  0.17184435683E-02  0.41116497367E-02  0.31705948661E-01  0.51100000000E-03 0.  1.
</event>
<event>
 8    1  0.1150863E+005  0.1043930E+01  0.7957747E-01            NaN
         13   -1    0    0    0    0  0.00000000000E+00  0.00000000000E+00  0.74505805969E-08  0.10566000000E+00  0.10566000000E+00 0. -1.
     999900   -1    0    0    0    0 -0.00000000000E+00 -0.00000000000E+00 -0.74505805969E-08  0.93827000000E+00  0.93827000000E+00 0.  1.
     999902    2    1    2    0    0  0.19815941577E-01  0.64749508354E-02  0.13447300214E-01  0.10191222107E+01  0.10188202265E+01 0.  0.
     999903    2    3    3    0    0 -0.55044696986E-02  0.12657960420E+00  0.25599231898E-01  0.13051998220E+00  0.18095571090E-01 0.  0.
         14    1    1    2    0    0 -0.19815941577E-01 -0.64749508354E-02 -0.13447300214E-01  0.24807789340E-01  0.00000000000E+00 0.  1.
     999901    1    3    3    0    0  0.25320411276E-01 -0.12010465336E+00 -0.12151931683E-01  0.88860222846E+00  0.88000000000E+00 0.  1.
        -11    1    4    4    0    0 -0.89799716583E-02  0.44169036103E-01  0.14146530558E-01  0.47243296764E-01  0.51100000000E-03 0. -1.
         11    1    4    4    0    0  0.34755019597E-02  0.82410568095E-01  0.11452701339E-01  0.83276685432E-01  0.51100000000E-03 0.  1.
</event>
<event>
 8    1  0.1150863E+005  0.1043930E+01  0.7957747E-01            NaN
         13   -1    0    0    0    0  0.00000000000E+00  0.00000000000E+00  0.74505805969E-08  0.10566000000E+00  0.10566000000E+00 0.  1.
     999900   -1    0    0    0    0 -0.00000000000E+00 -0.00000000000E+00 -0.74505805969E-08  0.93827000000E+00  0.93827000000E+00 0.  1.
     999902    2    1    2    0    0  0.59106566196E-02  0.20516931214E-02 -0.22478001053E-01  0.10205974940E+01  0.10203307497E+01 0.  0.
     999903    2    3    3    0    0 -0.46991153523E-01  0.10266887730E+00 -0.66594470379E-01  0.13218954593E+00  0.17034837660E-01 0.  0.
         14    1    1    2    0    0 -0.59106566196E-02 -0.20516931214E-02  0.22478001053E-01  0.23332506031E-01  0.00000000000E+00 0.  1.
     999901    1    3    3    0    0  0.52901810143E-01 -0.10061718418E+00  0.44116469326E-01  0.88840794804E+00  0.88000000000E+00 0. -1.
        -11    1    4    4    0    0 -0.40651073189E-01  0.85598553465E-01 -0.48258586159E-01  0.10634272126E+00  0.51100000000E-03 0. -1.
         11    1    4    4    0    0 -0.63400803343E-02  0.17070323833E-01 -0.18335884220E-01  0.25846824670E-01  0.51100000000E-03 0.  1.
</event>
<event>
 8    1  0.1150863E+005  0.1043930E+01  0.7957747E-01            NaN
         13   -1    0    0    0    0  0.00000000000E+00  0.00000000000E+00  0.74505805969E-08  0.10566000000E+00  0.10566000000E+00 0.  1.
     999900   -1    0    0    0    0 -0.00000000000E+00 -0.00000000000E+00 -0.74505805969E-08  0.93827000000E+00  0.93827000000E+00 0.  1.
     999902    2    1    2    0    0  0.16986714284E-02 -0.10699747737E-01  0.19090012403E-01  0.10219800875E+01  0.10217443421E+01 0.  0.
     999903    2    3    3    0    0 -0.10592282679E+00 -0.33107547316E-01  0.71910282943E-01  0.13356887788E+00  0.18809609749E-01 0.  0.
         14    1    1    2    0    0 -0.16986714284E-02  0.10699747737E-01 -0.19090012403E-01  0.21949912524E-01  0.00000000000E+00 0.  1.
     999901    1    3    3    0    0  0.10762149822E+00  0.22407799580E-01 -0.52820270540E-01  0.88841120960E+00  0.88000000000E+00 0.  1.
        -11    1    4    4    0    0 -0.34644258465E-01 -0.78762926027E-02  0.33169270940E-01  0.48607841810E-01  0.51100000000E-03 0. -1.
         11    1    4    4    0    0 -0.71278568329E-01 -0.25231254714E-01  0.38741012003E-01  0.84961036067E-01  0.51100000000E-03 0.  1.
</event>
<event>
 8    1  0.1150863E+005  0.1043930E+01  0.7957747E-01            NaN
         13   -1    0    0    0    0  0.00000000000E+00  0.00000000000E+00  0.74505805969E-08  0.10566000000E+00  0.10566000000E+00 0. -1.
     999900   -1    0    0    0    0 -0.00000000000E+00 -0.00000000000E+00 -0.74505805969E-08  0.93827000000E+00  0.93827000000E+00 0.  1.
     999902    2    1    2    0    0 -0.18289207311E-01  0.55183462179E-02 -0.12741653620E-01  0.10209670519E+01  0.10207087851E+01 0.  0.
     999903    2    3    3    0    0  0.37184999660E-01 -0.10865060628E+00  0.55668402018E-01  0.12923173630E+00  0.20351713438E-01 0.  0.
         14    1    1    2    0    0  0.18289207311E-01 -0.55183462179E-02  0.12741653620E-01  0.22962948113E-01  0.00000000000E+00 0. -1.
     999901    1    3    3    0    0 -0.55474206971E-01  0.11416895249E+00 -0.68410055638E-01  0.89173531559E+00  0.88000000000E+00 0.  1.
        -11    1    4    4    0    0  0.11544804948E-01 -0.64387470549E-01  0.29265403887E-01  0.71664174248E-01  0.51100000000E-03 0.  1.
         11    1    4    4    0    0  0.25640194712E-01 -0.44263135728E-01  0.26402998131E-01  0.57567562052E-01  0.51100000000E-03 0. -1.
</event>
<event>
 8    1  0.1150863E+005  0.1043930E+01  0.7957747E-01            NaN
         13   -1    0    0    0    0  0.00000000000E+00  0.00000000000E+00  0.74505805969E-08  0.10566000000E+00  0.10566000000E+00 0.  1.
     999900   -1    0    0    0    0 -0.00000000000E+00 -0.00000000000E+00 -0.74505805969E-08  0.93827000000E+00  0.93827000000E+00 0. -1.
     999902    2    1    2    0    0 -0.85506930841E-02  0.15977204594E-01 -0.12648472375E-01  0.10218309215E+01  0.10215919258E+01 0.  0.
     999903    2    3    3    0    0 -0.13230137697E+00  0.12110669544E-01  0.33854325528E-02  0.13301920464E+00  0.56855064487E-02 0.  0.
         14    1    1    2    0    0  0.85506930841E-02 -0.15977204594E-01  0.12648472375E-01  0.22099078539E-01  0.00000000000E+00 0. -1.
     999901    1    3    3    0    0  0.12375068389E+00  0.38665350504E-02 -0.16033904928E-01  0.88881171682E+00  0.88000000000E+00 0.  1.
        -11    1    4    4    0    0 -0.49198860095E-01  0.22375785578E-02 -0.22428696367E-03  0.49252878272E-01  0.51100000000E-03 0. -1.
         11    1    4    4    0    0 -0.83102516876E-01  0.98730909859E-02  0.36097195165E-02  0.83766326365E-01  0.51100000000E-03 0.  1.
</event>
<event>
 8    1  0.1150863E+005  0.1043930E+01  0.7957747E-01            NaN
         13   -1    0    0    0    0  0.00000000000E+00  0.00000000000E+00  0.74505805969E-08  0.10566000000E+00  0.10566000000E+00 0.  1.
     999900   -1    0    0    0    0 -0.00000000000E+00 -0.00000000000E+00 -0.74505805969E-08  0.93827000000E+00  0.93827000000E+00 0.  1.
     999902    2    1    2    0    0 -0.11195485023E-01 -0.31835227354E-02  0.19718812699E-01  0.10210322867E+01  0.10207755018E+01 0.  0.
     999903    2    3    3    0    0 -0.98814484296E-01  0.73500354668E-01 -0.41285105554E-01  0.13126884387E+00  0.18985388771E-01 0.  0.
         14    1    1    2    0    0  0.11195485023E-01  0.31835227354E-02 -0.19718812699E-01  0.22897713339E-01  0.00000000000E+00 0. -1.
     999901    1    3    3    0    0  0.87618999273E-01 -0.76683877404E-01  0.61003918254E-01  0.88976344279E+00  0.88000000000E+00 0. -1.
        -11    1    4    4    0    0 -0.51013865446E-01  0.47203663648E-01 -0.29191145091E-01  0.75385571579E-01  0.51100000000E-03 0.  1.
         11    1    4    4    0    0 -0.47800618850E-01  0.26296691020E-01 -0.12093960463E-01  0.55883272289E-01  0.51100000000E-03 0. -1.
</event>
<event>
 8    1  0.1150863E+005  0.1043930E+01  0.7957747E-01            NaN
         13   -1    0    0    0    0  0.00000000000E+00  0.00000000000E+00  0.74505805969E-08  0.10566000000E+00  0.10566000000E+00 0.  1.
     999900   -1    0    0    0    0 -0.00000000000E+00 -0.00000000000E+00 -0.74505805969E-08  0.93827000000E+00  0.93827000000E+00 0.  1.
     999902    2    1    2    0    0 -0.33924670193E-02  0.23542933370E-01  0.41340344630E-02  0.10197873244E+01  0.10195015048E+01 0.  0.
     999903    2    3    3    0    0 -0.73898791563E-01 -0.82002661244E-01 -0.62929255058E-01  0.12815483332E+00  0.16676399988E-01 0.  0.
         14    1    1    2    0    0  0.33924670193E-02 -0.23542933370E-01 -0.41340344630E-02  0.24142675599E-01  0.00000000000E+00 0. -1.
     999901    1    3    3    0    0  0.70506324544E-01  0.10554559461E+00  0.67063289521E-01  0.89163249108E+00  0.88000000000E+00 0.  1.
        -11    1    4    4    0    0 -0.55474803171E-01 -0.61984764152E-01 -0.55318799986E-01  0.99899927561E-01  0.51100000000E-03 0.  1.
         11    1    4    4    0    0 -0.18423988392E-01 -0.20017897092E-01 -0.76104550720E-02  0.28254905763E-01  0.51100000000E-03 0. -1.
</event>
<event>
 8    1  0.1150863E+005  0.1043930E+01  0.7957747E-01            NaN
         13   -1    0    0    0    0  0.00000000000E+00  0.00000000000E+00  0.74505805969E-08  0.10566000000E+00  0.10566000000E+00 0. -1.
     999900   -1    0    0    0    0 -0.00000000000E+00 -0.00000000000E+00 -0.74505805969E-08  0.93827000000E+00  0.93827000000E+00 0.  1.
     999902    2    1    2    0    0 -0.22255509164E-01  0.12047796553E-01  0.16053390090E-02  0.10185718809E+01  0.10182561772E+01 0.  0.
     999903    2    3    3    0    0  0.49509233525E-01  0.89136597311E-01  0.76701205181E-01  0.12911572651E+00  0.19781273276E-01 0.  0.
         14    1    1    2    0    0  0.22255509164E-01 -0.12047796553E-01 -0.16053390090E-02  0.25358119080E-01  0.00000000000E+00 0.  1.
     999901    1    3    3    0    0 -0.71764742689E-01 -0.77088800758E-01 -0.75095866172E-01  0.88945615441E+00  0.88000000000E+00 0.  1.
        -11    1    4    4    0    0  0.23432648248E-01  0.50057684092E-01  0.30084250211E-01  0.62929992630E-01  0.51100000000E-03 0. -1.
         11    1    4    4    0    0  0.26076585277E-01  0.39078913219E-01  0.46616954970E-01  0.66185733884E-01  0.51100000000E-03 0.  1.
</event>
<event>
 8    1  0.1150863E+005  0.1043930E+01  0.7957747E-01            NaN
         13   -1    0    0    0    0  0.00000000000E+00  0.00000000000E+00  0.74505805969E-08  0.10566000000E+00  0.10566000000E+00 0.  1.
     999900   -1    0    0    0    0 -0.00000000000E+00 -0.00000000000E+00 -0.74505805969E-08  0.93827000000E+00  0.93827000000E+00 0. -1.
     999902    2    1    2    0    0 -0.85745641240E-02 -0.20202345450E-01 -0.95038938802E-02  0.10200138567E+01  0.10197334387E+01 0.  0.
     999903    2    3    3    0    0  0.35151073115E-01 -0.73275046383E-01 -0.10261951001E+00  0.13243334716E+00  0.20074791219E-01 0.  0.
         14    1    1    2    0    0  0.85745641240E-02  0.20202345450E-01  0.95038938802E-02  0.23916143303E-01  0.00000000000E+00 0. -1.
     999901    1    3    3    0    0 -0.43725637239E-01  0.53072700934E-01  0.93115616131E-01  0.88758050953E+00  0.88000000000E+00 0.  1.
        -11    1    4    4    0    0  0.11311178150E-01 -0.11230739408E-01 -0.11568451630E-01  0.19701838820E-01  0.51100000000E-03 0.  1.
         11    1    4    4    0    0  0.23839894964E-01 -0.62044306976E-01 -0.91051058381E-01  0.11273150834E+00  0.51100000000E-03 0. -1.
</event>
<event>
 8    1  0.1150863E+005  0.1043930E+01  0.7957747E-01            NaN
         13   -1    0    0    0    0  0.00000000000E+00  0.00000000000E+00  0.74505805969E-08  0.10566000000E+00  0.10566000000E+00 0. -1.
     999900   -1    0    0    0    0 -0.00000000000E+00 -0.00000000000E+00 -0.74505805969E-08  0.93827000000E+00  0.93827000000E+00 0.  1.
     999902    2    1    2    0    0 -0.21253737321E-02 -0.37174372391E-02  0.22745875243E-01  0.10207845600E+01  0.10205221245E+01 0.  0.
     999903    2    3    3    0    0 -0.83346709341E-01  0.46610709013E-01 -0.84363283316E-01  0.12915560155E+00  0.21089658303E-01 0.  0.
         14    1    1    2    0    0  0.21253737321E-02  0.37174372391E-02 -0.22745875243E-01  0.23145440020E-01  0.00000000000E+00 0.  1.
     999901    1    3    3    0    0  0.81221335609E-01 -0.50328146252E-01  0.10710915856E+00  0.89162895843E+00  0.88000000000E+00 0. -1.
        -11    1    4    4    0    0 -0.53746090864E-01  0.19869417314E-01 -0.42628724269E-01  0.71420622242E-01  0.51100000000E-03 0. -1.
         11    1    4    4    0    0 -0.29600618477E-01  0.26741291699E-01 -0.41734559047E-01  0.57734979309E-01  0.51100000000E-03 0.  1.
</event>
<event>
 8    1  0.1150863E+005  0.1043930E+01  0.7957747E-01            NaN
         13   -1    0    0    0    0  0.00000000000E+00  0.00000000000E+00  0.74505805969E-08  0.10566000000E+00  0.10566000000E+00 0.  1.
     999900   -1    0    0    0    0 -0.00000000000E+00 -0.00000000000E+00 -0.74505805969E-08  0.93827000000E+00  0.93827000000E+00 0.  1.
     999902    2    1    2    0    0  0.70612499269E-02  0.93346750955E-02 -0.17875657992E-01  0.10225632839E+01  0.10223400281E+01 0.  0.
     999903    2    3    3    0    0 -0.26946252064E-01 -0.12396647165E+00  0.25470176780E-01  0.13082085059E+00  0.19276370225E-01 0.  0.
         14    1    1    2    0    0 -0.70612499269E-02 -0.93346750955E-02  0.17875657992E-01  0.21366716133E-01  0.00000000000E+00 0.  1.
     999901    1    3    3    0    0  0.34007501991E-01  0.13330114675E+00 -0.43345834771E-01  0.89174243328E+00  0.88000000000E+00 0.  1.
        -11    1    4    4    0    0 -0.28512547880E-01 -0.11004761921E+00  0.18537320816E-01  0.11518392797E+00  0.51100000000E-03 0.  1.
         11    1    4    4    0    0  0.15662958161E-02 -0.13918852448E-01  0.69328559637E-02  0.15636922615E-01  0.51100000000E-03 0. -1.
</event>
<event>
 8    1  0.1150863E+005  0.1043930E+01  0.7957747E-01            NaN
         13   -1    0    0    0    0  0.00000000000E+00  0.00000000000E+00  0.74505805969E-08  0.10566000000E+00  0.10566000000E+00 0.  1.
     999900   -1    0    0    0    0 -0.00000000000E+00 -0.00000000000E+00 -0.74505805969E-08  0.93827000000E+00  0.93827000000E+00 0.  1.
     999902    2    1    2    0    0 -0.19603956487E-01 -0.29755081038E-02 -0.12255055632E-01  0.10206200204E+01  0.10203537970E+01 0.  0.
     999903    2    3    3    0    0  0.78406942736E-01  0.59701737209E-02 -0.10242820356E+00  0.13055409131E+00  0.19223481220E-01 0.  0.
         14    1    1    2    0    0  0.19603956487E-01  0.29755081038E-02  0.12255055632E-01  0.23309979558E-01  0.00000000000E+00 0.  1.
     999901    1    3    3    0    0 -0.98010899224E-01 -0.89456818247E-02  0.90173147929E-01  0.89006592913E+00  0.88000000000E+00 0. -1.
        -11    1    4    4    0    0  0.12349675332E-01 -0.52315347491E-02 -0.23102145747E-01  0.26718040642E-01  0.51100000000E-03 0. -1.
         11    1    4    4    0    0  0.66057267404E-01  0.11201708470E-01 -0.79326057814E-01  0.10383605067E+00  0.51100000000E-03 0.  1.
</event>
<event>
 8    1  0.1150863E+005  0.1043930E+01  0.7957747E-01            NaN
         13   -1    0    0    0    0  0.00000000000E+00  0.00000000000E+00  0.74505805969E-08  0.10566000000E+00  0.10566000000E+00 0.  1.
     999900   -1    0    0    0    0 -0.00000000000E+00 -0.00000000000E+00 -0.74505805969E-08  0.93827000000E+00  0.93827000000E+00 0.  1.
     999902    2    1    2    0    0 -0.11706756341E-01 -0.15857261973E-01  0.16677341118E-01  0.10181107318E+01  0.10177832911E+01 0.  0.
     999903    2    3    3    0    0 -0.10174909399E+00  0.10731853876E-01 -0.75243496177E-01  0.12835568467E+00  0.18588901384E-01 0.  0.
         14    1    1    2    0    0  0.11706756341E-01  0.15857261973E-01 -0.16677341118E-01  0.25819268155E-01  0.00000000000E+00 0. -1.
     999901    1    3    3    0    0  0.90042337644E-01 -0.26589115848E-01  0.91920837296E-01  0.88975504718E+00  0.88000000000E+00 0. -1.
        -11    1    4    4    0    0 -0.74347111645E-01  0.13797083884E-01 -0.47855536161E-01  0.89488915492E-01  0.51100000000E-03 0. -1.
         11    1    4    4    0    0 -0.27401982341E-01 -0.30652300087E-02 -0.27387960016E-01  0.38866769175E-01  0.51100000000E-03 0.  1.
</event>
<event>
 8    1  0.1150863E+005  0.1043930E+01  0.7957747E-01            NaN
         13   -1    0    0    0    0  0.00000000000E+00  0.00000000000E+00  0.74505805969E-08  0.10566000000E+00  0.10566000000E+00 0. -1.
     999900   -1    0    0    0    0 -0.00000000000E+00 -0.00000000000E+00 -0.74505805969E-08  0.93827000000E+00  0.93827000000E+00 0. -1.
     999902    2    1    2    0    0  0.13211188598E-01 -0.16644090382E-01  0.10313958000E-01  0.10203092680E+01  0.10200358148E+01 0.  0.
     999903    2    3    3    0    0  0.77989242242E-02 -0.22842630240E-01 -0.12594203886E+00  0.12978503413E+00  0.20003723540E-01 0.  0.
         14    1    1    2    0    0 -0.13211188598E-01  0.16644090382E-01 -0.10313958000E-01  0.23620731963E-01  0.00000000000E+00 0.  1.
     999901    1    3    3    0    0  0.54122643739E-02  0.61985398574E-02  0.13625599686E+00  0.89052423391E+00  0.88000000000E+00 0.  1.
        -11    1    4    4    0    0  0.14294572494E-01 -0.11919756333E-01 -0.73125024139E-01  0.75458237921E-01  0.51100000000E-03 0.  1.
         11    1    4    4    0    0 -0.64956482694E-02 -0.10922873907E-01 -0.52817014722E-01  0.54326796205E-01  0.51100000000E-03 0. -1.
</event>
<event>
 8    1  0.1150863E+005  0.1043930E+01  0.7957747E-01            NaN
         13   -1    0    0    0    0  0.00000000000E+00  0.00000000000E+00  0.74505805969E-08  0.10566000000E+00  0.10566000000E+00 0.  1.
     999900   -1    0    0    0    0 -0.00000000000E+00 -0.00000000000E+00 -0.74505805969E-08  0.93827000000E+00  0.93827000000E+00 0.  1.
     999902    2    1    2    0    0 -0.18549780653E-01  0.12774759281E-01  0.80452022549E-02  0.10200131834E+01  0.10197327494E+01 0.  0.
     999903    2    3    3    0    0 -0.40672925094E-01  0.11648048989E+00  0.45139162665E-01  0.13287155210E+00  0.19882504682E-01 0.  0.
         14    1    1    2    0    0  0.18549780653E-01 -0.12774759281E-01 -0.80452022549E-02  0.23916816601E-01  0.00000000000E+00 0.  1.
     999901    1    3    3    0    0  0.22123144441E-01 -0.10370573060E+00 -0.37093960410E-01  0.88714163130E+00  0.88000000000E+00 0.  1.
        -11    1    4    4    0    0 -0.32084477916E-01  0.92549419940E-01  0.44088719067E-01  0.10741920277E+00  0.51100000000E-03 0.  1.
         11    1    4    4    0    0 -0.85884471776E-02  0.23931069945E-01  0.10504435982E-02  0.25452349330E-01  0.51100000000E-03 0. -1.
</event>
<event>
 8    1  0.1150863E+005  0.1043930E+01  0.7957747E-01            NaN
         13   -1    0    0    0    0  0.00000000000E+00  0.00000000000E+00  0.74505805969E-08  0.10566000000E+00  0.10566000000E+00 0. -1.
     999900   -1    0    0    0    0 -0.00000000000E+00 -0.00000000000E+00 -0.74505805969E-08  0.93827000000E+00  0.93827000000E+00 0. -1.
     999902    2    1    2    0    0  0.21330035830E-02 -0.16575344635E-01  0.21149861404E-01  0.10169743254E+01  0.10166170224E+01 0.  0.
     999903    2    3    3    0    0  0.68485480485E-01  0.10300854640E+00 -0.11945906446E-01  0.12579629157E+00  0.19518724918E-01 0.  0.
         14    1    1    2    0    0 -0.21330035830E-02  0.16575344635E-01 -0.21149861404E-01  0.26955674568E-01  0.00000000000E+00 0.  1.
     999901    1    3    3    0    0 -0.66352476902E-01 -0.11958389104E+00  0.33095767849E-01  0.89117803386E+00  0.88000000000E+00 0. -1.
        -11    1    4    4    0    0  0.34824225343E-01  0.45377544474E-01  0.34287553303E-02  0.57305023317E-01  0.51100000000E-03 0. -1.
         11    1    4    4    0    0  0.33661255142E-01  0.57631001930E-01 -0.15374661776E-01  0.68491268253E-01  0.51100000000E-03 0.  1.
</event>
<event>
 8    1  0.1150863E+005  0.1043930E+01  0.7957747E-01            NaN
         13   -1    0    0    0    0  0.00000000000E+00  0.00000000000E+00  0.74505805969E-08  0.10566000000E+00  0.10566000000E+00 0. -1.
     999900   -1    0    0    0    0 -0.00000000000E+00 -0.00000000000E+00 -0.74505805969E-08  0.93827000000E+00  0.93827000000E+00 0. -1.
     999902    2    1    2    0    0 -0.17483965360E-01 -0.13902181935E-01 -0.39751592444E-02  0.10212416418E+01  0.10209895834E+01 0.  0.
     999903    2    3    3    0    0 -0.23210117612E-01  0.12590884932E+00 -0.13084333580E-01  0.13013957674E+00  0.19322571030E-01 0.  0.
         14    1    1    2    0    0  0.17483965360E-01  0.13902181935E-01  0.39751592444E-02  0.22688358210E-01  0.00000000000E+00 0. -1.
     999901    1    3    3    0    0  0.57261522517E-02 -0.13981103126E+00  0.91091743357E-02  0.89110206505E+00  0.88000000000E+00 0. -1.
        -11    1    4    4    0    0 -0.81262354420E-02  0.73810985324E-01 -0.15446475502E-01  0.75848216745E-01  0.51100000000E-03 0.  1.
         11    1    4    4    0    0 -0.15083882170E-01  0.52097863999E-01  0.23621419214E-02  0.54291359994E-01  0.51100000000E-03 0. -1.
</event>
<event>
 8    1  0.1150863E+005  0.1043930E+01  0.7957747E-01            NaN
         13   -1    0    0    0    0  0.00000000000E+00  0.00000000000E+00  0.74505805969E-08  0.10566000000E+00  0.10566000000E+00 0.  1.
     999900   -1    0    0    0    0 -0.00000000000E+00 -0.00000000000E+00 -0.74505805969E-08  0.93827000000E+00  0.93827000000E+00 0.  1.
     999902    2    1    2    0    0  0.13937008114E-01 -0.20197402350E-01  0.17726590787E-01  0.10136577804E+01  0.10132056497E+01 0.  0.
     999903    2    3    3    0    0  0.11306389917E+00  0.50148392021E-01  0.14653073162E-02  0.12515392526E+00  0.19053906782E-01 0.  0.
         14    1    1    2    0    0 -0.13937008114E-01  0.20197402350E-01 -0.17726590787E-01  0.30272219572E-01  0.00000000000E+00 0. -1.
     999901    1    3    3    0    0 -0.99126891055E-01 -0.70345794372E-01  0.16261283471E-01  0.88850385517E+00  0.88000000000E+00 0.  1.
        -11    1    4    4    0    0  0.87542458667E-01  0.32734004042E-01 -0.49478342729E-02  0.93594547251E-01  0.51100000000E-03 0. -1.
         11    1    4    4    0    0  0.25521440502E-01  0.17414387980E-01  0.64131415890E-02  0.31559378005E-01  0.51100000000E-03 0.  1.
</event>
<event>
 8    1  0.1150863E+005  0.1043930E+01  0.7957747E-01            NaN
         13   -1    0    0    0    0  0.00000000000E+00  0.00000000000E+00  0.74505805969E-08  0.10566000000E+00  0.10566000000E+00 0. -1.
     999900   -1    0    0    0    0 -0.00000000000E+00 -0.00000000000E+00 -0.74505805969E-08  0.93827000000E+00  0.93827000000E+00 0. -1.
     999902    2    1    2    0    0 -0.11465005083E-03 -0.23277472982E-01  0.50490273692E-02  0.10201109620E+01  0.10198328433E+01 0.  0.
     999903    2    3    3    0    0 -0.40192771000E-02 -0.13107398605E+00  0.14887719628E-01  0.13347003458E+00  0.19901294647E-01 0.  0.
         14    1    1    2    0    0  0.11465005083E-03  0.23277472982E-01 -0.50490273692E-02  0.23819037983E-01  0.00000000000E+00 0.  1.
     999901    1    3    3    0    0  0.39046270492E-02  0.10779651306E+00 -0.98386922587E-02  0.88664092744E+00  0.88000000000E+00 0. -1.
        -11    1    4    4    0    0 -0.10712139631E-01 -0.10885305198E+00  0.10964837638E-01  0.10992827501E+00  0.51100000000E-03 0. -1.
         11    1    4    4    0    0  0.66928625314E-02 -0.22220934068E-01  0.39228819899E-02  0.23541759573E-01  0.51100000000E-03 0.  1.
</event>
<event>
 8    1  0.1150863E+005  0.1043930E+01  0.7957747E-01            NaN
         13   -1    0    0    0    0  0.00000000000E+00  0.00000000000E+00  0.74505805969E-08  0.10566000000E+00  0.10566000000E+00 0. -1.
     999900   -1    0    0    0    0 -0.00000000000E+00 -0.00000000000E+00 -0.74505805969E-08  0.93827000000E+00  0.93827000000E+00 0.  1.
     999902    2    1    2    0    0  0.23505593963E-02  0.22236806347E-01 -0.85370659632E-02  0.10199950427E+01  0.10197141781E+01 0.  0.
     999903    2    3    3    0    0 -0.11987789561E+00  0.26720379384E-01 -0.40009369807E-01  0.13097850542E+00  0.21677884550E-01 0.  0.
         14    1    1    2    0    0 -0.23505593963E-02 -0.22236806347E-01  0.85370659632E-02  0.23934957306E-01  0.00000000000E+00 0. -1.
     999901    1    3    3    0    0  0.12222845501E+00 -0.44835730369E-02  0.31472303844E-01  0.88901653728E+00  0.88000000000E+00 0.  1.
        -11    1    4    4    0    0 -0.83634644598E-01  0.23982395700E-01 -0.36859106950E-01  0.94492137063E-01  0.51100000000E-03 0. -1.
         11    1    4    4    0    0 -0.36243251014E-01  0.27379836832E-02 -0.31502628572E-02  0.36486368355E-01  0.51100000000E-03 0.  1.
</event>
<event>
 8    1  0.1150863E+005  0.1043930E+01  0.7957747E-01            NaN
         13   -1    0    0    0    0  0.00000000000E+00  0.00000000000E+00  0.74505805969E-08  0.10566000000E+00  0.10566000000E+00 0. -1.
     999900   -1    0    0    0    0 -0.00000000000E+00 -0.00000000000E+00 -0.74505805969E-08  0.93827000000E+00  0.93827000000E+00 0. -1.
     999902    2    1    2    0    0  0.14752398100E-01  0.21557581476E-01 -0.99990562963E-03  0.10177887992E+01  0.10174530345E+01 0.  0.
     999903    2    3    3    0    0  0.59170280945E-01  0.10900641215E+00 -0.39411028976E-01  0.13150686848E+00  0.18902571669E-01 0.  0.
         14    1    1    2    0    0 -0.14752398100E-01 -0.21557581476E-01  0.99990562963E-03  0.26141200816E-01  0.00000000000E+00 0. -1.
     999901    1    3    3    0    0 -0.44417882844E-01 -0.87448830669E-01  0.38411123346E-01  0.88628193071E+00  0.88000000000E+00 0.  1.
        -11    1    4    4    0    0  0.30842289951E-01  0.73522432029E-01 -0.20542243889E-01  0.82334924339E-01  0.51100000000E-03 0. -1.
         11    1    4    4    0    0  0.28327990993E-01  0.35483980116E-01 -0.18868785087E-01  0.49171944138E-01  0.51100000000E-03 0.  1.
</event>
<event>
 8    1  0.1150863E+005  0.1043930E+01  0.7957747E-01            NaN
         13   -1    0    0    0    0  0.00000000000E+00  0.00000000000E+00  0.74505805969E-08  0.10566000000E+00  0.10566000000E+00 0. -1.
     999900   -1    0    0    0    0 -0.00000000000E+00 -0.00000000000E+00 -0.74505805969E-08  0.93827000000E+00  0.93827000000E+00 0. -1.
     999902    2    1    2    0    0  0.20566464264E-01 -0.85563569510E-02  0.60964118689E-02  0.10208354783E+01  0.10205742093E+01 0.  0.
     999903    2    3    3    0    0 -0.49857448015E-01  0.11708062591E+00 -0.82821639669E-02  0.12901098750E+00  0.19534650497E-01 0.  0.
         14    1    1    2    0    0 -0.20566464264E-01  0.85563569510E-02 -0.60964118689E-02  0.23094521737E-01  0.00000000000E+00 0.  1.
     999901    1    3    3    0    0  0.70423912279E-01 -0.12563698286E+00  0.14378575836E-01  0.89182449076E+00  0.88000000000E+00 0. -1.
        -11    1    4    4    0    0 -0.17577072409E-01  0.51102079154E-01  0.53353297310E-02  0.54305642733E-01  0.51100000000E-03 0. -1.
         11    1    4    4    0    0 -0.32280375607E-01  0.65978546754E-01 -0.13617493698E-01  0.74705344766E-01  0.51100000000E-03 0.  1.
</event>
<event>
 8    1  0.1150863E+005  0.1043930E+01  0.7957747E-01            NaN
         13   -1    0    0    0    0  0.00000000000E+00  0.00000000000E+00  0.74505805969E-08  0.10566000000E+00  0.10566000000E+00 0. -1.
     999900   -1    0    0    0    0 -0.00000000000E+00 -0.00000000000E+00 -0.74505805969E-08  0.93827000000E+00  0.93827000000E+00 0. -1.
     999902    2    1    2    0    0 -0.97154678978E-02  0.16249239885E-01  0.15900728838E-01  0.10192063010E+01  0.10189063857E+01 0.  0.
     999903    2    3    3    0    0  0.94370726344E-01  0.52023269047E-01  0.71097442040E-01  0.13063419132E+00  0.19954727893E-01 0.  0.
         14    1    1    2    0    0  0.97154678978E-02 -0.16249239885E-01 -0.15900728838E-01  0.24723698973E-01  0.00000000000E+00 0.  1.
     999901    1    3    3    0    0 -0.10408619424E+00 -0.35774029162E-01 -0.55196713202E-01  0.88857210970E+00  0.88000000000E+00 0. -1.
        -11    1    4    4    0    0  0.84989134739E-01  0.40572177194E-01  0.56437538558E-01  0.10979395004E+00  0.51100000000E-03 0.  1.
         11    1    4    4    0    0  0.93815916046E-02  0.11451091853E-01  0.14659903482E-01  0.20840241284E-01  0.51100000000E-03 0. -1.
</event>
<event>
 8    1  0.1150863E+005  0.1043930E+01  0.7957747E-01            NaN
         13   -1    0    0    0    0  0.00000000000E+00  0.00000000000E+00  0.74505805969E-08  0.10566000000E+00  0.10566000000E+00 0.  1.
     999900   -1    0    0    0    0 -0.00000000000E+00 -0.00000000000E+00 -0.74505805969E-08  0.93827000000E+00  0.93827000000E+00 0.  1.
     999902    2    1    2    0    0  0.21123019777E-01 -0.10582120017E-01 -0.77670952251E-02  0.10190605208E+01  0.10187570142E+01 0.  0.
     999903    2    3    3    0    0 -0.27227426397E-01 -0.29280815796E-01  0.12026934060E+00  0.12828516427E+00  0.19841122978E-01 0.  0.
         14    1    1    2    0    0 -0.21123019777E-01  0.10582120017E-01  0.77670952251E-02  0.24869479222E-01  0.00000000000E+00 0. -1.
     999901    1    3    3    0    0  0.48350446174E-01  0.18698695780E-01 -0.12803643582E+00  0.89077535651E+00  0.88000000000E+00 0.  1.
        -11    1    4    4    0    0 -0.10134171330E-01 -0.24957237399E-01  0.75787367979E-01  0.80433521577E-01  0.51100000000E-03 0.  1.
         11    1    4    4    0    0 -0.17093255067E-01 -0.43235783969E-02  0.44481972620E-01  0.47851642690E-01  0.51100000000E-03 0. -1.
</event>
<event>
 8    1  0.1150863E+005  0.1043930E+01  0.7957747E-01            NaN
         13   -1    0    0    0    0  0.00000000000E+00  0.00000000000E+00  0.74505805969E-08  0.10566000000E+00  0.10566000000E+00 0. -1.
     999900   -1    0    0    0    0 -0.00000000000E+00 -0.00000000000E+00 -0.74505805969E-08  0.93827000000E+00  0.93827000000E+00 0.  1.
     999902    2    1    2    0    0 -0.14884624136E-01  0.18535449162E-01 -0.42474242357E-02  0.10197813867E+01  0.10194954248E+01 0.  0.
     999903    2    3    3    0    0 -0.25764259193E-01 -0.10459552439E+00 -0.67971686468E-01  0.12886029890E+00  0.19514243436E-01 0.  0.
         14    1    1    2    0    0  0.14884624136E-01 -0.18535449162E-01  0.42474242357E-02  0.24148613292E-01  0.00000000000E+00 0. -1.
     999901    1    3    3    0    0  0.10879635057E-01  0.12313097355E+00  0.63724262233E-01  0.89092108781E+00  0.88000000000E+00 0. -1.
        -11    1    4    4    0    0 -0.18382724825E-01 -0.36169595190E-01 -0.22930037685E-01  0.46606994512E-01  0.51100000000E-03 0. -1.
         11    1    4    4    0    0 -0.73815343679E-02 -0.68425929199E-01 -0.45041648783E-01  0.82253304387E-01  0.51100000000E-03 0.  1.
</event>
<event>
 8    1  0.1150863E+005  0.1043930E+01  0.7957747E-01            NaN
         13   -1    0    0    0    0  0.00000000000E+00  0.00000000000E+00  0.74505805969E-08  0.10566000000E+00  0.10566000000E+00 0.  1.
     999900   -1    0    0    0    0 -0.00000000000E+00 -0.00000000000E+00 -0.74505805969E-08  0.93827000000E+00  0.93827000000E+00 0. -1.
     999902    2    1    2    0    0 -0.16766068147E-01 -0.10152920398E-01  0.11625496348E-01  0.10211410773E+01  0.10208867541E+01 0.  0.
     999903    2    3    3    0    0  0.58064157796E-01  0.67818909523E-02  0.11634081733E+00  0.13161780664E+00  0.19251513745E-01 0.  0.
         14    1    1    2    0    0  0.16766068147E-01  0.10152920398E-01 -0.11625496348E-01  0.22788922727E-01  0.00000000000E+00 0. -1.
     999901    1    3    3    0    0 -0.74830225943E-01 -0.16934811351E-01 -0.10471532098E+00  0.88952327063E+00  0.88000000000E+00 0. -1.
        -11    1    4    4    0    0  0.31808578512E-01  0.11615310217E-01  0.53224764925E-01  0.63085955811E-01  0.51100000000E-03 0.  1.
         11    1    4    4    0    0  0.26255579285E-01 -0.48334192642E-02  0.63116052408E-01  0.68531850828E-01  0.51100000000E-03 0. -1.
</event>
<event>
 8    1  0.1150863E+005  0.1043930E+01  0.7957747E-01            NaN
         13   -1    0    0    0    0  0.00000000000E+00  0.00000000000E+00  0.74505805969E-08  0.10566000000E+00  0.10566000000E+00 0.  1.
     999900   -1    0    0    0    0 -0.00000000000E+00 -0.00000000000E+00 -0.74505805969E-08  0.93827000000E+00  0.93827000000E+00 0.  1.
     999902    2    1    2    0    0  0.50319044259E-02 -0.89820207089E-02 -0.23803301353E-01  0.10179955844E+01  0.10176651787E+01 0.  0.
     999903    2    3    3    0    0  0.80360376289E-01 -0.21583671221E-01 -0.99361639343E-01  0.13146174819E+00  0.22041118940E-01 0.  0.
         14    1    1    2    0    0 -0.50319044259E-02  0.89820207089E-02  0.23803301353E-01  0.25934415619E-01  0.00000000000E+00 0.  1.
     999901    1    3    3    0    0 -0.75328471863E-01  0.12601650512E-01  0.75558337990E-01  0.88653383619E+00  0.88000000000E+00 0. -1.
        -11    1    4    4    0    0  0.26644888790E-01 -0.36290936526E-02 -0.47904866964E-01  0.54938673256E-01  0.51100000000E-03 0.  1.
         11    1    4    4    0    0  0.53715487499E-01 -0.17954577569E-01 -0.51456772379E-01  0.76523074936E-01  0.51100000000E-03 0. -1.
</event>
<event>
 8    1  0.1150863E+005  0.1043930E+01  0.7957747E-01            NaN
         13   -1    0    0    0    0  0.00000000000E+00  0.00000000000E+00  0.74505805969E-08  0.10566000000E+00  0.10566000000E+00 0.  1.
     999900   -1    0    0    0    0 -0.00000000000E+00 -0.00000000000E+00 -0.74505805969E-08  0.93827000000E+00  0.93827000000E+00 0.  1.
     999902    2    1    2    0    0 -0.12703671671E-01 -0.80681294184E-02 -0.22678399329E-01  0.10167125831E+01  0.10163482124E+01 0.  0.
     999903    2    3    3    0    0 -0.29467586982E-01 -0.33904325580E-02 -0.12543898838E+00  0.13056211712E+00  0.20777220849E-01 0.  0.
         14    1    1    2    0    0  0.12703671671E-01  0.80681294184E-02  0.22678399329E-01  0.27217416894E-01  0.00000000000E+00 0.  1.
     999901    1    3    3    0    0  0.16763915311E-01 -0.46776968603E-02  0.10276058905E+00  0.88615046599E+00  0.88000000000E+00 0. -1.
        -11    1    4    4    0    0 -0.48231203259E-02  0.76330074590E-02 -0.26291204133E-01  0.27803126233E-01  0.51100000000E-03 0.  1.
         11    1    4    4    0    0 -0.24644466656E-01 -0.11023440017E-01 -0.99147784245E-01  0.10275899089E+00  0.51100000000E-03 0. -1.
</event>
<event>
 8    1  0.1150863E+005  0.1043930E+01  0.7957747E-01            NaN
         13   -1    0    0    0    0  0.00000000000E+00  0.00000000000E+00  0.74505805969E-08  0.10566000000E+00  0.10566000000E+00 0. -1.
     999900   -1    0    0    0    0 -0.00000000000E+00 -0.00000000000E+00 -0.74505805969E-08  0.93827000000E+00  0.93827000000E+00 0.  1.
     999902    2    1    2    0    0 -0.21041628143E-01 -0.99782842916E-02 -0.60389401794E-02  0.10198720477E+01  0.10195882544E+01 0.  0.
     999903    2    3    3    0    0 -0.77809894309E-01  0.97382043318E-01  0.33246835904E-01  0.13066327117E+00  0.20733941294E-01 0.  0.
         14    1    1    2    0    0  0.21041628143E-01  0.99782842916E-02  0.60389401794E-02  0.24057952340E-01  0.00000000000E+00 0. -1.
     999901    1    3    3    0    0  0.56768266166E-01 -0.10736032761E+00 -0.39285776083E-01  0.88920877649E+00  0.88000000000E+00 0.  1.
        -11    1    4    4    0    0 -0.16393380130E-01  0.34914959593E-01  0.69365511722E-02  0.39194057950E-01  0.51100000000E-03 0. -1.
         11    1    4    4    0    0 -0.61416514179E-01  0.62467083725E-01  0.26310284731E-01  0.91469213218E-01  0.51100000000E-03 0.  1.
</event>
<event>
 8    1  0.1150863E+005  0.1043930E+01  0.7957747E-01            NaN
         13   -1    0    0    0    0  0.00000000000E+00  0.00000000000E+00  0.74505805969E-08  0.10566000000E+00  0.10566000000E+00 0. -1.
     999900   -1    0    0    0    0 -0.00000000000E+00 -0.00000000000E+00 -0.74505805969E-08  0.93827000000E+00  0.93827000000E+00 0. -1.
     999902    2    1    2    0    0  0.63931039657E-02  0.22223876020E-01 -0.65271611781E-02  0.10199013447E+01  0.10196182504E+01 0.  0.
     999903    2    3    3    0    0 -0.11963675633E+00  0.43718088766E-01 -0.20879734371E-01  0.13054679039E+00  0.19551890561E-01 0.  0.
         14    1    1    2    0    0 -0.63931039657E-02 -0.22223876020E-01  0.65271611781E-02  0.24028655325E-01  0.00000000000E+00 0. -1.
     999901    1    3    3    0    0  0.12602986029E+00 -0.21494212747E-01  0.14352573193E-01  0.88935455428E+00  0.88000000000E+00 0. -1.
        -11    1    4    4    0    0 -0.30565082353E-01  0.45155250492E-02  0.51103061966E-03  0.30905282704E-01  0.51100000000E-03 0.  1.
         11    1    4    4    0    0 -0.89071673974E-01  0.39202563717E-01 -0.21390764990E-01  0.99641507688E-01  0.51100000000E-03 0. -1.
</event>
<event>
 8    1  0.1150863E+005  0.1043930E+01  0.7957747E-01            NaN
         13   -1    0    0    0    0  0.00000000000E+00  0.00000000000E+00  0.74505805969E-08  0.10566000000E+00  0.10566000000E+00 0.  1.
     999900   -1    0    0    0    0 -0.00000000000E+00 -0.00000000000E+00 -0.74505805969E-08  0.93827000000E+00  0.93827000000E+00 0.  1.
     999902    2    1    2    0    0 -0.15216605486E-01  0.13233830178E-01  0.12532848356E-01  0.10201865455E+01  0.10199102098E+01 0.  0.
     999903    2    3    3    0    0  0.66147897703E-01 -0.71393461506E-01  0.83357556766E-01  0.12956984894E+00  0.19164883688E-01 0.  0.
         14    1    1    2    0    0  0.15216605486E-01 -0.13233830178E-01 -0.12532848356E-01  0.23743454501E-01  0.00000000000E+00 0. -1.
     999901    1    3    3    0    0 -0.81364503189E-01  0.84627291684E-01 -0.70824708410E-01  0.89061669656E+00  0.88000000000E+00 0.  1.
        -11    1    4    4    0    0  0.22521832445E-01 -0.21713168324E-01  0.15838145003E-01  0.35068541080E-01  0.51100000000E-03 0. -1.
         11    1    4    4    0    0  0.43626065258E-01 -0.49680293182E-01  0.67519411763E-01  0.94501307855E-01  0.51100000000E-03 0.  1.
</event>
<event>
 8    1  0.1150863E+005  0.1043930E+01  0.7957747E-01            NaN
         13   -1    0    0    0    0  0.00000000000E+00  0.00000000000E+00  0.74505805969E-08  0.10566000000E+00  0.10566000000E+00 0. -1.
     999900   -1    0    0    0    0 -0.00000000000E+00 -0.00000000000E+00 -0.74505805969E-08  0.93827000000E+00  0.93827000000E+00 0.  1.
     999902    2    1    2    0    0 -0.18312555632E-01 -0.10161527704E-01  0.10971118343E-01  0.10202874160E+01  0.10200134507E+01 0.  0.
     999903    2    3    3    0    0  0.78339567989E-01 -0.25974058532E-01 -0.96315820457E-01  0.12837814017E+00  0.19810854940E-01 0.  0.
         14    1    1    2    0    0  0.18312555632E-01  0.10161527704E-01 -0.10971118343E-01  0.23642583970E-01  0.00000000000E+00 0.  1.
     999901    1    3    3    0    0 -0.96652123621E-01  0.15812530828E-01  0.10728693880E+00  0.89190927586E+00  0.88000000000E+00 0. -1.
        -11    1    4    4    0    0  0.52981478956E-01 -0.21954002438E-01 -0.78088653959E-01  0.96887121608E-01  0.51100000000E-03 0.  1.
         11    1    4    4    0    0  0.25358089033E-01 -0.40200560945E-02 -0.18227166498E-01  0.31491018560E-01  0.51100000000E-03 0. -1.
</event>
<event>
 8    1  0.1150863E+005  0.1043930E+01  0.7957747E-01            NaN
         13   -1    0    0    0    0  0.00000000000E+00  0.00000000000E+00  0.74505805969E-08  0.10566000000E+00  0.10566000000E+00 0.  1.
     999900   -1    0    0    0    0 -0.00000000000E+00 -0.00000000000E+00 -0.74505805969E-08  0.93827000000E+00  0.93827000000E+00 0. -1.
     999902    2    1    2    0    0 -0.11476296105E-01 -0.71551495955E-02  0.21841435061E-01  0.10182405114E+01  0.10179163960E+01 0.  0.
     999903    2    3    3    0    0  0.49132888806E-01 -0.11749126358E+00 -0.16720739828E-02  0.12897091425E+00  0.20309187851E-01 0.  0.
         14    1    1    2    0    0  0.11476296105E-01  0.71551495955E-02 -0.21841435061E-01  0.25689488581E-01  0.00000000000E+00 0. -1.
     999901    1    3    3    0    0 -0.60609184911E-01  0.11033611398E+00  0.23513509044E-01  0.88926959717E+00  0.88000000000E+00 0. -1.
        -11    1    4    4    0    0  0.11310715136E-01 -0.14312725410E-01 -0.53443673532E-02  0.19016039781E-01  0.51100000000E-03 0.  1.
         11    1    4    4    0    0  0.37822173670E-01 -0.10317853817E+00  0.36722933704E-02  0.10995487447E+00  0.51100000000E-03 0. -1.
</event>
<event>
 8    1  0.1258823E+005  0.1043930E+01  0.7957747E-01            NaN
         13   -1    0    0    0    0  0.00000000000E+00  0.00000000000E+00  0.74505805969E-08  0.10566000000E+00  0.10566000000E+00 0.  1.
     999900   -1    0    0    0    0 -0.00000000000E+00 -0.00000000000E+00 -0.74505805969E-08  0.93827000000E+00  0.93827000000E+00 0. -1.
     999902    2    1    2    0    0  0.10239182386E-01  0.15702220931E-01 -0.15125659043E-01  0.10198429462E+01  0.10195584578E+01 0.  0.
     999903    2    3    3    0    0  0.64643219576E-01 -0.11032605117E-01  0.10916815464E+00  0.12904358480E+00  0.20834984516E-01 0.  0.
         14    1    1    2    0    0 -0.10239182386E-01 -0.15702220931E-01  0.15125659043E-01  0.24087053776E-01  0.00000000000E+00 0. -1.
     999901    1    3    3    0    0 -0.54404037190E-01  0.26734826048E-01 -0.12429381368E+00  0.89079936142E+00  0.88000000000E+00 0. -1.
        -11    1    4    4    0    0  0.48323374666E-01 -0.26268031087E-02  0.63648362694E-01  0.79958888363E-01  0.51100000000E-03 0. -1.
         11    1    4    4    0    0  0.16319844910E-01 -0.84058020081E-02  0.45519791942E-01  0.49084696441E-01  0.51100000000E-03 0.  1.
</event>
<event>
 8    1  0.1150863E+005  0.1043930E+01  0.7957747E-01            NaN
         13   -1    0    0    0    0  0.00000000000E+00  0.00000000000E+00  0.74505805969E-08  0.10566000000E+00  0.10566000000E+00 0.  1.
     999900   -1    0    0    0    0 -0.00000000000E+00 -0.00000000000E+00 -0.74505805969E-08  0.93827000000E+00  0.93827000000E+00 0. -1.
     999902    2    1    2    0    0  0.21048984615E-01 -0.31639364612E-02 -0.68235027628E-02  0.10215775854E+01  0.10213330175E+01 0.  0.
     999903    2    3    3    0    0  0.74385692355E-01  0.47704163774E-01 -0.98311765668E-01  0.13376990903E+00  0.20500410382E-01 0.  0.
         14    1    1    2    0    0 -0.21048984615E-01  0.31639364612E-02  0.68235027628E-02  0.22352414572E-01  0.00000000000E+00 0.  1.
     999901    1    3    3    0    0 -0.53336707740E-01 -0.50868100235E-01  0.91488262905E-01  0.88780767639E+00  0.88000000000E+00 0.  1.
        -11    1    4    4    0    0  0.25601380285E-02  0.13340260900E-02 -0.11730592153E-01  0.12091395519E-01  0.51100000000E-03 0. -1.
         11    1    4    4    0    0  0.71825554326E-01  0.46370137683E-01 -0.86581173515E-01  0.12167851352E+00  0.51100000000E-03 0.  1.
</event>
<event>
 8    1  0.1150863E+005  0.1043930E+01  0.7957747E-01            NaN
         13   -1    0    0    0    0  0.00000000000E+00  0.00000000000E+00  0.74505805969E-08  0.10566000000E+00  0.10566000000E+00 0.  1.
     999900   -1    0    0    0    0 -0.00000000000E+00 -0.00000000000E+00 -0.74505805969E-08  0.93827000000E+00  0.93827000000E+00 0.  1.
     999902    2    1    2    0    0  0.14244466960E-01  0.18266489511E-01 -0.53921994553E-02  0.10201467014E+01  0.10198694265E+01 0.  0.
     999903    2    3    3    0    0 -0.91727064097E-01  0.90963576239E-01  0.37894882247E-02  0.13076537979E+00  0.19924804655E-01 0.  0.
         14    1    1    2    0    0 -0.14244466960E-01 -0.18266489511E-01  0.53921994553E-02  0.23783298615E-01  0.00000000000E+00 0.  1.
     999901    1    3    3    0    0  0.10597153106E+00 -0.72697086728E-01 -0.91816876800E-02  0.88938132159E+00  0.88000000000E+00 0. -1.
        -11    1    4    4    0    0 -0.85516147208E-02  0.14033823372E-01 -0.48369543744E-02  0.17138715278E-01  0.51100000000E-03 0.  1.
         11    1    4    4    0    0 -0.83175449377E-01  0.76929752867E-01  0.86264425991E-02  0.11362666451E+00  0.51100000000E-03 0. -1.
</event>
<event>
 8    1  0.1150863E+005  0.1043930E+01  0.7957747E-01            NaN
         13   -1    0    0    0    0  0.00000000000E+00  0.00000000000E+00  0.74505805969E-08  0.10566000000E+00  0.10566000000E+00 0. -1.
     999900   -1    0    0    0    0 -0.00000000000E+00 -0.00000000000E+00 -0.74505805969E-08  0.93827000000E+00  0.93827000000E+00 0.  1.
     999902    2    1    2    0    0  0.29923919314E-02 -0.20930158700E-01 -0.12886292575E-01  0.10191694974E+01  0.10188686775E+01 0.  0.
     999903    2    3    3    0    0  0.17335891445E-01  0.46386165767E-01  0.11544703121E+00  0.12720163614E+00  0.20000742873E-01 0.  0.
         14    1    1    2    0    0 -0.29923919314E-02  0.20930158700E-01  0.12886292575E-01  0.24760502600E-01  0.00000000000E+00 0. -1.
     999901    1    3    3    0    0 -0.14343499513E-01 -0.67316324467E-01 -0.12833332379E+00  0.89196786126E+00  0.88000000000E+00 0.  1.
        -11    1    4    4    0    0  0.30017556234E-02 -0.54187161091E-03  0.16123693037E-01  0.16417635634E-01  0.51100000000E-03 0. -1.
         11    1    4    4    0    0  0.14334135821E-01  0.46928037378E-01  0.99323338175E-01  0.11078400051E+00  0.51100000000E-03 0.  1.
</event>
<event>
 8    1  0.1150863E+005  0.1043930E+01  0.7957747E-01            NaN
         13   -1    0    0    0    0  0.00000000000E+00  0.00000000000E+00  0.74505805969E-08  0.10566000000E+00  0.10566000000E+00 0.  1.
     999900   -1    0    0    0    0 -0.00000000000E+00 -0.00000000000E+00 -0.74505805969E-08  0.93827000000E+00  0.93827000000E+00 0.  1.
     999902    2    1    2    0    0 -0.15500821939E-01 -0.15173887919E-01  0.96946744406E-02  0.10201706004E+01  0.10198938890E+01 0.  0.
     999903    2    3    3    0    0  0.61470648689E-01 -0.11427895498E+00  0.40938949252E-02  0.13125114945E+00  0.19281702535E-01 0.  0.
         14    1    1    2    0    0  0.15500821939E-01  0.15173887919E-01 -0.96946744406E-02  0.23759399569E-01  0.00000000000E+00 0. -1.
     999901    1    3    3    0    0 -0.76971470628E-01  0.99105067065E-01  0.56007795154E-02  0.88891945099E+00  0.88000000000E+00 0.  1.
        -11    1    4    4    0    0  0.45183801942E-01 -0.71098895134E-01 -0.42518913519E-02  0.84350272960E-01  0.51100000000E-03 0. -1.
         11    1    4    4    0    0  0.16286846747E-01 -0.43180059850E-01  0.83457862771E-02  0.46900876486E-01  0.51100000000E-03 0.  1.
</event>
<event>
 8    1  0.1150863E+005  0.1043930E+01  0.7957747E-01            NaN
         13   -1    0    0    0    0  0.00000000000E+00  0.00000000000E+00  0.74505805969E-08  0.10566000000E+00  0.10566000000E+00 0.  1.
     999900   -1    0    0    0    0 -0.00000000000E+00 -0.00000000000E+00 -0.74505805969E-08  0.93827000000E+00  0.93827000000E+00 0. -1.
     999902    2    1    2    0    0  0.11994835080E-02  0.73822440970E-02  0.21598210552E-01  0.10210735132E+01  0.10208176627E+01 0.  0.
     999903    2    3    3    0    0  0.10864981452E+00 -0.49567104262E-01  0.52955741358E-01  0.13215726484E+00  0.19988798988E-01 0.  0.
         14    1    1    2    0    0 -0.11994835080E-02 -0.73822440970E-02 -0.21598210552E-01  0.22856486774E-01  0.00000000000E+00 0. -1.
     999901    1    3    3    0    0 -0.10745033102E+00  0.56949348359E-01 -0.31357530807E-01  0.88891624839E+00  0.88000000000E+00 0. -1.
        -11    1    4    4    0    0  0.34441704469E-01 -0.20328543362E-01  0.27084241282E-01  0.48304222681E-01  0.51100000000E-03 0.  1.
         11    1    4    4    0    0  0.74208110055E-01 -0.29238560901E-01  0.25871500076E-01  0.83853042155E-01  0.51100000000E-03 0. -1.
</event>
<event>
 8    1  0.1150863E+005  0.1043930E+01  0.7957747E-01            NaN
         13   -1    0    0    0    0  0.00000000000E+00  0.00000000000E+00  0.74505805969E-08  0.10566000000E+00  0.10566000000E+00 0. -1.
     999900   -1    0    0    0    0 -0.00000000000E+00 -0.00000000000E+00 -0.74505805969E-08  0.93827000000E+00  0.93827000000E+00 0. -1.
     999902    2    1    2    0    0 -0.12049102723E-01  0.24300412767E-01  0.15185658937E-02  0.10167639002E+01  0.10164009208E+01 0.  0.
     999903    2    3    3    0    0 -0.62097996147E-02 -0.10832976876E+00  0.58774810096E-01  0.12496619890E+00  0.19702085018E-01 0.  0.
         14    1    1    2    0    0  0.12049102723E-01 -0.24300412767E-01 -0.15185658937E-02  0.27166099820E-01  0.00000000000E+00 0. -1.
     999901    1    3    3    0    0 -0.58393031080E-02  0.13263018153E+00 -0.57256244202E-01  0.89179770128E+00  0.88000000000E+00 0. -1.
        -11    1    4    4    0    0  0.55230797516E-02 -0.24908005410E-01  0.18938414899E-01  0.31777945549E-01  0.51100000000E-03 0.  1.
         11    1    4    4    0    0 -0.11732879366E-01 -0.83421763351E-01  0.39836395196E-01  0.93188253348E-01  0.51100000000E-03 0. -1.
</event>
<event>
 8    1  0.1150863E+005  0.1043930E+01  0.7957747E-01            NaN
         13   -1    0    0    0    0  0.00000000000E+00  0.00000000000E+00  0.74505805969E-08  0.10566000000E+00  0.10566000000E+00 0. -1.
     999900   -1    0    0    0    0 -0.00000000000E+00 -0.00000000000E+00 -0.74505805969E-08  0.93827000000E+00  0.93827000000E+00 0. -1.
     999902    2    1    2    0    0 -0.14471554978E-01  0.19858089995E-01  0.46086603772E-02  0.10189298122E+01  0.10186230670E+01 0.  0.
     999903    2    3    3    0    0 -0.76689970331E-01  0.68513581080E-01 -0.79179162505E-01  0.13142832636E+00  0.20702725761E-01 0.  0.
         14    1    1    2    0    0  0.14471554978E-01 -0.19858089995E-01 -0.46086603772E-02  0.25000187843E-01  0.00000000000E+00 0. -1.
     999901    1    3    3    0    0  0.62218415353E-01 -0.48655491085E-01  0.83787822882E-01  0.88750148579E+00  0.88000000000E+00 0.  1.
        -11    1    4    4    0    0 -0.30516468788E-01  0.36177709178E-01 -0.46072553485E-01  0.66053181712E-01  0.51100000000E-03 0. -1.
         11    1    4    4    0    0 -0.46173501543E-01  0.32335871902E-01 -0.33106609020E-01  0.65375144652E-01  0.51100000000E-03 0.  1.
</event>
<event>
 8    1  0.1150863E+005  0.1043930E+01  0.7957747E-01            NaN
         13   -1    0    0    0    0  0.00000000000E+00  0.00000000000E+00  0.74505805969E-08  0.10566000000E+00  0.10566000000E+00 0. -1.
     999900   -1    0    0    0    0 -0.00000000000E+00 -0.00000000000E+00 -0.74505805969E-08  0.93827000000E+00  0.93827000000E+00 0. -1.
     999902    2    1    2    0    0  0.19676891844E-01 -0.53308423418E-02  0.13334010719E-01  0.10195703244E+01  0.10192792810E+01 0.  0.
     999903    2    3    3    0    0  0.27311348680E-01  0.11584836698E+00 -0.44891380025E-01  0.12932716559E+00  0.23313641069E-01 0.  0.
         14    1    1    2    0    0 -0.19676891844E-01  0.53308423418E-02 -0.13334010719E-01  0.24359675585E-01  0.00000000000E+00 0.  1.
     999901    1    3    3    0    0 -0.76344568361E-02 -0.12117920933E+00  0.58225390745E-01  0.89024315882E+00  0.88000000000E+00 0. -1.
        -11    1    4    4    0    0  0.13687295929E-01  0.20945002196E-01 -0.13539091577E-01  0.28453528930E-01  0.51100000000E-03 0. -1.
         11    1    4    4    0    0  0.13624052751E-01  0.94903364788E-01 -0.31352288449E-01  0.10087363666E+00  0.51100000000E-03 0.  1.
</event>
<event>
 8    1  0.1150863E+005  0.1043930E+01  0.7957747E-01            NaN
         13   -1    0    0    0    0  0.00000000000E+00  0.00000000000E+00  0.74505805969E-08  0.10566000000E+00  0.10566000000E+00 0. -1.
     999900   -1    0    0    0    0 -0.00000000000E+00 -0.00000000000E+00 -0.74505805969E-08  0.93827000000E+00  0.93827000000E+00 0.  1.
     999902    2    1    2    0    0 -0.87522124739E-02 -0.17155284275E-01  0.31132733342E-01  0.10073219123E+01  0.10066564870E+01 0.  0.
     999903    2    3    3    0    0 -0.10251843949E+00 -0.47433741624E-01  0.41454055278E-01  0.12176252974E+00  0.18646304447E-01 0.  0.
         14    1    1    2    0    0  0.87522124739E-02  0.17155284275E-01 -0.31132733342E-01  0.36608087728E-01  0.00000000000E+00 0.  1.
     999901    1    3    3    0    0  0.93766227015E-01  0.30278457349E-01 -0.10321321936E-01  0.88555938253E+00  0.88000000000E+00 0. -1.
        -11    1    4    4    0    0 -0.53779792893E-01 -0.24098713005E-01  0.11739065275E-01  0.60092269608E-01  0.51100000000E-03 0.  1.
         11    1    4    4    0    0 -0.48738646596E-01 -0.23335028618E-01  0.29714990003E-01  0.61670260130E-01  0.51100000000E-03 0. -1.
</event>
<event>
 8    1  0.1150863E+005  0.1043930E+01  0.7957747E-01            NaN
         13   -1    0    0    0    0  0.00000000000E+00  0.00000000000E+00  0.74505805969E-08  0.10566000000E+00  0.10566000000E+00 0. -1.
     999900   -1    0    0    0    0 -0.00000000000E+00 -0.00000000000E+00 -0.74505805969E-08  0.93827000000E+00  0.93827000000E+00 0.  1.
     999902    2    1    2    0    0  0.93892304188E-02 -0.21491253505E-01  0.23552886131E-02  0.10203592764E+01  0.10200869933E+01 0.  0.
     999903    2    3    3    0    0 -0.11355527375E+00 -0.17300667637E-01 -0.57116519134E-01  0.12981460712E+00  0.19885224836E-01 0.  0.
         14    1    1    2    0    0 -0.93892304188E-02  0.21491253505E-01 -0.23552886131E-02  0.23570723568E-01  0.00000000000E+00 0. -1.
     999901    1    3    3    0    0  0.12294450417E+00 -0.41905858683E-02  0.59471807747E-01  0.89054466931E+00  0.88000000000E+00 0. -1.
        -11    1    4    4    0    0 -0.42683850926E-01 -0.15156685536E-01 -0.17259638420E-01  0.48474658180E-01  0.51100000000E-03 0.  1.
         11    1    4    4    0    0 -0.70871422828E-01 -0.21439821006E-02 -0.39856880714E-01  0.81339948944E-01  0.51100000000E-03 0. -1.
</event>
<event>
 8    1  0.1150863E+005  0.1043930E+01  0.7957747E-01            NaN
         13   -1    0    0    0    0  0.00000000000E+00  0.00000000000E+00  0.74505805969E-08  0.10566000000E+00  0.10566000000E+00 0.  1.
     999900   -1    0    0    0    0 -0.00000000000E+00 -0.00000000000E+00 -0.74505805969E-08  0.93827000000E+00  0.93827000000E+00 0.  1.
     999902    2    1    2    0    0 -0.19003536613E-01 -0.13656894659E-01  0.45893055632E-02  0.10200824236E+01  0.10198036301E+01 0.  0.
     999903    2    3    3    0    0  0.11641395131E+00 -0.40987979483E-01 -0.29292078573E-01  0.12866061971E+00  0.21524559772E-01 0.  0.
         14    1    1    2    0    0  0.19003536613E-01  0.13656894659E-01 -0.45893055632E-02  0.23847576419E-01  0.00000000000E+00 0.  1.
     999901    1    3    3    0    0 -0.13541748793E+00  0.27331084825E-01  0.33881384136E-01  0.89142180388E+00  0.88000000000E+00 0. -1.
        -11    1    4    4    0    0  0.80243741237E-01 -0.17875525340E-01 -0.22146261378E-01  0.85142882427E-01  0.51100000000E-03 0. -1.
         11    1    4    4    0    0  0.36170210076E-01 -0.23112454143E-01 -0.71458171949E-02  0.43517737278E-01  0.51100000000E-03 0.  1.
</event>
<event>
 8    1  0.1150863E+005  0.1043930E+01  0.7957747E-01            NaN
         13   -1    0    0    0    0  0.00000000000E+00  0.00000000000E+00  0.74505805969E-08  0.10566000000E+00  0.10566000000E+00 0. -1.
     999900   -1    0    0    0    0 -0.00000000000E+00 -0.00000000000E+00 -0.74505805969E-08  0.93827000000E+00  0.93827000000E+00 0. -1.
     999902    2    1    2    0    0  0.92722911309E-02 -0.19614300844E-01  0.14154031008E-01  0.10180256997E+01  0.10176960708E+01 0.  0.
     999903    2    3    3    0    0 -0.70251001576E-01 -0.25159872979E-01  0.10434437942E+00  0.12983146058E+00  0.20005904383E-01 0.  0.
         14    1    1    2    0    0 -0.92722911309E-02  0.19614300844E-01 -0.14154031008E-01  0.25904300303E-01  0.00000000000E+00 0.  1.
     999901    1    3    3    0    0  0.79523292707E-01  0.55455721349E-02 -0.90190348408E-01  0.88819423912E+00  0.88000000000E+00 0. -1.
        -11    1    4    4    0    0 -0.22162154516E-01 -0.17369576959E-01  0.32200607793E-01  0.42778540880E-01  0.51100000000E-03 0. -1.
         11    1    4    4    0    0 -0.48088847060E-01 -0.77902960201E-02  0.72143771622E-01  0.87052919701E-01  0.51100000000E-03 0.  1.
</event>
<event>
 8    1  0.1150863E+005  0.1043930E+01  0.7957747E-01            NaN
         13   -1    0    0    0    0  0.00000000000E+00  0.00000000000E+00  0.74505805969E-08  0.10566000000E+00  0.10566000000E+00 0.  1.
     999900   -1    0    0    0    0 -0.00000000000E+00 -0.00000000000E+00 -0.74505805969E-08  0.93827000000E+00  0.93827000000E+00 0. -1.
     999902    2    1    2    0    0 -0.31531567220E-02  0.67117806892E-02  0.16603218325E-01  0.10257460165E+01  0.10255848249E+01 0.  0.
     999903    2    3    3    0    0 -0.12485994890E+00 -0.15835540749E-01  0.49115870656E-01  0.13648902466E+00  0.19393656522E-01 0.  0.
         14    1    1    2    0    0  0.31531567220E-02 -0.67117806892E-02 -0.16603218325E-01  0.18183983504E-01  0.00000000000E+00 0. -1.
     999901    1    3    3    0    0  0.12170679217E+00  0.22547321438E-01 -0.32512652331E-01  0.88925699183E+00  0.88000000000E+00 0.  1.
        -11    1    4    4    0    0 -0.43977519062E-01 -0.13618502818E-01  0.12717797446E-01  0.47764937922E-01  0.51100000000E-03 0. -1.
         11    1    4    4    0    0 -0.80882429835E-01 -0.22170379302E-02  0.36398073211E-01  0.88724086739E-01  0.51100000000E-03 0.  1.
</event>
<event>
 8    1  0.1150863E+005  0.1043930E+01  0.7957747E-01            NaN
         13   -1    0    0    0    0  0.00000000000E+00  0.00000000000E+00  0.74505805969E-08  0.10566000000E+00  0.10566000000E+00 0.  1.
     999900   -1    0    0    0    0 -0.00000000000E+00 -0.00000000000E+00 -0.74505805969E-08  0.93827000000E+00  0.93827000000E+00 0. -1.
     999902    2    1    2    0    0 -0.17444787901E-01  0.24041351133E-02 -0.12783423155E-01  0.10221695681E+01  0.10219379186E+01 0.  0.
     999903    2    3    3    0    0 -0.11536376808E+00  0.63782590315E-01  0.14796900846E-01  0.13418526881E+00  0.20241548309E-01 0.  0.
         14    1    1    2    0    0  0.17444787901E-01 -0.24041351133E-02  0.12783423155E-01  0.21760431937E-01  0.00000000000E+00 0.  1.
     999901    1    3    3    0    0  0.97918980183E-01 -0.61378455202E-01 -0.27580324000E-01  0.88798429925E+00  0.88000000000E+00 0. -1.
        -11    1    4    4    0    0 -0.99790365622E-01  0.53191440608E-01  0.56036969265E-02  0.11322150399E+00  0.51100000000E-03 0.  1.
         11    1    4    4    0    0 -0.15573402462E-01  0.10591149707E-01  0.91932039191E-02  0.20963764825E-01  0.51100000000E-03 0. -1.
</event>
<event>
 8    1  0.1150863E+005  0.1043930E+01  0.7957747E-01            NaN
         13   -1    0    0    0    0  0.00000000000E+00  0.00000000000E+00  0.74505805969E-08  0.10566000000E+00  0.10566000000E+00 0.  1.
     999900   -1    0    0    0    0 -0.00000000000E+00 -0.00000000000E+00 -0.74505805969E-08  0.93827000000E+00  0.93827000000E+00 0. -1.
     999902    2    1    2    0    0  0.23691124040E-01  0.55780771882E-03 -0.19973436845E-02  0.10201482867E+01  0.10198710491E+01 0.  0.
     999903    2    3    3    0    0  0.61204170554E-01 -0.93470986897E-01  0.66826246136E-01  0.13167469144E+00  0.19740853816E-01 0.  0.
         14    1    1    2    0    0 -0.23691124040E-01 -0.55780771882E-03  0.19973436845E-02  0.23781713343E-01  0.00000000000E+00 0. -1.
     999901    1    3    3    0    0 -0.37513046514E-01  0.94028794616E-01 -0.68823589821E-01  0.88847359521E+00  0.88000000000E+00 0.  1.
        -11    1    4    4    0    0  0.39666248587E-01 -0.49838577451E-01  0.28747890034E-01  0.69885602106E-01  0.51100000000E-03 0.  1.
         11    1    4    4    0    0  0.21537921967E-01 -0.43632409446E-01  0.38078356102E-01  0.61789089337E-01  0.51100000000E-03 0. -1.
</event>
<event>
 8    1  0.1150863E+005  0.1043930E+01  0.7957747E-01            NaN
         13   -1    0    0    0    0  0.00000000000E+00  0.00000000000E+00  0.74505805969E-08  0.10566000000E+00  0.10566000000E+00 0.  1.
     999900   -1    0    0    0    0 -0.00000000000E+00 -0.00000000000E+00 -0.74505805969E-08  0.93827000000E+00  0.93827000000E+00 0.  1.
     999902    2    1    2    0    0  0.11159861094E-01  0.49746959121E-02  0.18449446001E-01  0.10218014628E+01  0.10215618226E+01 0.  0.
     999903    2    3    3    0    0 -0.10023641841E-01  0.12288049050E+00 -0.41480988128E-01  0.13166542036E+00  0.20372093699E-01 0.  0.
         14    1    1    2    0    0 -0.11159861094E-01 -0.49746959121E-02 -0.18449446001E-01  0.22128537159E-01  0.00000000000E+00 0. -1.
     999901    1    3    3    0    0  0.21183502935E-01 -0.11790579458E+00  0.59930434129E-01  0.89013604248E+00  0.88000000000E+00 0.  1.
        -11    1    4    4    0    0  0.32392495170E-02  0.60441669489E-01 -0.26614288571E-01  0.66123139862E-01  0.51100000000E-03 0. -1.
         11    1    4    4    0    0 -0.13262891358E-01  0.62438821007E-01 -0.14866699557E-01  0.65542280496E-01  0.51100000000E-03 0.  1.
</event>
<event>
 8    1  0.1150863E+005  0.1043930E+01  0.7957747E-01            NaN
         13   -1    0    0    0    0  0.00000000000E+00  0.00000000000E+00  0.74505805969E-08  0.10566000000E+00  0.10566000000E+00 0. -1.
     999900   -1    0    0    0    0 -0.00000000000E+00 -0.00000000000E+00 -0.74505805969E-08  0.93827000000E+00  0.93827000000E+00 0. -1.
     999902    2    1    2    0    0  0.15429772376E-01 -0.18024243271E-01 -0.34985638662E-02  0.10199468565E+01  0.10196648464E+01 0.  0.
     999903    2    3    3    0    0 -0.17144056446E-01 -0.39693290557E-01 -0.12215247434E+00  0.13112215369E+00  0.20057821739E-01 0.  0.
         14    1    1    2    0    0 -0.15429772376E-01  0.18024243271E-01  0.34985638662E-02  0.23983143460E-01  0.00000000000E+00 0. -1.
     999901    1    3    3    0    0  0.32573828822E-01  0.21669047286E-01  0.11865391047E+00  0.88882470285E+00  0.88000000000E+00 0.  1.
        -11    1    4    4    0    0 -0.13329879197E-01 -0.21726192065E-01 -0.94819369735E-01  0.98187000662E-01  0.51100000000E-03 0.  1.
         11    1    4    4    0    0 -0.38141772493E-02 -0.17967098492E-01 -0.27333104605E-01  0.32935153023E-01  0.51100000000E-03 0. -1.
</event>
<event>
 8    1  0.1150863E+005  0.1043930E+01  0.7957747E-01            NaN
         13   -1    0    0    0    0  0.00000000000E+00  0.00000000000E+00  0.74505805969E-08  0.10566000000E+00  0.10566000000E+00 0.  1.
     999900   -1    0    0    0    0 -0.00000000000E+00 -0.00000000000E+00 -0.74505805969E-08  0.93827000000E+00  0.93827000000E+00 0.  1.
     999902    2    1    2    0    0 -0.11346419180E-01 -0.10379317988E-02  0.19561369311E-01  0.10212922947E+01  0.10210413731E+01 0.  0.
     999903    2    3    3    0    0 -0.28524617192E-01  0.11383207202E+00 -0.53679598305E-01  0.13064396480E+00  0.20370367178E-01 0.  0.
         14    1    1    2    0    0  0.11346419180E-01  0.10379317988E-02 -0.19561369311E-01  0.22637705271E-01  0.00000000000E+00 0. -1.
     999901    1    3    3    0    0  0.17178198012E-01 -0.11487000382E+00  0.73240967615E-01  0.89064832993E+00  0.88000000000E+00 0. -1.
        -11    1    4    4    0    0 -0.29771271649E-01  0.86226410789E-01 -0.44681072668E-01  0.10157746753E+00  0.51100000000E-03 0. -1.
         11    1    4    4    0    0  0.12466544576E-02  0.27605661230E-01 -0.89985256362E-02  0.29066497276E-01  0.51100000000E-03 0.  1.
</event>
<event>
 8    1  0.1150863E+005  0.1043930E+01  0.7957747E-01            NaN
         13   -1    0    0    0    0  0.00000000000E+00  0.00000000000E+00  0.74505805969E-08  0.10566000000E+00  0.10566000000E+00 0. -1.
     999900   -1    0    0    0    0 -0.00000000000E+00 -0.00000000000E+00 -0.74505805969E-08  0.93827000000E+00  0.93827000000E+00 0.  1.
     999902    2    1    2    0    0 -0.18106230098E-01  0.72934714232E-02 -0.12931980378E-01  0.10205149106E+01  0.10202462528E+01 0.  0.
     999903    2    3    3    0    0 -0.11129536663E+00  0.64813908432E-01 -0.29212563601E-01  0.13357755476E+00  0.20052129672E-01 0.  0.
         14    1    1    2    0    0  0.18106230098E-01 -0.72934714232E-02  0.12931980378E-01  0.23415089371E-01  0.00000000000E+00 0. -1.
     999901    1    3    3    0    0  0.93189136533E-01 -0.57520437009E-01  0.16280583223E-01  0.88693735587E+00  0.88000000000E+00 0. -1.
        -11    1    4    4    0    0 -0.23985675697E-01  0.61644278335E-02 -0.15445241821E-02  0.24818531083E-01  0.51100000000E-03 0.  1.
         11    1    4    4    0    0 -0.87309690934E-01  0.58649480599E-01 -0.27668039419E-01  0.10875902368E+00  0.51100000000E-03 0. -1.
</event>
<event>
 8    1  0.1150863E+005  0.1043930E+01  0.7957747E-01            NaN
         13   -1    0    0    0    0  0.00000000000E+00  0.00000000000E+00  0.74505805969E-08  0.10566000000E+00  0.10566000000E+00 0.  1.
     999900   -1    0    0    0    0 -0.00000000000E+00 -0.00000000000E+00 -0.74505805969E-08  0.93827000000E+00  0.93827000000E+00 0. -1.
     999902    2    1    2    0    0 -0.23236218508E-01 -0.28725796157E-02 -0.49945886845E-02  0.10199900860E+01  0.10197091037E+01 0.  0.
     999903    2    3    3    0    0 -0.55245454311E-01  0.52743397830E-01 -0.10556950566E+00  0.13193995117E+00  0.20719651356E-01 0.  0.
         14    1    1    2    0    0  0.23236218508E-01  0.28725796157E-02  0.49945886845E-02  0.23939913958E-01  0.00000000000E+00 0.  1.
     999901    1    3    3    0    0  0.32009235802E-01 -0.55615977445E-01  0.10057491698E+00  0.88805013487E+00  0.88000000000E+00 0. -1.
        -11    1    4    4    0    0 -0.23741709909E-01  0.10838562522E-01 -0.43059848554E-01  0.50354293814E-01  0.51100000000E-03 0. -1.
         11    1    4    4    0    0 -0.31503744401E-01  0.41904835308E-01 -0.62509657106E-01  0.81585657355E-01  0.51100000000E-03 0.  1.
</event>
<event>
 8    1  0.1150863E+005  0.1043930E+01  0.7957747E-01            NaN
         13   -1    0    0    0    0  0.00000000000E+00  0.00000000000E+00  0.74505805969E-08  0.10566000000E+00  0.10566000000E+00 0. -1.
     999900   -1    0    0    0    0 -0.00000000000E+00 -0.00000000000E+00 -0.74505805969E-08  0.93827000000E+00  0.93827000000E+00 0. -1.
     999902    2    1    2    0    0  0.18835424861E-01  0.13886282433E-01  0.38271000699E-03  0.10205259718E+01  0.10202575707E+01 0.  0.
     999903    2    3    3    0    0 -0.75717438190E-01  0.60920509498E-01 -0.84323182589E-01  0.13017348504E+00  0.19755965203E-01 0.  0.
         14    1    1    2    0    0 -0.18835424861E-01 -0.13886282433E-01 -0.38271000699E-03  0.23404028210E-01  0.00000000000E+00 0. -1.
     999901    1    3    3    0    0  0.94552863052E-01 -0.47034227065E-01  0.84705892596E-01  0.89035248675E+00  0.88000000000E+00 0.  1.
        -11    1    4    4    0    0 -0.21222895405E-01  0.87472419641E-02 -0.13175869705E-01  0.26472442177E-01  0.51100000000E-03 0. -1.
         11    1    4    4    0    0 -0.54494542786E-01  0.52173267534E-01 -0.71147312884E-01  0.10370104286E+00  0.51100000000E-03 0.  1.
</event>
<event>
 8    1  0.1150863E+005  0.1043930E+01  0.7957747E-01            NaN
         13   -1    0    0    0    0  0.00000000000E+00  0.00000000000E+00  0.74505805969E-08  0.10566000000E+00  0.10566000000E+00 0.  1.
     999900   -1    0    0    0    0 -0.00000000000E+00 -0.00000000000E+00 -0.74505805969E-08  0.93827000000E+00  0.93827000000E+00 0. -1.
     999902    2    1    2    0    0  0.81746447346E-02  0.19789112979E-01 -0.89309565992E-02  0.10207309527E+01  0.10204672861E+01 0.  0.
     999903    2    3    3    0    0  0.11127810471E+00  0.70403059120E-01  0.18611330479E-02  0.13320148042E+00  0.19994080324E-01 0.  0.
         14    1    1    2    0    0 -0.81746447346E-02 -0.19789112979E-01  0.89309565992E-02  0.23199047282E-01  0.00000000000E+00 0.  1.
     999901    1    3    3    0    0 -0.10310345997E+00 -0.50613946142E-01 -0.10792089647E-01  0.88752947230E+00  0.88000000000E+00 0. -1.
        -11    1    4    4    0    0  0.51725143515E-01  0.28656101830E-01 -0.84815992827E-02  0.59739947197E-01  0.51100000000E-03 0. -1.
         11    1    4    4    0    0  0.59552961194E-01  0.41746957290E-01  0.10342732331E-01  0.73461533220E-01  0.51100000000E-03 0.  1.
</event>
<event>
 8    1  0.1150863E+005  0.1043930E+01  0.7957747E-01            NaN
         13   -1    0    0    0    0  0.00000000000E+00  0.00000000000E+00  0.74505805969E-08  0.10566000000E+00  0.10566000000E+00 0.  1.
     999900   -1    0    0    0    0 -0.00000000000E+00 -0.00000000000E+00 -0.74505805969E-08  0.93827000000E+00  0.93827000000E+00 0.  1.
     999902    2    1    2    0    0 -0.34155094162E-02 -0.30435794028E-01 -0.32384483795E-02  0.10131324220E+01  0.10126642157E+01 0.  0.
     999903    2    3    3    0    0  0.49065961543E-01  0.46199415496E-01  0.10034463035E+00  0.12220216977E+00  0.17957474284E-01 0.  0.
         14    1    1    2    0    0  0.34155094162E-02  0.30435794028E-01  0.32384483795E-02  0.30797577999E-01  0.00000000000E+00 0. -1.
     999901    1    3    3    0    0 -0.52481470959E-01 -0.76635209524E-01 -0.10358307873E+00  0.89093025223E+00  0.88000000000E+00 0.  1.
        -11    1    4    4    0    0  0.30437190903E-02  0.11477600969E-01  0.20886491793E-01  0.24031358895E-01  0.51100000000E-03 0.  1.
         11    1    4    4    0    0  0.46022242453E-01  0.34721814526E-01  0.79458138560E-01  0.98170810880E-01  0.51100000000E-03 0. -1.
</event>
<event>
 8    1  0.1150863E+005  0.1043930E+01  0.7957747E-01            NaN
         13   -1    0    0    0    0  0.00000000000E+00  0.00000000000E+00  0.74505805969E-08  0.10566000000E+00  0.10566000000E+00 0.  1.
     999900   -1    0    0    0    0 -0.00000000000E+00 -0.00000000000E+00 -0.74505805969E-08  0.93827000000E+00  0.93827000000E+00 0.  1.
     999902    2    1    2    0    0  0.86451333534E-02  0.21203881200E-01 -0.45961223507E-02  0.10205747597E+01  0.10203074894E+01 0.  0.
     999903    2    3    3    0    0  0.75370973744E-01 -0.49428272549E-01  0.91710853968E-01  0.13000400305E+00  0.19136934525E-01 0.  0.
         14    1    1    2    0    0 -0.86451333534E-02 -0.21203881200E-01  0.45961223507E-02  0.23355240297E-01  0.00000000000E+00 0. -1.
     999901    1    3    3    0    0 -0.66725840391E-01  0.70632153749E-01 -0.96306976319E-01  0.89057075665E+00  0.88000000000E+00 0.  1.
        -11    1    4    4    0    0  0.39914606715E-02 -0.56587761754E-02  0.14632962961E-01  0.16196858712E-01  0.51100000000E-03 0.  1.
         11    1    4    4    0    0  0.71379513073E-01 -0.43769496373E-01  0.77077891007E-01  0.11380714434E+00  0.51100000000E-03 0. -1.
</event>
<event>
 8    1  0.1150863E+005  0.1043930E+01  0.7957747E-01            NaN
         13   -1    0    0    0    0  0.00000000000E+00  0.00000000000E+00  0.74505805969E-08  0.10566000000E+00  0.10566000000E+00 0.  1.
     999900   -1    0    0    0    0 -0.00000000000E+00 -0.00000000000E+00 -0.74505805969E-08  0.93827000000E+00  0.93827000000E+00 0.  1.
     999902    2    1    2    0    0  0.97316848299E-02 -0.10488608071E-01 -0.18586655979E-01  0.10204740760E+01  0.10202044694E+01 0.  0.
     999903    2    3    3    0    0  0.12047022356E-01 -0.19713090583E-01 -0.13002211023E+00  0.13339554944E+00  0.18838438743E-01 0.  0.
         14    1    1    2    0    0 -0.97316848299E-02  0.10488608071E-01  0.18586655979E-01  0.23455923972E-01  0.00000000000E+00 0.  1.
     999901    1    3    3    0    0 -0.23153375257E-02  0.92244825119E-02  0.11143545425E+00  0.88707852659E+00  0.88000000000E+00 0. -1.
        -11    1    4    4    0    0  0.47477912858E-02 -0.26568293606E-02 -0.77468969961E-01  0.77661462078E-01  0.51100000000E-03 0. -1.
         11    1    4    4    0    0  0.72992310698E-02 -0.17056261223E-01 -0.52553140270E-01  0.55734087364E-01  0.51100000000E-03 0.  1.
</event>
<event>
 8    1  0.1150863E+005  0.1043930E+01  0.7957747E-01            NaN
         13   -1    0    0    0    0  0.00000000000E+00  0.00000000000E+00  0.74505805969E-08  0.10566000000E+00  0.10566000000E+00 0. -1.
     999900   -1    0    0    0    0 -0.00000000000E+00 -0.00000000000E+00 -0.74505805969E-08  0.93827000000E+00  0.93827000000E+00 0.  1.
     999902    2    1    2    0    0 -0.22813318896E-01  0.74879894486E-02  0.42181314736E-02  0.10195515231E+01  0.10192600247E+01 0.  0.
     999903    2    3    3    0    0  0.81490796649E-02  0.67028843662E-01 -0.10896998413E+00  0.12976765438E+00  0.20147290093E-01 0.  0.
         14    1    1    2    0    0  0.22813318896E-01 -0.74879894486E-02 -0.42181314736E-02  0.24378476945E-01  0.00000000000E+00 0. -1.
     999901    1    3    3    0    0 -0.30962398561E-01 -0.59540854213E-01  0.11318811561E+00  0.88978386868E+00  0.88000000000E+00 0. -1.
        -11    1    4    4    0    0  0.12690785180E-01  0.52335269351E-01 -0.73633524085E-01  0.91226056786E-01  0.51100000000E-03 0. -1.
         11    1    4    4    0    0 -0.45417055150E-02  0.14693574311E-01 -0.35336460049E-01  0.38541597591E-01  0.51100000000E-03 0.  1.
</event>
<event>
 8    1  0.1150863E+005  0.1043930E+01  0.7957747E-01            NaN
         13   -1    0    0    0    0  0.00000000000E+00  0.00000000000E+00  0.74505805969E-08  0.10566000000E+00  0.10566000000E+00 0.  1.
     999900   -1    0    0    0    0 -0.00000000000E+00 -0.00000000000E+00 -0.74505805969E-08  0.93827000000E+00  0.93827000000E+00 0.  1.
     999902    2    1    2    0    0 -0.17192481405E-01  0.15718021157E-03 -0.15883778046E-01  0.10205227249E+01  0.10202542485E+01 0.  0.
     999903    2    3    3    0    0 -0.88669951560E-01 -0.24028157704E-01  0.91118399971E-01  0.13083546220E+00  0.19381503660E-01 0.  0.
         14    1    1    2    0    0  0.17192481405E-01 -0.15718021157E-03  0.15883778046E-01  0.23407275098E-01  0.00000000000E+00 0.  1.
     999901    1    3    3    0    0  0.71477470154E-01  0.24185337916E-01 -0.10700217802E+00  0.88968726270E+00  0.88000000000E+00 0.  1.
        -11    1    4    4    0    0 -0.43383775081E-01 -0.15424859590E-01  0.58084641378E-01  0.74122634321E-01  0.51100000000E-03 0. -1.
         11    1    4    4    0    0 -0.45286176479E-01 -0.86032981139E-02  0.33033758592E-01  0.56712827881E-01  0.51100000000E-03 0.  1.
</event>
<event>
 8    1  0.1150863E+005  0.1043930E+01  0.7957747E-01            NaN
         13   -1    0    0    0    0  0.00000000000E+00  0.00000000000E+00  0.74505805969E-08  0.10566000000E+00  0.10566000000E+00 0.  1.
     999900   -1    0    0    0    0 -0.00000000000E+00 -0.00000000000E+00 -0.74505805969E-08  0.93827000000E+00  0.93827000000E+00 0. -1.
     999902    2    1    2    0    0 -0.39527689534E-03 -0.21186650511E-01 -0.10266885685E-01  0.10203834643E+01  0.10201117462E+01 0.  0.
     999903    2    3    3    0    0  0.36047594481E-01 -0.97381132283E-01  0.78839043527E-01  0.13186022396E+00  0.19723333561E-01 0.  0.
         14    1    1    2    0    0  0.39527689534E-03  0.21186650511E-01  0.10266885685E-01  0.23546535740E-01  0.00000000000E+00 0.  1.
     999901    1    3    3    0    0 -0.36442871376E-01  0.76194481773E-01 -0.89105929212E-01  0.88852324030E+00  0.88000000000E+00 0. -1.
        -11    1    4    4    0    0  0.86211479991E-02 -0.49939356082E-01  0.33701327913E-01  0.60862994527E-01  0.51100000000E-03 0.  1.
         11    1    4    4    0    0  0.27426446482E-01 -0.47441776201E-01  0.45137715614E-01  0.70997229436E-01  0.51100000000E-03 0. -1.
</event>
<event>
 8    1  0.1150863E+005  0.1043930E+01  0.7957747E-01            NaN
         13   -1    0    0    0    0  0.00000000000E+00  0.00000000000E+00  0.74505805969E-08  0.10566000000E+00  0.10566000000E+00 0.  1.
     999900   -1    0    0    0    0 -0.00000000000E+00 -0.00000000000E+00 -0.74505805969E-08  0.93827000000E+00  0.93827000000E+00 0. -1.
     999902    2    1    2    0    0 -0.19182751594E-01 -0.12701380666E-01  0.71250779612E-02  0.10198453625E+01  0.10195609318E+01 0.  0.
     999903    2    3    3    0    0 -0.33337698536E-01 -0.12134386713E+00  0.36543082690E-01  0.13256357442E+00  0.20049143025E-01 0.  0.
         14    1    1    2    0    0  0.19182751594E-01  0.12701380666E-01 -0.71250779612E-02  0.24084637541E-01  0.00000000000E+00 0. -1.
     999901    1    3    3    0    0  0.14154946942E-01  0.10864248646E+00 -0.29418004728E-01  0.88728178804E+00  0.88000000000E+00 0. -1.
        -11    1    4    4    0    0 -0.26442281353E-01 -0.10999823549E+00  0.37644221351E-01  0.11923151671E+00  0.51100000000E-03 0. -1.
         11    1    4    4    0    0 -0.68954171829E-02 -0.11345631637E-01 -0.11011386614E-02  0.13332057708E-01  0.51100000000E-03 0.  1.
</event>
<event>
 8    1  0.1150863E+005  0.1043930E+01  0.7957747E-01            NaN
         13   -1    0    0    0    0  0.00000000000E+00  0.00000000000E+00  0.74505805969E-08  0.10566000000E+00  0.10566000000E+00 0.  1.
     999900   -1    0    0    0    0 -0.00000000000E+00 -0.00000000000E+00 -0.74505805969E-08  0.93827000000E+00  0.93827000000E+00 0. -1.
     999902    2    1    2    0    0  0.10892975015E-01  0.11143921637E-01 -0.18226980400E-01  0.10199494515E+01  0.10196675031E+01 0.  0.
     999903    2    3    3    0    0 -0.21283909815E-01  0.18792302232E-01 -0.12786978980E+00  0.13252880976E+00  0.20175401660E-01 0.  0.
         14    1    1    2    0    0 -0.10892975015E-01 -0.11143921637E-01  0.18226980400E-01  0.23980548548E-01  0.00000000000E+00 0.  1.
     999901    1    3    3    0    0  0.32176884830E-01 -0.76483805954E-02  0.10964280940E+00  0.88742064169E+00  0.88000000000E+00 0.  1.
        -11    1    4    4    0    0 -0.35388308085E-02 -0.11474457571E-02 -0.51319189499E-01  0.51456392092E-01  0.51100000000E-03 0.  1.
         11    1    4    4    0    0 -0.17745079007E-01  0.19939747989E-01 -0.76550600305E-01  0.81072417671E-01  0.51100000000E-03 0. -1.
</event>
<event>
 8    1  0.1150863E+005  0.1043930E+01  0.7957747E-01            NaN
         13   -1    0    0    0    0  0.00000000000E+00  0.00000000000E+00  0.74505805969E-08  0.10566000000E+00  0.10566000000E+00 0.  1.
     999900   -1    0    0    0    0 -0.00000000000E+00 -0.00000000000E+00 -0.74505805969E-08  0.93827000000E+00  0.93827000000E+00 0.  1.
     999902    2    1    2    0    0 -0.13194103254E-01  0.31340410495E-02  0.19433291232E-01  0.10202327558E+01  0.10199575073E+01 0.  0.
     999903    2    3    3    0    0 -0.42701675104E-01 -0.88869344106E-01  0.86193368244E-01  0.13243084798E+00  0.19683480070E-01 0.  0.
         14    1    1    2    0    0  0.13194103254E-01 -0.31340410495E-02 -0.19433291232E-01  0.23697244187E-01  0.00000000000E+00 0. -1.
     999901    1    3    3    0    0  0.29507571851E-01  0.92003385156E-01 -0.66760077013E-01  0.88780190784E+00  0.88000000000E+00 0.  1.
        -11    1    4    4    0    0 -0.77240350433E-02 -0.68017610621E-02  0.15462875702E-01  0.18581881414E-01  0.51100000000E-03 0. -1.
         11    1    4    4    0    0 -0.34977640061E-01 -0.82067583044E-01  0.70730492542E-01  0.11384896656E+00  0.51100000000E-03 0.  1.
</event>
<event>
 8    1  0.1150863E+005  0.1043930E+01  0.7957747E-01            NaN
         13   -1    0    0    0    0  0.00000000000E+00  0.00000000000E+00  0.74505805969E-08  0.10566000000E+00  0.10566000000E+00 0.  1.
     999900   -1    0    0    0    0 -0.00000000000E+00 -0.00000000000E+00 -0.74505805969E-08  0.93827000000E+00  0.93827000000E+00 0. -1.
     999902    2    1    2    0    0  0.10702667648E-01  0.11651398196E-01 -0.18345175043E-01  0.10197050620E+01  0.10194172678E+01 0.  0.
     999903    2    3    3    0    0  0.45356629832E-01  0.13680047742E-01 -0.12274311046E+00  0.13285448751E+00  0.18441152616E-01 0.  0.
         14    1    1    2    0    0 -0.10702667648E-01 -0.11651398196E-01  0.18345175043E-01  0.24224938020E-01  0.00000000000E+00 0.  1.
     999901    1    3    3    0    0 -0.34653962184E-01 -0.20286495452E-02  0.10439793542E+00  0.88685057447E+00  0.88000000000E+00 0.  1.
        -11    1    4    4    0    0  0.50428320418E-02  0.32127758070E-02 -0.45342329982E-02  0.75214674944E-02  0.51100000000E-03 0. -1.
         11    1    4    4    0    0  0.40313797790E-01  0.10467271935E-01 -0.11820887747E+00  0.12533302002E+00  0.51100000000E-03 0.  1.
</event>
<event>
 8    1  0.1150863E+005  0.1043930E+01  0.7957747E-01            NaN
         13   -1    0    0    0    0  0.00000000000E+00  0.00000000000E+00  0.74505805969E-08  0.10566000000E+00  0.10566000000E+00 0. -1.
     999900   -1    0    0    0    0 -0.00000000000E+00 -0.00000000000E+00 -0.74505805969E-08  0.93827000000E+00  0.93827000000E+00 0.  1.
     999902    2    1    2    0    0  0.34868011151E-02 -0.21249424000E-01 -0.11659700061E-01  0.10194423621E+01  0.10191482156E+01 0.  0.
     999903    2    3    3    0    0 -0.88083124864E-01 -0.16743192842E-01  0.91887115373E-01  0.12864086885E+00  0.81400107271E-02 0.  0.
         14    1    1    2    0    0 -0.34868011151E-02  0.21249424000E-01  0.11659700061E-01  0.24487637859E-01  0.00000000000E+00 0.  1.
     999901    1    3    3    0    0  0.91569925979E-01 -0.45062311580E-02 -0.10354681543E+00  0.89080149329E+00  0.88000000000E+00 0.  1.
        -11    1    4    4    0    0 -0.36988302743E-01 -0.94988467213E-02  0.43645532698E-01  0.57996174653E-01  0.51100000000E-03 0.  1.
         11    1    4    4    0    0 -0.51094822121E-01 -0.72443461212E-02  0.48241582675E-01  0.70644694198E-01  0.51100000000E-03 0. -1.
</event>
<event>
 8    1  0.1150863E+005  0.1043930E+01  0.7957747E-01            NaN
         13   -1    0    0    0    0  0.00000000000E+00  0.00000000000E+00  0.74505805969E-08  0.10566000000E+00  0.10566000000E+00 0. -1.
     999900   -1    0    0    0    0 -0.00000000000E+00 -0.00000000000E+00 -0.74505805969E-08  0.93827000000E+00  0.93827000000E+00 0. -1.
     999902    2    1    2    0    0  0.17328197203E-01  0.62243739619E-02 -0.15737617518E-01  0.10197084836E+01  0.10194207717E+01 0.  0.
     999903    2    3    3    0    0 -0.10044036155E+00 -0.68439305920E-01 -0.36333992742E-01  0.12849116492E+00  0.20435645583E-01 0.  0.
         14    1    1    2    0    0 -0.17328197203E-01 -0.62243739619E-02  0.15737617518E-01  0.24221516358E-01  0.00000000000E+00 0. -1.
     999901    1    3    3    0    0  0.11776855875E+00  0.74663679881E-01  0.20596375224E-01  0.89121731873E+00  0.88000000000E+00 0. -1.
        -11    1    4    4    0    0 -0.61501527234E-01 -0.30243031026E-01 -0.23499729306E-01  0.72453965911E-01  0.51100000000E-03 0.  1.
         11    1    4    4    0    0 -0.38938834314E-01 -0.38196274893E-01 -0.12834263436E-01  0.56037199005E-01  0.51100000000E-03 0. -1.
</event>
<event>
 8    1  0.1150863E+005  0.1043930E+01  0.7957747E-01            NaN
         13   -1    0    0    0    0  0.00000000000E+00  0.00000000000E+00  0.74505805969E-08  0.10566000000E+00  0.10566000000E+00 0. -1.
     999900   -1    0    0    0    0 -0.00000000000E+00 -0.00000000000E+00 -0.74505805969E-08  0.93827000000E+00  0.93827000000E+00 0.  1.
     999902    2    1    2    0    0  0.15122122147E-01 -0.12909895747E-01  0.52422725166E-02  0.10233672811E+01  0.10231606749E+01 0.  0.
     999903    2    3    3    0    0  0.10756975126E+00  0.76357195436E-01  0.12337400952E-01  0.13400485863E+00  0.20085268049E-01 0.  0.
         14    1    1    2    0    0 -0.15122122147E-01  0.12909895747E-01 -0.52422725166E-02  0.20562718876E-01  0.00000000000E+00 0. -1.
     999901    1    3    3    0    0 -0.92447629116E-01 -0.89267091183E-01 -0.70951284349E-02  0.88936242249E+00  0.88000000000E+00 0.  1.
        -11    1    4    4    0    0  0.10459479966E-01  0.88389457003E-02  0.75171170134E-02  0.15629966457E-01  0.51100000000E-03 0.  1.
         11    1    4    4    0    0  0.97110271297E-01  0.67518249736E-01  0.48202839381E-02  0.11837489217E+00  0.51100000000E-03 0. -1.
</event>
<event>
 8    1  0.1150863E+005  0.1043930E+01  0.7957747E-01            NaN
         13   -1    0    0    0    0  0.00000000000E+00  0.00000000000E+00  0.74505805969E-08  0.10566000000E+00  0.10566000000E+00 0.  1.
     999900   -1    0    0    0    0 -0.00000000000E+00 -0.00000000000E+00 -0.74505805969E-08  0.93827000000E+00  0.93827000000E+00 0. -1.
     999902    2    1    2    0    0  0.15095108113E-01  0.32133650814E-02 -0.70044017963E-02  0.10269815591E+01  0.10268416982E+01 0.  0.
     999903    2    3    3    0    0  0.80752732724E-01 -0.10923461477E+00 -0.46071878082E-02  0.13739670173E+00  0.20085381772E-01 0.  0.
         14    1    1    2    0    0 -0.15095108113E-01 -0.32133650814E-02  0.70044017963E-02  0.16948440890E-01  0.00000000000E+00 0.  1.
     999901    1    3    3    0    0 -0.65657624611E-01  0.11244797985E+00 -0.23972139881E-02  0.88958485738E+00  0.88000000000E+00 0.  1.
        -11    1    4    4    0    0  0.68734668829E-01 -0.99694617051E-01  0.86761736064E-03  0.12109700760E+00  0.51100000000E-03 0.  1.
         11    1    4    4    0    0  0.12018063895E-01 -0.95399977188E-02 -0.54748051689E-02  0.16299694135E-01  0.51100000000E-03 0. -1.
</event>
<event>
 8    1  0.1150863E+005  0.1043930E+01  0.7957747E-01            NaN
         13   -1    0    0    0    0  0.00000000000E+00  0.00000000000E+00  0.74505805969E-08  0.10566000000E+00  0.10566000000E+00 0.  1.
     999900   -1    0    0    0    0 -0.00000000000E+00 -0.00000000000E+00 -0.74505805969E-08  0.93827000000E+00  0.93827000000E+00 0.  1.
     999902    2    1    2    0    0  0.12138988611E-01  0.80203959443E-02  0.18788927874E-01  0.10201664648E+01  0.10198896559E+01 0.  0.
     999903    2    3    3    0    0 -0.12145239848E+00 -0.19799534769E-01  0.35441138203E-01  0.12949373961E+00  0.19231423415E-01 0.  0.
         14    1    1    2    0    0 -0.12138988611E-01 -0.80203959443E-02 -0.18788927874E-01  0.23763535222E-01  0.00000000000E+00 0. -1.
     999901    1    3    3    0    0  0.13359138709E+00  0.27819930713E-01 -0.16652210329E-01  0.89067272517E+00  0.88000000000E+00 0.  1.
        -11    1    4    4    0    0 -0.57333220631E-01 -0.51909556554E-02  0.25568699510E-01  0.62992568801E-01  0.51100000000E-03 0. -1.
         11    1    4    4    0    0 -0.64119177852E-01 -0.14608579113E-01  0.98724386930E-02  0.66501170808E-01  0.51100000000E-03 0.  1.
</event>
<event>
 8    1  0.1150863E+005  0.1043930E+01  0.7957747E-01            NaN
         13   -1    0    0    0    0  0.00000000000E+00  0.00000000000E+00  0.74505805969E-08  0.10566000000E+00  0.10566000000E+00 0. -1.
     999900   -1    0    0    0    0 -0.00000000000E+00 -0.00000000000E+00 -0.74505805969E-08  0.93827000000E+00  0.93827000000E+00 0.  1.
     999902    2    1    2    0    0 -0.20012782504E-01 -0.11730735160E-01 -0.40954984701E-02  0.10203737966E+01  0.10201018528E+01 0.  0.
     999903    2    3    3    0    0 -0.86720395917E-02  0.11618330837E+00 -0.54156071001E-01  0.12964562487E+00  0.17359222582E-01 0.  0.
         14    1    1    2    0    0  0.20012782504E-01  0.11730735160E-01  0.40954984701E-02  0.23556203401E-01  0.00000000000E+00 0.  1.
     999901    1    3    3    0    0 -0.11340742912E-01 -0.12791404353E+00  0.50060572531E-01  0.89072817172E+00  0.88000000000E+00 0. -1.
        -11    1    4    4    0    0 -0.69990323667E-02  0.16676339805E-01 -0.58165751171E-02  0.19004747577E-01  0.51100000000E-03 0.  1.
         11    1    4    4    0    0 -0.16730072251E-02  0.99506968563E-01 -0.48339495884E-01  0.11064087730E+00  0.51100000000E-03 0. -1.
</event>
<event>
 8    1  0.1150863E+005  0.1043930E+01  0.7957747E-01            NaN
         13   -1    0    0    0    0  0.00000000000E+00  0.00000000000E+00  0.74505805969E-08  0.10566000000E+00  0.10566000000E+00 0.  1.
     999900   -1    0    0    0    0 -0.00000000000E+00 -0.00000000000E+00 -0.74505805969E-08  0.93827000000E+00  0.93827000000E+00 0.  1.
     999902    2    1    2    0    0 -0.53124112722E-02 -0.21640108968E-01  0.68404978849E-02  0.10206210223E+01  0.10203548220E+01 0.  0.
     999903    2    3    3    0    0 -0.12663343125E+00  0.12409555847E-01  0.25545240582E-01  0.13144835237E+00  0.20882697132E-01 0.  0.
         14    1    1    2    0    0  0.53124112722E-02  0.21640108968E-01 -0.68404978849E-02  0.23308977691E-01  0.00000000000E+00 0. -1.
     999901    1    3    3    0    0  0.12132101997E+00 -0.34049664815E-01 -0.18704742698E-01  0.88917266994E+00  0.88000000000E+00 0. -1.
        -11    1    4    4    0    0 -0.69098350148E-01  0.16397273756E-02  0.45825831142E-02  0.69271436307E-01  0.51100000000E-03 0.  1.
         11    1    4    4    0    0 -0.57535081099E-01  0.10769828472E-01  0.20962657468E-01  0.62176916066E-01  0.51100000000E-03 0. -1.
</event>
<event>
 8    1  0.1193225E+005  0.1043930E+01  0.7957747E-01            NaN
         13   -1    0    0    0    0  0.00000000000E+00  0.00000000000E+00  0.74505805969E-08  0.10566000000E+00  0.10566000000E+00 0.  1.
     999900   -1    0    0    0    0 -0.00000000000E+00 -0.00000000000E+00 -0.74505805969E-08  0.93827000000E+00  0.93827000000E+00 0. -1.
     999902    2    1    2    0    0  0.59732212792E-02  0.23225686793E-01  0.18351022329E-02  0.10198783992E+01  0.10195947576E+01 0.  0.
     999903    2    3    3    0    0 -0.15282188482E-01 -0.23323423615E-01  0.12536127713E+00  0.12977878233E+00  0.18696394434E-01 0.  0.
         14    1    1    2    0    0 -0.59732212792E-02 -0.23225686793E-01 -0.18351022329E-02  0.24051600771E-01  0.00000000000E+00 0. -1.
     999901    1    3    3    0    0  0.21255409761E-01  0.46549110408E-01 -0.12352617490E+00  0.89009961690E+00  0.88000000000E+00 0. -1.
        -11    1    4    4    0    0 -0.11143991258E-01 -0.20007039665E-02  0.54305043670E-01  0.55475131785E-01  0.51100000000E-03 0. -1.
         11    1    4    4    0    0 -0.41381972239E-02 -0.21322719649E-01  0.71056233460E-01  0.74303650542E-01  0.51100000000E-03 0.  1.
</event>
<event>
 7    1  0.1150863E+005  0.1043930E+01  0.7957747E-01            NaN
         13   -1    0    0    0    0  0.00000000000E+00  0.00000000000E+00  0.74505805969E-08  0.10566000000E+00  0.10566000000E+00 0. -1.
     999900   -1    0    0    0    0 -0.00000000000E+00 -0.00000000000E+00 -0.74505805969E-08  0.93827000000E+00  0.93827000000E+00 0. -1.
     999903    2    1    2    0    0  0.11447427858E-02  0.11526439822E-01  0.10400550622E+00  0.10711333118E+00  0.22846250063E-01 0.  0.
         14    1    1    2    0    0 -0.45005185610E-01  0.16996358683E-01 -0.16814236458E-01  0.50961372508E-01  0.00000000000E+00 0. -1.
     999901    1    1    2    0    0  0.43860442824E-01 -0.28522798505E-01 -0.87191269760E-01  0.88585529631E+00  0.88000000000E+00 0. -1.
        -11    1    3    3    0    0  0.11939554910E-01  0.47590881413E-02  0.52620278391E-01  0.54169702882E-01  0.51100000000E-03 0.  1.
         11    1    3    3    0    0 -0.10794812125E-01  0.67673516809E-02  0.51385227828E-01  0.52943628299E-01  0.51100000000E-03 0. -1.
</event>
<event>
 8    1  0.1150863E+005  0.1043930E+01  0.7957747E-01            NaN
         13   -1    0    0    0    0  0.00000000000E+00  0.00000000000E+00  0.74505805969E-08  0.10566000000E+00  0.10566000000E+00 0.  1.
     999900   -1    0    0    0    0 -0.00000000000E+00 -0.00000000000E+00 -0.74505805969E-08  0.93827000000E+00  0.93827000000E+00 0. -1.
     999902    2    1    2    0    0 -0.14914625124E-03  0.22060760916E-01 -0.27751659905E-02  0.10216948710E+01  0.10214528909E+01 0.  0.
     999903    2    3    3    0    0  0.53205432247E-01  0.61341362156E-01  0.10320252937E+00  0.13286364481E+00  0.20209040358E-01 0.  0.
         14    1    1    2    0    0  0.14914625124E-03 -0.22060760916E-01  0.27751659905E-02  0.22235129032E-01  0.00000000000E+00 0.  1.
     999901    1    3    3    0    0 -0.53354578498E-01 -0.39280601240E-01 -0.10597769536E+00  0.88883122616E+00  0.88000000000E+00 0. -1.
        -11    1    4    4    0    0  0.24573428758E-01  0.14155017916E-01  0.38425193791E-01  0.47759549538E-01  0.51100000000E-03 0.  1.
         11    1    4    4    0    0  0.28632003489E-01  0.47186344240E-01  0.64777335578E-01  0.85104095272E-01  0.51100000000E-03 0. -1.
</event>
<event>
 8    1  0.1150863E+005  0.1043930E+01  0.7957747E-01            NaN
         13   -1    0    0    0    0  0.00000000000E+00  0.00000000000E+00  0.74505805969E-08  0.10566000000E+00  0.10566000000E+00 0. -1.
     999900   -1    0    0    0    0 -0.00000000000E+00 -0.00000000000E+00 -0.74505805969E-08  0.93827000000E+00  0.93827000000E+00 0.  1.
     999902    2    1    2    0    0  0.36616914721E-02 -0.19582368128E-01 -0.13263385028E-01  0.10199968742E+01  0.10197160531E+01 0.  0.
     999903    2    3    3    0    0 -0.70328924278E-01  0.17270243988E-01 -0.10756826423E+00  0.13110647803E+00  0.19327653630E-01 0.  0.
         14    1    1    2    0    0 -0.36616914721E-02  0.19582368128E-01  0.13263385028E-01  0.23933125754E-01  0.00000000000E+00 0. -1.
     999901    1    3    3    0    0  0.73990615750E-01 -0.36852612116E-01  0.94304879203E-01  0.88889039621E+00  0.88000000000E+00 0. -1.
        -11    1    4    4    0    0 -0.50970391911E-01  0.33126184090E-02 -0.73706293204E-01  0.89676268160E-01  0.51100000000E-03 0. -1.
         11    1    4    4    0    0 -0.19358532367E-01  0.13957625579E-01 -0.33861971027E-01  0.41430209872E-01  0.51100000000E-03 0.  1.
</event>
<event>
 8    1  0.1150863E+005  0.1043930E+01  0.7957747E-01            NaN
         13   -1    0    0    0    0  0.00000000000E+00  0.00000000000E+00  0.74505805969E-08  0.10566000000E+00  0.10566000000E+00 0. -1.
     999900   -1    0    0    0    0 -0.00000000000E+00 -0.00000000000E+00 -0.74505805969E-08  0.93827000000E+00  0.93827000000E+00 0. -1.
     999902    2    1    2    0    0  0.18466495441E-01  0.13694848994E-01  0.63697970729E-02  0.10200734567E+01  0.10197944511E+01 0.  0.
     999903    2    3    3    0    0  0.12655056446E+00 -0.53272328794E-02  0.35249846582E-01  0.13278654549E+00  0.18608874309E-01 0.  0.
         14    1    1    2    0    0 -0.18466495441E-01 -0.13694848994E-01 -0.63697970729E-02  0.23856543287E-01  0.00000000000E+00 0.  1.
     999901    1    3    3    0    0 -0.10808406902E+00  0.19022081873E-01 -0.28880049509E-01  0.88728691123E+00  0.88000000000E+00 0. -1.
        -11    1    4    4    0    0  0.89246688438E-01 -0.76044403276E-02  0.16914107139E-01  0.91154522933E-01  0.51100000000E-03 0.  1.
         11    1    4    4    0    0  0.37303876022E-01  0.22772074482E-02  0.18335739443E-01  0.41632022554E-01  0.51100000000E-03 0. -1.
</event>
<event>
 8    1  0.1150863E+005  0.1043930E+01  0.7957747E-01            NaN
         13   -1    0    0    0    0  0.00000000000E+00  0.00000000000E+00  0.74505805969E-08  0.10566000000E+00  0.10566000000E+00 0. -1.
     999900   -1    0    0    0    0 -0.00000000000E+00 -0.00000000000E+00 -0.74505805969E-08  0.93827000000E+00  0.93827000000E+00 0. -1.
     999902    2    1    2    0    0 -0.53502957878E-02 -0.19948182276E-01  0.22638693513E-02  0.10231530718E+01  0.10229420940E+01 0.  0.
     999903    2    3    3    0    0  0.29861624368E-01 -0.12918658671E+00 -0.17727595866E-01  0.13547488292E+00  0.21407602636E-01 0.  0.
         14    1    1    2    0    0  0.53502957878E-02  0.19948182276E-01 -0.22638693513E-02  0.20776928204E-01  0.00000000000E+00 0.  1.
     999901    1    3    3    0    0 -0.35211920156E-01  0.10923840444E+00  0.19991465217E-01  0.88767818888E+00  0.88000000000E+00 0.  1.
        -11    1    4    4    0    0  0.27613951278E-01 -0.75281498616E-01 -0.72734158287E-02  0.80517066749E-01  0.51100000000E-03 0.  1.
         11    1    4    4    0    0  0.22476730903E-02 -0.53905088096E-01 -0.10454180037E-01  0.54957816171E-01  0.51100000000E-03 0. -1.
</event>
<event>
 8    1  0.1150863E+005  0.1043930E+01  0.7957747E-01            NaN
         13   -1    0    0    0    0  0.00000000000E+00  0.00000000000E+00  0.74505805969E-08  0.10566000000E+00  0.10566000000E+00 0.  1.
     999900   -1    0    0    0    0 -0.00000000000E+00 -0.00000000000E+00 -0.74505805969E-08  0.93827000000E+00  0.93827000000E+00 0. -1.
     999902    2    1    2    0    0  0.17482863907E-01  0.14510389338E-01  0.26120621162E-02  0.10210602646E+01  0.10208041140E+01 0.  0.
     999903    2    3    3    0    0  0.22337898172E-01 -0.11261447702E+00 -0.58920672156E-01  0.12978557046E+00  0.13843647035E-01 0.  0.
         14    1    1    2    0    0 -0.17482863907E-01 -0.14510389338E-01 -0.26120621162E-02  0.22869735408E-01  0.00000000000E+00 0. -1.
     999901    1    3    3    0    0 -0.48550342652E-02  0.12712486636E+00  0.61532734272E-01  0.89127469413E+00  0.88000000000E+00 0. -1.
        -11    1    4    4    0    0  0.26113234579E-02 -0.48005650355E-01 -0.23865259463E-01  0.53676561052E-01  0.51100000000E-03 0.  1.
         11    1    4    4    0    0  0.19726574715E-01 -0.64608826669E-01 -0.35055412693E-01  0.76109009412E-01  0.51100000000E-03 0. -1.
</event>
<event>
 8    1  0.1150863E+005  0.1043930E+01  0.7957747E-01            NaN
         13   -1    0    0    0    0  0.00000000000E+00  0.00000000000E+00  0.74505805969E-08  0.10566000000E+00  0.10566000000E+00 0.  1.
     999900   -1    0    0    0    0 -0.00000000000E+00 -0.00000000000E+00 -0.74505805969E-08  0.93827000000E+00  0.93827000000E+00 0. -1.
     999902    2    1    2    0    0  0.21243119870E-01  0.17307062081E-02 -0.80584602297E-02  0.10211439458E+01  0.10208896873E+01 0.  0.
     999903    2    3    3    0    0 -0.11959964955E+00  0.89112358800E-02  0.42844450798E-01  0.12846295457E+00  0.16840351394E-01 0.  0.
         14    1    1    2    0    0 -0.21243119870E-01 -0.17307062081E-02  0.80584602297E-02  0.22786054224E-01  0.00000000000E+00 0.  1.
     999901    1    3    3    0    0  0.14084276942E+00 -0.71805296719E-02 -0.50902911027E-01  0.89268099120E+00  0.88000000000E+00 0. -1.
        -11    1    4    4    0    0 -0.83621072999E-01  0.35982834485E-02  0.22007657497E-01  0.86544957120E-01  0.51100000000E-03 0.  1.
         11    1    4    4    0    0 -0.35978576554E-01  0.53129524315E-02  0.20836793300E-01  0.41917997453E-01  0.51100000000E-03 0. -1.
</event>
<event>
 8    1  0.1150863E+005  0.1043930E+01  0.7957747E-01            NaN
         13   -1    0    0    0    0  0.00000000000E+00  0.00000000000E+00  0.74505805969E-08  0.10566000000E+00  0.10566000000E+00 0. -1.
     999900   -1    0    0    0    0 -0.00000000000E+00 -0.00000000000E+00 -0.74505805969E-08  0.93827000000E+00  0.93827000000E+00 0. -1.
     999902    2    1    2    0    0 -0.95980344956E-02  0.10664860927E-01  0.18848048858E-01  0.10202422295E+01  0.10199672036E+01 0.  0.
     999903    2    3    3    0    0 -0.11424730354E+00  0.87264479157E-02  0.64393448513E-01  0.13286992299E+00  0.19475701894E-01 0.  0.
         14    1    1    2    0    0  0.95980344956E-02 -0.10664860927E-01 -0.18848048858E-01  0.23687770484E-01  0.00000000000E+00 0.  1.
     999901    1    3    3    0    0  0.10464926905E+00  0.19384130115E-02 -0.45545399655E-01  0.88737230652E+00  0.88000000000E+00 0. -1.
        -11    1    4    4    0    0 -0.91794166807E-01  0.28222360280E-02  0.58580065851E-01  0.10893125957E+00  0.51100000000E-03 0. -1.
         11    1    4    4    0    0 -0.22453136736E-01  0.59042118877E-02  0.58133826619E-02  0.23938663419E-01  0.51100000000E-03 0.  1.
</event>
<event>
 8    1  0.1150863E+005  0.1043930E+01  0.7957747E-01            NaN
         13   -1    0    0    0    0  0.00000000000E+00  0.00000000000E+00  0.74505805969E-08  0.10566000000E+00  0.10566000000E+00 0.  1.
     999900   -1    0    0    0    0 -0.00000000000E+00 -0.00000000000E+00 -0.74505805969E-08  0.93827000000E+00  0.93827000000E+00 0.  1.
     999902    2    1    2    0    0 -0.24324306347E-02  0.17200892397E-01 -0.17396250018E-01  0.10193451076E+01  0.10190485913E+01 0.  0.
     999903    2    3    3    0    0  0.46426150088E-01  0.30298287757E-01 -0.11821036946E+00  0.13214603789E+00  0.20384067991E-01 0.  0.
         14    1    1    2    0    0  0.24324306347E-02 -0.17200892397E-01  0.17396250018E-01  0.24584892367E-01  0.00000000000E+00 0.  1.
     999901    1    3    3    0    0 -0.48858580723E-01 -0.13097395361E-01  0.10081411945E+00  0.88719906974E+00  0.88000000000E+00 0. -1.
        -11    1    4    4    0    0  0.59225041803E-02  0.20395050532E-02 -0.33537337259E-01  0.34121104144E-01  0.51100000000E-03 0. -1.
         11    1    4    4    0    0  0.40503645908E-01  0.28258782704E-01 -0.84673032205E-01  0.98024933744E-01  0.51100000000E-03 0.  1.
</event>
<event>
 8    1  0.1150863E+005  0.1043930E+01  0.7957747E-01            NaN
         13   -1    0    0    0    0  0.00000000000E+00  0.00000000000E+00  0.74505805969E-08  0.10566000000E+00  0.10566000000E+00 0. -1.
     999900   -1    0    0    0    0 -0.00000000000E+00 -0.00000000000E+00 -0.74505805969E-08  0.93827000000E+00  0.93827000000E+00 0.  1.
     999902    2    1    2    0    0  0.10548275470E-01 -0.63594310017E-02  0.15559826392E-01  0.10240851852E+01  0.10238928898E+01 0.  0.
     999903    2    3    3    0    0 -0.10774362509E+00  0.54759894118E-01 -0.48315911867E-01  0.13177993719E+00  0.20595867434E-01 0.  0.
         14    1    1    2    0    0 -0.10548275470E-01  0.63594310017E-02 -0.15559826392E-01  0.19844814824E-01  0.00000000000E+00 0.  1.
     999901    1    3    3    0    0  0.11829190056E+00 -0.61119325120E-01  0.63875738259E-01  0.89230524798E+00  0.88000000000E+00 0. -1.
        -11    1    4    4    0    0 -0.48628468979E-01  0.29832254554E-01 -0.32661041381E-01  0.65739608701E-01  0.51100000000E-03 0.  1.
         11    1    4    4    0    0 -0.59115156111E-01  0.24927639564E-01 -0.15654870485E-01  0.66040328491E-01  0.51100000000E-03 0. -1.
</event>
<event>
 8    1  0.1150863E+005  0.1043930E+01  0.7957747E-01            NaN
         13   -1    0    0    0    0  0.00000000000E+00  0.00000000000E+00  0.74505805969E-08  0.10566000000E+00  0.10566000000E+00 0.  1.
     999900   -1    0    0    0    0 -0.00000000000E+00 -0.00000000000E+00 -0.74505805969E-08  0.93827000000E+00  0.93827000000E+00 0.  1.
     999902    2    1    2    0    0  0.70423187780E-02  0.19708812024E-01 -0.94650040516E-02  0.10209600669E+01  0.10207016412E+01 0.  0.
     999903    2    3    3    0    0  0.51397590759E-02  0.11427051563E+00  0.65220318222E-01  0.13274644795E+00  0.16845226842E-01 0.  0.
         14    1    1    2    0    0 -0.70423187780E-02 -0.19708812024E-01  0.94650040516E-02  0.22969933105E-01  0.00000000000E+00 0.  1.
     999901    1    3    3    0    0  0.19025597021E-02 -0.94561703608E-01 -0.74685322273E-01  0.88821361895E+00  0.88000000000E+00 0.  1.
        -11    1    4    4    0    0  0.43202244175E-02  0.88669108382E-01  0.42164957298E-01  0.98280312704E-01  0.51100000000E-03 0. -1.
         11    1    4    4    0    0  0.81953465838E-03  0.25601407250E-01  0.23055360923E-01  0.34466135242E-01  0.51100000000E-03 0.  1.
</event>
<event>
 8    1  0.1150863E+005  0.1043930E+01  0.7957747E-01            NaN
         13   -1    0    0    0    0  0.00000000000E+00  0.00000000000E+00  0.74505805969E-08  0.10566000000E+00  0.10566000000E+00 0. -1.
     999900   -1    0    0    0    0 -0.00000000000E+00 -0.00000000000E+00 -0.74505805969E-08  0.93827000000E+00  0.93827000000E+00 0. -1.
     999902    2    1    2    0    0  0.15617904645E-01  0.68367327682E-02 -0.15367603776E-01  0.10209773726E+01  0.10207193406E+01 0.  0.
     999903    2    3    3    0    0 -0.95086313295E-01 -0.18675445052E-01 -0.85469874486E-01  0.13090960916E+00  0.21024916231E-01 0.  0.
         14    1    1    2    0    0 -0.15617904645E-01 -0.68367327682E-02  0.15367603776E-01  0.22952627437E-01  0.00000000000E+00 0. -1.
     999901    1    3    3    0    0  0.11070421794E+00  0.25512177821E-01  0.70102270709E-01  0.89006776340E+00  0.88000000000E+00 0.  1.
        -11    1    4    4    0    0 -0.32997450300E-01 -0.73176172793E-02 -0.43580260153E-01  0.55153236033E-01  0.51100000000E-03 0. -1.
         11    1    4    4    0    0 -0.62088862995E-01 -0.11357827773E-01 -0.41889614333E-01  0.75756373129E-01  0.51100000000E-03 0.  1.
</event>
<event>
 8    1  0.1150863E+005  0.1043930E+01  0.7957747E-01            NaN
         13   -1    0    0    0    0  0.00000000000E+00  0.00000000000E+00  0.74505805969E-08  0.10566000000E+00  0.10566000000E+00 0. -1.
     999900   -1    0    0    0    0 -0.00000000000E+00 -0.00000000000E+00 -0.74505805969E-08  0.93827000000E+00  0.93827000000E+00 0. -1.
     999902    2    1    2    0    0 -0.15237963970E-01 -0.50200837823E-02  0.14845287833E-01  0.10220718354E+01  0.10218380779E+01 0.  0.
     999903    2    3    3    0    0  0.16483976432E-01 -0.12023524391E+00 -0.47200222664E-01  0.13183003683E+00  0.20568476688E-01 0.  0.
         14    1    1    2    0    0  0.15237963970E-01  0.50200837823E-02 -0.14845287833E-01  0.21858164561E-01  0.00000000000E+00 0.  1.
     999901    1    3    3    0    0 -0.31721940402E-01  0.11521516013E+00  0.62045510497E-01  0.89024179861E+00  0.88000000000E+00 0.  1.
        -11    1    4    4    0    0  0.62069151417E-02 -0.38327438548E-01 -0.25565372839E-01  0.46490512480E-01  0.51100000000E-03 0. -1.
         11    1    4    4    0    0  0.10277061290E-01 -0.81907805360E-01 -0.21634849825E-01  0.85339524346E-01  0.51100000000E-03 0.  1.
</event>
<event>
 8    1  0.1150863E+005  0.1043930E+01  0.7957747E-01            NaN
         13   -1    0    0    0    0  0.00000000000E+00  0.00000000000E+00  0.74505805969E-08  0.10566000000E+00  0.10566000000E+00 0. -1.
     999900   -1    0    0    0    0 -0.00000000000E+00 -0.00000000000E+00 -0.74505805969E-08  0.93827000000E+00  0.93827000000E+00 0. -1.
     999902    2    1    2    0    0 -0.21594021581E-01 -0.23697465938E-02  0.11231460949E-01  0.10194746697E+01  0.10191813082E+01 0.  0.
     999903    2    3    3    0    0 -0.16064854870E-01  0.12645957244E+00  0.16034099297E-01  0.13006439849E+00  0.20237400778E-01 0.  0.
         14    1    1    2    0    0  0.21594021581E-01  0.23697465938E-02 -0.11231460949E-01  0.24455330340E-01  0.00000000000E+00 0.  1.
     999901    1    3    3    0    0 -0.55291667110E-02 -0.12882931904E+00 -0.48026383481E-02  0.88941027117E+00  0.88000000000E+00 0. -1.
        -11    1    4    4    0    0 -0.12509625270E-01  0.10647821442E+00  0.20800155142E-01  0.10921084399E+00  0.51100000000E-03 0. -1.
         11    1    4    4    0    0 -0.35552296006E-02  0.19981358024E-01 -0.47660558454E-02  0.20853554501E-01  0.51100000000E-03 0.  1.
</event>
<event>
 8    1  0.1150863E+005  0.1043930E+01  0.7957747E-01            NaN
         13   -1    0    0    0    0  0.00000000000E+00  0.00000000000E+00  0.74505805969E-08  0.10566000000E+00  0.10566000000E+00 0. -1.
     999900   -1    0    0    0    0 -0.00000000000E+00 -0.00000000000E+00 -0.74505805969E-08  0.93827000000E+00  0.93827000000E+00 0. -1.
     999902    2    1    2    0    0  0.15809563208E-01 -0.89189978388E-02 -0.15090126972E-01  0.10203248577E+01  0.10200517695E+01 0.  0.
     999903    2    3    3    0    0 -0.26266489640E-01 -0.10480088001E-01 -0.12752631115E+00  0.13217243455E+00  0.20170069334E-01 0.  0.
         14    1    1    2    0    0 -0.15809563208E-01  0.89189978388E-02  0.15090126972E-01  0.23605142306E-01  0.00000000000E+00 0. -1.
     999901    1    3    3    0    0  0.42076052848E-01  0.15610901626E-02  0.11243618418E+00  0.88815242314E+00  0.88000000000E+00 0.  1.
        -11    1    4    4    0    0 -0.95016691420E-03 -0.59953617246E-02 -0.52693350655E-01  0.53044297560E-01  0.51100000000E-03 0.  1.
         11    1    4    4    0    0 -0.25316322726E-01 -0.44847262769E-02 -0.74832960493E-01  0.79128136989E-01  0.51100000000E-03 0. -1.
</event>
<event>
 8    1  0.1150863E+005  0.1043930E+01  0.7957747E-01            NaN
         13   -1    0    0    0    0  0.00000000000E+00  0.00000000000E+00  0.74505805969E-08  0.10566000000E+00  0.10566000000E+00 0.  1.
     999900   -1    0    0    0    0 -0.00000000000E+00 -0.00000000000E+00 -0.74505805969E-08  0.93827000000E+00  0.93827000000E+00 0.  1.
     999902    2    1    2    0    0 -0.14842401147E-01 -0.18337491193E-01 -0.59829690233E-02  0.10195916276E+01  0.10193010991E+01 0.  0.
     999903    2    3    3    0    0  0.84755307078E-01 -0.84824993852E-02 -0.95661197916E-01  0.12938995990E+00  0.18310708985E-01 0.  0.
         14    1    1    2    0    0  0.14842401147E-01  0.18337491193E-01  0.59829690233E-02  0.24338372448E-01  0.00000000000E+00 0. -1.
     999901    1    3    3    0    0 -0.99597708225E-01 -0.98549918079E-02  0.89678228893E-01  0.89020166765E+00  0.88000000000E+00 0. -1.
        -11    1    4    4    0    0  0.73027715446E-01 -0.27667254216E-02 -0.87446946305E-01  0.11396460649E+00  0.51100000000E-03 0. -1.
         11    1    4    4    0    0  0.11727591632E-01 -0.57157739636E-02 -0.82142516107E-02  0.15425353416E-01  0.51100000000E-03 0.  1.
</event>
<event>
 7    1  0.1150863E+005  0.1043930E+01  0.7957747E-01            NaN
         13   -1    0    0    0    0  0.00000000000E+00  0.00000000000E+00  0.74505805969E-08  0.10566000000E+00  0.10566000000E+00 0. -1.
     999900   -1    0    0    0    0 -0.00000000000E+00 -0.00000000000E+00 -0.74505805969E-08  0.93827000000E+00  0.93827000000E+00 0.  1.
     999902    2    1    2    0    0 -0.17206677120E-01  0.15878099957E-01  0.50245309245E-02  0.10199836076E+01  0.10197024714E+01 0.  0.
         14    1    1    2    0    0  0.17206677120E-01 -0.15878099957E-01 -0.50245309245E-02  0.23946392354E-01  0.00000000000E+00 0.  1.
     999901    1    3    3    0    0  0.42364531559E-02  0.62830142804E-01 -0.85681890242E-01  0.88640112855E+00  0.88000000000E+00 0.  1.
        -11    1    3    3    0    0  0.31757641032E-01 -0.21796202020E-01  0.43769141628E-01  0.58306269527E-01  0.51100000000E-03 0.  1.
         11    1    3    3    0    0 -0.53200771308E-01 -0.25155840827E-01  0.46937279539E-01  0.75276209568E-01  0.51100000000E-03 0. -1.
</event>
<event>
 8    1  0.1150863E+005  0.1043930E+01  0.7957747E-01            NaN
         13   -1    0    0    0    0  0.00000000000E+00  0.00000000000E+00  0.74505805969E-08  0.10566000000E+00  0.10566000000E+00 0.  1.
     999900   -1    0    0    0    0 -0.00000000000E+00 -0.00000000000E+00 -0.74505805969E-08  0.93827000000E+00  0.93827000000E+00 0. -1.
     999902    2    1    2    0    0 -0.11702747260E-01  0.19187604693E-01 -0.67113617530E-02  0.10204744922E+01  0.10202048953E+01 0.  0.
     999903    2    3    3    0    0 -0.61711558769E-01  0.10893678092E+00  0.40989520225E-01  0.13321400626E+00  0.19755808569E-01 0.  0.
         14    1    1    2    0    0  0.11702747260E-01 -0.19187604693E-01  0.67113617530E-02  0.23455507751E-01  0.00000000000E+00 0.  1.
     999901    1    3    3    0    0  0.50008811509E-01 -0.89749176226E-01 -0.47700881978E-01  0.88726048599E+00  0.88000000000E+00 0. -1.
        -11    1    4    4    0    0 -0.50871889641E-01  0.98176344757E-01  0.41001195153E-01  0.11793177244E+00  0.51100000000E-03 0. -1.
         11    1    4    4    0    0 -0.10839669128E-01  0.10760436161E-01 -0.11674927601E-04  0.15282233819E-01  0.51100000000E-03 0.  1.
</event>
<event>
 8    1  0.1150863E+005  0.1043930E+01  0.7957747E-01            NaN
         13   -1    0    0    0    0  0.00000000000E+00  0.00000000000E+00  0.74505805969E-08  0.10566000000E+00  0.10566000000E+00 0. -1.
     999900   -1    0    0    0    0 -0.00000000000E+00 -0.00000000000E+00 -0.74505805969E-08  0.93827000000E+00  0.93827000000E+00 0. -1.
     999902    2    1    2    0    0 -0.40181386666E-02 -0.23007722751E-01 -0.21828234182E-03  0.10205730226E+01  0.10203057121E+01 0.  0.
     999903    2    3    3    0    0 -0.12039916867E+00 -0.51411202978E-01  0.46866335259E-02  0.13244276190E+00  0.19494846426E-01 0.  0.
         14    1    1    2    0    0  0.40181386666E-02  0.23007722751E-01  0.21828234182E-03  0.23356977367E-01  0.00000000000E+00 0.  1.
     999901    1    3    3    0    0  0.11638103000E+00  0.28403480227E-01 -0.49049158677E-02  0.88813026074E+00  0.88000000000E+00 0. -1.
        -11    1    4    4    0    0 -0.72386047266E-01 -0.36115745566E-01  0.11054132980E-01  0.81648894012E-01  0.51100000000E-03 0.  1.
         11    1    4    4    0    0 -0.48013121405E-01 -0.15295457412E-01 -0.63674994536E-02  0.50793867886E-01  0.51100000000E-03 0. -1.
</event>
<event>
 8    1  0.1150863E+005  0.1043930E+01  0.7957747E-01            NaN
         13   -1    0    0    0    0  0.00000000000E+00  0.00000000000E+00  0.74505805969E-08  0.10566000000E+00  0.10566000000E+00 0. -1.
     999900   -1    0    0    0    0 -0.00000000000E+00 -0.00000000000E+00 -0.74505805969E-08  0.93827000000E+00  0.93827000000E+00 0.  1.
     999902    2    1    2    0    0  0.80751054703E-02 -0.54055553026E-02 -0.23129291879E-01  0.10188423238E+01  0.10185334011E+01 0.  0.
     999903    2    3    3    0    0 -0.43524693450E-01  0.98505289423E-01 -0.71365378095E-01  0.12991784839E+00  0.13709090205E-01 0.  0.
         14    1    1    2    0    0 -0.80751054703E-02  0.54055553026E-02  0.23129291879E-01  0.25087676244E-01  0.00000000000E+00 0. -1.
     999901    1    3    3    0    0  0.51599798920E-01 -0.10391084473E+00  0.48236086216E-01  0.88892447537E+00  0.88000000000E+00 0. -1.
        -11    1    4    4    0    0 -0.23928227030E-01  0.67464160335E-01 -0.51412104430E-01  0.88133073142E-01  0.51100000000E-03 0. -1.
         11    1    4    4    0    0 -0.19596466420E-01  0.31041129087E-01 -0.19953273665E-01  0.41784775243E-01  0.51100000000E-03 0.  1.
</event>
<event>
 8    1  0.1150863E+005  0.1043930E+01  0.7957747E-01            NaN
         13   -1    0    0    0    0  0.00000000000E+00  0.00000000000E+00  0.74505805969E-08  0.10566000000E+00  0.10566000000E+00 0.  1.
     999900   -1    0    0    0    0 -0.00000000000E+00 -0.00000000000E+00 -0.74505805969E-08  0.93827000000E+00  0.93827000000E+00 0.  1.
     999902    2    1    2    0    0 -0.28733719576E-02 -0.18426550597E-01  0.14333487339E-01  0.10204088841E+01  0.10201377593E+01 0.  0.
     999903    2    3    3    0    0  0.65760689765E-01 -0.78670489825E-01  0.82590994329E-01  0.13305379515E+00  0.19197025097E-01 0.  0.
         14    1    1    2    0    0  0.28733719576E-02  0.18426550597E-01 -0.14333487339E-01  0.23521115888E-01  0.00000000000E+00 0. -1.
     999901    1    3    3    0    0 -0.68634061723E-01  0.60243939229E-01 -0.68257506990E-01  0.88735508896E+00  0.88000000000E+00 0.  1.
        -11    1    4    4    0    0  0.55983037806E-01 -0.54994712901E-01  0.65888005583E-01  0.10246955338E+00  0.51100000000E-03 0.  1.
         11    1    4    4    0    0  0.97776519587E-02 -0.23675776925E-01  0.16702988746E-01  0.30584241774E-01  0.51100000000E-03 0. -1.
</event>
<event>
 8    1  0.1150863E+005  0.1043930E+01  0.7957747E-01            NaN
         13   -1    0    0    0    0  0.00000000000E+00  0.00000000000E+00  0.74505805969E-08  0.10566000000E+00  0.10566000000E+00 0. -1.
     999900   -1    0    0    0    0 -0.00000000000E+00 -0.00000000000E+00 -0.74505805969E-08  0.93827000000E+00  0.93827000000E+00 0.  1.
     999902    2    1    2    0    0  0.76851098533E-02  0.16889821920E-01 -0.14688235028E-01  0.10202641756E+01  0.10199896650E+01 0.  0.
     999903    2    3    3    0    0 -0.30803452782E-01 -0.12299084291E+00 -0.51233692722E-02  0.12833398967E+00  0.19177169982E-01 0.  0.
         14    1    1    2    0    0 -0.76851098533E-02 -0.16889821920E-01  0.14688235028E-01  0.23665824435E-01  0.00000000000E+00 0. -1.
     999901    1    3    3    0    0  0.38488562636E-01  0.13988066483E+00 -0.95648657560E-02  0.89193018589E+00  0.88000000000E+00 0.  1.
        -11    1    4    4    0    0 -0.13208015010E-01 -0.39544651495E-01 -0.10117691394E-01  0.42905243532E-01  0.51100000000E-03 0. -1.
         11    1    4    4    0    0 -0.17595437773E-01 -0.83446191419E-01  0.49943221218E-02  0.85428746141E-01  0.51100000000E-03 0.  1.
</event>
<event>
 8    1  0.1150863E+005  0.1043930E+01  0.7957747E-01            NaN
         13   -1    0    0    0    0  0.00000000000E+00  0.00000000000E+00  0.74505805969E-08  0.10566000000E+00  0.10566000000E+00 0. -1.
     999900   -1    0    0    0    0 -0.00000000000E+00 -0.00000000000E+00 -0.74505805969E-08  0.93827000000E+00  0.93827000000E+00 0.  1.
     999902    2    1    2    0    0 -0.42903828725E-02  0.94606681026E-02 -0.25880321426E-01  0.10160426792E+01  0.10156598955E+01 0.  0.
     999903    2    3    3    0    0 -0.12247667824E+00  0.16918593862E-01  0.20266847207E-01  0.12691210257E+00  0.20227732267E-01 0.  0.
         14    1    1    2    0    0  0.42903828725E-02 -0.94606681026E-02  0.25880321426E-01  0.27887320833E-01  0.00000000000E+00 0. -1.
     999901    1    3    3    0    0  0.11818629536E+00 -0.74579257598E-02 -0.46147168633E-01  0.88913057660E+00  0.88000000000E+00 0. -1.
        -11    1    4    4    0    0 -0.41993964778E-01  0.55360867773E-02 -0.26946681018E-02  0.42446009138E-01  0.51100000000E-03 0.  1.
         11    1    4    4    0    0 -0.80482713459E-01  0.11382507085E-01  0.22961515309E-01  0.84466093432E-01  0.51100000000E-03 0. -1.
</event>
<event>
 8    1  0.1150863E+005  0.1043930E+01  0.7957747E-01            NaN
         13   -1    0    0    0    0  0.00000000000E+00  0.00000000000E+00  0.74505805969E-08  0.10566000000E+00  0.10566000000E+00 0. -1.
     999900   -1    0    0    0    0 -0.00000000000E+00 -0.00000000000E+00 -0.74505805969E-08  0.93827000000E+00  0.93827000000E+00 0. -1.
     999902    2    1    2    0    0  0.76868121402E-02  0.16798575247E-01  0.16491785611E-01  0.10191659494E+01  0.10188650422E+01 0.  0.
     999903    2    3    3    0    0 -0.27516650364E-01 -0.11957912851E+00  0.30264264243E-01  0.12785913181E+00  0.19382927368E-01 0.  0.
         14    1    1    2    0    0 -0.76868121402E-02 -0.16798575247E-01 -0.16491785611E-01  0.24764050635E-01  0.00000000000E+00 0.  1.
     999901    1    3    3    0    0  0.35203462504E-01  0.13637770376E+00 -0.13772478631E-01  0.89130681756E+00  0.88000000000E+00 0. -1.
        -11    1    4    4    0    0 -0.20844889574E-01 -0.49203440105E-01  0.15487130110E-01  0.55638118764E-01  0.51100000000E-03 0.  1.
         11    1    4    4    0    0 -0.66717607896E-02 -0.70375688409E-01  0.14777134133E-01  0.72221013045E-01  0.51100000000E-03 0. -1.
</event>
<event>
 8    1  0.1150863E+005  0.1043930E+01  0.7957747E-01            NaN
         13   -1    0    0    0    0  0.00000000000E+00  0.00000000000E+00  0.74505805969E-08  0.10566000000E+00  0.10566000000E+00 0. -1.
     999900   -1    0    0    0    0 -0.00000000000E+00 -0.00000000000E+00 -0.74505805969E-08  0.93827000000E+00  0.93827000000E+00 0.  1.
     999902    2    1    2    0    0  0.12877842662E-01  0.15253086264E-01 -0.13568912924E-01  0.10197926665E+01  0.10195069748E+01 0.  0.
     999903    2    3    3    0    0  0.70000545720E-01  0.10463999758E+00 -0.40302900392E-01  0.13301889080E+00  0.14835634001E-01 0.  0.
         14    1    1    2    0    0 -0.12877842662E-01 -0.15253086264E-01  0.13568912924E-01  0.24137333535E-01  0.00000000000E+00 0.  1.
     999901    1    3    3    0    0 -0.57122703058E-01 -0.89386911312E-01  0.26733987468E-01  0.88677377566E+00  0.88000000000E+00 0.  1.
        -11    1    4    4    0    0  0.58491817741E-01  0.91198377059E-01 -0.39421374700E-01  0.11529415694E+00  0.51100000000E-03 0. -1.
         11    1    4    4    0    0  0.11508727979E-01  0.13441620518E-01 -0.88152569147E-03  0.17724733859E-01  0.51100000000E-03 0.  1.
</event>
<event>
 8    1  0.1150863E+005  0.1043930E+01  0.7957747E-01            NaN
         13   -1    0    0    0    0  0.00000000000E+00  0.00000000000E+00  0.74505805969E-08  0.10566000000E+00  0.10566000000E+00 0. -1.
     999900   -1    0    0    0    0 -0.00000000000E+00 -0.00000000000E+00 -0.74505805969E-08  0.93827000000E+00  0.93827000000E+00 0.  1.
     999902    2    1    2    0    0  0.50859210845E-02  0.14220046040E-01 -0.17623865417E-01  0.10207205852E+01  0.10204566802E+01 0.  0.
     999903    2    3    3    0    0  0.33275911603E-01 -0.10550515469E+00 -0.66841831098E-01  0.13080418048E+00  0.20081814886E-01 0.  0.
         14    1    1    2    0    0 -0.50859210845E-02 -0.14220046040E-01  0.17623865417E-01  0.23209414790E-01  0.00000000000E+00 0. -1.
     999901    1    3    3    0    0 -0.28189990519E-01  0.11972520073E+00  0.49217965680E-01  0.88991640473E+00  0.88000000000E+00 0. -1.
        -11    1    4    4    0    0  0.26112603262E-01 -0.50195862128E-01 -0.36106638890E-01  0.67122597662E-01  0.51100000000E-03 0.  1.
         11    1    4    4    0    0  0.71633083410E-02 -0.55309292559E-01 -0.30735192207E-01  0.63681582822E-01  0.51100000000E-03 0. -1.
</event>
<event>
 8    1  0.1150863E+005  0.1043930E+01  0.7957747E-01            NaN
         13   -1    0    0    0    0  0.00000000000E+00  0.00000000000E+00  0.74505805969E-08  0.10566000000E+00  0.10566000000E+00 0. -1.
     999900   -1    0    0    0    0 -0.00000000000E+00 -0.00000000000E+00 -0.74505805969E-08  0.93827000000E+00  0.93827000000E+00 0.  1.
     999902    2    1    2    0    0  0.13551031138E-01  0.18161821914E-01  0.46329893964E-02  0.10208010828E+01  0.10205390261E+01 0.  0.
     999903    2    3    3    0    0 -0.35051496789E-01  0.62626055767E-01  0.10896614546E+00  0.13219279943E+00  0.21229344711E-01 0.  0.
         14    1    1    2    0    0 -0.13551031138E-01 -0.18161821914E-01 -0.46329893964E-02  0.23128917201E-01  0.00000000000E+00 0.  1.
     999901    1    3    3    0    0  0.48602527927E-01 -0.44464233853E-01 -0.10433315607E+00  0.88860828337E+00  0.88000000000E+00 0.  1.
        -11    1    4    4    0    0 -0.19669043108E-01  0.34395629954E-01  0.41078170632E-01  0.57075457425E-01  0.51100000000E-03 0.  1.
         11    1    4    4    0    0 -0.15382453681E-01  0.28230425812E-01  0.67887974830E-01  0.75117342008E-01  0.51100000000E-03 0. -1.
</event>
<event>
 8    1  0.1150863E+005  0.1043930E+01  0.7957747E-01            NaN
         13   -1    0    0    0    0  0.00000000000E+00  0.00000000000E+00  0.74505805969E-08  0.10566000000E+00  0.10566000000E+00 0.  1.
     999900   -1    0    0    0    0 -0.00000000000E+00 -0.00000000000E+00 -0.74505805969E-08  0.93827000000E+00  0.93827000000E+00 0.  1.
     999902    2    1    2    0    0  0.14738086624E-01  0.64849633408E-02  0.16679110279E-01  0.10207468452E+01  0.10204835439E+01 0.  0.
     999903    2    3    3    0    0 -0.12028532004E+00  0.42914772048E-01 -0.14416553302E-03  0.12954458201E+00  0.21715019373E-01 0.  0.
         14    1    1    2    0    0 -0.14738086624E-01 -0.64849633408E-02 -0.16679110279E-01  0.23183154802E-01  0.00000000000E+00 0. -1.
     999901    1    3    3    0    0  0.13502340666E+00 -0.36429808707E-01  0.16823275812E-01  0.89120226319E+00  0.88000000000E+00 0.  1.
        -11    1    4    4    0    0 -0.57537048705E-01  0.22327208689E-01 -0.10775824115E-01  0.62652978603E-01  0.51100000000E-03 0.  1.
         11    1    4    4    0    0 -0.62748271335E-01  0.20587563359E-01  0.10631658582E-01  0.66891603403E-01  0.51100000000E-03 0. -1.
</event>
<event>
 8    1  0.1150863E+005  0.1043930E+01  0.7957747E-01            NaN
         13   -1    0    0    0    0  0.00000000000E+00  0.00000000000E+00  0.74505805969E-08  0.10566000000E+00  0.10566000000E+00 0. -1.
     999900   -1    0    0    0    0 -0.00000000000E+00 -0.00000000000E+00 -0.74505805969E-08  0.93827000000E+00  0.93827000000E+00 0.  1.
     999902    2    1    2    0    0  0.13083767513E-01  0.14461678330E-01 -0.15063584574E-01  0.10192878269E+01  0.10189899104E+01 0.  0.
     999903    2    3    3    0    0 -0.34656660413E-01 -0.10029651633E-01  0.12040608852E+00  0.12730632152E+00  0.20188990150E-01 0.  0.
         14    1    1    2    0    0 -0.13083767513E-01 -0.14461678330E-01  0.15063584574E-01  0.24642173052E-01  0.00000000000E+00 0. -1.
     999901    1    3    3    0    0  0.47740427926E-01  0.24491329964E-01 -0.13546967309E+00  0.89198150543E+00  0.88000000000E+00 0.  1.
        -11    1    4    4    0    0 -0.57838686191E-02 -0.10272642868E-01  0.25379149200E-01  0.27988259374E-01  0.51100000000E-03 0. -1.
         11    1    4    4    0    0 -0.28872791794E-01  0.24299123484E-03  0.95026939319E-01  0.99318062144E-01  0.51100000000E-03 0.  1.
</event>
<event>
 8    1  0.1150863E+005  0.1043930E+01  0.7957747E-01            NaN
         13   -1    0    0    0    0  0.00000000000E+00  0.00000000000E+00  0.74505805969E-08  0.10566000000E+00  0.10566000000E+00 0.  1.
     999900   -1    0    0    0    0 -0.00000000000E+00 -0.00000000000E+00 -0.74505805969E-08  0.93827000000E+00  0.93827000000E+00 0. -1.
     999902    2    1    2    0    0 -0.22118282911E-01  0.83115366461E-02 -0.39127328712E-02  0.10199798526E+01  0.10196986272E+01 0.  0.
     999903    2    3    3    0    0  0.10785971565E+00 -0.53948128481E-01 -0.36696709019E-01  0.12765405165E+00  0.20119384247E-01 0.  0.
         14    1    1    2    0    0  0.22118282911E-01 -0.83115366461E-02  0.39127328712E-02  0.23950147367E-01  0.00000000000E+00 0. -1.
     999901    1    3    3    0    0 -0.12997799856E+00  0.62259665127E-01  0.32783976148E-01  0.89232580099E+00  0.88000000000E+00 0.  1.
        -11    1    4    4    0    0  0.83344049981E-01 -0.49024055611E-01 -0.24110882638E-01  0.99655328399E-01  0.51100000000E-03 0. -1.
         11    1    4    4    0    0  0.24515665670E-01 -0.49240728698E-02 -0.12585826381E-01  0.27998723249E-01  0.51100000000E-03 0.  1.
</event>
<event>
 8    1  0.1150863E+005  0.1043930E+01  0.7957747E-01            NaN
         13   -1    0    0    0    0  0.00000000000E+00  0.00000000000E+00  0.74505805969E-08  0.10566000000E+00  0.10566000000E+00 0. -1.
     999900   -1    0    0    0    0 -0.00000000000E+00 -0.00000000000E+00 -0.74505805969E-08  0.93827000000E+00  0.93827000000E+00 0.  1.
     999902    2    1    2    0    0 -0.14226263005E-01  0.99738666035E-02  0.14184506161E-01  0.10215008942E+01  0.10212546264E+01 0.  0.
     999903    2    3    3    0    0 -0.45244522278E-01  0.87783647194E-01 -0.85165104613E-01  0.13195784318E+00  0.20167841315E-01 0.  0.
         14    1    1    2    0    0  0.14226263005E-01 -0.99738666035E-02 -0.14184506161E-01  0.22429105848E-01  0.00000000000E+00 0.  1.
     999901    1    3    3    0    0  0.31018259272E-01 -0.77809780591E-01  0.99349610774E-01  0.88954305097E+00  0.88000000000E+00 0. -1.
        -11    1    4    4    0    0 -0.12305648039E-01  0.11378453931E-01 -0.84153025925E-02  0.18761040116E-01  0.51100000000E-03 0.  1.
         11    1    4    4    0    0 -0.32938874239E-01  0.76405193263E-01 -0.76749802020E-01  0.11319680307E+00  0.51100000000E-03 0. -1.
</event>
<event>
 8    1  0.1150863E+005  0.1043930E+01  0.7957747E-01            NaN
         13   -1    0    0    0    0  0.00000000000E+00  0.00000000000E+00  0.74505805969E-08  0.10566000000E+00  0.10566000000E+00 0.  1.
     999900   -1    0    0    0    0 -0.00000000000E+00 -0.00000000000E+00 -0.74505805969E-08  0.93827000000E+00  0.93827000000E+00 0.  1.
     999902    2    1    2    0    0  0.97446696049E-03 -0.16345340742E-01 -0.17225940144E-01  0.10201633687E+01  0.10198864869E+01 0.  0.
     999903    2    3    3    0    0  0.32440961877E-01  0.11698136204E+00  0.35360235294E-01  0.12801346211E+00  0.20001129161E-01 0.  0.
         14    1    1    2    0    0 -0.97446696049E-03  0.16345340742E-01  0.17225940144E-01  0.23766631306E-01  0.00000000000E+00 0.  1.
     999901    1    3    3    0    0 -0.31466494916E-01 -0.13332670278E+00 -0.52586175438E-01  0.89214990659E+00  0.88000000000E+00 0. -1.
        -11    1    4    4    0    0  0.24341013207E-01  0.10108994295E+00  0.23546343034E-01  0.10661309902E+00  0.51100000000E-03 0.  1.
         11    1    4    4    0    0  0.80999486701E-02  0.15891419087E-01  0.11813892260E-01  0.21400363090E-01  0.51100000000E-03 0. -1.
</event>
<event>
 8    1  0.1150863E+005  0.1043930E+01  0.7957747E-01            NaN
         13   -1    0    0    0    0  0.00000000000E+00  0.00000000000E+00  0.74505805969E-08  0.10566000000E+00  0.10566000000E+00 0.  1.
     999900   -1    0    0    0    0 -0.00000000000E+00 -0.00000000000E+00 -0.74505805969E-08  0.93827000000E+00  0.93827000000E+00 0.  1.
     999902    2    1    2    0    0  0.11845521264E-01 -0.52382933464E-03  0.20317590366E-01  0.10204056456E+01  0.10201344452E+01 0.  0.
     999903    2    3    3    0    0 -0.43413182209E-01 -0.90064976222E-01 -0.78351145393E-01  0.12866203856E+00  0.20460055012E-01 0.  0.
         14    1    1    2    0    0 -0.11845521264E-01  0.52382933464E-03 -0.20317590366E-01  0.23524354389E-01  0.00000000000E+00 0. -1.
     999901    1    3    3    0    0  0.55258703473E-01  0.89541146887E-01  0.98668735759E-01  0.89174360705E+00  0.88000000000E+00 0. -1.
        -11    1    4    4    0    0 -0.25955457076E-01 -0.31293223126E-01 -0.33784596292E-01  0.52864086422E-01  0.51100000000E-03 0.  1.
         11    1    4    4    0    0 -0.17457725133E-01 -0.58771753096E-01 -0.44566549102E-01  0.75797952140E-01  0.51100000000E-03 0. -1.
</event>
<event>
 8    1  0.1150863E+005  0.1043930E+01  0.7957747E-01            NaN
         13   -1    0    0    0    0  0.00000000000E+00  0.00000000000E+00  0.74505805969E-08  0.10566000000E+00  0.10566000000E+00 0. -1.
     999900   -1    0    0    0    0 -0.00000000000E+00 -0.00000000000E+00 -0.74505805969E-08  0.93827000000E+00  0.93827000000E+00 0.  1.
     999902    2    1    2    0    0  0.23500126338E-01 -0.55164543047E-04  0.20156442410E-01  0.10129696842E+01  0.10124964395E+01 0.  0.
     999903    2    3    3    0    0  0.94312368946E-02 -0.74357821132E-01  0.99594794265E-01  0.12616120990E+00  0.19480606910E-01 0.  0.
         14    1    1    2    0    0 -0.23500126338E-01  0.55164543047E-04 -0.20156442410E-01  0.30960315756E-01  0.00000000000E+00 0.  1.
     999901    1    3    3    0    0  0.14068889444E-01  0.74302656589E-01 -0.79438351854E-01  0.88680847435E+00  0.88000000000E+00 0.  1.
        -11    1    4    4    0    0  0.14741858538E-01 -0.48563096186E-01  0.71102626643E-01  0.87358693562E-01  0.51100000000E-03 0.  1.
         11    1    4    4    0    0 -0.53106216432E-02 -0.25794724946E-01  0.28492167622E-01  0.38802516337E-01  0.51100000000E-03 0. -1.
</event>
<event>
 8    1  0.1150863E+005  0.1043930E+01  0.7957747E-01            NaN
         13   -1    0    0    0    0  0.00000000000E+00  0.00000000000E+00  0.74505805969E-08  0.10566000000E+00  0.10566000000E+00 0.  1.
     999900   -1    0    0    0    0 -0.00000000000E+00 -0.00000000000E+00 -0.74505805969E-08  0.93827000000E+00  0.93827000000E+00 0.  1.
     999902    2    1    2    0    0 -0.21388232064E-01  0.16054796322E-01 -0.11919018468E-01  0.10146507248E+01  0.10142281880E+01 0.  0.
     999903    2    3    3    0    0  0.16659966240E-02  0.12059003691E+00  0.34714612684E-01  0.12693804067E+00  0.19063821460E-01 0.  0.
         14    1    1    2    0    0  0.21388232064E-01 -0.16054796322E-01  0.11919018468E-01  0.29279275213E-01  0.00000000000E+00 0.  1.
     999901    1    3    3    0    0 -0.23054228688E-01 -0.10453524059E+00 -0.46633631152E-01  0.88771268412E+00  0.88000000000E+00 0.  1.
        -11    1    4    4    0    0  0.54988038339E-02  0.39123166720E-01  0.37091777023E-02  0.39684734320E-01  0.51100000000E-03 0.  1.
         11    1    4    4    0    0 -0.38328072099E-02  0.81466870191E-01  0.31005434982E-01  0.87253306351E-01  0.51100000000E-03 0. -1.
</event>
<event>
 8    1  0.1150863E+005  0.1043930E+01  0.7957747E-01            NaN
         13   -1    0    0    0    0  0.00000000000E+00  0.00000000000E+00  0.74505805969E-08  0.10566000000E+00  0.10566000000E+00 0.  1.
     999900   -1    0    0    0    0 -0.00000000000E+00 -0.00000000000E+00 -0.74505805969E-08  0.93827000000E+00  0.93827000000E+00 0. -1.
     999902    2    1    2    0    0 -0.28191470916E-02  0.85768445612E-02  0.21974193776E-01  0.10201734210E+01  0.10198967761E+01 0.  0.
     999903    2    3    3    0    0 -0.95689905871E-01  0.11093263233E-01 -0.83547750456E-01  0.12901339559E+00  0.19611503289E-01 0.  0.
         14    1    1    2    0    0  0.28191470916E-02 -0.85768445612E-02 -0.21974193776E-01  0.23756578984E-01  0.00000000000E+00 0. -1.
     999901    1    3    3    0    0  0.92870758779E-01 -0.25164186717E-02  0.10552194423E+00  0.89116002542E+00  0.88000000000E+00 0. -1.
        -11    1    4    4    0    0 -0.81877669938E-01  0.24684016835E-02 -0.71780600166E-01  0.10891630513E+00  0.51100000000E-03 0.  1.
         11    1    4    4    0    0 -0.13812235932E-01  0.86248615494E-02 -0.11767150289E-01  0.20097090464E-01  0.51100000000E-03 0. -1.
</event>
<event>
 8    1  0.1150863E+005  0.1043930E+01  0.7957747E-01            NaN
         13   -1    0    0    0    0  0.00000000000E+00  0.00000000000E+00  0.74505805969E-08  0.10566000000E+00  0.10566000000E+00 0.  1.
     999900   -1    0    0    0    0 -0.00000000000E+00 -0.00000000000E+00 -0.74505805969E-08  0.93827000000E+00  0.93827000000E+00 0. -1.
     999902    2    1    2    0    0  0.15070662043E-01  0.21832979352E-02 -0.18704085634E-01  0.10198108279E+01  0.10195255711E+01 0.  0.
     999903    2    3    3    0    0 -0.10176710957E+00 -0.15806661590E-01 -0.76729780402E-01  0.13001215134E+00  0.20231291492E-01 0.  0.
         14    1    1    2    0    0 -0.15070662043E-01 -0.21832979352E-02  0.18704085634E-01  0.24119172118E-01  0.00000000000E+00 0.  1.
     999901    1    3    3    0    0  0.11683777161E+00  0.17989959525E-01  0.58025694768E-01  0.88979867654E+00  0.88000000000E+00 0. -1.
        -11    1    4    4    0    0 -0.26679199604E-01 -0.31772990580E-02 -0.31668504605E-01  0.41533483188E-01  0.51100000000E-03 0.  1.
         11    1    4    4    0    0 -0.75087909965E-01 -0.12629362532E-01 -0.45061275797E-01  0.88478668154E-01  0.51100000000E-03 0. -1.
</event>
<event>
 8    1  0.1150863E+005  0.1043930E+01  0.7957747E-01            NaN
         13   -1    0    0    0    0  0.00000000000E+00  0.00000000000E+00  0.74505805969E-08  0.10566000000E+00  0.10566000000E+00 0.  1.
     999900   -1    0    0    0    0 -0.00000000000E+00 -0.00000000000E+00 -0.74505805969E-08  0.93827000000E+00  0.93827000000E+00 0.  1.
     999902    2    1    2    0    0 -0.15249454307E-01  0.47824968409E-02  0.18082184457E-01  0.10197973763E+01  0.10195117975E+01 0.  0.
     999903    2    3    3    0    0  0.79136322416E-01  0.67715902519E-01  0.76402532719E-01  0.13060079992E+00  0.19267095106E-01 0.  0.
         14    1    1    2    0    0  0.15249454307E-01 -0.47824968409E-02 -0.18082184457E-01  0.24132623717E-01  0.00000000000E+00 0. -1.
     999901    1    3    3    0    0 -0.94385776723E-01 -0.62933405678E-01 -0.58320348262E-01  0.88919657637E+00  0.88000000000E+00 0.  1.
        -11    1    4    4    0    0  0.32581991003E-01  0.40376721484E-01  0.39332560228E-01  0.65108963981E-01  0.51100000000E-03 0.  1.
         11    1    4    4    0    0  0.46554331413E-01  0.27339181035E-01  0.37069972491E-01  0.65491835938E-01  0.51100000000E-03 0. -1.
</event>
<event>
 8    1  0.1150863E+005  0.1043930E+01  0.7957747E-01            NaN
         13   -1    0    0    0    0  0.00000000000E+00  0.00000000000E+00  0.74505805969E-08  0.10566000000E+00  0.10566000000E+00 0. -1.
     999900   -1    0    0    0    0 -0.00000000000E+00 -0.00000000000E+00 -0.74505805969E-08  0.93827000000E+00  0.93827000000E+00 0. -1.
     999902    2    1    2    0    0 -0.10186549086E-01  0.17888422706E-01 -0.51446612003E-02  0.10227114000E+01  0.10224912609E+01 0.  0.
     999903    2    3    3    0    0  0.93422276411E-01  0.93404015572E-01  0.58751640089E-03  0.13340253834E+00  0.18543467964E-01 0.  0.
         14    1    1    2    0    0  0.10186549086E-01 -0.17888422706E-01  0.51446612003E-02  0.21218600049E-01  0.00000000000E+00 0.  1.
     999901    1    3    3    0    0 -0.10360882550E+00 -0.75515592866E-01 -0.57321776012E-02  0.88930886161E+00  0.88000000000E+00 0.  1.
        -11    1    4    4    0    0  0.55347552202E-01  0.52064760050E-01  0.91945862549E-02  0.76543401487E-01  0.51100000000E-03 0.  1.
         11    1    4    4    0    0  0.38074724209E-01  0.41339255523E-01 -0.86070698540E-02  0.56859136849E-01  0.51100000000E-03 0. -1.
</event>
<event>
 8    1  0.1150863E+005  0.1043930E+01  0.7957747E-01            NaN
         13   -1    0    0    0    0  0.00000000000E+00  0.00000000000E+00  0.74505805969E-08  0.10566000000E+00  0.10566000000E+00 0.  1.
     999900   -1    0    0    0    0 -0.00000000000E+00 -0.00000000000E+00 -0.74505805969E-08  0.93827000000E+00  0.93827000000E+00 0.  1.
     999902    2    1    2    0    0 -0.14593001212E-01 -0.10196255344E-01  0.15486678018E-01  0.10203343118E+01  0.10200614448E+01 0.  0.
     999903    2    3    3    0    0 -0.73002142033E-01 -0.97913089763E-01  0.49805544034E-01  0.13338242167E+00  0.19849239423E-01 0.  0.
         14    1    1    2    0    0  0.14593001212E-01  0.10196255344E-01 -0.15486678018E-01  0.23595688239E-01  0.00000000000E+00 0. -1.
     999901    1    3    3    0    0  0.58409140821E-01  0.87716834419E-01 -0.34318866016E-01  0.88695189009E+00  0.88000000000E+00 0.  1.
        -11    1    4    4    0    0 -0.66922792984E-01 -0.77475174925E-01  0.42270194058E-01  0.11076142549E+00  0.51100000000E-03 0. -1.
         11    1    4    4    0    0 -0.60793490486E-02 -0.20437914838E-01  0.75353499755E-02  0.22620996177E-01  0.51100000000E-03 0.  1.
</event>
<event>
 8    1  0.1150863E+005  0.1043930E+01  0.7957747E-01            NaN
         13   -1    0    0    0    0  0.00000000000E+00  0.00000000000E+00  0.74505805969E-08  0.10566000000E+00  0.10566000000E+00 0.  1.
     999900   -1    0    0    0    0 -0.00000000000E+00 -0.00000000000E+00 -0.74505805969E-08  0.93827000000E+00  0.93827000000E+00 0. -1.
     999902    2    1    2    0    0  0.14555971692E-01  0.39658324069E-02  0.22932646995E-01  0.10164798554E+01  0.10161091408E+01 0.  0.
     999903    2    3    3    0    0  0.11273295515E+00  0.34957167181E-01 -0.45130655828E-01  0.12786756872E+00  0.19560580771E-01 0.  0.
         14    1    1    2    0    0 -0.14555971692E-01 -0.39658324069E-02 -0.22932646995E-01  0.27450144567E-01  0.00000000000E+00 0. -1.
     999901    1    3    3    0    0 -0.98176983457E-01 -0.30991334774E-01  0.68063302823E-01  0.88861228672E+00  0.88000000000E+00 0.  1.
        -11    1    4    4    0    0  0.22163731403E-01  0.13900843593E-01 -0.52430614417E-02  0.26687361364E-01  0.51100000000E-03 0.  1.
         11    1    4    4    0    0  0.90569223746E-01  0.21056323588E-01 -0.39887594387E-01  0.10118020735E+00  0.51100000000E-03 0. -1.
</event>
<event>
 8    1  0.1150863E+005  0.1043930E+01  0.7957747E-01            NaN
         13   -1    0    0    0    0  0.00000000000E+00  0.00000000000E+00  0.74505805969E-08  0.10566000000E+00  0.10566000000E+00 0. -1.
     999900   -1    0    0    0    0 -0.00000000000E+00 -0.00000000000E+00 -0.74505805969E-08  0.93827000000E+00  0.93827000000E+00 0.  1.
     999902    2    1    2    0    0  0.35845401855E-02 -0.15608959646E-01 -0.18317066678E-01  0.10195988783E+01  0.10193085250E+01 0.  0.
     999903    2    3    3    0    0  0.10276948003E+00  0.70224925737E-01 -0.30710175490E-01  0.12979064208E+00  0.20233380142E-01 0.  0.
         14    1    1    2    0    0 -0.35845401855E-02  0.15608959646E-01  0.18317066678E-01  0.24331121661E-01  0.00000000000E+00 0.  1.
     999901    1    3    3    0    0 -0.99184939845E-01 -0.85833885383E-01  0.12393108812E-01  0.88980823626E+00  0.88000000000E+00 0. -1.
        -11    1    4    4    0    0  0.11469860768E-01  0.17328917249E-02 -0.57508498469E-02  0.12957392282E-01  0.51100000000E-03 0.  1.
         11    1    4    4    0    0  0.91299619262E-01  0.68492034012E-01 -0.24959325643E-01  0.11683324980E+00  0.51100000000E-03 0. -1.
</event>
<event>
 8    1  0.1150863E+005  0.1043930E+01  0.7957747E-01            NaN
         13   -1    0    0    0    0  0.00000000000E+00  0.00000000000E+00  0.74505805969E-08  0.10566000000E+00  0.10566000000E+00 0.  1.
     999900   -1    0    0    0    0 -0.00000000000E+00 -0.00000000000E+00 -0.74505805969E-08  0.93827000000E+00  0.93827000000E+00 0.  1.
     999902    2    1    2    0    0  0.16045931719E-01 -0.16174714132E-01  0.46459961843E-02  0.10206775037E+01  0.10204126068E+01 0.  0.
     999903    2    3    3    0    0  0.11200395548E+00 -0.56701990105E-01  0.41401763120E-01  0.13377199083E+00  0.20514331962E-01 0.  0.
         14    1    1    2    0    0 -0.16045931719E-01  0.16174714132E-01 -0.46459961843E-02  0.23252496264E-01  0.00000000000E+00 0.  1.
     999901    1    3    3    0    0 -0.95958023761E-01  0.40527275973E-01 -0.36755766935E-01  0.88690551291E+00  0.88000000000E+00 0.  1.
        -11    1    4    4    0    0  0.91084036674E-01 -0.48465977805E-01  0.41690202863E-01  0.11128156576E+00  0.51100000000E-03 0.  1.
         11    1    4    4    0    0  0.20919918805E-01 -0.82360122993E-02 -0.28843974334E-03  0.22490425072E-01  0.51100000000E-03 0. -1.
</event>
<event>
 8    1  0.1150863E+005  0.1043930E+01  0.7957747E-01            NaN
         13   -1    0    0    0    0  0.00000000000E+00  0.00000000000E+00  0.74505805969E-08  0.10566000000E+00  0.10566000000E+00 0. -1.
     999900   -1    0    0    0    0 -0.00000000000E+00 -0.00000000000E+00 -0.74505805969E-08  0.93827000000E+00  0.93827000000E+00 0. -1.
     999902    2    1    2    0    0  0.19310712200E-01  0.91107755641E-02 -0.12027343118E-02  0.10225441073E+01  0.10223204463E+01 0.  0.
     999903    2    3    3    0    0 -0.11235794774E+00  0.57836296311E-01  0.27283684141E-01  0.13095996184E+00  0.20898961582E-01 0.  0.
         14    1    1    2    0    0 -0.19310712200E-01 -0.91107755641E-02  0.12027343118E-02  0.21385892707E-01  0.00000000000E+00 0. -1.
     999901    1    3    3    0    0  0.13166865994E+00 -0.48725520747E-01 -0.28486418452E-01  0.89158414545E+00  0.88000000000E+00 0. -1.
        -11    1    4    4    0    0 -0.38923476101E-01  0.31450287999E-01  0.11437990452E-01  0.51334650613E-01  0.51100000000E-03 0. -1.
         11    1    4    4    0    0 -0.73434471636E-01  0.26386008312E-01  0.15845693688E-01  0.79625311230E-01  0.51100000000E-03 0.  1.
</event>
<event>
 8    1  0.1150863E+005  0.1043930E+01  0.7957747E-01            NaN
         13   -1    0    0    0    0  0.00000000000E+00  0.00000000000E+00  0.74505805969E-08  0.10566000000E+00  0.10566000000E+00 0.  1.
     999900   -1    0    0    0    0 -0.00000000000E+00 -0.00000000000E+00 -0.74505805969E-08  0.93827000000E+00  0.93827000000E+00 0.  1.
     999902    2    1    2    0    0 -0.16612621361E-01 -0.11263311374E-01 -0.11645600293E-01  0.10207252294E+01  0.10204614312E+01 0.  0.
     999903    2    3    3    0    0  0.86019559915E-01  0.58091446501E-01  0.72188667683E-01  0.12810457563E+00  0.20630019676E-01 0.  0.
         14    1    1    2    0    0  0.16612621361E-01  0.11263311374E-01  0.11645600293E-01  0.23204770583E-01  0.00000000000E+00 0. -1.
     999901    1    3    3    0    0 -0.10263218128E+00 -0.69354757875E-01 -0.83834267977E-01  0.89262065378E+00  0.88000000000E+00 0. -1.
        -11    1    4    4    0    0  0.35546266168E-01  0.12750589808E-01  0.29728590477E-01  0.48064173681E-01  0.51100000000E-03 0.  1.
         11    1    4    4    0    0  0.50473293748E-01  0.45340856692E-01  0.42460077206E-01  0.80040401952E-01  0.51100000000E-03 0. -1.
</event>
<event>
 8    1  0.1150863E+005  0.1043930E+01  0.7957747E-01            NaN
         13   -1    0    0    0    0  0.00000000000E+00  0.00000000000E+00  0.74505805969E-08  0.10566000000E+00  0.10566000000E+00 0.  1.
     999900   -1    0    0    0    0 -0.00000000000E+00 -0.00000000000E+00 -0.74505805969E-08  0.93827000000E+00  0.93827000000E+00 0.  1.
     999902    2    1    2    0    0  0.12667688570E-01  0.15674973398E-01  0.10403078442E-01  0.10212496304E+01  0.10209977514E+01 0.  0.
     999903    2    3    3    0    0  0.47110743579E-01 -0.24159881741E-01 -0.11749526584E+00  0.13044598974E+00  0.20196452625E-01 0.  0.
         14    1    1    2    0    0 -0.12667688570E-01 -0.15674973398E-01 -0.10403078442E-01  0.22680369613E-01  0.00000000000E+00 0. -1.
     999901    1    3    3    0    0 -0.34443055009E-01  0.39834855139E-01  0.12789834428E+00  0.89080364065E+00  0.88000000000E+00 0. -1.
        -11    1    4    4    0    0  0.19975820499E-01 -0.34815892440E-02 -0.27281102001E-01  0.33995213129E-01  0.51100000000E-03 0.  1.
         11    1    4    4    0    0  0.27134923079E-01 -0.20678292497E-01 -0.90214163836E-01  0.96450776610E-01  0.51100000000E-03 0. -1.
</event>
<event>
 8    1  0.1150863E+005  0.1043930E+01  0.7957747E-01            NaN
         13   -1    0    0    0    0  0.00000000000E+00  0.00000000000E+00  0.74505805969E-08  0.10566000000E+00  0.10566000000E+00 0.  1.
     999900   -1    0    0    0    0 -0.00000000000E+00 -0.00000000000E+00 -0.74505805969E-08  0.93827000000E+00  0.93827000000E+00 0.  1.
     999902    2    1    2    0    0  0.62384675707E-02 -0.19235866883E-01  0.15167436043E-01  0.10186517847E+01  0.10183380923E+01 0.  0.
     999903    2    3    3    0    0  0.12713045832E+00 -0.70634890318E-02  0.19173301144E-01  0.13029426255E+00  0.19923179150E-01 0.  0.
         14    1    1    2    0    0 -0.62384675707E-02  0.19235866883E-01 -0.15167436043E-01  0.25278215295E-01  0.00000000000E+00 0. -1.
     999901    1    3    3    0    0 -0.12089199075E+00 -0.12172377851E-01 -0.40058651007E-02  0.88835752215E+00  0.88000000000E+00 0.  1.
        -11    1    4    4    0    0  0.37863520023E-01 -0.11003810609E-01  0.36674438178E-02  0.39603551124E-01  0.51100000000E-03 0. -1.
         11    1    4    4    0    0  0.89266938297E-01  0.39403215775E-02  0.15505857326E-01  0.90690711429E-01  0.51100000000E-03 0.  1.
</event>
<event>
 8    1  0.1150863E+005  0.1043930E+01  0.7957747E-01            NaN
         13   -1    0    0    0    0  0.00000000000E+00  0.00000000000E+00  0.74505805969E-08  0.10566000000E+00  0.10566000000E+00 0. -1.
     999900   -1    0    0    0    0 -0.00000000000E+00 -0.00000000000E+00 -0.74505805969E-08  0.93827000000E+00  0.93827000000E+00 0.  1.
     999902    2    1    2    0    0 -0.17412772209E-01  0.67028281156E-03  0.12276614570E-01  0.10226140628E+01  0.10223918780E+01 0.  0.
     999903    2    3    3    0    0  0.20015026213E-01  0.98247810056E-01 -0.82332242723E-01  0.13139408442E+00  0.20798407952E-01 0.  0.
         14    1    1    2    0    0  0.17412772209E-01 -0.67028281156E-03 -0.12276614570E-01  0.21315937238E-01  0.00000000000E+00 0.  1.
     999901    1    3    3    0    0 -0.37427798422E-01 -0.97577527245E-01  0.94608857294E-01  0.89121997834E+00  0.88000000000E+00 0. -1.
        -11    1    4    4    0    0  0.12830369287E-01  0.52401614347E-01 -0.57150266102E-01  0.78593648590E-01  0.51100000000E-03 0. -1.
         11    1    4    4    0    0  0.71846569260E-02  0.45846195710E-01 -0.25181976621E-01  0.52800435829E-01  0.51100000000E-03 0.  1.
</event>
<event>
 8    1  0.1150863E+005  0.1043930E+01  0.7957747E-01            NaN
         13   -1    0    0    0    0  0.00000000000E+00  0.00000000000E+00  0.74505805969E-08  0.10566000000E+00  0.10566000000E+00 0. -1.
     999900   -1    0    0    0    0 -0.00000000000E+00 -0.00000000000E+00 -0.74505805969E-08  0.93827000000E+00  0.93827000000E+00 0.  1.
     999902    2    1    2    0    0 -0.28373118828E-02  0.23239099999E-01 -0.21056371184E-02  0.10204238345E+01  0.10201530583E+01 0.  0.
     999903    2    3    3    0    0  0.88148192387E-01 -0.65014511779E-01  0.64703972212E-01  0.12883503588E+00  0.20368404131E-01 0.  0.
         14    1    1    2    0    0  0.28373118828E-02 -0.23239099999E-01  0.21056371184E-02  0.23506165472E-01  0.00000000000E+00 0.  1.
     999901    1    3    3    0    0 -0.90985504269E-01  0.88253611779E-01 -0.66809609331E-01  0.89158879865E+00  0.88000000000E+00 0.  1.
        -11    1    4    4    0    0  0.23119945884E-01 -0.12800367768E-01  0.67578135672E-02  0.27282054136E-01  0.51100000000E-03 0. -1.
         11    1    4    4    0    0  0.65028246502E-01 -0.52214144012E-01  0.57946158645E-01  0.10155298174E+00  0.51100000000E-03 0.  1.
</event>
<event>
 8    1  0.1150863E+005  0.1043930E+01  0.7957747E-01            NaN
         13   -1    0    0    0    0  0.00000000000E+00  0.00000000000E+00  0.74505805969E-08  0.10566000000E+00  0.10566000000E+00 0.  1.
     999900   -1    0    0    0    0 -0.00000000000E+00 -0.00000000000E+00 -0.74505805969E-08  0.93827000000E+00  0.93827000000E+00 0. -1.
     999902    2    1    2    0    0 -0.22304774621E-01  0.28797184623E-02  0.69627733467E-02  0.10203869339E+01  0.10201152969E+01 0.  0.
     999903    2    3    3    0    0  0.84911517956E-01 -0.93897427463E-02  0.95604209996E-01  0.12937448876E+00  0.17304919059E-01 0.  0.
         14    1    1    2    0    0  0.22304774621E-01 -0.28797184623E-02 -0.69627733467E-02  0.23543066113E-01  0.00000000000E+00 0.  1.
     999901    1    3    3    0    0 -0.10721629258E+00  0.12269461209E-01 -0.88641436649E-01  0.89101244512E+00  0.88000000000E+00 0. -1.
        -11    1    4    4    0    0  0.52674009043E-02 -0.40374961613E-02  0.12379488523E-01  0.14055594780E-01  0.51100000000E-03 0.  1.
         11    1    4    4    0    0  0.79644117052E-01 -0.53522465850E-02  0.83224721474E-01  0.11531889398E+00  0.51100000000E-03 0. -1.
</event>
<event>
 8    1  0.1150863E+005  0.1043930E+01  0.7957747E-01            NaN
         13   -1    0    0    0    0  0.00000000000E+00  0.00000000000E+00  0.74505805969E-08  0.10566000000E+00  0.10566000000E+00 0.  1.
     999900   -1    0    0    0    0 -0.00000000000E+00 -0.00000000000E+00 -0.74505805969E-08  0.93827000000E+00  0.93827000000E+00 0.  1.
     999902    2    1    2    0    0  0.56712556024E-02 -0.19375344993E-01  0.38071974084E-02  0.10233858552E+01  0.10231796258E+01 0.  0.
     999903    2    3    3    0    0 -0.80034200685E-01  0.91939405656E-01  0.44645478397E-01  0.13130729131E+00  0.19749896653E-01 0.  0.
         14    1    1    2    0    0 -0.56712556024E-02  0.19375344993E-01 -0.38071974084E-02  0.20544144806E-01  0.00000000000E+00 0. -1.
     999901    1    3    3    0    0  0.85705456288E-01 -0.11131475065E+00 -0.40838280989E-01  0.89207856389E+00  0.88000000000E+00 0. -1.
        -11    1    4    4    0    0 -0.43014547181E-01  0.63426533281E-01  0.30483796437E-01  0.82478478159E-01  0.51100000000E-03 0.  1.
         11    1    4    4    0    0 -0.37019653504E-01  0.28512872375E-01  0.14161681960E-01  0.48828813149E-01  0.51100000000E-03 0. -1.
</event>
<event>
 8    1  0.1150863E+005  0.1043930E+01  0.7957747E-01            NaN
         13   -1    0    0    0    0  0.00000000000E+00  0.00000000000E+00  0.74505805969E-08  0.10566000000E+00  0.10566000000E+00 0.  1.
     999900   -1    0    0    0    0 -0.00000000000E+00 -0.00000000000E+00 -0.74505805969E-08  0.93827000000E+00  0.93827000000E+00 0.  1.
     999902    2    1    2    0    0 -0.13761014723E-01 -0.18037319168E-01  0.55273066004E-02  0.10205791643E+01  0.10203119960E+01 0.  0.
     999903    2    3    3    0    0 -0.62160100221E-01 -0.11662321053E+00 -0.53420532592E-02  0.13368582663E+00  0.19455369802E-01 0.  0.
         14    1    1    2    0    0  0.13761014723E-01  0.18037319168E-01 -0.55273066004E-02  0.23350835686E-01  0.00000000000E+00 0.  1.
     999901    1    3    3    0    0  0.48399085497E-01  0.98585891361E-01  0.10869359860E-01  0.88689333769E+00  0.88000000000E+00 0. -1.
        -11    1    4    4    0    0 -0.40902199774E-01 -0.57190347618E-01 -0.59050923050E-02  0.70561016454E-01  0.51100000000E-03 0.  1.
         11    1    4    4    0    0 -0.21257900447E-01 -0.59432862911E-01  0.56303904580E-03  0.63124810171E-01  0.51100000000E-03 0. -1.
</event>
<event>
 8    1  0.1150863E+005  0.1043930E+01  0.7957747E-01            NaN
         13   -1    0    0    0    0  0.00000000000E+00  0.00000000000E+00  0.74505805969E-08  0.10566000000E+00  0.10566000000E+00 0.  1.
     999900   -1    0    0    0    0 -0.00000000000E+00 -0.00000000000E+00 -0.74505805969E-08  0.93827000000E+00  0.93827000000E+00 0. -1.
     999902    2    1    2    0    0 -0.16476095886E-01 -0.16297629699E-01  0.34024334440E-02  0.10205066991E+01  0.10202378507E+01 0.  0.
     999903    2    3    3    0    0 -0.12529314577E+00  0.24544187095E-01 -0.27813479078E-01  0.13231548238E+00  0.20808838557E-01 0.  0.
         14    1    1    2    0    0  0.16476095886E-01  0.16297629699E-01 -0.34024334440E-02  0.23423300852E-01  0.00000000000E+00 0. -1.
     999901    1    3    3    0    0  0.10881704989E+00 -0.40841816794E-01  0.31215912522E-01  0.88819121677E+00  0.88000000000E+00 0.  1.
        -11    1    4    4    0    0 -0.25262102382E-01  0.99643691537E-02 -0.13120257760E-01  0.30163964495E-01  0.51100000000E-03 0. -1.
         11    1    4    4    0    0 -0.10003104339E+00  0.14579817942E-01 -0.14693221317E-01  0.10215151789E+00  0.51100000000E-03 0.  1.
</event>
<event>
 8    1  0.1150863E+005  0.1043930E+01  0.7957747E-01            NaN
         13   -1    0    0    0    0  0.00000000000E+00  0.00000000000E+00  0.74505805969E-08  0.10566000000E+00  0.10566000000E+00 0. -1.
     999900   -1    0    0    0    0 -0.00000000000E+00 -0.00000000000E+00 -0.74505805969E-08  0.93827000000E+00  0.93827000000E+00 0.  1.
     999902    2    1    2    0    0 -0.27461014537E-02 -0.18433185068E-01  0.14634934826E-01  0.10202339096E+01  0.10199586881E+01 0.  0.
     999903    2    3    3    0    0 -0.69833039403E-01  0.10572963429E+00 -0.94148822237E-02  0.12866481147E+00  0.20262890816E-01 0.  0.
         14    1    1    2    0    0  0.27461014537E-02  0.18433185068E-01 -0.14634934826E-01  0.23696090444E-01  0.00000000000E+00 0.  1.
     999901    1    3    3    0    0  0.67086937949E-01 -0.12416281936E+00  0.24049817049E-01  0.89156909808E+00  0.88000000000E+00 0. -1.
        -11    1    4    4    0    0 -0.63067290252E-01  0.91331887111E-01 -0.17667104887E-02  0.11100621194E+00  0.51100000000E-03 0. -1.
         11    1    4    4    0    0 -0.67657491510E-02  0.14397747183E-01 -0.76481717350E-02  0.17658599531E-01  0.51100000000E-03 0.  1.
</event>
<event>
 8    1  0.1150863E+005  0.1043930E+01  0.7957747E-01            NaN
         13   -1    0    0    0    0  0.00000000000E+00  0.00000000000E+00  0.74505805969E-08  0.10566000000E+00  0.10566000000E+00 0. -1.
     999900   -1    0    0    0    0 -0.00000000000E+00 -0.00000000000E+00 -0.74505805969E-08  0.93827000000E+00  0.93827000000E+00 0.  1.
     999902    2    1    2    0    0 -0.94134090794E-02 -0.87947201996E-03 -0.21462971368E-01  0.10204769643E+01  0.10202074249E+01 0.  0.
     999903    2    3    3    0    0  0.51085811332E-01 -0.74379629559E-02  0.11527192882E+00  0.12784064288E+00  0.19761806215E-01 0.  0.
         14    1    1    2    0    0  0.94134090794E-02  0.87947201996E-03  0.21462971368E-01  0.23453035655E-01  0.00000000000E+00 0. -1.
     999901    1    3    3    0    0 -0.60499220412E-01  0.65584909359E-02 -0.13673490019E+00  0.89263632147E+00  0.88000000000E+00 0. -1.
        -11    1    4    4    0    0  0.28593188408E-01 -0.13804136721E-01  0.70849917867E-01  0.77640817852E-01  0.51100000000E-03 0.  1.
         11    1    4    4    0    0  0.22492622924E-01  0.63661737654E-02  0.44422010953E-01  0.50199825025E-01  0.51100000000E-03 0. -1.
</event>
<event>
 8    1  0.1150863E+005  0.1043930E+01  0.7957747E-01            NaN
         13   -1    0    0    0    0  0.00000000000E+00  0.00000000000E+00  0.74505805969E-08  0.10566000000E+00  0.10566000000E+00 0.  1.
     999900   -1    0    0    0    0 -0.00000000000E+00 -0.00000000000E+00 -0.74505805969E-08  0.93827000000E+00  0.93827000000E+00 0. -1.
     999902    2    1    2    0    0 -0.15495414111E-01 -0.14204824751E-01 -0.71583251909E-02  0.10217235477E+01  0.10214821983E+01 0.  0.
     999903    2    3    3    0    0 -0.29189028491E-01  0.28058310930E-01  0.12292603675E+00  0.13105209932E+00  0.20605194218E-01 0.  0.
         14    1    1    2    0    0  0.15495414111E-01  0.14204824751E-01  0.71583251909E-02  0.22206452310E-01  0.00000000000E+00 0.  1.
     999901    1    3    3    0    0  0.13693614381E-01 -0.42263135681E-01 -0.13008436194E+00  0.89067144837E+00  0.88000000000E+00 0. -1.
        -11    1    4    4    0    0 -0.19271900365E-02  0.74691838801E-02  0.49077586295E-01  0.49682727047E-01  0.51100000000E-03 0. -1.
         11    1    4    4    0    0 -0.27261838455E-01  0.20589127050E-01  0.73848450458E-01  0.81369372276E-01  0.51100000000E-03 0.  1.
</event>
<event>
 8    1  0.1150863E+005  0.1043930E+01  0.7957747E-01            NaN
         13   -1    0    0    0    0  0.00000000000E+00  0.00000000000E+00  0.74505805969E-08  0.10566000000E+00  0.10566000000E+00 0.  1.
     999900   -1    0    0    0    0 -0.00000000000E+00 -0.00000000000E+00 -0.74505805969E-08  0.93827000000E+00  0.93827000000E+00 0.  1.
     999902    2    1    2    0    0 -0.21420678643E-01 -0.31213788869E-02  0.82551411012E-02  0.10207624400E+01  0.10204994969E+01 0.  0.
     999903    2    3    3    0    0  0.47659662641E-01 -0.11379138587E+00  0.38419876895E-01  0.13063331723E+00  0.19210770094E-01 0.  0.
         14    1    1    2    0    0  0.21420678643E-01  0.31213788869E-02 -0.82551411012E-02  0.23167559955E-01  0.00000000000E+00 0. -1.
     999901    1    3    3    0    0 -0.69080341284E-01  0.11067000699E+00 -0.30164735794E-01  0.89012912282E+00  0.88000000000E+00 0. -1.
        -11    1    4    4    0    0  0.13674470564E-01 -0.47944437485E-01  0.23164952206E-01  0.54977598735E-01  0.51100000000E-03 0.  1.
         11    1    4    4    0    0  0.33985192077E-01 -0.65846948388E-01  0.15254924689E-01  0.75655718494E-01  0.51100000000E-03 0. -1.
</event>
<event>
 8    1  0.1150863E+005  0.1043930E+01  0.7957747E-01            NaN
         13   -1    0    0    0    0  0.00000000000E+00  0.00000000000E+00  0.74505805969E-08  0.10566000000E+00  0.10566000000E+00 0. -1.
     999900   -1    0    0    0    0 -0.00000000000E+00 -0.00000000000E+00 -0.74505805969E-08  0.93827000000E+00  0.93827000000E+00 0.  1.
     999902    2    1    2    0    0  0.22315399652E-01  0.61823629031E-02  0.59380790484E-02  0.10200247818E+01  0.10197446230E+01 0.  0.
     999903    2    3    3    0    0  0.42501150371E-02 -0.56750481212E-01 -0.11427797410E+00  0.12944137933E+00  0.21376031508E-01 0.  0.
         14    1    1    2    0    0 -0.22315399652E-01 -0.61823629031E-02 -0.59380790484E-02  0.23905218165E-01  0.00000000000E+00 0.  1.
     999901    1    3    3    0    0  0.18065284615E-01  0.62932844115E-01  0.12021605315E+00  0.89058340250E+00  0.88000000000E+00 0. -1.
        -11    1    4    4    0    0 -0.52855632728E-02 -0.30813780780E-01 -0.44481907096E-01  0.54372120107E-01  0.51100000000E-03 0.  1.
         11    1    4    4    0    0  0.95356783099E-02 -0.25936700433E-01 -0.69796067007E-01  0.75069259226E-01  0.51100000000E-03 0. -1.
</event>
<event>
 8    1  0.1150863E+005  0.1043930E+01  0.7957747E-01            NaN
         13   -1    0    0    0    0  0.00000000000E+00  0.00000000000E+00  0.74505805969E-08  0.10566000000E+00  0.10566000000E+00 0.  1.
     999900   -1    0    0    0    0 -0.00000000000E+00 -0.00000000000E+00 -0.74505805969E-08  0.93827000000E+00  0.93827000000E+00 0. -1.
     999902    2    1    2    0    0  0.11844469049E-01 -0.16809989127E-01 -0.11307193481E-01  0.10204625799E+01  0.10201927059E+01 0.  0.
     999903    2    3    3    0    0  0.86600989663E-01  0.94943684245E-01 -0.50481482078E-02  0.13022856767E+00  0.20492960964E-01 0.  0.
         14    1    1    2    0    0 -0.11844469049E-01  0.16809989127E-01  0.11307193481E-01  0.23467420096E-01  0.00000000000E+00 0.  1.
     999901    1    3    3    0    0 -0.74756520614E-01 -0.11175367337E+00 -0.62590452736E-02  0.89023401223E+00  0.88000000000E+00 0.  1.
        -11    1    4    4    0    0  0.43228522401E-01  0.38037786765E-01  0.57358879344E-02  0.57868297904E-01  0.51100000000E-03 0. -1.
         11    1    4    4    0    0  0.43372467262E-01  0.56905897480E-01 -0.10784036142E-01  0.72360269768E-01  0.51100000000E-03 0.  1.
</event>
<event>
 8    1  0.1150863E+005  0.1043930E+01  0.7957747E-01            NaN
         13   -1    0    0    0    0  0.00000000000E+00  0.00000000000E+00  0.74505805969E-08  0.10566000000E+00  0.10566000000E+00 0. -1.
     999900   -1    0    0    0    0 -0.00000000000E+00 -0.00000000000E+00 -0.74505805969E-08  0.93827000000E+00  0.93827000000E+00 0. -1.
     999902    2    1    2    0    0 -0.87164407030E-02 -0.22013665629E-01  0.26282865426E-03  0.10202520167E+01  0.10199772207E+01 0.  0.
     999903    2    3    3    0    0 -0.51743116566E-01 -0.11993487473E+00 -0.19190450672E-01  0.13356250619E+00  0.20222397824E-01 0.  0.
         14    1    1    2    0    0  0.87164407030E-02  0.22013665629E-01 -0.26282865426E-03  0.23677983272E-01  0.00000000000E+00 0.  1.
     999901    1    3    3    0    0  0.43026675863E-01  0.97921209099E-01  0.19453279326E-01  0.88668951054E+00  0.88000000000E+00 0. -1.
        -11    1    4    4    0    0 -0.30030926334E-01 -0.81520402517E-01 -0.42802761377E-02  0.86982839962E-01  0.51100000000E-03 0.  1.
         11    1    4    4    0    0 -0.21712190232E-01 -0.38414472211E-01 -0.14910174534E-01  0.46579666224E-01  0.51100000000E-03 0. -1.
</event>
<event>
 8    1  0.1150863E+005  0.1043930E+01  0.7957747E-01            NaN
         13   -1    0    0    0    0  0.00000000000E+00  0.00000000000E+00  0.74505805969E-08  0.10566000000E+00  0.10566000000E+00 0.  1.
     999900   -1    0    0    0    0 -0.00000000000E+00 -0.00000000000E+00 -0.74505805969E-08  0.93827000000E+00  0.93827000000E+00 0.  1.
     999902    2    1    2    0    0  0.16005396060E-01 -0.12570942221E-02 -0.16473994284E-01  0.10209268377E+01  0.10206676552E+01 0.  0.
     999903    2    3    3    0    0  0.33704082151E-01 -0.56145383167E-02 -0.12764724407E+00  0.13374493848E+00  0.20649490452E-01 0.  0.
         14    1    1    2    0    0 -0.16005396060E-01  0.12570942221E-02  0.16473994284E-01  0.23003162318E-01  0.00000000000E+00 0.  1.
     999901    1    3    3    0    0 -0.17698686091E-01  0.43574440945E-02  0.11117324978E+00  0.88718189920E+00  0.88000000000E+00 0. -1.
        -11    1    4    4    0    0  0.33928007171E-02  0.28027704260E-02 -0.46519959885E-01  0.46730444118E-01  0.51100000000E-03 0.  1.
         11    1    4    4    0    0  0.30311281434E-01 -0.84173087427E-02 -0.81127284183E-01  0.87014494359E-01  0.51100000000E-03 0. -1.
</event>
<event>
 8    1  0.1150863E+005  0.1043930E+01  0.7957747E-01            NaN
         13   -1    0    0    0    0  0.00000000000E+00  0.00000000000E+00  0.74505805969E-08  0.10566000000E+00  0.10566000000E+00 0. -1.
     999900   -1    0    0    0    0 -0.00000000000E+00 -0.00000000000E+00 -0.74505805969E-08  0.93827000000E+00  0.93827000000E+00 0. -1.
     999902    2    1    2    0    0  0.55827522287E-02  0.75823504442E-02  0.23017759876E-01  0.10190608136E+01  0.10187573143E+01 0.  0.
     999903    2    3    3    0    0 -0.62606909537E-01  0.81181113405E-01 -0.73793619482E-01  0.12808435432E+00  0.21215684061E-01 0.  0.
         14    1    1    2    0    0 -0.55827522287E-02 -0.75823504442E-02 -0.23017759876E-01  0.24869186364E-01  0.00000000000E+00 0.  1.
     999901    1    3    3    0    0  0.68189661766E-01 -0.73598762961E-01  0.96811379357E-01  0.89097645932E+00  0.88000000000E+00 0.  1.
        -11    1    4    4    0    0 -0.35313485405E-01  0.29764428200E-01 -0.37399138867E-01  0.59429960008E-01  0.51100000000E-03 0.  1.
         11    1    4    4    0    0 -0.27293424132E-01  0.51416685205E-01 -0.36394480614E-01  0.68654394313E-01  0.51100000000E-03 0. -1.
</event>
<event>
 8    1  0.1150863E+005  0.1043930E+01  0.7957747E-01            NaN
         13   -1    0    0    0    0  0.00000000000E+00  0.00000000000E+00  0.74505805969E-08  0.10566000000E+00  0.10566000000E+00 0.  1.
     999900   -1    0    0    0    0 -0.00000000000E+00 -0.00000000000E+00 -0.74505805969E-08  0.93827000000E+00  0.93827000000E+00 0. -1.
     999902    2    1    2    0    0  0.12099223415E-02 -0.19079747934E-01 -0.20347637159E-01  0.10160099887E+01  0.10156262945E+01 0.  0.
     999903    2    3    3    0    0 -0.74480062606E-01 -0.64203343050E-01  0.76973646307E-01  0.12627039484E+00  0.18706186218E-01 0.  0.
         14    1    1    2    0    0 -0.12099223415E-02  0.19079747934E-01  0.20347637159E-01  0.27920011305E-01  0.00000000000E+00 0.  1.
     999901    1    3    3    0    0  0.75689984948E-01  0.45123595116E-01 -0.97321283466E-01  0.88973959385E+00  0.88000000000E+00 0. -1.
        -11    1    4    4    0    0 -0.56862340926E-01 -0.48708027070E-01  0.47806831594E-01  0.88834407662E-01  0.51100000000E-03 0.  1.
         11    1    4    4    0    0 -0.17617721680E-01 -0.15495315980E-01  0.29166814713E-01  0.37435987178E-01  0.51100000000E-03 0. -1.
</event>
<event>
 8    1  0.1150863E+005  0.1043930E+01  0.7957747E-01            NaN
         13   -1    0    0    0    0  0.00000000000E+00  0.00000000000E+00  0.74505805969E-08  0.10566000000E+00  0.10566000000E+00 0. -1.
     999900   -1    0    0    0    0 -0.00000000000E+00 -0.00000000000E+00 -0.74505805969E-08  0.93827000000E+00  0.93827000000E+00 0.  1.
     999902    2    1    2    0    0  0.13710088250E-01 -0.75940331966E-02  0.17171759413E-01  0.10206812327E+01  0.10204164217E+01 0.  0.
     999903    2    3    3    0    0  0.81441970245E-01 -0.62101739726E-01  0.83871091681E-01  0.13388503354E+00  0.20035508258E-01 0.  0.
         14    1    1    2    0    0 -0.13710088250E-01  0.75940331966E-02 -0.17171759413E-01  0.23248767308E-01  0.00000000000E+00 0.  1.
     999901    1    3    3    0    0 -0.67731881996E-01  0.54507706530E-01 -0.66699332268E-01  0.88679619915E+00  0.88000000000E+00 0.  1.
        -11    1    4    4    0    0  0.63226365293E-01 -0.49113749692E-01  0.54039861739E-01  0.96593485571E-01  0.51100000000E-03 0. -1.
         11    1    4    4    0    0  0.18215604952E-01 -0.12987990035E-01  0.29831229942E-01  0.37291547967E-01  0.51100000000E-03 0.  1.
</event>
<event>
 8    1  0.1150863E+005  0.1043930E+01  0.7957747E-01            NaN
         13   -1    0    0    0    0  0.00000000000E+00  0.00000000000E+00  0.74505805969E-08  0.10566000000E+00  0.10566000000E+00 0. -1.
     999900   -1    0    0    0    0 -0.00000000000E+00 -0.00000000000E+00 -0.74505805969E-08  0.93827000000E+00  0.93827000000E+00 0. -1.
     999902    2    1    2    0    0 -0.20683438012E-01  0.10939060546E-01 -0.19733365019E-03  0.10205311412E+01  0.10202628600E+01 0.  0.
     999903    2    3    3    0    0  0.83076363337E-01  0.77764205190E-01 -0.57680229644E-01  0.13006161353E+00  0.25299420326E-01 0.  0.
         14    1    1    2    0    0  0.20683438012E-01 -0.10939060546E-01  0.19733365019E-03  0.23398858822E-01  0.00000000000E+00 0.  1.
     999901    1    3    3    0    0 -0.10375980135E+00 -0.66825144644E-01  0.57482895994E-01  0.89046952765E+00  0.88000000000E+00 0.  1.
        -11    1    4    4    0    0  0.29673860542E-01  0.14365067156E-01 -0.10109890634E-01  0.34487159400E-01  0.51100000000E-03 0. -1.
         11    1    4    4    0    0  0.53402502795E-01  0.63399138034E-01 -0.47570339010E-01  0.95574454133E-01  0.51100000000E-03 0.  1.
</event>
<event>
 8    1  0.1150863E+005  0.1043930E+01  0.7957747E-01            NaN
         13   -1    0    0    0    0  0.00000000000E+00  0.00000000000E+00  0.74505805969E-08  0.10566000000E+00  0.10566000000E+00 0.  1.
     999900   -1    0    0    0    0 -0.00000000000E+00 -0.00000000000E+00 -0.74505805969E-08  0.93827000000E+00  0.93827000000E+00 0. -1.
     999902    2    1    2    0    0 -0.25570580089E-02 -0.19326906565E-01  0.15470207965E-01  0.10190423485E+01  0.10187383927E+01 0.  0.
     999903    2    3    3    0    0 -0.60499972401E-01  0.98024029474E-01  0.53399954168E-01  0.12855524069E+00  0.20147897876E-01 0.  0.
         14    1    1    2    0    0  0.25570580089E-02  0.19326906565E-01 -0.15470207965E-01  0.24887651507E-01  0.00000000000E+00 0.  1.
     999901    1    3    3    0    0  0.57942914392E-01 -0.11735093604E+00 -0.37929746203E-01  0.89048710780E+00  0.88000000000E+00 0. -1.
        -11    1    4    4    0    0 -0.25575508284E-01  0.36358052099E-01  0.31117953883E-01  0.54264194007E-01  0.51100000000E-03 0.  1.
         11    1    4    4    0    0 -0.34924464117E-01  0.61665977375E-01  0.22282000285E-01  0.74291046682E-01  0.51100000000E-03 0. -1.
</event>
<event>
 8    1  0.1150863E+005  0.1043930E+01  0.7957747E-01            NaN
         13   -1    0    0    0    0  0.00000000000E+00  0.00000000000E+00  0.74505805969E-08  0.10566000000E+00  0.10566000000E+00 0.  1.
     999900   -1    0    0    0    0 -0.00000000000E+00 -0.00000000000E+00 -0.74505805969E-08  0.93827000000E+00  0.93827000000E+00 0. -1.
     999902    2    1    2    0    0  0.12831412633E-01 -0.47219574991E-02 -0.19686720065E-01  0.10199610831E+01  0.10196794114E+01 0.  0.
     999903    2    3    3    0    0  0.10712421074E+00 -0.29943363232E-01  0.65046649196E-01  0.13051912601E+00  0.20783987925E-01 0.  0.
         14    1    1    2    0    0 -0.12831412633E-01  0.47219574991E-02  0.19686720065E-01  0.23968916949E-01  0.00000000000E+00 0.  1.
     999901    1    3    3    0    0 -0.94292798106E-01  0.25221405733E-01 -0.84733369262E-01  0.88944195704E+00  0.88000000000E+00 0. -1.
        -11    1    4    4    0    0  0.35141478017E-01 -0.47608416287E-04  0.22269904813E-01  0.41606916794E-01  0.51100000000E-03 0. -1.
         11    1    4    4    0    0  0.71982732722E-01 -0.29895754815E-01  0.42776744384E-01  0.88912209214E-01  0.51100000000E-03 0.  1.
</event>
<event>
 7    1  0.1150863E+005  0.1043930E+01  0.7957747E-01            NaN
         13   -1    0    0    0    0  0.00000000000E+00  0.00000000000E+00  0.74505805969E-08  0.10566000000E+00  0.10566000000E+00 0.  1.
     999900   -1    0    0    0    0 -0.00000000000E+00 -0.00000000000E+00 -0.74505805969E-08  0.93827000000E+00  0.93827000000E+00 0. -1.
     999903    2    1    2    0    0 -0.45645978891E-01 -0.49716957342E-01  0.68121085513E-01  0.98747414691E-01  0.23563496778E-01 0.  0.
         14    1    1    2    0    0  0.49504826208E-01 -0.79381440678E-02 -0.37758392235E-01  0.62764943506E-01  0.00000000000E+00 0. -1.
     999901    1    1    2    0    0 -0.38588473173E-02  0.57655101410E-01 -0.30362693278E-01  0.88241764180E+00  0.88000000000E+00 0. -1.
        -11    1    3    3    0    0 -0.22899500246E-01 -0.11570539353E-01  0.15884719941E-01  0.30180290606E-01  0.51100000000E-03 0. -1.
         11    1    3    3    0    0 -0.22746478645E-01 -0.38146417989E-01  0.52236365572E-01  0.68567124085E-01  0.51100000000E-03 0.  1.
</event>
<event>
 8    1  0.1150863E+005  0.1043930E+01  0.7957747E-01            NaN
         13   -1    0    0    0    0  0.00000000000E+00  0.00000000000E+00  0.74505805969E-08  0.10566000000E+00  0.10566000000E+00 0. -1.
     999900   -1    0    0    0    0 -0.00000000000E+00 -0.00000000000E+00 -0.74505805969E-08  0.93827000000E+00  0.93827000000E+00 0.  1.
     999902    2    1    2    0    0 -0.94995250766E-02  0.11574027898E-02  0.25139927604E-01  0.10170302506E+01  0.10166744484E+01 0.  0.
     999903    2    3    3    0    0 -0.16635805125E-01 -0.12293886811E+00  0.21796113166E-01  0.12828844780E+00  0.24333926652E-01 0.  0.
         14    1    1    2    0    0  0.94995250766E-02 -0.11574027898E-02 -0.25139927604E-01  0.26899749401E-01  0.00000000000E+00 0.  1.
     999901    1    3    3    0    0  0.71362800482E-02  0.12409627090E+00  0.33438144374E-02  0.88874180280E+00  0.88000000000E+00 0.  1.
        -11    1    4    4    0    0 -0.20012091643E-01 -0.85188005764E-01  0.22582194921E-01  0.90375310713E-01  0.51100000000E-03 0. -1.
         11    1    4    4    0    0  0.33762865183E-02 -0.37750862345E-01 -0.78608175471E-03  0.37913137089E-01  0.51100000000E-03 0.  1.
</event>
<event>
 8    1  0.1150863E+005  0.1043930E+01  0.7957747E-01            NaN
         13   -1    0    0    0    0  0.00000000000E+00  0.00000000000E+00  0.74505805969E-08  0.10566000000E+00  0.10566000000E+00 0. -1.
     999900   -1    0    0    0    0 -0.00000000000E+00 -0.00000000000E+00 -0.74505805969E-08  0.93827000000E+00  0.93827000000E+00 0.  1.
     999902    2    1    2    0    0 -0.20525120944E-01 -0.53179717178E-02 -0.11071874848E-01  0.10200103883E+01  0.10197298879E+01 0.  0.
     999903    2    3    3    0    0 -0.11154053492E+00  0.67706579863E-01 -0.10750647943E-01  0.13230745715E+00  0.19084415124E-01 0.  0.
         14    1    1    2    0    0  0.20525120944E-01  0.53179717178E-02  0.11071874848E-01  0.23919611736E-01  0.00000000000E+00 0. -1.
     999901    1    3    3    0    0  0.91015413975E-01 -0.73024551581E-01 -0.32122690527E-03  0.88770293111E+00  0.88000000000E+00 0.  1.
        -11    1    4    4    0    0 -0.63018006218E-01  0.42820709445E-01  0.23265703025E-02  0.76227005158E-01  0.51100000000E-03 0.  1.
         11    1    4    4    0    0 -0.48522528701E-01  0.24885870418E-01 -0.13077218245E-01  0.56080451995E-01  0.51100000000E-03 0. -1.
</event>
<event>
 8    1  0.1150863E+005  0.1043930E+01  0.7957747E-01            NaN
         13   -1    0    0    0    0  0.00000000000E+00  0.00000000000E+00  0.74505805969E-08  0.10566000000E+00  0.10566000000E+00 0. -1.
     999900   -1    0    0    0    0 -0.00000000000E+00 -0.00000000000E+00 -0.74505805969E-08  0.93827000000E+00  0.93827000000E+00 0.  1.
     999902    2    1    2    0    0  0.66958229184E-02  0.18709691103E-01 -0.13205350505E-01  0.10200706650E+01  0.10197915933E+01 0.  0.
     999903    2    3    3    0    0  0.34110031928E-01  0.51713334787E-01 -0.11607943323E+00  0.13303974317E+00  0.19681848728E-01 0.  0.
         14    1    1    2    0    0 -0.66958229184E-02 -0.18709691103E-01  0.13205350505E-01  0.23859335022E-01  0.00000000000E+00 0. -1.
     999901    1    3    3    0    0 -0.27414209010E-01 -0.33003643684E-01  0.10287408273E+00  0.88703092181E+00  0.88000000000E+00 0. -1.
        -11    1    4    4    0    0  0.63570999601E-02  0.16413926817E-02 -0.21463388576E-01  0.22450947864E-01  0.51100000000E-03 0. -1.
         11    1    4    4    0    0  0.27752931968E-01  0.50071942105E-01 -0.94616044657E-01  0.11058879530E+00  0.51100000000E-03 0.  1.
</event>
<event>
 8    1  0.1150863E+005  0.1043930E+01  0.7957747E-01            NaN
         13   -1    0    0    0    0  0.00000000000E+00  0.00000000000E+00  0.74505805969E-08  0.10566000000E+00  0.10566000000E+00 0.  1.
     999900   -1    0    0    0    0 -0.00000000000E+00 -0.00000000000E+00 -0.74505805969E-08  0.93827000000E+00  0.93827000000E+00 0.  1.
     999902    2    1    2    0    0 -0.25947147065E-02  0.23342453767E-01 -0.91039771974E-03  0.10204261383E+01  0.10201554157E+01 0.  0.
     999903    2    3    3    0    0 -0.54314419903E-01 -0.73986768182E-01  0.88645673770E-01  0.12904059021E+00  0.19217709740E-01 0.  0.
         14    1    1    2    0    0  0.25947147065E-02 -0.23342453767E-01  0.91039771974E-03  0.23503861731E-01  0.00000000000E+00 0.  1.
     999901    1    3    3    0    0  0.51719705196E-01  0.97329221949E-01 -0.89556071490E-01  0.89138554806E+00  0.88000000000E+00 0.  1.
        -11    1    4    4    0    0 -0.44998671561E-01 -0.60421459737E-01  0.81807153742E-01  0.11121288038E+00  0.51100000000E-03 0.  1.
         11    1    4    4    0    0 -0.93157483418E-02 -0.13565308445E-01  0.68385200280E-02  0.17827709824E-01  0.51100000000E-03 0. -1.
</event>
<event>
 8    1  0.1150863E+005  0.1043930E+01  0.7957747E-01            NaN
         13   -1    0    0    0    0  0.00000000000E+00  0.00000000000E+00  0.74505805969E-08  0.10566000000E+00  0.10566000000E+00 0.  1.
     999900   -1    0    0    0    0 -0.00000000000E+00 -0.00000000000E+00 -0.74505805969E-08  0.93827000000E+00  0.93827000000E+00 0. -1.
     999902    2    1    2    0    0 -0.21338217634E-01  0.86120362584E-02 -0.57506755975E-02  0.10202117165E+01  0.10199359733E+01 0.  0.
     999903    2    3    3    0    0  0.35343082120E-01 -0.12131354935E+00  0.14047601850E-01  0.12864825872E+00  0.19670501903E-01 0.  0.
         14    1    1    2    0    0  0.21338217634E-01 -0.86120362584E-02  0.57506755975E-02  0.23718283456E-01  0.00000000000E+00 0. -1.
     999901    1    3    3    0    0 -0.56681299754E-01  0.12992558561E+00 -0.19798277447E-01  0.89156345782E+00  0.88000000000E+00 0.  1.
        -11    1    4    4    0    0 -0.63989469377E-03 -0.18252138955E-01 -0.17222150313E-02  0.18351490056E-01  0.51100000000E-03 0.  1.
         11    1    4    4    0    0  0.35982976814E-01 -0.10306141039E+00  0.15769816881E-01  0.11029676866E+00  0.51100000000E-03 0. -1.
</event>
<event>
 8    1  0.1150863E+005  0.1043930E+01  0.7957747E-01            NaN
         13   -1    0    0    0    0  0.00000000000E+00  0.00000000000E+00  0.74505805969E-08  0.10566000000E+00  0.10566000000E+00 0. -1.
     999900   -1    0    0    0    0 -0.00000000000E+00 -0.00000000000E+00 -0.74505805969E-08  0.93827000000E+00  0.93827000000E+00 0. -1.
     999902    2    1    2    0    0 -0.10359112414E-01  0.21139048778E-01  0.11079420365E-01  0.10179122340E+01  0.10175796735E+01 0.  0.
     999903    2    3    3    0    0 -0.52873388959E-01 -0.48185652629E-01  0.10558447441E+00  0.12912396719E+00  0.20185769409E-01 0.  0.
         14    1    1    2    0    0  0.10359112414E-01 -0.21139048778E-01 -0.11079420365E-01  0.26017766024E-01  0.00000000000E+00 0.  1.
     999901    1    3    3    0    0  0.42514276545E-01  0.69324701407E-01 -0.94505054048E-01  0.88878826679E+00  0.88000000000E+00 0. -1.
        -11    1    4    4    0    0 -0.41271288610E-01 -0.25600403806E-01  0.63102100408E-01  0.79629367293E-01  0.51100000000E-03 0. -1.
         11    1    4    4    0    0 -0.11602100349E-01 -0.22585248823E-01  0.42482374005E-01  0.49494599898E-01  0.51100000000E-03 0.  1.
</event>
<event>
 8    1  0.1150863E+005  0.1043930E+01  0.7957747E-01            NaN
         13   -1    0    0    0    0  0.00000000000E+00  0.00000000000E+00  0.74505805969E-08  0.10566000000E+00  0.10566000000E+00 0. -1.
     999900   -1    0    0    0    0 -0.00000000000E+00 -0.00000000000E+00 -0.74505805969E-08  0.93827000000E+00  0.93827000000E+00 0.  1.
     999902    2    1    2    0    0  0.16622158748E-01  0.14303394498E-01  0.79421770676E-02  0.10206070192E+01  0.10203404953E+01 0.  0.
     999903    2    3    3    0    0  0.83282870742E-01 -0.93288537364E-01 -0.32464743988E-01  0.13063376480E+00  0.19298526913E-01 0.  0.
         14    1    1    2    0    0 -0.16622158748E-01 -0.14303394498E-01 -0.79421770676E-02  0.23322980773E-01  0.00000000000E+00 0.  1.
     999901    1    3    3    0    0 -0.66660711994E-01  0.10759193186E+00  0.40406921056E-01  0.88997325443E+00  0.88000000000E+00 0.  1.
        -11    1    4    4    0    0  0.79481225084E-01 -0.92211695878E-01 -0.28537924790E-01  0.12503973876E+00  0.51100000000E-03 0.  1.
         11    1    4    4    0    0  0.38016456576E-02 -0.10768414868E-02 -0.39268191977E-02  0.55940260372E-02  0.51100000000E-03 0. -1.
</event>
<event>
 8    1  0.1150863E+005  0.1043930E+01  0.7957747E-01            NaN
         13   -1    0    0    0    0  0.00000000000E+00  0.00000000000E+00  0.74505805969E-08  0.10566000000E+00  0.10566000000E+00 0. -1.
     999900   -1    0    0    0    0 -0.00000000000E+00 -0.00000000000E+00 -0.74505805969E-08  0.93827000000E+00  0.93827000000E+00 0.  1.
     999902    2    1    2    0    0 -0.18966731764E-01  0.38881303579E-02 -0.13082910982E-01  0.10205629927E+01  0.10202954499E+01 0.  0.
     999903    2    3    3    0    0 -0.92354762441E-01  0.76934222794E-01  0.50916414304E-01  0.13218387974E+00  0.20780279952E-01 0.  0.
         14    1    1    2    0    0  0.18966731764E-01 -0.38881303579E-02  0.13082910982E-01  0.23367007323E-01  0.00000000000E+00 0.  1.
     999901    1    3    3    0    0  0.73388030678E-01 -0.73046092436E-01 -0.63999325286E-01  0.88837911294E+00  0.88000000000E+00 0. -1.
        -11    1    4    4    0    0 -0.44170802766E-01  0.32633996112E-01  0.12634717805E-01  0.56355432163E-01  0.51100000000E-03 0. -1.
         11    1    4    4    0    0 -0.48183959675E-01  0.44300226682E-01  0.38281696499E-01  0.75828447576E-01  0.51100000000E-03 0.  1.
</event>
<event>
 8    1  0.1244364E+005  0.1043930E+01  0.7957747E-01            NaN
         13   -1    0    0    0    0  0.00000000000E+00  0.00000000000E+00  0.74505805969E-08  0.10566000000E+00  0.10566000000E+00 0.  1.
     999900   -1    0    0    0    0 -0.00000000000E+00 -0.00000000000E+00 -0.74505805969E-08  0.93827000000E+00  0.93827000000E+00 0.  1.
     999902    2    1    2    0    0  0.19940371517E-01 -0.12595279076E-01 -0.48526642668E-03  0.10203398547E+01  0.10200671175E+01 0.  0.
     999903    2    3    3    0    0  0.10881148031E+00 -0.73304172005E-01 -0.15048305784E-01  0.13366306705E+00  0.20637928825E-01 0.  0.
         14    1    1    2    0    0 -0.19940371517E-01  0.12595279076E-01  0.48526642668E-03  0.23590145289E-01  0.00000000000E+00 0.  1.
     999901    1    3    3    0    0 -0.88871108793E-01  0.60708892929E-01  0.14563039357E-01  0.88667678766E+00  0.88000000000E+00 0.  1.
        -11    1    4    4    0    0  0.48726281683E-01 -0.20855619443E-01 -0.41983323876E-02  0.53170428857E-01  0.51100000000E-03 0. -1.
         11    1    4    4    0    0  0.60085198627E-01 -0.52448552562E-01 -0.10849973396E-01  0.80492638195E-01  0.51100000000E-03 0.  1.
</event>
<event>
 8    1  0.1150863E+005  0.1043930E+01  0.7957747E-01            NaN
         13   -1    0    0    0    0  0.00000000000E+00  0.00000000000E+00  0.74505805969E-08  0.10566000000E+00  0.10566000000E+00 0.  1.
     999900   -1    0    0    0    0 -0.00000000000E+00 -0.00000000000E+00 -0.74505805969E-08  0.93827000000E+00  0.93827000000E+00 0. -1.
     999902    2    1    2    0    0 -0.14063233904E-01 -0.61909368752E-02 -0.18040263204E-01  0.10202328832E+01  0.10199576377E+01 0.  0.
     999903    2    3    3    0    0  0.87476070756E-01 -0.59404141639E-02 -0.95584152825E-01  0.13100661957E+00  0.18413381646E-01 0.  0.
         14    1    1    2    0    0  0.14063233904E-01  0.61909368752E-02  0.18040263204E-01  0.23697116780E-01  0.00000000000E+00 0.  1.
     999901    1    3    3    0    0 -0.10153930466E+00 -0.25052271130E-03  0.77543889621E-01  0.88922626365E+00  0.88000000000E+00 0. -1.
        -11    1    4    4    0    0  0.30159885934E-01 -0.89216351126E-02 -0.26035604498E-01  0.40832929300E-01  0.51100000000E-03 0.  1.
         11    1    4    4    0    0  0.57316184822E-01  0.29812209487E-02 -0.69548548327E-01  0.90173690267E-01  0.51100000000E-03 0. -1.
</event>
<event>
 8    1  0.1150863E+005  0.1043930E+01  0.7957747E-01            NaN
         13   -1    0    0    0    0  0.00000000000E+00  0.00000000000E+00  0.74505805969E-08  0.10566000000E+00  0.10566000000E+00 0. -1.
     999900   -1    0    0    0    0 -0.00000000000E+00 -0.00000000000E+00 -0.74505805969E-08  0.93827000000E+00  0.93827000000E+00 0.  1.
     999902    2    1    2    0    0 -0.62694154638E-02 -0.20089788913E-01  0.90411577551E-02  0.10210248101E+01  0.10207678557E+01 0.  0.
     999903    2    3    3    0    0  0.44873998267E-02  0.79483618660E-01  0.10108186887E+00  0.13057432580E+00  0.22233487120E-01 0.  0.
         14    1    1    2    0    0  0.62694154638E-02  0.20089788913E-01 -0.90411577551E-02  0.22905189857E-01  0.00000000000E+00 0.  1.
     999901    1    3    3    0    0 -0.10756815290E-01 -0.99573407573E-01 -0.92040711118E-01  0.89045048435E+00  0.88000000000E+00 0.  1.
        -11    1    4    4    0    0  0.79990797485E-02  0.71343892091E-01  0.78863726478E-01  0.10664747859E+00  0.51100000000E-03 0.  1.
         11    1    4    4    0    0 -0.35116799218E-02  0.81397265693E-02  0.22218142396E-01  0.23926847202E-01  0.51100000000E-03 0. -1.
</event>
<event>
 8    1  0.1150863E+005  0.1043930E+01  0.7957747E-01            NaN
         13   -1    0    0    0    0  0.00000000000E+00  0.00000000000E+00  0.74505805969E-08  0.10566000000E+00  0.10566000000E+00 0. -1.
     999900   -1    0    0    0    0 -0.00000000000E+00 -0.00000000000E+00 -0.74505805969E-08  0.93827000000E+00  0.93827000000E+00 0. -1.
     999902    2    1    2    0    0 -0.20846703544E-01 -0.64928804384E-02 -0.93012178223E-02  0.10201970019E+01  0.10199209124E+01 0.  0.
     999903    2    3    3    0    0 -0.29973556215E-01 -0.11777744933E+00  0.42393703307E-01  0.13163641333E+00  0.27585822303E-01 0.  0.
         14    1    1    2    0    0  0.20846703544E-01  0.64928804384E-02  0.93012178223E-02  0.23732998084E-01  0.00000000000E+00 0. -1.
     999901    1    3    3    0    0  0.91268526703E-02  0.11128456889E+00 -0.51694921130E-01  0.88856058858E+00  0.88000000000E+00 0.  1.
        -11    1    4    4    0    0  0.22079734118E-02 -0.30084682403E-01  0.32166005741E-02  0.30340911360E-01  0.51100000000E-03 0.  1.
         11    1    4    4    0    0 -0.32181529627E-01 -0.87692766927E-01  0.39177102733E-01  0.10129550197E+00  0.51100000000E-03 0. -1.
</event>
<event>
 8    1  0.1150863E+005  0.1043930E+01  0.7957747E-01            NaN
         13   -1    0    0    0    0  0.00000000000E+00  0.00000000000E+00  0.74505805969E-08  0.10566000000E+00  0.10566000000E+00 0.  1.
     999900   -1    0    0    0    0 -0.00000000000E+00 -0.00000000000E+00 -0.74505805969E-08  0.93827000000E+00  0.93827000000E+00 0.  1.
     999902    2    1    2    0    0 -0.14046826392E-01  0.17092289610E-01  0.96800966803E-02  0.10197812119E+01  0.10194952458E+01 0.  0.
     999903    2    3    3    0    0 -0.64905809759E-01 -0.90376573893E-01 -0.61841112339E-01  0.12891002246E+00  0.20317024020E-01 0.  0.
         14    1    1    2    0    0  0.14046826392E-01 -0.17092289610E-01 -0.96800966803E-02  0.24148788117E-01  0.00000000000E+00 0. -1.
     999901    1    3    3    0    0  0.50858983367E-01  0.10746886350E+00  0.71521209020E-01  0.89087118943E+00  0.88000000000E+00 0. -1.
        -11    1    4    4    0    0 -0.48955572681E-01 -0.63134204205E-01 -0.34040602163E-01  0.86842383395E-01  0.51100000000E-03 0.  1.
         11    1    4    4    0    0 -0.15950237078E-01 -0.27242369688E-01 -0.27800510176E-01  0.42067639061E-01  0.51100000000E-03 0. -1.
</event>
<event>
 7    1  0.1150863E+005  0.1043930E+01  0.7957747E-01            NaN
         13   -1    0    0    0    0  0.00000000000E+00  0.00000000000E+00  0.74505805969E-08  0.10566000000E+00  0.10566000000E+00 0.  1.
     999900   -1    0    0    0    0 -0.00000000000E+00 -0.00000000000E+00 -0.74505805969E-08  0.93827000000E+00  0.93827000000E+00 0. -1.
     999903    2    1    2    0    0 -0.56376611469E-01 -0.20078361716E-01  0.93944230943E-01  0.11327073487E+00  0.20573719167E-01 0.  0.
         14    1    1    2    0    0 -0.10501937881E-01  0.17096294409E-01 -0.42050674052E-01  0.46592200743E-01  0.00000000000E+00 0. -1.
     999901    1    1    2    0    0  0.66878549350E-01  0.29820673060E-02 -0.51893556891E-01  0.88406706439E+00  0.88000000000E+00 0. -1.
        -11    1    3    3    0    0 -0.14202980693E-01 -0.95569118211E-02  0.43095956804E-01  0.46374366174E-01  0.51100000000E-03 0. -1.
         11    1    3    3    0    0 -0.42173630777E-01 -0.10521449894E-01  0.50848274139E-01  0.66896368696E-01  0.51100000000E-03 0.  1.
</event>
<event>
 8    1  0.1150863E+005  0.1043930E+01  0.7957747E-01            NaN
         13   -1    0    0    0    0  0.00000000000E+00  0.00000000000E+00  0.74505805969E-08  0.10566000000E+00  0.10566000000E+00 0. -1.
     999900   -1    0    0    0    0 -0.00000000000E+00 -0.00000000000E+00 -0.74505805969E-08  0.93827000000E+00  0.93827000000E+00 0.  1.
     999902    2    1    2    0    0  0.30455723664E-02 -0.16834417063E-01  0.16464798280E-01  0.10201863126E+01  0.10199099714E+01 0.  0.
     999903    2    3    3    0    0  0.33913685815E-01  0.11415775403E+00 -0.42417167751E-01  0.12800983049E+00  0.20128827346E-01 0.  0.
         14    1    1    2    0    0 -0.30455723664E-02  0.16834417063E-01 -0.16464798280E-01  0.23743687399E-01  0.00000000000E+00 0.  1.
     999901    1    3    3    0    0 -0.30868113448E-01 -0.13099217109E+00  0.58881966031E-01  0.89217648212E+00  0.88000000000E+00 0. -1.
        -11    1    4    4    0    0  0.18216783940E-01  0.81182296796E-01 -0.21563879578E-01  0.85951605882E-01  0.51100000000E-03 0.  1.
         11    1    4    4    0    0  0.15696901874E-01  0.32975457234E-01 -0.20853288172E-01  0.42058224604E-01  0.51100000000E-03 0. -1.
</event>
<event>
 8    1  0.1150863E+005  0.1043930E+01  0.7957747E-01            NaN
         13   -1    0    0    0    0  0.00000000000E+00  0.00000000000E+00  0.74505805969E-08  0.10566000000E+00  0.10566000000E+00 0. -1.
     999900   -1    0    0    0    0 -0.00000000000E+00 -0.00000000000E+00 -0.74505805969E-08  0.93827000000E+00  0.93827000000E+00 0.  1.
     999902    2    1    2    0    0  0.18144925057E-01 -0.10461748296E-01  0.11041457969E-01  0.10202530011E+01  0.10199782282E+01 0.  0.
     999903    2    3    3    0    0 -0.24535888102E-01  0.11363964108E+00 -0.51024484498E-01  0.12835895590E+00  0.18882418067E-01 0.  0.
         14    1    1    2    0    0 -0.18144925057E-01  0.10461748296E-01 -0.11041457969E-01  0.23676998898E-01  0.00000000000E+00 0.  1.
     999901    1    3    3    0    0  0.42680813158E-01 -0.12410138937E+00  0.62065942467E-01  0.89189404520E+00  0.88000000000E+00 0. -1.
        -11    1    4    4    0    0 -0.67495693106E-02  0.64719488352E-01 -0.35026041353E-01  0.73900294669E-01  0.51100000000E-03 0.  1.
         11    1    4    4    0    0 -0.17786318791E-01  0.48920152725E-01 -0.15998443145E-01  0.54458661229E-01  0.51100000000E-03 0. -1.
</event>
<event>
 8    1  0.1369091E+005  0.1043930E+01  0.7957747E-01            NaN
         13   -1    0    0    0    0  0.00000000000E+00  0.00000000000E+00  0.74505805969E-08  0.10566000000E+00  0.10566000000E+00 0. -1.
     999900   -1    0    0    0    0 -0.00000000000E+00 -0.00000000000E+00 -0.74505805969E-08  0.93827000000E+00  0.93827000000E+00 0.  1.
     999902    2    1    2    0    0 -0.20228813043E-01  0.37986491783E-02  0.11315666490E-01  0.10204421538E+01  0.10201718043E+01 0.  0.
     999903    2    3    3    0    0  0.96544249103E-02 -0.51273214395E-01  0.11890717873E+00  0.13167792655E+00  0.21863411244E-01 0.  0.
         14    1    1    2    0    0  0.20228813043E-01 -0.37986491783E-02 -0.11315666490E-01  0.23487846237E-01  0.00000000000E+00 0.  1.
     999901    1    3    3    0    0 -0.29883237954E-01  0.55071863573E-01 -0.10759151224E+00  0.88876422721E+00  0.88000000000E+00 0.  1.
        -11    1    4    4    0    0  0.14871381460E-01 -0.26824950955E-01  0.53744081203E-01  0.61882334843E-01  0.51100000000E-03 0.  1.
         11    1    4    4    0    0 -0.52169565494E-02 -0.24448263440E-01  0.65163097531E-01  0.69795591706E-01  0.51100000000E-03 0. -1.
</event>
<event>
 8    1  0.1150863E+005  0.1043930E+01  0.7957747E-01            NaN
         13   -1    0    0    0    0  0.00000000000E+00  0.00000000000E+00  0.74505805969E-08  0.10566000000E+00  0.10566000000E+00 0. -1.
     999900   -1    0    0    0    0 -0.00000000000E+00 -0.00000000000E+00 -0.74505805969E-08  0.93827000000E+00  0.93827000000E+00 0. -1.
     999902    2    1    2    0    0 -0.19807706469E-01  0.27441161658E-02  0.13148790861E-01  0.10199974675E+01  0.10197166605E+01 0.  0.
     999903    2    3    3    0    0 -0.12907001981E-01 -0.21335465330E-01 -0.12485261419E+00  0.12889038432E+00  0.20068959080E-01 0.  0.
         14    1    1    2    0    0  0.19807706469E-01 -0.27441161658E-02 -0.13148790861E-01  0.23932532465E-01  0.00000000000E+00 0.  1.
     999901    1    3    3    0    0 -0.69007044883E-02  0.24079581495E-01  0.13800140505E+00  0.89110708322E+00  0.88000000000E+00 0.  1.
        -11    1    4    4    0    0 -0.33141327112E-02 -0.17067205230E-01 -0.43296975173E-01  0.46660070190E-01  0.51100000000E-03 0. -1.
         11    1    4    4    0    0 -0.95928692696E-02 -0.42682600996E-02 -0.81555639015E-01  0.82230314126E-01  0.51100000000E-03 0.  1.
</event>
<event>
 8    1  0.1150863E+005  0.1043930E+01  0.7957747E-01            NaN
         13   -1    0    0    0    0  0.00000000000E+00  0.00000000000E+00  0.74505805969E-08  0.10566000000E+00  0.10566000000E+00 0. -1.
     999900   -1    0    0    0    0 -0.00000000000E+00 -0.00000000000E+00 -0.74505805969E-08  0.93827000000E+00  0.93827000000E+00 0.  1.
     999902    2    1    2    0    0 -0.18957338465E-01  0.12440092561E-01 -0.66723847532E-02  0.10202940675E+01  0.10200202581E+01 0.  0.
     999903    2    3    3    0    0  0.75728390572E-01  0.42555729754E-01  0.93345592615E-01  0.12907247070E+00  0.20013089690E-01 0.  0.
         14    1    1    2    0    0  0.18957338465E-01 -0.12440092561E-01  0.66723847532E-02  0.23635932453E-01  0.00000000000E+00 0. -1.
     999901    1    3    3    0    0 -0.94685729037E-01 -0.30115637193E-01 -0.10001797737E+00  0.89122159685E+00  0.88000000000E+00 0.  1.
        -11    1    4    4    0    0  0.72712118866E-01  0.34436668993E-01  0.84811429038E-01  0.11690242092E+00  0.51100000000E-03 0. -1.
         11    1    4    4    0    0  0.30162717057E-02  0.81190607611E-02  0.85341635769E-02  0.12170049778E-01  0.51100000000E-03 0.  1.
</event>
<event>
 7    1  0.1150863E+005  0.1043930E+01  0.7957747E-01            NaN
         13   -1    0    0    0    0  0.00000000000E+00  0.00000000000E+00  0.74505805969E-08  0.10566000000E+00  0.10566000000E+00 0. -1.
     999900   -1    0    0    0    0 -0.00000000000E+00 -0.00000000000E+00 -0.74505805969E-08  0.93827000000E+00  0.93827000000E+00 0.  1.
     999902    2    1    2    0    0 -0.10253297805E-01  0.22022414064E-01  0.17965902382E-02  0.10195713347E+01  0.10192803157E+01 0.  0.
         14    1    1    2    0    0  0.10253297805E-01 -0.22022414064E-01 -0.17965902382E-02  0.24358665267E-01  0.00000000000E+00 0. -1.
     999901    1    3    3    0    0 -0.88364859127E-01 -0.77269704418E-01  0.41844199721E-02  0.88780429427E+00  0.88000000000E+00 0.  1.
        -11    1    3    3    0    0  0.18289587323E-01  0.50966580523E-02  0.58562808557E-02  0.19875665377E-01  0.51100000000E-03 0. -1.
         11    1    3    3    0    0  0.59821974000E-01  0.94195460430E-01 -0.82441105896E-02  0.11189137509E+00  0.51100000000E-03 0.  1.
</event>
<event>
 8    1  0.1150863E+005  0.1043930E+01  0.7957747E-01            NaN
         13   -1    0    0    0    0  0.00000000000E+00  0.00000000000E+00  0.74505805969E-08  0.10566000000E+00  0.10566000000E+00 0.  1.
     999900   -1    0    0    0    0 -0.00000000000E+00 -0.00000000000E+00 -0.74505805969E-08  0.93827000000E+00  0.93827000000E+00 0.  1.
     999902    2    1    2    0    0  0.20153754755E-01 -0.11733474571E-01  0.92577299970E-03  0.10205910773E+01  0.10203241847E+01 0.  0.
     999903    2    3    3    0    0  0.85333262960E-01 -0.10749487067E-01  0.99065426996E-01  0.13273932832E+00  0.20210225537E-01 0.  0.
         14    1    1    2    0    0 -0.20153754755E-01  0.11733474571E-01 -0.92577299970E-03  0.23338922681E-01  0.00000000000E+00 0. -1.
     999901    1    3    3    0    0 -0.65179508205E-01 -0.98398750376E-03 -0.98139653996E-01  0.88785174900E+00  0.88000000000E+00 0.  1.
        -11    1    4    4    0    0  0.67086978566E-01 -0.14666084443E-01  0.85489423012E-01  0.10965609556E+00  0.51100000000E-03 0. -1.
         11    1    4    4    0    0  0.18246284394E-01  0.39165973758E-02  0.13576003984E-01  0.23083232754E-01  0.51100000000E-03 0.  1.
</event>
<event>
 8    1  0.1150863E+005  0.1043930E+01  0.7957747E-01            NaN
         13   -1    0    0    0    0  0.00000000000E+00  0.00000000000E+00  0.74505805969E-08  0.10566000000E+00  0.10566000000E+00 0.  1.
     999900   -1    0    0    0    0 -0.00000000000E+00 -0.00000000000E+00 -0.74505805969E-08  0.93827000000E+00  0.93827000000E+00 0.  1.
     999902    2    1    2    0    0 -0.16636810169E-01  0.15635390876E-01 -0.67480155472E-02  0.10201227613E+01  0.10198449213E+01 0.  0.
     999903    2    3    3    0    0  0.18866355869E-01 -0.72077295632E-01  0.10253437324E+00  0.12832870959E+00  0.20096867409E-01 0.  0.
         14    1    1    2    0    0  0.16636810169E-01 -0.15635390876E-01  0.67480155472E-02  0.23807238695E-01  0.00000000000E+00 0.  1.
     999901    1    3    3    0    0 -0.35503166038E-01  0.87712686508E-01 -0.10928238879E+00  0.89179405171E+00  0.88000000000E+00 0.  1.
        -11    1    4    4    0    0  0.21150168923E-01 -0.46223650435E-01  0.61742007200E-01  0.79976822137E-01  0.51100000000E-03 0.  1.
         11    1    4    4    0    0 -0.22838130545E-02 -0.25853645197E-01  0.40792366042E-01  0.48351887454E-01  0.51100000000E-03 0. -1.
</event>
<event>
 8    1  0.1150863E+005  0.1043930E+01  0.7957747E-01            NaN
         13   -1    0    0    0    0  0.00000000000E+00  0.00000000000E+00  0.74505805969E-08  0.10566000000E+00  0.10566000000E+00 0. -1.
     999900   -1    0    0    0    0 -0.00000000000E+00 -0.00000000000E+00 -0.74505805969E-08  0.93827000000E+00  0.93827000000E+00 0. -1.
     999902    2    1    2    0    0 -0.22026537247E-01 -0.10517741734E-01 -0.15783118834E-02  0.10194701901E+01  0.10191767198E+01 0.  0.
     999903    2    3    3    0    0 -0.11085545514E+00 -0.58686299372E-01 -0.39128733065E-01  0.13289203742E+00  0.19905330674E-01 0.  0.
         14    1    1    2    0    0  0.22026537247E-01  0.10517741734E-01  0.15783118834E-02  0.24459809948E-01  0.00000000000E+00 0. -1.
     999901    1    3    3    0    0  0.88828917893E-01  0.48168557638E-01  0.37550421182E-01  0.88657815264E+00  0.88000000000E+00 0.  1.
        -11    1    4    4    0    0 -0.88517827914E-01 -0.37253179827E-01 -0.29769488982E-01  0.10054694854E+00  0.51100000000E-03 0. -1.
         11    1    4    4    0    0 -0.22337627226E-01 -0.21433119546E-01 -0.93592440831E-02  0.32345088876E-01  0.51100000000E-03 0.  1.
</event>
<event>
 8    1  0.1150863E+005  0.1043930E+01  0.7957747E-01            NaN
         13   -1    0    0    0    0  0.00000000000E+00  0.00000000000E+00  0.74505805969E-08  0.10566000000E+00  0.10566000000E+00 0.  1.
     999900   -1    0    0    0    0 -0.00000000000E+00 -0.00000000000E+00 -0.74505805969E-08  0.93827000000E+00  0.93827000000E+00 0.  1.
     999902    2    1    2    0    0  0.75441985804E-02  0.18051914891E-01 -0.13104312260E-01  0.10203819733E+01  0.10201102204E+01 0.  0.
     999903    2    3    3    0    0  0.10847205052E+00 -0.81634032534E-02 -0.72647171970E-01  0.13222712959E+00  0.19328096291E-01 0.  0.
         14    1    1    2    0    0 -0.75441985804E-02 -0.18051914891E-01  0.13104312260E-01  0.23548026739E-01  0.00000000000E+00 0.  1.
     999901    1    3    3    0    0 -0.10092785194E+00  0.26215318145E-01  0.59542859709E-01  0.88815484368E+00  0.88000000000E+00 0. -1.
        -11    1    4    4    0    0  0.20659364400E-01  0.19124238406E-02 -0.22468017553E-01  0.30586592424E-01  0.51100000000E-03 0. -1.
         11    1    4    4    0    0  0.87812686121E-01 -0.10075827094E-01 -0.50179154417E-01  0.10164053716E+00  0.51100000000E-03 0.  1.
</event>
<event>
 8    1  0.1150863E+005  0.1043930E+01  0.7957747E-01            NaN
         13   -1    0    0    0    0  0.00000000000E+00  0.00000000000E+00  0.74505805969E-08  0.10566000000E+00  0.10566000000E+00 0.  1.
     999900   -1    0    0    0    0 -0.00000000000E+00 -0.00000000000E+00 -0.74505805969E-08  0.93827000000E+00  0.93827000000E+00 0.  1.
     999902    2    1    2    0    0  0.13036736775E-01 -0.15798403294E-01  0.11631183214E-01  0.10203751603E+01  0.10201032483E+01 0.  0.
     999903    2    3    3    0    0 -0.53259184646E-01 -0.11746717664E+00  0.19228085581E-01  0.13201183279E+00  0.20550581093E-01 0.  0.
         14    1    1    2    0    0 -0.13036736775E-01  0.15798403294E-01 -0.11631183214E-01  0.23554839743E-01  0.00000000000E+00 0. -1.
     999901    1    3    3    0    0  0.66295921421E-01  0.10166877335E+00 -0.75969023677E-02  0.88836332747E+00  0.88000000000E+00 0.  1.
        -11    1    4    4    0    0 -0.56935948381E-02 -0.31818289457E-01  0.86870936952E-02  0.33474576681E-01  0.51100000000E-03 0.  1.
         11    1    4    4    0    0 -0.47565589808E-01 -0.85648887183E-01  0.10540991886E-01  0.98537256104E-01  0.51100000000E-03 0. -1.
</event>
<event>
 8    1  0.1150863E+005  0.1043930E+01  0.7957747E-01            NaN
         13   -1    0    0    0    0  0.00000000000E+00  0.00000000000E+00  0.74505805969E-08  0.10566000000E+00  0.10566000000E+00 0. -1.
     999900   -1    0    0    0    0 -0.00000000000E+00 -0.00000000000E+00 -0.74505805969E-08  0.93827000000E+00  0.93827000000E+00 0.  1.
     999902    2    1    2    0    0  0.13794932612E-01 -0.13898839536E-02  0.19512191300E-01  0.10199934682E+01  0.10197125662E+01 0.  0.
     999903    2    3    3    0    0  0.11113550297E+00  0.36669207250E-03  0.70512712689E-01  0.13315677224E+00  0.20185362488E-01 0.  0.
         14    1    1    2    0    0 -0.13794932612E-01  0.13898839536E-02 -0.19512191300E-01  0.23936531756E-01  0.00000000000E+00 0.  1.
     999901    1    3    3    0    0 -0.97340570359E-01 -0.17565760261E-02 -0.51000521389E-01  0.88683669600E+00  0.88000000000E+00 0.  1.
        -11    1    4    4    0    0  0.63073243726E-01 -0.35193489295E-02  0.50785568754E-01  0.81055875825E-01  0.51100000000E-03 0. -1.
         11    1    4    4    0    0  0.48062259245E-01  0.38860410020E-02  0.19727143935E-01  0.52100896415E-01  0.51100000000E-03 0.  1.
</event>
<event>
 8    1  0.1150863E+005  0.1043930E+01  0.7957747E-01            NaN
         13   -1    0    0    0    0  0.00000000000E+00  0.00000000000E+00  0.74505805969E-08  0.10566000000E+00  0.10566000000E+00 0. -1.
     999900   -1    0    0    0    0 -0.00000000000E+00 -0.00000000000E+00 -0.74505805969E-08  0.93827000000E+00  0.93827000000E+00 0. -1.
     999902    2    1    2    0    0 -0.68161966149E-02  0.22185037019E-01  0.52042247506E-02  0.10201451233E+01  0.10198678112E+01 0.  0.
     999903    2    3    3    0    0 -0.36543612516E-01  0.31691779970E-01 -0.11986148194E+00  0.13075458569E+00  0.19753032529E-01 0.  0.
         14    1    1    2    0    0  0.68161966149E-02 -0.22185037019E-01 -0.52042247506E-02  0.23784876689E-01  0.00000000000E+00 0. -1.
     999901    1    3    3    0    0  0.29727415901E-01 -0.95067429507E-02  0.12506570669E+00  0.88939053762E+00  0.88000000000E+00 0.  1.
        -11    1    4    4    0    0 -0.30529030439E-01  0.28466342134E-01 -0.79267119947E-01  0.89587341515E-01  0.51100000000E-03 0.  1.
         11    1    4    4    0    0 -0.60145820767E-02  0.32254378360E-02 -0.40594361989E-01  0.41167244177E-01  0.51100000000E-03 0. -1.
</event>
<event>
 8    1  0.1150863E+005  0.1043930E+01  0.7957747E-01            NaN
         13   -1    0    0    0    0  0.00000000000E+00  0.00000000000E+00  0.74505805969E-08  0.10566000000E+00  0.10566000000E+00 0.  1.
     999900   -1    0    0    0    0 -0.00000000000E+00 -0.00000000000E+00 -0.74505805969E-08  0.93827000000E+00  0.93827000000E+00 0. -1.
     999902    2    1    2    0    0  0.18033041027E-01  0.13200271714E-01  0.78344421357E-02  0.10202484412E+01  0.10199735612E+01 0.  0.
     999903    2    3    3    0    0 -0.92469367731E-01 -0.10297232509E-01 -0.85524255837E-01  0.12812806733E+00  0.21113652823E-01 0.  0.
         14    1    1    2    0    0 -0.18033041027E-01 -0.13200271714E-01 -0.78344421357E-02  0.23681558766E-01  0.00000000000E+00 0. -1.
     999901    1    3    3    0    0  0.11050240876E+00  0.23497504222E-01  0.93358697973E-01  0.89212037390E+00  0.88000000000E+00 0.  1.
        -11    1    4    4    0    0 -0.25564281761E-01  0.56736392017E-02 -0.18329546420E-01  0.31968047746E-01  0.51100000000E-03 0.  1.
         11    1    4    4    0    0 -0.66905085970E-01 -0.15970871710E-01 -0.67194709417E-01  0.96160019585E-01  0.51100000000E-03 0. -1.
</event>
<event>
 8    1  0.1150863E+005  0.1043930E+01  0.7957747E-01            NaN
         13   -1    0    0    0    0  0.00000000000E+00  0.00000000000E+00  0.74505805969E-08  0.10566000000E+00  0.10566000000E+00 0.  1.
     999900   -1    0    0    0    0 -0.00000000000E+00 -0.00000000000E+00 -0.74505805969E-08  0.93827000000E+00  0.93827000000E+00 0. -1.
     999902    2    1    2    0    0 -0.12762439401E-01 -0.19458959957E-01 -0.22698398627E-02  0.10205487435E+01  0.10202808705E+01 0.  0.
     999903    2    3    3    0    0 -0.23154803215E-01 -0.83244058821E-01  0.98190636923E-01  0.13247844930E+00  0.21057542792E-01 0.  0.
         14    1    1    2    0    0  0.12762439401E-01  0.19458959957E-01  0.22698398627E-02  0.23381256490E-01  0.00000000000E+00 0.  1.
     999901    1    3    3    0    0  0.10392363814E-01  0.63785098865E-01 -0.10046047679E+00  0.88807029421E+00  0.88000000000E+00 0. -1.
        -11    1    4    4    0    0 -0.18089761036E-01 -0.28614527072E-01  0.41947246439E-01  0.53906059202E-01  0.51100000000E-03 0. -1.
         11    1    4    4    0    0 -0.50650421788E-02 -0.54629531750E-01  0.56243390484E-01  0.78572390098E-01  0.51100000000E-03 0.  1.
</event>
<event>
 8    1  0.1150863E+005  0.1043930E+01  0.7957747E-01            NaN
         13   -1    0    0    0    0  0.00000000000E+00  0.00000000000E+00  0.74505805969E-08  0.10566000000E+00  0.10566000000E+00 0. -1.
     999900   -1    0    0    0    0 -0.00000000000E+00 -0.00000000000E+00 -0.74505805969E-08  0.93827000000E+00  0.93827000000E+00 0.  1.
     999902    2    1    2    0    0  0.62910184327E-02 -0.45902415054E-02  0.22512077317E-01  0.10201089829E+01  0.10198308174E+01 0.  0.
     999903    2    3    3    0    0 -0.35027783369E-01 -0.12336399503E+00  0.20972550826E-01  0.13116757986E+00  0.17873590612E-01 0.  0.
         14    1    1    2    0    0 -0.62910184327E-02  0.45902415054E-02 -0.22512077317E-01  0.23821017089E-01  0.00000000000E+00 0.  1.
     999901    1    3    3    0    0  0.41318801801E-01  0.11877375353E+00  0.15395264915E-02  0.88894140305E+00  0.88000000000E+00 0. -1.
        -11    1    4    4    0    0 -0.22580987255E-01 -0.47460280137E-01  0.84456388429E-02  0.53235036514E-01  0.51100000000E-03 0. -1.
         11    1    4    4    0    0 -0.12446796113E-01 -0.75903714895E-01  0.12526911983E-01  0.77932543351E-01  0.51100000000E-03 0.  1.
</event>
<event>
 8    1  0.1150863E+005  0.1043930E+01  0.7957747E-01            NaN
         13   -1    0    0    0    0  0.00000000000E+00  0.00000000000E+00  0.74505805969E-08  0.10566000000E+00  0.10566000000E+00 0. -1.
     999900   -1    0    0    0    0 -0.00000000000E+00 -0.00000000000E+00 -0.74505805969E-08  0.93827000000E+00  0.93827000000E+00 0. -1.
     999902    2    1    2    0    0  0.10358654224E-01  0.18988703375E-01  0.67110131995E-02  0.10212824776E+01  0.10210313358E+01 0.  0.
     999903    2    3    3    0    0  0.10377833687E+00  0.22993017914E-01 -0.76866828002E-01  0.13239073661E+00  0.17893457405E-01 0.  0.
         14    1    1    2    0    0 -0.10358654224E-01 -0.18988703375E-01 -0.67110131995E-02  0.22647522411E-01  0.00000000000E+00 0.  1.
     999901    1    3    3    0    0 -0.93419682641E-01 -0.40043145393E-02  0.83577841201E-01  0.88889174098E+00  0.88000000000E+00 0.  1.
        -11    1    4    4    0    0  0.37839895048E-01  0.17261316588E-01 -0.30416434392E-01  0.51528936625E-01  0.51100000000E-03 0. -1.
         11    1    4    4    0    0  0.65938441817E-01  0.57317013261E-02 -0.46450393610E-01  0.80861799985E-01  0.51100000000E-03 0.  1.
</event>
<event>
 8    1  0.1150863E+005  0.1043930E+01  0.7957747E-01            NaN
         13   -1    0    0    0    0  0.00000000000E+00  0.00000000000E+00  0.74505805969E-08  0.10566000000E+00  0.10566000000E+00 0. -1.
     999900   -1    0    0    0    0 -0.00000000000E+00 -0.00000000000E+00 -0.74505805969E-08  0.93827000000E+00  0.93827000000E+00 0. -1.
     999902    2    1    2    0    0 -0.23131711905E-01  0.18452690644E-02 -0.38198020784E-02  0.10204125171E+01  0.10201414770E+01 0.  0.
     999903    2    3    3    0    0  0.43320325218E-01  0.11113171427E+00 -0.50351619244E-01  0.12994937337E+00  0.11164478787E-01 0.  0.
         14    1    1    2    0    0  0.23131711905E-01 -0.18452690644E-02  0.38198020784E-02  0.23517482890E-01  0.00000000000E+00 0.  1.
     999901    1    3    3    0    0 -0.66452037123E-01 -0.10928644520E+00  0.46531817166E-01  0.89046314374E+00  0.88000000000E+00 0.  1.
        -11    1    4    4    0    0  0.26843790415E-01  0.82328997481E-01 -0.35467520363E-01  0.93578090554E-01  0.51100000000E-03 0. -1.
         11    1    4    4    0    0  0.16476534803E-01  0.28802716787E-01 -0.14884098881E-01  0.36371282820E-01  0.51100000000E-03 0.  1.
</event>
<event>
 8    1  0.1150863E+005  0.1043930E+01  0.7957747E-01            NaN
         13   -1    0    0    0    0  0.00000000000E+00  0.00000000000E+00  0.74505805969E-08  0.10566000000E+00  0.10566000000E+00 0.  1.
     999900   -1    0    0    0    0 -0.00000000000E+00 -0.00000000000E+00 -0.74505805969E-08  0.93827000000E+00  0.93827000000E+00 0.  1.
     999902    2    1    2    0    0  0.20182754063E-03 -0.81967658713E-02  0.21757203285E-01  0.10206791161E+01  0.10204142563E+01 0.  0.
     999903    2    3    3    0    0 -0.13588507469E-01 -0.11723804011E+00  0.58111144876E-01  0.13309713013E+00  0.20212256340E-01 0.  0.
         14    1    1    2    0    0 -0.20182754063E-03  0.81967658713E-02 -0.21757203285E-01  0.23250883852E-01  0.00000000000E+00 0. -1.
     999901    1    3    3    0    0  0.13790335010E-01  0.10904127424E+00 -0.36353941591E-01  0.88758198601E+00  0.88000000000E+00 0. -1.
        -11    1    4    4    0    0 -0.12001325448E-01 -0.53297766397E-01  0.17662765236E-01  0.57418795809E-01  0.51100000000E-03 0.  1.
         11    1    4    4    0    0 -0.15871820216E-02 -0.63940273715E-01  0.40448379641E-01  0.75678334324E-01  0.51100000000E-03 0. -1.
</event>
<event>
 8    1  0.1150863E+005  0.1043930E+01  0.7957747E-01            NaN
         13   -1    0    0    0    0  0.00000000000E+00  0.00000000000E+00  0.74505805969E-08  0.10566000000E+00  0.10566000000E+00 0. -1.
     999900   -1    0    0    0    0 -0.00000000000E+00 -0.00000000000E+00 -0.74505805969E-08  0.93827000000E+00  0.93827000000E+00 0.  1.
     999902    2    1    2    0    0 -0.10587722813E-01 -0.16457920930E-01 -0.17723182664E-01  0.10175278365E+01  0.10171852455E+01 0.  0.
     999903    2    3    3    0    0 -0.15032471032E-01  0.10214029334E+00 -0.72677328136E-01  0.12786202824E+00  0.20201225993E-01 0.  0.
         14    1    1    2    0    0  0.10587722813E-01  0.16457920930E-01  0.17723182664E-01  0.26402163537E-01  0.00000000000E+00 0. -1.
     999901    1    3    3    0    0  0.44447482192E-02 -0.11859821427E+00  0.54954145472E-01  0.88966580822E+00  0.88000000000E+00 0.  1.
        -11    1    4    4    0    0  0.29613306931E-02  0.18701826302E-01 -0.20058454521E-01  0.27588593753E-01  0.51100000000E-03 0. -1.
         11    1    4    4    0    0 -0.17993801725E-01  0.83438467040E-01 -0.52618873615E-01  0.10027343449E+00  0.51100000000E-03 0.  1.
</event>
<event>
 8    1  0.1150863E+005  0.1043930E+01  0.7957747E-01            NaN
         13   -1    0    0    0    0  0.00000000000E+00  0.00000000000E+00  0.74505805969E-08  0.10566000000E+00  0.10566000000E+00 0.  1.
     999900   -1    0    0    0    0 -0.00000000000E+00 -0.00000000000E+00 -0.74505805969E-08  0.93827000000E+00  0.93827000000E+00 0. -1.
     999902    2    1    2    0    0  0.65342649784E-02  0.10842251455E-01  0.21052030672E-01  0.10193650040E+01  0.10190689733E+01 0.  0.
     999903    2    3    3    0    0  0.29379802183E-01  0.75052130803E-01 -0.98330623362E-01  0.12869276050E+00  0.19922851184E-01 0.  0.
         14    1    1    2    0    0 -0.65342649784E-02 -0.10842251455E-01 -0.21052030672E-01  0.24564996048E-01  0.00000000000E+00 0. -1.
     999901    1    3    3    0    0 -0.22845537204E-01 -0.64209879347E-01  0.11938265403E+00  0.89067224345E+00  0.88000000000E+00 0.  1.
        -11    1    4    4    0    0  0.16652647438E-01  0.19720350227E-01 -0.36983512518E-01  0.45102596366E-01  0.51100000000E-03 0. -1.
         11    1    4    4    0    0  0.12727154744E-01  0.55331780576E-01 -0.61347110844E-01  0.83590164132E-01  0.51100000000E-03 0.  1.
</event>
<event>
 8    1  0.1150863E+005  0.1043930E+01  0.7957747E-01            NaN
         13   -1    0    0    0    0  0.00000000000E+00  0.00000000000E+00  0.74505805969E-08  0.10566000000E+00  0.10566000000E+00 0.  1.
     999900   -1    0    0    0    0 -0.00000000000E+00 -0.00000000000E+00 -0.74505805969E-08  0.93827000000E+00  0.93827000000E+00 0. -1.
     999902    2    1    2    0    0  0.12705959921E-01  0.64903249848E-03 -0.18670374850E-01  0.10213369578E+01  0.10210870363E+01 0.  0.
     999903    2    3    3    0    0  0.10835196657E+00 -0.74009106287E-01 -0.24201666005E-02  0.13286294827E+00  0.20717368154E-01 0.  0.
         14    1    1    2    0    0 -0.12705959921E-01 -0.64903249848E-03  0.18670374850E-01  0.22593042242E-01  0.00000000000E+00 0.  1.
     999901    1    3    3    0    0 -0.95646006646E-01  0.74658138786E-01 -0.16250208249E-01  0.88847400949E+00  0.88000000000E+00 0. -1.
        -11    1    4    4    0    0  0.32226911464E-01 -0.15953417451E-01 -0.84253587566E-02  0.36936880514E-01  0.51100000000E-03 0.  1.
         11    1    4    4    0    0  0.76125055103E-01 -0.58055688837E-01  0.60051921561E-02  0.95926067753E-01  0.51100000000E-03 0. -1.
</event>
<event>
 8    1  0.1150863E+005  0.1043930E+01  0.7957747E-01            NaN
         13   -1    0    0    0    0  0.00000000000E+00  0.00000000000E+00  0.74505805969E-08  0.10566000000E+00  0.10566000000E+00 0. -1.
     999900   -1    0    0    0    0 -0.00000000000E+00 -0.00000000000E+00 -0.74505805969E-08  0.93827000000E+00  0.93827000000E+00 0. -1.
     999902    2    1    2    0    0 -0.15381314163E-01 -0.20314779287E-01 -0.92149653929E-03  0.10184324660E+01  0.10181132371E+01 0.  0.
     999903    2    3    3    0    0 -0.10315570630E+00  0.47119907413E-01  0.56826663356E-01  0.12962054506E+00  0.26661406865E-01 0.  0.
         14    1    1    2    0    0  0.15381314163E-01  0.20314779287E-01  0.92149653929E-03  0.25497533973E-01  0.00000000000E+00 0. -1.
     999901    1    3    3    0    0  0.87774392137E-01 -0.67434686700E-01 -0.57748159896E-01  0.88881192097E+00  0.88000000000E+00 0. -1.
        -11    1    4    4    0    0 -0.78893902761E-01  0.44336268009E-01  0.53054469890E-01  0.10490467316E+00  0.51100000000E-03 0.  1.
         11    1    4    4    0    0 -0.24261803539E-01  0.27836394047E-02  0.37721934663E-02  0.24715871901E-01  0.51100000000E-03 0. -1.
</event>
<event>
 8    1  0.1150863E+005  0.1043930E+01  0.7957747E-01            NaN
         13   -1    0    0    0    0  0.00000000000E+00  0.00000000000E+00  0.74505805969E-08  0.10566000000E+00  0.10566000000E+00 0.  1.
     999900   -1    0    0    0    0 -0.00000000000E+00 -0.00000000000E+00 -0.74505805969E-08  0.93827000000E+00  0.93827000000E+00 0.  1.
     999902    2    1    2    0    0  0.13410818015E-01  0.11842877365E-01  0.14742315657E-01  0.10207472552E+01  0.10204839633E+01 0.  0.
     999903    2    3    3    0    0 -0.44982074514E-02  0.13046993013E+00 -0.90364824283E-02  0.13228873505E+00  0.19391102830E-01 0.  0.
         14    1    1    2    0    0 -0.13410818015E-01 -0.11842877365E-01 -0.14742315657E-01  0.23182744769E-01  0.00000000000E+00 0. -1.
     999901    1    3    3    0    0  0.17909025467E-01 -0.11862705276E+00  0.23778798085E-01  0.88845852018E+00  0.88000000000E+00 0. -1.
        -11    1    4    4    0    0 -0.10364182055E-01  0.42388969877E-01 -0.10895038746E-02  0.43654199988E-01  0.51100000000E-03 0. -1.
         11    1    4    4    0    0  0.58659746036E-02  0.88080960251E-01 -0.79469785537E-02  0.88634535064E-01  0.51100000000E-03 0.  1.
</event>
<event>
 8    1  0.1150863E+005  0.1043930E+01  0.7957747E-01            NaN
         13   -1    0    0    0    0  0.00000000000E+00  0.00000000000E+00  0.74505805969E-08  0.10566000000E+00  0.10566000000E+00 0. -1.
     999900   -1    0    0    0    0 -0.00000000000E+00 -0.00000000000E+00 -0.74505805969E-08  0.93827000000E+00  0.93827000000E+00 0. -1.
     999902    2    1    2    0    0 -0.89495921235E-02 -0.71509923754E-02 -0.21859306945E-01  0.10192508349E+01  0.10189520122E+01 0.  0.
     999903    2    3    3    0    0  0.12284557202E+00  0.27598232348E-01 -0.19141135145E-01  0.12875385994E+00  0.18933473040E-01 0.  0.
         14    1    1    2    0    0  0.89495921235E-02  0.71509923754E-02  0.21859306945E-01  0.24679165125E-01  0.00000000000E+00 0. -1.
     999901    1    3    3    0    0 -0.13179516414E+00 -0.34749224724E-01 -0.27181718005E-02  0.89049697493E+00  0.88000000000E+00 0.  1.
        -11    1    4    4    0    0  0.73912055188E-01  0.23458998755E-01 -0.52922325947E-02  0.77727635829E-01  0.51100000000E-03 0. -1.
         11    1    4    4    0    0  0.48933516831E-01  0.41392335934E-02 -0.13848902550E-01  0.51026224111E-01  0.51100000000E-03 0.  1.
</event>
<event>
 8    1  0.1150863E+005  0.1043930E+01  0.7957747E-01            NaN
         13   -1    0    0    0    0  0.00000000000E+00  0.00000000000E+00  0.74505805969E-08  0.10566000000E+00  0.10566000000E+00 0.  1.
     999900   -1    0    0    0    0 -0.00000000000E+00 -0.00000000000E+00 -0.74505805969E-08  0.93827000000E+00  0.93827000000E+00 0.  1.
     999902    2    1    2    0    0  0.86288620876E-02  0.15770632758E-01 -0.16374469207E-01  0.10196134756E+01  0.10193234748E+01 0.  0.
     999903    2    3    3    0    0 -0.61639449234E-01  0.52108334418E-01  0.98304676354E-01  0.12865367257E+00  0.19319882368E-01 0.  0.
         14    1    1    2    0    0 -0.86288620876E-02 -0.15770632758E-01  0.16374469207E-01  0.24316524430E-01  0.00000000000E+00 0.  1.
     999901    1    3    3    0    0  0.70268311322E-01 -0.36337701660E-01 -0.11467914556E+00  0.89095980300E+00  0.88000000000E+00 0.  1.
        -11    1    4    4    0    0 -0.69610057790E-02  0.21472413450E-02  0.17903577871E-01  0.19335601062E-01  0.51100000000E-03 0.  1.
         11    1    4    4    0    0 -0.54678443455E-01  0.49961093073E-01  0.80401098483E-01  0.10931807151E+00  0.51100000000E-03 0. -1.
</event>
<event>
 8    1  0.1150863E+005  0.1043930E+01  0.7957747E-01            NaN
         13   -1    0    0    0    0  0.00000000000E+00  0.00000000000E+00  0.74505805969E-08  0.10566000000E+00  0.10566000000E+00 0.  1.
     999900   -1    0    0    0    0 -0.00000000000E+00 -0.00000000000E+00 -0.74505805969E-08  0.93827000000E+00  0.93827000000E+00 0. -1.
     999902    2    1    2    0    0  0.22177540062E-01 -0.10043632235E-01 -0.21414602616E-03  0.10195832612E+01  0.10192925305E+01 0.  0.
     999903    2    3    3    0    0  0.11959679248E+00 -0.54272688355E-01 -0.89161708206E-02  0.13306059066E+00  0.19408895150E-01 0.  0.
         14    1    1    2    0    0 -0.22177540062E-01  0.10043632235E-01  0.21414602616E-03  0.24346738800E-01  0.00000000000E+00 0. -1.
     999901    1    3    3    0    0 -0.97419252421E-01  0.44229056120E-01  0.87020247945E-02  0.88652267054E+00  0.88000000000E+00 0.  1.
        -11    1    4    4    0    0  0.73577869594E-01 -0.24281155117E-01 -0.99525678609E-02  0.78119089317E-01  0.51100000000E-03 0.  1.
         11    1    4    4    0    0  0.46018922889E-01 -0.29991533238E-01  0.10363970403E-02  0.54941501342E-01  0.51100000000E-03 0. -1.
</event>
<event>
 8    1  0.1150863E+005  0.1043930E+01  0.7957747E-01            NaN
         13   -1    0    0    0    0  0.00000000000E+00  0.00000000000E+00  0.74505805969E-08  0.10566000000E+00  0.10566000000E+00 0. -1.
     999900   -1    0    0    0    0 -0.00000000000E+00 -0.00000000000E+00 -0.74505805969E-08  0.93827000000E+00  0.93827000000E+00 0. -1.
     999902    2    1    2    0    0 -0.14006494795E-02  0.33052184669E-02  0.23450412230E-01  0.10202064227E+01  0.10199305548E+01 0.  0.
     999903    2    3    3    0    0 -0.92544330661E-01  0.90132902181E-01 -0.44588395723E-02  0.13081047955E+00  0.20077527672E-01 0.  0.
         14    1    1    2    0    0  0.14006494795E-02 -0.33052184669E-02 -0.23450412230E-01  0.23723577340E-01  0.00000000000E+00 0.  1.
     999901    1    3    3    0    0  0.91143681182E-01 -0.86827683714E-01  0.27909251802E-01  0.88939594311E+00  0.88000000000E+00 0.  1.
        -11    1    4    4    0    0 -0.75050431462E-01  0.75811515513E-01 -0.11067002880E-01  0.10725060755E+00  0.51100000000E-03 0.  1.
         11    1    4    4    0    0 -0.17493899199E-01  0.14321386668E-01  0.66081633081E-02  0.23559871998E-01  0.51100000000E-03 0. -1.
</event>
<event>
 8    1  0.1150863E+005  0.1043930E+01  0.7957747E-01            NaN
         13   -1    0    0    0    0  0.00000000000E+00  0.00000000000E+00  0.74505805969E-08  0.10566000000E+00  0.10566000000E+00 0.  1.
     999900   -1    0    0    0    0 -0.00000000000E+00 -0.00000000000E+00 -0.74505805969E-08  0.93827000000E+00  0.93827000000E+00 0. -1.
     999902    2    1    2    0    0  0.13484926993E-01 -0.17775156952E-01  0.68047683251E-02  0.10206039559E+01  0.10203373611E+01 0.  0.
     999903    2    3    3    0    0  0.25669234354E-01  0.53112834231E-01  0.11508308549E+00  0.13105476750E+00  0.21245064541E-01 0.  0.
         14    1    1    2    0    0 -0.13484926993E-01  0.17775156952E-01 -0.68047683251E-02  0.23326044084E-01  0.00000000000E+00 0. -1.
     999901    1    3    3    0    0 -0.12184307362E-01 -0.70887991183E-01 -0.10827831716E+00  0.88954918841E+00  0.88000000000E+00 0. -1.
        -11    1    4    4    0    0  0.27618646358E-01  0.36137622558E-01  0.79948296507E-01  0.91982110359E-01  0.51100000000E-03 0. -1.
         11    1    4    4    0    0 -0.19494120033E-02  0.16975211673E-01  0.35134788981E-01  0.39072657143E-01  0.51100000000E-03 0.  1.
</event>
<event>
 8    1  0.1150863E+005  0.1043930E+01  0.7957747E-01            NaN
         13   -1    0    0    0    0  0.00000000000E+00  0.00000000000E+00  0.74505805969E-08  0.10566000000E+00  0.10566000000E+00 0. -1.
     999900   -1    0    0    0    0 -0.00000000000E+00 -0.00000000000E+00 -0.74505805969E-08  0.93827000000E+00  0.93827000000E+00 0.  1.
     999902    2    1    2    0    0  0.12835978595E-01  0.20815370033E-01 -0.31277459570E-02  0.10192758975E+01  0.10189776889E+01 0.  0.
     999903    2    3    3    0    0  0.12014522090E+00  0.62771754628E-02 -0.48908612507E-01  0.13145692927E+00  0.20361602024E-01 0.  0.
         14    1    1    2    0    0 -0.12835978595E-01 -0.20815370033E-01  0.31277459570E-02  0.24654102516E-01  0.00000000000E+00 0. -1.
     999901    1    3    3    0    0 -0.10730924231E+00  0.14538194571E-01  0.45780866550E-01  0.88781896822E+00  0.88000000000E+00 0.  1.
        -11    1    4    4    0    0  0.82907308981E-01  0.12657664074E-01 -0.28949920262E-01  0.88725404177E-01  0.51100000000E-03 0. -1.
         11    1    4    4    0    0  0.37237911922E-01 -0.63804886114E-02 -0.19958692245E-01  0.42731525088E-01  0.51100000000E-03 0.  1.
</event>
<event>
 8    1  0.1150863E+005  0.1043930E+01  0.7957747E-01            NaN
         13   -1    0    0    0    0  0.00000000000E+00  0.00000000000E+00  0.74505805969E-08  0.10566000000E+00  0.10566000000E+00 0. -1.
     999900   -1    0    0    0    0 -0.00000000000E+00 -0.00000000000E+00 -0.74505805969E-08  0.93827000000E+00  0.93827000000E+00 0. -1.
     999902    2    1    2    0    0 -0.12266852108E-01 -0.18749713236E-01 -0.71095645614E-02  0.10204231220E+01  0.10201523291E+01 0.  0.
     999903    2    3    3    0    0 -0.16491091253E-01  0.66294080583E-01  0.10759069542E+00  0.12890394622E+00  0.19328952350E-01 0.  0.
         14    1    1    2    0    0  0.12266852108E-01  0.18749713236E-01  0.71095645614E-02  0.23506878043E-01  0.00000000000E+00 0.  1.
     999901    1    3    3    0    0  0.42242391448E-02 -0.85043793819E-01 -0.11470025998E+00  0.89151917574E+00  0.88000000000E+00 0. -1.
        -11    1    4    4    0    0 -0.19697146691E-01  0.44201949563E-01  0.78713855699E-01  0.92400877339E-01  0.51100000000E-03 0. -1.
         11    1    4    4    0    0  0.32060554373E-02  0.22092131019E-01  0.28876839723E-01  0.36503068882E-01  0.51100000000E-03 0.  1.
</event>
<event>
 8    1  0.1150863E+005  0.1043930E+01  0.7957747E-01            NaN
         13   -1    0    0    0    0  0.00000000000E+00  0.00000000000E+00  0.74505805969E-08  0.10566000000E+00  0.10566000000E+00 0.  1.
     999900   -1    0    0    0    0 -0.00000000000E+00 -0.00000000000E+00 -0.74505805969E-08  0.93827000000E+00  0.93827000000E+00 0. -1.
     999902    2    1    2    0    0  0.21973442895E-01 -0.38867526863E-02  0.61130937807E-02  0.10207932553E+01  0.10205310192E+01 0.  0.
     999903    2    3    3    0    0  0.58507620625E-01  0.82683604421E-01 -0.81481965409E-01  0.13146650588E+00  0.19606411427E-01 0.  0.
         14    1    1    2    0    0 -0.21973442895E-01  0.38867526863E-02 -0.61130937807E-02  0.23136744686E-01  0.00000000000E+00 0. -1.
     999901    1    3    3    0    0 -0.36534177730E-01 -0.86570357108E-01  0.87595059189E-01  0.88932674944E+00  0.88000000000E+00 0.  1.
        -11    1    4    4    0    0  0.36455097788E-01  0.34786217087E-01 -0.37852594908E-01  0.63024876963E-01  0.51100000000E-03 0. -1.
         11    1    4    4    0    0  0.22052522837E-01  0.47897387334E-01 -0.43629370501E-01  0.68441628913E-01  0.51100000000E-03 0.  1.
</event>
<event>
 8    1  0.1150863E+005  0.1043930E+01  0.7957747E-01            NaN
         13   -1    0    0    0    0  0.00000000000E+00  0.00000000000E+00  0.74505805969E-08  0.10566000000E+00  0.10566000000E+00 0. -1.
     999900   -1    0    0    0    0 -0.00000000000E+00 -0.00000000000E+00 -0.74505805969E-08  0.93827000000E+00  0.93827000000E+00 0. -1.
     999902    2    1    2    0    0  0.17298356033E-01  0.18569131047E-01 -0.21575107797E-02  0.10184603985E+01  0.10181418775E+01 0.  0.
     999903    2    3    3    0    0  0.45382556289E-01  0.71955360792E-01  0.97636237856E-01  0.13076810713E+00  0.18174502437E-01 0.  0.
         14    1    1    2    0    0 -0.17298356033E-01 -0.18569131047E-01  0.21575107797E-02  0.25469601530E-01  0.00000000000E+00 0.  1.
     999901    1    3    3    0    0 -0.28084200256E-01 -0.53386229745E-01 -0.99793748636E-01  0.88769229134E+00  0.88000000000E+00 0. -1.
        -11    1    4    4    0    0  0.37578324033E-01  0.68619856738E-01  0.90808354037E-01  0.11986339500E+00  0.51100000000E-03 0. -1.
         11    1    4    4    0    0  0.78042322555E-02  0.33355040543E-02  0.68278838186E-02  0.10904712139E-01  0.51100000000E-03 0.  1.
</event>
<event>
 8    1  0.1150863E+005  0.1043930E+01  0.7957747E-01            NaN
         13   -1    0    0    0    0  0.00000000000E+00  0.00000000000E+00  0.74505805969E-08  0.10566000000E+00  0.10566000000E+00 0.  1.
     999900   -1    0    0    0    0 -0.00000000000E+00 -0.00000000000E+00 -0.74505805969E-08  0.93827000000E+00  0.93827000000E+00 0. -1.
     999902    2    1    2    0    0 -0.93116768940E-02  0.21426986597E-01 -0.21479777325E-02  0.10204686085E+01  0.10201988748E+01 0.  0.
     999903    2    3    3    0    0  0.57388510781E-01  0.37977735437E-01 -0.10995354904E+00  0.13123023581E+00  0.19895785599E-01 0.  0.
         14    1    1    2    0    0  0.93116768940E-02 -0.21426986597E-01  0.21479777325E-02  0.23461391467E-01  0.00000000000E+00 0.  1.
     999901    1    3    3    0    0 -0.66700187675E-01 -0.16550748840E-01  0.10780557131E+00  0.88923837273E+00  0.88000000000E+00 0.  1.
        -11    1    4    4    0    0  0.45417336210E-01  0.19556543178E-01 -0.80620845187E-01  0.94578933220E-01  0.51100000000E-03 0. -1.
         11    1    4    4    0    0  0.11971174570E-01  0.18421192260E-01 -0.29332703855E-01  0.36651302587E-01  0.51100000000E-03 0.  1.
</event>
<event>
 8    1  0.1150863E+005  0.1043930E+01  0.7957747E-01            NaN
         13   -1    0    0    0    0  0.00000000000E+00  0.00000000000E+00  0.74505805969E-08  0.10566000000E+00  0.10566000000E+00 0.  1.
     999900   -1    0    0    0    0 -0.00000000000E+00 -0.00000000000E+00 -0.74505805969E-08  0.93827000000E+00  0.93827000000E+00 0. -1.
     999902    2    1    2    0    0  0.21106576564E-01 -0.93784366608E-02  0.13910330104E-01  0.10169681764E+01  0.10166107081E+01 0.  0.
     999903    2    3    3    0    0 -0.11268619475E+00 -0.27454575607E-02  0.53998163947E-01  0.12592859451E+00  0.15378334818E-01 0.  0.
         14    1    1    2    0    0 -0.21106576564E-01  0.93784366608E-02 -0.13910330104E-01  0.26961823604E-01  0.00000000000E+00 0.  1.
     999901    1    3    3    0    0  0.13379277131E+00 -0.66329791001E-02 -0.40087833843E-01  0.89103958189E+00  0.88000000000E+00 0. -1.
        -11    1    4    4    0    0 -0.52193551004E-01 -0.65599701529E-02  0.18982670961E-01  0.55926763652E-01  0.51100000000E-03 0.  1.
         11    1    4    4    0    0 -0.60492643742E-01  0.38145125922E-02  0.35015492986E-01  0.70001830857E-01  0.51100000000E-03 0. -1.
</event>
<event>
 8    1  0.1150863E+005  0.1043930E+01  0.7957747E-01            NaN
         13   -1    0    0    0    0  0.00000000000E+00  0.00000000000E+00  0.74505805969E-08  0.10566000000E+00  0.10566000000E+00 0.  1.
     999900   -1    0    0    0    0 -0.00000000000E+00 -0.00000000000E+00 -0.74505805969E-08  0.93827000000E+00  0.93827000000E+00 0. -1.
     999902    2    1    2    0    0  0.23671383915E-01 -0.21547815259E-01  0.76461907447E-02  0.10110194091E+01  0.10104836162E+01 0.  0.
     999903    2    3    3    0    0  0.77785067792E-02  0.11193955901E+00 -0.35588860178E-01  0.11976145978E+00  0.22028850194E-01 0.  0.
         14    1    1    2    0    0 -0.23671383915E-01  0.21547815259E-01 -0.76461907447E-02  0.32910590876E-01  0.00000000000E+00 0.  1.
     999901    1    3    3    0    0  0.15892877136E-01 -0.13348737427E+00  0.43235050923E-01  0.89125794934E+00  0.88000000000E+00 0. -1.
        -11    1    4    4    0    0  0.14829718229E-01  0.66414789979E-01 -0.17493366613E-01  0.70264670121E-01  0.51100000000E-03 0.  1.
         11    1    4    4    0    0 -0.70512114500E-02  0.45524769035E-01 -0.18095493566E-01  0.49496789663E-01  0.51100000000E-03 0. -1.
</event>
<event>
 8    1  0.1150863E+005  0.1043930E+01  0.7957747E-01            NaN
         13   -1    0    0    0    0  0.00000000000E+00  0.00000000000E+00  0.74505805969E-08  0.10566000000E+00  0.10566000000E+00 0. -1.
     999900   -1    0    0    0    0 -0.00000000000E+00 -0.00000000000E+00 -0.74505805969E-08  0.93827000000E+00  0.93827000000E+00 0.  1.
     999902    2    1    2    0    0 -0.50637595668E-02  0.18661593306E-01  0.57675714292E-02  0.10237517541E+01  0.10235528772E+01 0.  0.
     999903    2    3    3    0    0  0.73392237979E-01 -0.69929305575E-01  0.82867574144E-01  0.13248967073E+00  0.20247212925E-01 0.  0.
         14    1    1    2    0    0  0.50637595668E-02 -0.18661593306E-01 -0.57675714292E-02  0.20178245857E-01  0.00000000000E+00 0.  1.
     999901    1    3    3    0    0 -0.78455997546E-01  0.88590898881E-01 -0.77100002714E-01  0.89126208342E+00  0.88000000000E+00 0.  1.
        -11    1    4    4    0    0  0.40510238181E-01 -0.31341106016E-01  0.30568810411E-01  0.59649456114E-01  0.51100000000E-03 0. -1.
         11    1    4    4    0    0  0.32881999799E-01 -0.38588199559E-01  0.52298763733E-01  0.72840214613E-01  0.51100000000E-03 0.  1.
</event>
<event>
 8    1  0.1150863E+005  0.1043930E+01  0.7957747E-01            NaN
         13   -1    0    0    0    0  0.00000000000E+00  0.00000000000E+00  0.74505805969E-08  0.10566000000E+00  0.10566000000E+00 0. -1.
     999900   -1    0    0    0    0 -0.00000000000E+00 -0.00000000000E+00 -0.74505805969E-08  0.93827000000E+00  0.93827000000E+00 0. -1.
     999902    2    1    2    0    0  0.10283932042E-01  0.21188160985E-01  0.37823833630E-02  0.10200761985E+01  0.10197972577E+01 0.  0.
     999903    2    3    3    0    0  0.73913310532E-01  0.52168699940E-01  0.94339696503E-01  0.13260275178E+00  0.22332951327E-01 0.  0.
         14    1    1    2    0    0 -0.10283932042E-01 -0.21188160985E-01 -0.37823833630E-02  0.23853801543E-01  0.00000000000E+00 0. -1.
     999901    1    3    3    0    0 -0.63629378490E-01 -0.30980538955E-01 -0.90557313140E-01  0.88747344668E+00  0.88000000000E+00 0. -1.
        -11    1    4    4    0    0  0.17184782329E-01  0.18941642419E-02  0.19813586733E-01  0.26301025496E-01  0.51100000000E-03 0. -1.
         11    1    4    4    0    0  0.56728528202E-01  0.50274535698E-01  0.74526109769E-01  0.10630172628E+00  0.51100000000E-03 0.  1.
</event>
<event>
 8    1  0.1150863E+005  0.1043930E+01  0.7957747E-01            NaN
         13   -1    0    0    0    0  0.00000000000E+00  0.00000000000E+00  0.74505805969E-08  0.10566000000E+00  0.10566000000E+00 0. -1.
     999900   -1    0    0    0    0 -0.00000000000E+00 -0.00000000000E+00 -0.74505805969E-08  0.93827000000E+00  0.93827000000E+00 0. -1.
     999902    2    1    2    0    0  0.20174449790E-02 -0.90106421585E-02 -0.19032277161E-01  0.10227760564E+01  0.10225572709E+01 0.  0.
     999903    2    3    3    0    0  0.90638389183E-01 -0.46787707120E-01  0.81165473062E-01  0.13186620262E+00  0.19911158819E-01 0.  0.
         14    1    1    2    0    0 -0.20174449790E-02  0.90106421585E-02  0.19032277161E-01  0.21153943611E-01  0.00000000000E+00 0. -1.
     999901    1    3    3    0    0 -0.88620944204E-01  0.37777064962E-01 -0.10019775022E+00  0.89090985377E+00  0.88000000000E+00 0. -1.
        -11    1    4    4    0    0  0.18288734987E-01 -0.20311016515E-02  0.19326559012E-01  0.26690451581E-01  0.51100000000E-03 0. -1.
         11    1    4    4    0    0  0.72349654196E-01 -0.44756605469E-01  0.61838914050E-01  0.10517575104E+00  0.51100000000E-03 0.  1.
</event>
<event>
 8    1  0.1150863E+005  0.1043930E+01  0.7957747E-01            NaN
         13   -1    0    0    0    0  0.00000000000E+00  0.00000000000E+00  0.74505805969E-08  0.10566000000E+00  0.10566000000E+00 0. -1.
     999900   -1    0    0    0    0 -0.00000000000E+00 -0.00000000000E+00 -0.74505805969E-08  0.93827000000E+00  0.93827000000E+00 0. -1.
     999902    2    1    2    0    0  0.82432164316E-02  0.40787124587E-02  0.17538435082E-01  0.10241263837E+01  0.10239348937E+01 0.  0.
     999903    2    3    3    0    0 -0.36491983099E-01  0.10175715040E+00 -0.74610188016E-01  0.13281628951E+00  0.19680043550E-01 0.  0.
         14    1    1    2    0    0 -0.82432164316E-02 -0.40787124587E-02 -0.17538435082E-01  0.19803616275E-01  0.00000000000E+00 0.  1.
     999901    1    3    3    0    0  0.44735199530E-01 -0.97678437944E-01  0.92148623098E-01  0.89131009422E+00  0.88000000000E+00 0.  1.
        -11    1    4    4    0    0 -0.34416024545E-01  0.70330465215E-01 -0.55458011346E-01  0.95951494133E-01  0.51100000000E-03 0.  1.
         11    1    4    4    0    0 -0.20759585534E-02  0.31426685187E-01 -0.19152176670E-01  0.36864795374E-01  0.51100000000E-03 0. -1.
</event>
<event>
 8    1  0.1150863E+005  0.1043930E+01  0.7957747E-01            NaN
         13   -1    0    0    0    0  0.00000000000E+00  0.00000000000E+00  0.74505805969E-08  0.10566000000E+00  0.10566000000E+00 0.  1.
     999900   -1    0    0    0    0 -0.00000000000E+00 -0.00000000000E+00 -0.74505805969E-08  0.93827000000E+00  0.93827000000E+00 0.  1.
     999902    2    1    2    0    0  0.15339196346E-01  0.17334290595E-01 -0.36120933315E-02  0.10205031822E+01  0.10202342520E+01 0.  0.
     999903    2    3    3    0    0  0.34444150427E-01  0.12560447085E+00 -0.21519967565E-01  0.13348112881E+00  0.19779285846E-01 0.  0.
         14    1    1    2    0    0 -0.15339196346E-01 -0.17334290595E-01  0.36120933315E-02  0.23426817821E-01  0.00000000000E+00 0.  1.
     999901    1    3    3    0    0 -0.19104954080E-01 -0.10827018025E+00  0.17907874234E-01  0.88702205337E+00  0.88000000000E+00 0.  1.
        -11    1    4    4    0    0  0.46801485444E-02  0.38790712786E-01  0.58937816626E-03  0.39079811623E-01  0.51100000000E-03 0. -1.
         11    1    4    4    0    0  0.29764001882E-01  0.86813758063E-01 -0.22109345732E-01  0.94401317187E-01  0.51100000000E-03 0.  1.
</event>
<event>
 8    1  0.1150863E+005  0.1043930E+01  0.7957747E-01            NaN
         13   -1    0    0    0    0  0.00000000000E+00  0.00000000000E+00  0.74505805969E-08  0.10566000000E+00  0.10566000000E+00 0. -1.
     999900   -1    0    0    0    0 -0.00000000000E+00 -0.00000000000E+00 -0.74505805969E-08  0.93827000000E+00  0.93827000000E+00 0. -1.
     999902    2    1    2    0    0  0.94110713416E-02  0.13092332743E-01  0.16215089153E-01  0.10210628498E+01  0.10208067578E+01 0.  0.
     999903    2    3    3    0    0  0.11403971556E+00  0.48152079855E-01 -0.42125128234E-01  0.13225470404E+00  0.19826769616E-01 0.  0.
         14    1    1    2    0    0 -0.94110713416E-02 -0.13092332743E-01 -0.16215089153E-01  0.22867150166E-01  0.00000000000E+00 0.  1.
     999901    1    3    3    0    0 -0.10462864422E+00 -0.35059747112E-01  0.58340217387E-01  0.88880814579E+00  0.88000000000E+00 0.  1.
        -11    1    4    4    0    0  0.38002473861E-01  0.15300223963E-01 -0.43009873721E-02  0.41195199796E-01  0.51100000000E-03 0.  1.
         11    1    4    4    0    0  0.76037241700E-01  0.32851855892E-01 -0.37824140862E-01  0.91059504248E-01  0.51100000000E-03 0. -1.
</event>
<event>
 8    1  0.1150863E+005  0.1043930E+01  0.7957747E-01            NaN
         13   -1    0    0    0    0  0.00000000000E+00  0.00000000000E+00  0.74505805969E-08  0.10566000000E+00  0.10566000000E+00 0. -1.
     999900   -1    0    0    0    0 -0.00000000000E+00 -0.00000000000E+00 -0.74505805969E-08  0.93827000000E+00  0.93827000000E+00 0. -1.
     999902    2    1    2    0    0  0.52839521287E-02 -0.57206851861E-02 -0.24129771967E-01  0.10185746794E+01  0.10182590462E+01 0.  0.
     999903    2    3    3    0    0  0.53192211876E-01 -0.10692496628E-01 -0.11890149831E+00  0.13217657447E+00  0.19731691459E-01 0.  0.
         14    1    1    2    0    0 -0.52839521287E-02  0.57206851861E-02  0.24129771967E-01  0.25355320631E-01  0.00000000000E+00 0. -1.
     999901    1    3    3    0    0 -0.47908259747E-01  0.49718114421E-02  0.94771726347E-01  0.88639810490E+00  0.88000000000E+00 0.  1.
        -11    1    4    4    0    0  0.52400389673E-01 -0.10670513353E-01 -0.10129782673E+00  0.11454768227E+00  0.51100000000E-03 0. -1.
         11    1    4    4    0    0  0.79182220341E-03 -0.21983275096E-04 -0.17603671589E-01  0.17628892196E-01  0.51100000000E-03 0.  1.
</event>
<event>
 8    1  0.1150863E+005  0.1043930E+01  0.7957747E-01            NaN
         13   -1    0    0    0    0  0.00000000000E+00  0.00000000000E+00  0.74505805969E-08  0.10566000000E+00  0.10566000000E+00 0. -1.
     999900   -1    0    0    0    0 -0.00000000000E+00 -0.00000000000E+00 -0.74505805969E-08  0.93827000000E+00  0.93827000000E+00 0.  1.
     999902    2    1    2    0    0 -0.18233559054E-01 -0.42754671928E-02  0.14418551806E-01  0.10202944985E+01  0.10200206992E+01 0.  0.
     999903    2    3    3    0    0 -0.74553339653E-01  0.17936072284E-02  0.10891781707E+00  0.13342423600E+00  0.19429832646E-01 0.  0.
         14    1    1    2    0    0  0.18233559054E-01  0.42754671928E-02 -0.14418551806E-01  0.23635501511E-01  0.00000000000E+00 0. -1.
     999901    1    3    3    0    0  0.56319780599E-01 -0.60690744212E-02 -0.94499265263E-01  0.88687026249E+00  0.88000000000E+00 0.  1.
        -11    1    4    4    0    0 -0.35376454545E-01  0.54724423068E-03  0.35081729039E-01  0.49827520967E-01  0.51100000000E-03 0. -1.
         11    1    4    4    0    0 -0.39176885108E-01  0.12463629977E-02  0.73836088031E-01  0.83596715033E-01  0.51100000000E-03 0.  1.
</event>
<event>
 8    1  0.1150863E+005  0.1043930E+01  0.7957747E-01            NaN
         13   -1    0    0    0    0  0.00000000000E+00  0.00000000000E+00  0.74505805969E-08  0.10566000000E+00  0.10566000000E+00 0.  1.
     999900   -1    0    0    0    0 -0.00000000000E+00 -0.00000000000E+00 -0.74505805969E-08  0.93827000000E+00  0.93827000000E+00 0. -1.
     999902    2    1    2    0    0 -0.23118126076E-01 -0.50506776692E-02  0.87383141714E-02  0.10187047105E+01  0.10183923467E+01 0.  0.
     999903    2    3    3    0    0  0.63545874756E-01  0.10093382874E+00 -0.38413086670E-01  0.12687141928E+00  0.19876514289E-01 0.  0.
         14    1    1    2    0    0  0.23118126076E-01  0.50506776692E-02 -0.87383141714E-02  0.25225289547E-01  0.00000000000E+00 0. -1.
     999901    1    3    3    0    0 -0.86664000832E-01 -0.10598450641E+00  0.47151400841E-01  0.89183329117E+00  0.88000000000E+00 0.  1.
        -11    1    4    4    0    0  0.43368581210E-01  0.76412597849E-01 -0.36220006517E-01  0.95036145436E-01  0.51100000000E-03 0.  1.
         11    1    4    4    0    0  0.20177293545E-01  0.24521230892E-01 -0.21930801526E-02  0.31835273846E-01  0.51100000000E-03 0. -1.
</event>
<event>
 8    1  0.1150863E+005  0.1043930E+01  0.7957747E-01            NaN
         13   -1    0    0    0    0  0.00000000000E+00  0.00000000000E+00  0.74505805969E-08  0.10566000000E+00  0.10566000000E+00 0. -1.
     999900   -1    0    0    0    0 -0.00000000000E+00 -0.00000000000E+00 -0.74505805969E-08  0.93827000000E+00  0.93827000000E+00 0.  1.
     999902    2    1    2    0    0 -0.36561773096E-02  0.22419339824E-01  0.14657065982E-02  0.10211672513E+01  0.10209135186E+01 0.  0.
     999903    2    3    3    0    0 -0.11367787005E+00 -0.51515619013E-01 -0.32495692150E-01  0.13059186003E+00  0.20536473795E-01 0.  0.
         14    1    1    2    0    0  0.36561773096E-02 -0.22419339824E-01 -0.14657065982E-02  0.22762748659E-01  0.00000000000E+00 0. -1.
     999901    1    3    3    0    0  0.11002169274E+00  0.73934958837E-01  0.33961398748E-01  0.89057539132E+00  0.88000000000E+00 0.  1.
        -11    1    4    4    0    0 -0.73397204807E-01 -0.29749774596E-01 -0.10827347268E-01  0.79935544858E-01  0.51100000000E-03 0. -1.
         11    1    4    4    0    0 -0.40280665241E-01 -0.21765844417E-01 -0.21668344882E-01  0.50656315168E-01  0.51100000000E-03 0.  1.
</event>
<event>
 8    1  0.1150863E+005  0.1043930E+01  0.7957747E-01            NaN
         13   -1    0    0    0    0  0.00000000000E+00  0.00000000000E+00  0.74505805969E-08  0.10566000000E+00  0.10566000000E+00 0. -1.
     999900   -1    0    0    0    0 -0.00000000000E+00 -0.00000000000E+00 -0.74505805969E-08  0.93827000000E+00  0.93827000000E+00 0. -1.
     999902    2    1    2    0    0 -0.14659690502E-01  0.17945638441E-01  0.21993025262E-03  0.10207567216E+01  0.10204936471E+01 0.  0.
     999903    2    3    3    0    0  0.14710793789E-01 -0.11651254909E+00  0.48311252954E-01  0.12876210001E+00  0.21310084202E-01 0.  0.
         14    1    1    2    0    0  0.14659690502E-01 -0.17945638441E-01 -0.21993025262E-03  0.23173278447E-01  0.00000000000E+00 0. -1.
     999901    1    3    3    0    0 -0.29370484291E-01  0.13445818753E+00 -0.48091322701E-01  0.89199462154E+00  0.88000000000E+00 0. -1.
        -11    1    4    4    0    0  0.17120675052E-01 -0.69910310888E-01  0.36100366081E-01  0.80523702317E-01  0.51100000000E-03 0.  1.
         11    1    4    4    0    0 -0.24098812639E-02 -0.46602238198E-01  0.12210886872E-01  0.48238397693E-01  0.51100000000E-03 0. -1.
</event>
<event>
 8    1  0.1150863E+005  0.1043930E+01  0.7957747E-01            NaN
         13   -1    0    0    0    0  0.00000000000E+00  0.00000000000E+00  0.74505805969E-08  0.10566000000E+00  0.10566000000E+00 0.  1.
     999900   -1    0    0    0    0 -0.00000000000E+00 -0.00000000000E+00 -0.74505805969E-08  0.93827000000E+00  0.93827000000E+00 0. -1.
     999902    2    1    2    0    0 -0.23729547743E-01 -0.76524418609E-03 -0.37069901385E-02  0.10199004596E+01  0.10196173443E+01 0.  0.
     999903    2    3    3    0    0 -0.36245132221E-01 -0.10812282898E+00  0.63333919211E-01  0.13075661615E+00  0.90471867291E-02 0.  0.
         14    1    1    2    0    0  0.23729547743E-01  0.76524418609E-03  0.37069901385E-02  0.24029540376E-01  0.00000000000E+00 0.  1.
     999901    1    3    3    0    0  0.12515584477E-01  0.10735758479E+00 -0.67040909350E-01  0.88914384348E+00  0.88000000000E+00 0. -1.
        -11    1    4    4    0    0 -0.21893319105E-01 -0.61902890819E-01  0.31507074357E-01  0.72830228399E-01  0.51100000000E-03 0.  1.
         11    1    4    4    0    0 -0.14351813116E-01 -0.46219938159E-01  0.31826844854E-01  0.57926387748E-01  0.51100000000E-03 0. -1.
</event>
<event>
 8    1  0.1150863E+005  0.1043930E+01  0.7957747E-01            NaN
         13   -1    0    0    0    0  0.00000000000E+00  0.00000000000E+00  0.74505805969E-08  0.10566000000E+00  0.10566000000E+00 0.  1.
     999900   -1    0    0    0    0 -0.00000000000E+00 -0.00000000000E+00 -0.74505805969E-08  0.93827000000E+00  0.93827000000E+00 0.  1.
     999902    2    1    2    0    0  0.13519245582E-02 -0.21830088533E-01  0.87997319419E-02  0.10203542551E+01  0.10200818546E+01 0.  0.
     999903    2    3    3    0    0  0.15443976362E-01 -0.12999363847E+00 -0.15346302771E-01  0.13329113984E+00  0.19853375121E-01 0.  0.
         14    1    1    2    0    0 -0.13519245582E-02  0.21830088533E-01 -0.87997319419E-02  0.23575744901E-01  0.00000000000E+00 0. -1.
     999901    1    3    3    0    0 -0.14092051804E-01  0.10816354993E+00  0.24146034713E-01  0.88706311526E+00  0.88000000000E+00 0. -1.
        -11    1    4    4    0    0  0.10265637563E-02 -0.16864417481E-01  0.45920523371E-02  0.17516006274E-01  0.51100000000E-03 0. -1.
         11    1    4    4    0    0  0.14417412606E-01 -0.11312922099E+00 -0.19938355109E-01  0.11577513357E+00  0.51100000000E-03 0.  1.
</event>
<event>
 8    1  0.1150863E+005  0.1043930E+01  0.7957747E-01            NaN
         13   -1    0    0    0    0  0.00000000000E+00  0.00000000000E+00  0.74505805969E-08  0.10566000000E+00  0.10566000000E+00 0. -1.
     999900   -1    0    0    0    0 -0.00000000000E+00 -0.00000000000E+00 -0.74505805969E-08  0.93827000000E+00  0.93827000000E+00 0.  1.
     999902    2    1    2    0    0  0.12778928160E-01 -0.12054256613E-01 -0.16705095966E-01  0.10196881697E+01  0.10193999691E+01 0.  0.
     999903    2    3    3    0    0 -0.74307168530E-02 -0.96373779209E-01  0.83968956221E-01  0.12971430687E+00  0.20782081877E-01 0.  0.
         14    1    1    2    0    0 -0.12778928160E-01  0.12054256613E-01  0.16705095966E-01  0.24241830348E-01  0.00000000000E+00 0.  1.
     999901    1    3    3    0    0  0.20209645013E-01  0.84319522597E-01 -0.10067405219E+00  0.88997386278E+00  0.88000000000E+00 0.  1.
        -11    1    4    4    0    0  0.40334816806E-02 -0.60428609412E-01  0.44852628121E-01  0.75365145660E-01  0.51100000000E-03 0.  1.
         11    1    4    4    0    0 -0.11464198534E-01 -0.35945169798E-01  0.39116328100E-01  0.54349161215E-01  0.51100000000E-03 0. -1.
</event>
<event>
 8    1  0.1150863E+005  0.1043930E+01  0.7957747E-01            NaN
         13   -1    0    0    0    0  0.00000000000E+00  0.00000000000E+00  0.74505805969E-08  0.10566000000E+00  0.10566000000E+00 0.  1.
     999900   -1    0    0    0    0 -0.00000000000E+00 -0.00000000000E+00 -0.74505805969E-08  0.93827000000E+00  0.93827000000E+00 0.  1.
     999902    2    1    2    0    0  0.11569398050E-01 -0.19997699034E-01 -0.44167834741E-02  0.10204083735E+01  0.10201372367E+01 0.  0.
     999903    2    3    3    0    0  0.11400667753E+00 -0.70952829490E-02  0.62857141285E-01  0.13182205268E+00  0.19446536926E-01 0.  0.
         14    1    1    2    0    0 -0.11569398050E-01  0.19997699034E-01  0.44167834741E-02  0.23521626520E-01  0.00000000000E+00 0.  1.
     999901    1    3    3    0    0 -0.10243727949E+00 -0.12902416085E-01 -0.67273924759E-01  0.88858632080E+00  0.88000000000E+00 0.  1.
        -11    1    4    4    0    0  0.52089674036E-01 -0.12327046608E-01  0.32959423242E-01  0.62863939749E-01  0.51100000000E-03 0.  1.
         11    1    4    4    0    0  0.61917003499E-01  0.52317636594E-02  0.29897718042E-01  0.68958112926E-01  0.51100000000E-03 0. -1.
</event>
<event>
 8    1  0.1150863E+005  0.1043930E+01  0.7957747E-01            NaN
         13   -1    0    0    0    0  0.00000000000E+00  0.00000000000E+00  0.74505805969E-08  0.10566000000E+00  0.10566000000E+00 0.  1.
     999900   -1    0    0    0    0 -0.00000000000E+00 -0.00000000000E+00 -0.74505805969E-08  0.93827000000E+00  0.93827000000E+00 0. -1.
     999902    2    1    2    0    0 -0.20155176751E-02 -0.23077021507E-01  0.39897108055E-02  0.10204240640E+01  0.10201532931E+01 0.  0.
     999903    2    3    3    0    0 -0.44846524505E-01 -0.41678422751E-01  0.11552376361E+00  0.13215588820E+00  0.19264920019E-01 0.  0.
         14    1    1    2    0    0  0.20155176751E-02  0.23077021507E-01 -0.39897108055E-02  0.23505935962E-01  0.00000000000E+00 0. -1.
     999901    1    3    3    0    0  0.42831006830E-01  0.18601401244E-01 -0.11153405281E+00  0.88826817584E+00  0.88000000000E+00 0. -1.
        -11    1    4    4    0    0 -0.43844328983E-01 -0.34746740695E-01  0.92675431684E-01  0.10825275023E+00  0.51100000000E-03 0. -1.
         11    1    4    4    0    0 -0.10021955212E-02 -0.69316820559E-02  0.22848331928E-01  0.23903137971E-01  0.51100000000E-03 0.  1.
</event>
<event>
 8    1  0.1150863E+005  0.1043930E+01  0.7957747E-01            NaN
         13   -1    0    0    0    0  0.00000000000E+00  0.00000000000E+00  0.74505805969E-08  0.10566000000E+00  0.10566000000E+00 0.  1.
     999900   -1    0    0    0    0 -0.00000000000E+00 -0.00000000000E+00 -0.74505805969E-08  0.93827000000E+00  0.93827000000E+00 0. -1.
     999902    2    1    2    0    0  0.12643267971E-01  0.85692666032E-02 -0.18239613862E-01  0.10201399166E+01  0.10198624816E+01 0.  0.
     999903    2    3    3    0    0 -0.12402484560E+00 -0.39773155811E-02  0.27446525083E-01  0.12833118525E+00  0.17821335641E-01 0.  0.
         14    1    1    2    0    0 -0.12643267971E-01 -0.85692666032E-02  0.18239613862E-01  0.23790083416E-01  0.00000000000E+00 0.  1.
     999901    1    3    3    0    0  0.13666811357E+00  0.12546582184E-01 -0.45686138945E-01  0.89180873133E+00  0.88000000000E+00 0. -1.
        -11    1    4    4    0    0 -0.51368631751E-03 -0.76623681314E-03  0.18862599856E-02  0.21610391528E-02  0.51100000000E-03 0.  1.
         11    1    4    4    0    0 -0.12351115928E+00 -0.32110787680E-02  0.25560265097E-01  0.12617014610E+00  0.51100000000E-03 0. -1.
</event>
<event>
 8    1  0.1150863E+005  0.1043930E+01  0.7957747E-01            NaN
         13   -1    0    0    0    0  0.00000000000E+00  0.00000000000E+00  0.74505805969E-08  0.10566000000E+00  0.10566000000E+00 0.  1.
     999900   -1    0    0    0    0 -0.00000000000E+00 -0.00000000000E+00 -0.74505805969E-08  0.93827000000E+00  0.93827000000E+00 0. -1.
     999902    2    1    2    0    0 -0.30635957065E-02 -0.26079803492E-02 -0.22721301527E-01  0.10208552362E+01  0.10205944193E+01 0.  0.
     999903    2    3    3    0    0 -0.12828714324E+00 -0.13654254878E-01  0.12216879081E-01  0.13123529855E+00  0.20722491497E-01 0.  0.
         14    1    1    2    0    0  0.30635957065E-02  0.26079803492E-02  0.22721301527E-01  0.23074763774E-01  0.00000000000E+00 0.  1.
     999901    1    3    3    0    0  0.12522354754E+00  0.11046274529E-01 -0.34938180609E-01  0.88961993767E+00  0.88000000000E+00 0. -1.
        -11    1    4    4    0    0 -0.43930754591E-01 -0.24233910242E-03  0.12989381649E-01  0.45814354561E-01  0.51100000000E-03 0. -1.
         11    1    4    4    0    0 -0.84356388654E-01 -0.13411915776E-01 -0.77250256768E-03  0.85420943993E-01  0.51100000000E-03 0.  1.
</event>
<event>
 8    1  0.1150863E+005  0.1043930E+01  0.7957747E-01            NaN
         13   -1    0    0    0    0  0.00000000000E+00  0.00000000000E+00  0.74505805969E-08  0.10566000000E+00  0.10566000000E+00 0. -1.
     999900   -1    0    0    0    0 -0.00000000000E+00 -0.00000000000E+00 -0.74505805969E-08  0.93827000000E+00  0.93827000000E+00 0. -1.
     999902    2    1    2    0    0  0.21668755971E-01 -0.10158113624E-01 -0.24204393386E-02  0.10198762938E+01  0.10195926019E+01 0.  0.
     999903    2    3    3    0    0  0.11387796863E+00  0.63041914325E-01  0.83897369953E-02  0.13196996823E+00  0.20080092784E-01 0.  0.
         14    1    1    2    0    0 -0.21668755971E-01  0.10158113624E-01  0.24204393386E-02  0.24053706249E-01  0.00000000000E+00 0.  1.
     999901    1    3    3    0    0 -0.92209212660E-01 -0.73200027949E-01 -0.10810176334E-01  0.88790632552E+00  0.88000000000E+00 0.  1.
        -11    1    4    4    0    0  0.79658091794E-01  0.49272623082E-01  0.13826380674E-01  0.94681745321E-01  0.51100000000E-03 0.  1.
         11    1    4    4    0    0  0.34219876837E-01  0.13769291243E-01 -0.54366436788E-02  0.37288222907E-01  0.51100000000E-03 0. -1.
</event>
<event>
 8    1  0.1150863E+005  0.1043930E+01  0.7957747E-01            NaN
         13   -1    0    0    0    0  0.00000000000E+00  0.00000000000E+00  0.74505805969E-08  0.10566000000E+00  0.10566000000E+00 0. -1.
     999900   -1    0    0    0    0 -0.00000000000E+00 -0.00000000000E+00 -0.74505805969E-08  0.93827000000E+00  0.93827000000E+00 0.  1.
     999902    2    1    2    0    0  0.23368849938E-02 -0.22923758449E-01 -0.30290012685E-02  0.10206892044E+01  0.10204245770E+01 0.  0.
     999903    2    3    3    0    0 -0.11629327849E+00  0.23778351933E-01  0.49704196658E-01  0.12993952406E+00  0.18006557290E-01 0.  0.
         14    1    1    2    0    0 -0.23368849938E-02  0.22923758449E-01  0.30290012685E-02  0.23240795632E-01  0.00000000000E+00 0. -1.
     999901    1    3    3    0    0  0.11863016348E+00 -0.46702110382E-01 -0.52733197926E-01  0.89074968031E+00  0.88000000000E+00 0. -1.
        -11    1    4    4    0    0 -0.10319219049E+00  0.15005276229E-01  0.42853003237E-01  0.11274053176E+00  0.51100000000E-03 0. -1.
         11    1    4    4    0    0 -0.13101087997E-01  0.87730757039E-02  0.68511934204E-02  0.17198992305E-01  0.51100000000E-03 0.  1.
</event>
<event>
 8    1  0.1150863E+005  0.1043930E+01  0.7957747E-01            NaN
         13   -1    0    0    0    0  0.00000000000E+00  0.00000000000E+00  0.74505805969E-08  0.10566000000E+00  0.10566000000E+00 0. -1.
     999900   -1    0    0    0    0 -0.00000000000E+00 -0.00000000000E+00 -0.74505805969E-08  0.93827000000E+00  0.93827000000E+00 0.  1.
     999902    2    1    2    0    0 -0.95381322500E-02 -0.19151746028E-01  0.10938923318E-01  0.10199003228E+01  0.10196172042E+01 0.  0.
     999903    2    3    3    0    0  0.24239475741E-01 -0.12663959650E+00 -0.22365491816E-01  0.13209192632E+00  0.17970035863E-01 0.  0.
         14    1    1    2    0    0  0.95381322500E-02  0.19151746028E-01 -0.10938923318E-01  0.24029677195E-01  0.00000000000E+00 0.  1.
     999901    1    3    3    0    0 -0.33777607991E-01  0.10748785047E+00  0.33304415134E-01  0.88780839648E+00  0.88000000000E+00 0.  1.
        -11    1    4    4    0    0  0.64854448349E-02 -0.59419337986E-01 -0.18008978777E-01  0.62428384242E-01  0.51100000000E-03 0. -1.
         11    1    4    4    0    0  0.17754030906E-01 -0.67220258514E-01 -0.43565130391E-02  0.69663542079E-01  0.51100000000E-03 0.  1.
</event>
<event>
 8    1  0.1150863E+005  0.1043930E+01  0.7957747E-01            NaN
         13   -1    0    0    0    0  0.00000000000E+00  0.00000000000E+00  0.74505805969E-08  0.10566000000E+00  0.10566000000E+00 0.  1.
     999900   -1    0    0    0    0 -0.00000000000E+00 -0.00000000000E+00 -0.74505805969E-08  0.93827000000E+00  0.93827000000E+00 0.  1.
     999902    2    1    2    0    0  0.19148824193E-01 -0.37810397255E-02 -0.13392238421E-01  0.10202587985E+01  0.10199841617E+01 0.  0.
     999903    2    3    3    0    0 -0.10180832564E+00  0.21985686304E-01 -0.74476761916E-01  0.12951423622E+00  0.19463908826E-01 0.  0.
         14    1    1    2    0    0 -0.19148824193E-01  0.37810397255E-02  0.13392238421E-01  0.23671201476E-01  0.00000000000E+00 0.  1.
     999901    1    3    3    0    0  0.12095714983E+00 -0.25766726029E-01  0.61084523495E-01  0.89074456230E+00  0.88000000000E+00 0. -1.
        -11    1    4    4    0    0 -0.70527286646E-01  0.11254230552E-01 -0.40534723647E-01  0.82122352677E-01  0.51100000000E-03 0.  1.
         11    1    4    4    0    0 -0.31281038990E-01  0.10731455752E-01 -0.33942038269E-01  0.47391883542E-01  0.51100000000E-03 0. -1.
</event>
<event>
 8    1  0.1150863E+005  0.1043930E+01  0.7957747E-01            NaN
         13   -1    0    0    0    0  0.00000000000E+00  0.00000000000E+00  0.74505805969E-08  0.10566000000E+00  0.10566000000E+00 0.  1.
     999900   -1    0    0    0    0 -0.00000000000E+00 -0.00000000000E+00 -0.74505805969E-08  0.93827000000E+00  0.93827000000E+00 0.  1.
     999902    2    1    2    0    0 -0.10562690567E-01 -0.18947857709E-01 -0.93726269112E-02  0.10202987097E+01  0.10200250091E+01 0.  0.
     999903    2    3    3    0    0  0.10808945234E+00 -0.70759265828E-01  0.21748602864E-02  0.13075045502E+00  0.20018692846E-01 0.  0.
         14    1    1    2    0    0  0.10562690567E-01  0.18947857709E-01  0.93726269112E-02  0.23631290253E-01  0.00000000000E+00 0. -1.
     999901    1    3    3    0    0 -0.11865214291E+00  0.51811408119E-01 -0.11547487198E-01  0.88954825473E+00  0.88000000000E+00 0.  1.
        -11    1    4    4    0    0  0.48363059671E-01 -0.39972258970E-01 -0.61228420808E-02  0.63043773238E-01  0.51100000000E-03 0. -1.
         11    1    4    4    0    0  0.59726392668E-01 -0.30787006857E-01  0.82977023672E-02  0.67706681782E-01  0.51100000000E-03 0.  1.
</event>
<event>
 8    1  0.1150863E+005  0.1043930E+01  0.7957747E-01            NaN
         13   -1    0    0    0    0  0.00000000000E+00  0.00000000000E+00  0.74505805969E-08  0.10566000000E+00  0.10566000000E+00 0.  1.
     999900   -1    0    0    0    0 -0.00000000000E+00 -0.00000000000E+00 -0.74505805969E-08  0.93827000000E+00  0.93827000000E+00 0.  1.
     999902    2    1    2    0    0  0.46801162583E-02  0.74551638836E-02 -0.22366767230E-01  0.10198934605E+01  0.10196101782E+01 0.  0.
     999903    2    3    3    0    0  0.96210134056E-01  0.37747125595E-01  0.75044479438E-01  0.12928451256E+00  0.20039358977E-01 0.  0.
         14    1    1    2    0    0 -0.46801162583E-02 -0.74551638836E-02  0.22366767230E-01  0.24036539540E-01  0.00000000000E+00 0.  1.
     999901    1    3    3    0    0 -0.91530017797E-01 -0.30291961711E-01 -0.97411246668E-01  0.89060894790E+00  0.88000000000E+00 0.  1.
        -11    1    4    4    0    0  0.69011834486E-01  0.35844707068E-01  0.51666610215E-01  0.93365818456E-01  0.51100000000E-03 0. -1.
         11    1    4    4    0    0  0.27198299570E-01  0.19024185265E-02  0.23377869223E-01  0.35918694104E-01  0.51100000000E-03 0.  1.
</event>
<event>
 8    1  0.1150863E+005  0.1043930E+01  0.7957747E-01            NaN
         13   -1    0    0    0    0  0.00000000000E+00  0.00000000000E+00  0.74505805969E-08  0.10566000000E+00  0.10566000000E+00 0. -1.
     999900   -1    0    0    0    0 -0.00000000000E+00 -0.00000000000E+00 -0.74505805969E-08  0.93827000000E+00  0.93827000000E+00 0.  1.
     999902    2    1    2    0    0  0.10251065022E-01 -0.21836228181E-01 -0.94902838419E-02  0.10180076027E+01  0.10176775071E+01 0.  0.
     999903    2    3    3    0    0  0.15151826052E-01 -0.98507819124E-01  0.80891205432E-01  0.13004850232E+00  0.20877202346E-01 0.  0.
         14    1    1    2    0    0 -0.10251065022E-01  0.21836228181E-01  0.94902838419E-02  0.25922397317E-01  0.00000000000E+00 0. -1.
     999901    1    3    3    0    0 -0.49007610300E-02  0.76671590942E-01 -0.90381489274E-01  0.88795910036E+00  0.88000000000E+00 0.  1.
        -11    1    4    4    0    0  0.18921298867E-01 -0.56365550555E-01  0.45107989150E-01  0.74632986316E-01  0.51100000000E-03 0. -1.
         11    1    4    4    0    0 -0.37694728148E-02 -0.42142268568E-01  0.35783216282E-01  0.55415516003E-01  0.51100000000E-03 0.  1.
</event>
<event>
 8    1  0.1150863E+005  0.1043930E+01  0.7957747E-01            NaN
         13   -1    0    0    0    0  0.00000000000E+00  0.00000000000E+00  0.74505805969E-08  0.10566000000E+00  0.10566000000E+00 0.  1.
     999900   -1    0    0    0    0 -0.00000000000E+00 -0.00000000000E+00 -0.74505805969E-08  0.93827000000E+00  0.93827000000E+00 0.  1.
     999902    2    1    2    0    0  0.19081815980E-01  0.14527432226E-01 -0.25506236497E-02  0.10198122126E+01  0.10195269890E+01 0.  0.
     999903    2    3    3    0    0 -0.67916143289E-01  0.78389153103E-01 -0.75993711562E-01  0.13018259783E+00  0.20371615970E-01 0.  0.
         14    1    1    2    0    0 -0.19081815980E-01 -0.14527432226E-01  0.25506236497E-02  0.24117787402E-01  0.00000000000E+00 0. -1.
     999901    1    3    3    0    0  0.86997959269E-01 -0.63861720877E-01  0.73443087912E-01  0.88962961477E+00  0.88000000000E+00 0. -1.
        -11    1    4    4    0    0 -0.53426767718E-01  0.47366529285E-01 -0.53302179082E-01  0.89103260440E-01  0.51100000000E-03 0.  1.
         11    1    4    4    0    0 -0.14489375571E-01  0.31022623819E-01 -0.22691532480E-01  0.41079337389E-01  0.51100000000E-03 0. -1.
</event>
<event>
 8    1  0.1150863E+005  0.1043930E+01  0.7957747E-01            NaN
         13   -1    0    0    0    0  0.00000000000E+00  0.00000000000E+00  0.74505805969E-08  0.10566000000E+00  0.10566000000E+00 0. -1.
     999900   -1    0    0    0    0 -0.00000000000E+00 -0.00000000000E+00 -0.74505805969E-08  0.93827000000E+00  0.93827000000E+00 0.  1.
     999902    2    1    2    0    0 -0.17840286488E-01  0.14739003399E-01  0.53821992275E-02  0.10201711677E+01  0.10198944697E+01 0.  0.
     999903    2    3    3    0    0 -0.12885574650E+00  0.48126409005E-02  0.24993691448E-01  0.13292397799E+00  0.20423868277E-01 0.  0.
         14    1    1    2    0    0  0.17840286488E-01 -0.14739003399E-01 -0.53821992275E-02  0.23758832289E-01  0.00000000000E+00 0.  1.
     999901    1    3    3    0    0  0.11101546001E+00  0.99263624989E-02 -0.19611492221E-01  0.88724718972E+00  0.88000000000E+00 0. -1.
        -11    1    4    4    0    0 -0.29168750205E-01 -0.14353218661E-02  0.14142915513E-01  0.32452416206E-01  0.51100000000E-03 0. -1.
         11    1    4    4    0    0 -0.99686996294E-01  0.62479627666E-02  0.10850775935E-01  0.10047156179E+00  0.51100000000E-03 0.  1.
</event>
<event>
 8    1  0.1150863E+005  0.1043930E+01  0.7957747E-01            NaN
         13   -1    0    0    0    0  0.00000000000E+00  0.00000000000E+00  0.74505805969E-08  0.10566000000E+00  0.10566000000E+00 0. -1.
     999900   -1    0    0    0    0 -0.00000000000E+00 -0.00000000000E+00 -0.74505805969E-08  0.93827000000E+00  0.93827000000E+00 0. -1.
     999902    2    1    2    0    0 -0.11400390694E-01  0.27048007874E-01  0.25858959989E-02  0.10144639094E+01  0.10140358835E+01 0.  0.
     999903    2    3    3    0    0  0.10270126576E+00  0.11160163388E-01  0.65913061684E-01  0.12469880470E+00  0.23090278431E-01 0.  0.
         14    1    1    2    0    0  0.11400390694E-01 -0.27048007874E-01 -0.25858959989E-02  0.29466090613E-01  0.00000000000E+00 0.  1.
     999901    1    3    3    0    0 -0.11410165645E+00  0.15887844486E-01 -0.63327165685E-01  0.88976510469E+00  0.88000000000E+00 0. -1.
        -11    1    4    4    0    0  0.35439825071E-01  0.14561035882E-01  0.27502490503E-01  0.47166228086E-01  0.51100000000E-03 0. -1.
         11    1    4    4    0    0  0.67261440684E-01 -0.34008724937E-02  0.38410571181E-01  0.77532576612E-01  0.51100000000E-03 0.  1.
</event>
<event>
 8    1  0.1150863E+005  0.1043930E+01  0.7957747E-01            NaN
         13   -1    0    0    0    0  0.00000000000E+00  0.00000000000E+00  0.74505805969E-08  0.10566000000E+00  0.10566000000E+00 0.  1.
     999900   -1    0    0    0    0 -0.00000000000E+00 -0.00000000000E+00 -0.74505805969E-08  0.93827000000E+00  0.93827000000E+00 0.  1.
     999902    2    1    2    0    0 -0.10643685962E-01 -0.18757531866E-01  0.10585703938E-01  0.10199052174E+01  0.10196222154E+01 0.  0.
     999903    2    3    3    0    0 -0.38353088725E-01 -0.12023726012E+00 -0.32627441641E-01  0.13258716718E+00  0.24224962670E-01 0.  0.
         14    1    1    2    0    0  0.10643685962E-01  0.18757531866E-01 -0.10585703938E-01  0.24024782630E-01  0.00000000000E+00 0. -1.
     999901    1    3    3    0    0  0.27709402763E-01  0.10147972825E+00  0.43213145580E-01  0.88731805019E+00  0.88000000000E+00 0.  1.
        -11    1    4    4    0    0 -0.10957569129E-01 -0.53130347546E-01 -0.31655267804E-02  0.54343204104E-01  0.51100000000E-03 0.  1.
         11    1    4    4    0    0 -0.27395519596E-01 -0.67106912573E-01 -0.29461914861E-01  0.78243963072E-01  0.51100000000E-03 0. -1.
</event>
<event>
 8    1  0.1150863E+005  0.1043930E+01  0.7957747E-01            NaN
         13   -1    0    0    0    0  0.00000000000E+00  0.00000000000E+00  0.74505805969E-08  0.10566000000E+00  0.10566000000E+00 0.  1.
     999900   -1    0    0    0    0 -0.00000000000E+00 -0.00000000000E+00 -0.74505805969E-08  0.93827000000E+00  0.93827000000E+00 0.  1.
     999902    2    1    2    0    0 -0.34339194197E-02 -0.15241579533E-01 -0.16653798505E-01  0.10210947957E+01  0.10208394268E+01 0.  0.
     999903    2    3    3    0    0  0.84053151722E-01 -0.24347042915E-01  0.93773304128E-01  0.12984228265E+00  0.20195915028E-01 0.  0.
         14    1    1    2    0    0  0.34339194197E-02  0.15241579533E-01  0.16653798505E-01  0.22835204266E-01  0.00000000000E+00 0.  1.
     999901    1    3    3    0    0 -0.87487071142E-01  0.91054633816E-02 -0.11042710263E+00  0.89125251308E+00  0.88000000000E+00 0.  1.
        -11    1    4    4    0    0  0.47683188636E-01 -0.15125512598E-01  0.38927674710E-01  0.63388426303E-01  0.51100000000E-03 0.  1.
         11    1    4    4    0    0  0.36369963086E-01 -0.92215303167E-02  0.54845629418E-01  0.66453856348E-01  0.51100000000E-03 0. -1.
</event>
<event>
 8    1  0.1150863E+005  0.1043930E+01  0.7957747E-01            NaN
         13   -1    0    0    0    0  0.00000000000E+00  0.00000000000E+00  0.74505805969E-08  0.10566000000E+00  0.10566000000E+00 0. -1.
     999900   -1    0    0    0    0 -0.00000000000E+00 -0.00000000000E+00 -0.74505805969E-08  0.93827000000E+00  0.93827000000E+00 0. -1.
     999902    2    1    2    0    0  0.18408245417E-01 -0.13789695611E-01  0.58307027667E-02  0.10202020355E+01  0.10199260645E+01 0.  0.
     999903    2    3    3    0    0  0.63680439692E-01  0.65524489217E-01 -0.90596901873E-01  0.13023653369E+00  0.20127071099E-01 0.  0.
         14    1    1    2    0    0 -0.18408245417E-01  0.13789695611E-01 -0.58307027667E-02  0.23727964496E-01  0.00000000000E+00 0.  1.
     999901    1    3    3    0    0 -0.45272194275E-01 -0.79314184828E-01  0.96427604639E-01  0.88996550182E+00  0.88000000000E+00 0.  1.
        -11    1    4    4    0    0  0.44781352539E-01  0.57826787627E-01 -0.71517287285E-01  0.10229511427E+00  0.51100000000E-03 0.  1.
         11    1    4    4    0    0  0.18899087153E-01  0.76977015896E-02 -0.19079614587E-01  0.27941419412E-01  0.51100000000E-03 0. -1.
</event>
<event>
 8    1  0.1150863E+005  0.1043930E+01  0.7957747E-01            NaN
         13   -1    0    0    0    0  0.00000000000E+00  0.00000000000E+00  0.74505805969E-08  0.10566000000E+00  0.10566000000E+00 0. -1.
     999900   -1    0    0    0    0 -0.00000000000E+00 -0.00000000000E+00 -0.74505805969E-08  0.93827000000E+00  0.93827000000E+00 0.  1.
     999902    2    1    2    0    0  0.95761023291E-02  0.32454658629E-02  0.20966740941E-01  0.10206525644E+01  0.10203870923E+01 0.  0.
     999903    2    3    3    0    0 -0.11741449856E+00  0.46696485412E-01  0.25470593907E-01  0.13046444463E+00  0.20136879986E-01 0.  0.
         14    1    1    2    0    0 -0.95761023291E-02 -0.32454658629E-02 -0.20966740941E-01  0.23277435644E-01  0.00000000000E+00 0. -1.
     999901    1    3    3    0    0  0.12699060089E+00 -0.43451019549E-01 -0.45038529656E-02  0.89018811973E+00  0.88000000000E+00 0. -1.
        -11    1    4    4    0    0 -0.83381294528E-01  0.25869824198E-01  0.10888123388E-01  0.87980113850E-01  0.51100000000E-03 0. -1.
         11    1    4    4    0    0 -0.34033204034E-01  0.20826661214E-01  0.14582470519E-01  0.42484330777E-01  0.51100000000E-03 0.  1.
</event>
<event>
 8    1  0.1150863E+005  0.1043930E+01  0.7957747E-01            NaN
         13   -1    0    0    0    0  0.00000000000E+00  0.00000000000E+00  0.74505805969E-08  0.10566000000E+00  0.10566000000E+00 0. -1.
     999900   -1    0    0    0    0 -0.00000000000E+00 -0.00000000000E+00 -0.74505805969E-08  0.93827000000E+00  0.93827000000E+00 0. -1.
     999902    2    1    2    0    0  0.23686320463E-01  0.33554271972E-02  0.69316888381E-02  0.10190231941E+01  0.10187187645E+01 0.  0.
     999903    2    3    3    0    0 -0.85127088307E-01 -0.90726049158E-01  0.18261777149E-01  0.12727207805E+00  0.19668558334E-01 0.  0.
         14    1    1    2    0    0 -0.23686320463E-01 -0.33554271972E-02 -0.69316888381E-02  0.24906805875E-01  0.00000000000E+00 0. -1.
     999901    1    3    3    0    0  0.10881340877E+00  0.94081476355E-01 -0.11330088311E-01  0.89175111608E+00  0.88000000000E+00 0.  1.
        -11    1    4    4    0    0 -0.51973673151E-01 -0.49477230554E-01  0.19400994721E-01  0.74336523737E-01  0.51100000000E-03 0. -1.
         11    1    4    4    0    0 -0.33153415156E-01 -0.41248818604E-01 -0.11392175714E-02  0.52935554313E-01  0.51100000000E-03 0.  1.
</event>
<event>
 8    1  0.1150863E+005  0.1043930E+01  0.7957747E-01            NaN
         13   -1    0    0    0    0  0.00000000000E+00  0.00000000000E+00  0.74505805969E-08  0.10566000000E+00  0.10566000000E+00 0.  1.
     999900   -1    0    0    0    0 -0.00000000000E+00 -0.00000000000E+00 -0.74505805969E-08  0.93827000000E+00  0.93827000000E+00 0.  1.
     999902    2    1    2    0    0  0.97604010860E-03 -0.14976879618E-01  0.42819593956E-02  0.10283224777E+01  0.10282040281E+01 0.  0.
     999903    2    3    3    0    0 -0.88602631770E-01  0.49617772762E-02 -0.10261453155E+00  0.13711613327E+00  0.19900912761E-01 0.  0.
         14    1    1    2    0    0 -0.97604010860E-03  0.14976879618E-01 -0.42819593956E-02  0.15607522342E-01  0.00000000000E+00 0. -1.
     999901    1    3    3    0    0  0.89578671878E-01 -0.19938656894E-01  0.10689649094E+00  0.89120634438E+00  0.88000000000E+00 0. -1.
        -11    1    4    4    0    0 -0.18929686114E-01  0.90794759090E-02 -0.27127829511E-01  0.34306707131E-01  0.51100000000E-03 0.  1.
         11    1    4    4    0    0 -0.69672945656E-01 -0.41176986328E-02 -0.75486702038E-01  0.10280942614E+00  0.51100000000E-03 0. -1.
</event>
<event>
 8    1  0.1150863E+005  0.1043930E+01  0.7957747E-01            NaN
         13   -1    0    0    0    0  0.00000000000E+00  0.00000000000E+00  0.74505805969E-08  0.10566000000E+00  0.10566000000E+00 0. -1.
     999900   -1    0    0    0    0 -0.00000000000E+00 -0.00000000000E+00 -0.74505805969E-08  0.93827000000E+00  0.93827000000E+00 0. -1.
     999902    2    1    2    0    0 -0.38946805093E-02  0.22919452817E-01  0.26392573831E-02  0.10205326597E+01  0.10202644138E+01 0.  0.
     999903    2    3    3    0    0 -0.74981907559E-01  0.79410281660E-01  0.73526874812E-01  0.13302510373E+00  0.19005199511E-01 0.  0.
         14    1    1    2    0    0  0.38946805093E-02 -0.22919452817E-01 -0.26392573831E-02  0.23397340303E-01  0.00000000000E+00 0. -1.
     999901    1    3    3    0    0  0.71087227050E-01 -0.56490828843E-01 -0.70887617428E-01  0.88750755597E+00  0.88000000000E+00 0. -1.
        -11    1    4    4    0    0 -0.34464763954E-01  0.23417876123E-01  0.29967869612E-01  0.51327879428E-01  0.51100000000E-03 0. -1.
         11    1    4    4    0    0 -0.40517143606E-01  0.55992405537E-01  0.43559005199E-01  0.81697224302E-01  0.51100000000E-03 0.  1.
</event>
<event>
 8    1  0.1150863E+005  0.1043930E+01  0.7957747E-01            NaN
         13   -1    0    0    0    0  0.00000000000E+00  0.00000000000E+00  0.74505805969E-08  0.10566000000E+00  0.10566000000E+00 0.  1.
     999900   -1    0    0    0    0 -0.00000000000E+00 -0.00000000000E+00 -0.74505805969E-08  0.93827000000E+00  0.93827000000E+00 0. -1.
     999902    2    1    2    0    0  0.37557205832E-02  0.64920326970E-02  0.26389077339E-01  0.10164958000E+01  0.10161255218E+01 0.  0.
     999903    2    3    3    0    0 -0.96283561262E-01 -0.78789846254E-01 -0.42996316386E-02  0.12620222280E+00  0.20740061826E-01 0.  0.
         14    1    1    2    0    0 -0.37557205832E-02 -0.64920326970E-02 -0.26389077339E-01  0.27434199978E-01  0.00000000000E+00 0. -1.
     999901    1    3    3    0    0  0.10003928185E+00  0.85281878951E-01  0.30688708977E-01  0.89029357723E+00  0.88000000000E+00 0.  1.
        -11    1    4    4    0    0 -0.59174780746E-01 -0.36184997019E-01  0.16866053399E-02  0.69383819758E-01  0.51100000000E-03 0. -1.
         11    1    4    4    0    0 -0.37108780516E-01 -0.42604849235E-01 -0.59862369785E-02  0.56818403039E-01  0.51100000000E-03 0.  1.
</event>
<event>
 8    1  0.1412772E+005  0.1043930E+01  0.7957747E-01            NaN
         13   -1    0    0    0    0  0.00000000000E+00  0.00000000000E+00  0.74505805969E-08  0.10566000000E+00  0.10566000000E+00 0.  1.
     999900   -1    0    0    0    0 -0.00000000000E+00 -0.00000000000E+00 -0.74505805969E-08  0.93827000000E+00  0.93827000000E+00 0.  1.
     999902    2    1    2    0    0 -0.12730147122E-01 -0.19389820466E-01  0.24486969141E-02  0.10206058087E+01  0.10203392567E+01 0.  0.
     999903    2    3    3    0    0 -0.82523145016E-01  0.98316400675E-01 -0.30813397743E-03  0.13002542649E+00  0.20744456671E-01 0.  0.
         14    1    1    2    0    0  0.12730147122E-01  0.19389820466E-01 -0.24486969141E-02  0.23324191305E-01  0.00000000000E+00 0.  1.
     999901    1    3    3    0    0  0.69792997893E-01 -0.11770622114E+00  0.27568308915E-02  0.89058038220E+00  0.88000000000E+00 0. -1.
        -11    1    4    4    0    0 -0.54053348351E-01  0.48615949311E-01  0.15070336307E-02  0.72717310640E-01  0.51100000000E-03 0.  1.
         11    1    4    4    0    0 -0.28469796665E-01  0.49700451364E-01 -0.18151676081E-02  0.57308115851E-01  0.51100000000E-03 0. -1.
</event>
<event>
 8    1  0.1150863E+005  0.1043930E+01  0.7957747E-01            NaN
         13   -1    0    0    0    0  0.00000000000E+00  0.00000000000E+00  0.74505805969E-08  0.10566000000E+00  0.10566000000E+00 0.  1.
     999900   -1    0    0    0    0 -0.00000000000E+00 -0.00000000000E+00 -0.74505805969E-08  0.93827000000E+00  0.93827000000E+00 0. -1.
     999902    2    1    2    0    0  0.91183014671E-02  0.18669049989E-01  0.99024207573E-02  0.10209140319E+01  0.10206545575E+01 0.  0.
     999903    2    3    3    0    0 -0.72527670202E-01  0.89275376758E-01 -0.60943912988E-01  0.13149257892E+00  0.18595212870E-01 0.  0.
         14    1    1    2    0    0 -0.91183014671E-02 -0.18669049989E-01 -0.99024207573E-02  0.23015968065E-01  0.00000000000E+00 0.  1.
     999901    1    3    3    0    0  0.81645971669E-01 -0.70606326769E-01  0.70846333745E-01  0.88942145301E+00  0.88000000000E+00 0.  1.
        -11    1    4    4    0    0 -0.36531168819E-01  0.59247710529E-01 -0.37896043155E-01  0.79253950728E-01  0.51100000000E-03 0. -1.
         11    1    4    4    0    0 -0.35996501383E-01  0.30027666228E-01 -0.23047869833E-01  0.52238628196E-01  0.51100000000E-03 0.  1.
</event>
<event>
 8    1  0.1150863E+005  0.1043930E+01  0.7957747E-01            NaN
         13   -1    0    0    0    0  0.00000000000E+00  0.00000000000E+00  0.74505805969E-08  0.10566000000E+00  0.10566000000E+00 0.  1.
     999900   -1    0    0    0    0 -0.00000000000E+00 -0.00000000000E+00 -0.74505805969E-08  0.93827000000E+00  0.93827000000E+00 0. -1.
     999902    2    1    2    0    0 -0.96234160854E-03  0.22352389503E-01 -0.83523750554E-02  0.10200486770E+01  0.10197690846E+01 0.  0.
     999903    2    3    3    0    0  0.60107020059E-01  0.10059774904E+00  0.57377879025E-01  0.13203275964E+00  0.20190781224E-01 0.  0.
         14    1    1    2    0    0  0.96234160854E-03 -0.22352389503E-01  0.83523750554E-02  0.23881322973E-01  0.00000000000E+00 0. -1.
     999901    1    3    3    0    0 -0.61069361668E-01 -0.78245359534E-01 -0.65730254080E-01  0.88801591738E+00  0.88000000000E+00 0.  1.
        -11    1    4    4    0    0  0.27576452208E-01  0.64811178911E-01  0.36831322024E-01  0.79484319405E-01  0.51100000000E-03 0.  1.
         11    1    4    4    0    0  0.32530567851E-01  0.35786570126E-01  0.20546557001E-01  0.52548440240E-01  0.51100000000E-03 0. -1.
</event>
<event>
 8    1  0.1150863E+005  0.1043930E+01  0.7957747E-01            NaN
         13   -1    0    0    0    0  0.00000000000E+00  0.00000000000E+00  0.74505805969E-08  0.10566000000E+00  0.10566000000E+00 0.  1.
     999900   -1    0    0    0    0 -0.00000000000E+00 -0.00000000000E+00 -0.74505805969E-08  0.93827000000E+00  0.93827000000E+00 0.  1.
     999902    2    1    2    0    0 -0.16370939659E-01  0.16161437056E-01  0.18485930458E-01  0.10144184880E+01  0.10139891220E+01 0.  0.
     999903    2    3    3    0    0  0.52155626428E-02  0.10024053122E+00 -0.72633807472E-01  0.12546512718E+00  0.19760110212E-01 0.  0.
         14    1    1    2    0    0  0.16370939659E-01 -0.16161437056E-01 -0.18485930458E-01  0.29511511956E-01  0.00000000000E+00 0. -1.
     999901    1    3    3    0    0 -0.21586502301E-01 -0.84079094168E-01  0.91119737931E-01  0.88895336087E+00  0.88000000000E+00 0. -1.
        -11    1    4    4    0    0 -0.30942056808E-02  0.55888399413E-01 -0.49647726757E-01  0.74821422005E-01  0.51100000000E-03 0. -1.
         11    1    4    4    0    0  0.83097683236E-02  0.44352131811E-01 -0.22986080715E-01  0.50643705170E-01  0.51100000000E-03 0.  1.
</event>
<event>
 8    1  0.1150863E+005  0.1043930E+01  0.7957747E-01            NaN
         13   -1    0    0    0    0  0.00000000000E+00  0.00000000000E+00  0.74505805969E-08  0.10566000000E+00  0.10566000000E+00 0. -1.
     999900   -1    0    0    0    0 -0.00000000000E+00 -0.00000000000E+00 -0.74505805969E-08  0.93827000000E+00  0.93827000000E+00 0.  1.
     999902    2    1    2    0    0  0.21226282330E-01  0.61900855006E-02  0.81463240851E-02  0.10203665789E+01  0.10200944664E+01 0.  0.
     999903    2    3    3    0    0 -0.91942446837E-01  0.11527401062E-01  0.88041369530E-01  0.12951369174E+00  0.20885858676E-01 0.  0.
         14    1    1    2    0    0 -0.21226282330E-01 -0.61900855006E-02 -0.81463240851E-02  0.23563421147E-01  0.00000000000E+00 0.  1.
     999901    1    3    3    0    0  0.11316872917E+00 -0.53373155612E-02 -0.79895045444E-01  0.89085288712E+00  0.88000000000E+00 0.  1.
        -11    1    4    4    0    0 -0.47712501532E-01  0.83978670393E-02  0.59706596130E-01  0.76890478707E-01  0.51100000000E-03 0.  1.
         11    1    4    4    0    0 -0.44229945305E-01  0.31295340224E-02  0.28334773399E-01  0.52623213029E-01  0.51100000000E-03 0. -1.
</event>
<event>
 8    1  0.1150863E+005  0.1043930E+01  0.7957747E-01            NaN
         13   -1    0    0    0    0  0.00000000000E+00  0.00000000000E+00  0.74505805969E-08  0.10566000000E+00  0.10566000000E+00 0.  1.
     999900   -1    0    0    0    0 -0.00000000000E+00 -0.00000000000E+00 -0.74505805969E-08  0.93827000000E+00  0.93827000000E+00 0.  1.
     999902    2    1    2    0    0 -0.11699281024E-01  0.10954960808E-01  0.17100848155E-01  0.10204923519E+01  0.10202231701E+01 0.  0.
     999903    2    3    3    0    0 -0.23039446121E-01  0.11348014837E+00  0.63320066516E-01  0.13326282712E+00  0.18465917710E-01 0.  0.
         14    1    1    2    0    0  0.11699281024E-01 -0.10954960808E-01 -0.17100848155E-01  0.23437648142E-01  0.00000000000E+00 0. -1.
     999901    1    3    3    0    0  0.11340165097E-01 -0.10252518756E+00 -0.46219218361E-01  0.88722952474E+00  0.88000000000E+00 0.  1.
        -11    1    4    4    0    0 -0.13813039713E-01  0.98487722298E-01  0.50976181599E-01  0.11175626927E+00  0.51100000000E-03 0.  1.
         11    1    4    4    0    0 -0.92264064079E-02  0.14992426067E-01  0.12343884917E-01  0.21506557847E-01  0.51100000000E-03 0. -1.
</event>
<event>
 8    1  0.1150863E+005  0.1043930E+01  0.7957747E-01            NaN
         13   -1    0    0    0    0  0.00000000000E+00  0.00000000000E+00  0.74505805969E-08  0.10566000000E+00  0.10566000000E+00 0. -1.
     999900   -1    0    0    0    0 -0.00000000000E+00 -0.00000000000E+00 -0.74505805969E-08  0.93827000000E+00  0.93827000000E+00 0. -1.
     999902    2    1    2    0    0 -0.94528268154E-02  0.16301164649E-01  0.14270314399E-01  0.10202926191E+01  0.10200187757E+01 0.  0.
     999903    2    3    3    0    0  0.60713454049E-01  0.82784662869E-01  0.81228278046E-01  0.13247127928E+00  0.20277642153E-01 0.  0.
         14    1    1    2    0    0  0.94528268154E-02 -0.16301164649E-01 -0.14270314399E-01  0.23637380920E-01  0.00000000000E+00 0.  1.
     999901    1    3    3    0    0 -0.70166280864E-01 -0.66483498220E-01 -0.66957963647E-01  0.88782133980E+00  0.88000000000E+00 0. -1.
        -11    1    4    4    0    0  0.49351475518E-01  0.51481980906E-01  0.56644563131E-01  0.91075958118E-01  0.51100000000E-03 0. -1.
         11    1    4    4    0    0  0.11361978531E-01  0.31302681963E-01  0.24583714915E-01  0.41395321164E-01  0.51100000000E-03 0.  1.
</event>
<event>
 8    1  0.1150863E+005  0.1043930E+01  0.7957747E-01            NaN
         13   -1    0    0    0    0  0.00000000000E+00  0.00000000000E+00  0.74505805969E-08  0.10566000000E+00  0.10566000000E+00 0. -1.
     999900   -1    0    0    0    0 -0.00000000000E+00 -0.00000000000E+00 -0.74505805969E-08  0.93827000000E+00  0.93827000000E+00 0. -1.
     999902    2    1    2    0    0 -0.40291169473E-02 -0.22757609280E-01 -0.41359994212E-02  0.10204513064E+01  0.10201811700E+01 0.  0.
     999903    2    3    3    0    0  0.91909931324E-01 -0.80124026963E-01  0.45099377500E-01  0.13201485439E+00  0.22949351970E-01 0.  0.
         14    1    1    2    0    0  0.40291169473E-02  0.22757609280E-01  0.41359994212E-02  0.23478693633E-01  0.00000000000E+00 0. -1.
     999901    1    3    3    0    0 -0.95939048271E-01  0.57366417683E-01 -0.49235376921E-01  0.88843645198E+00  0.88000000000E+00 0.  1.
        -11    1    4    4    0    0  0.59146237729E-01 -0.63799884666E-01  0.36885060353E-01  0.94495880963E-01  0.51100000000E-03 0. -1.
         11    1    4    4    0    0  0.32763693596E-01 -0.16324142297E-01  0.82143171473E-02  0.37518973426E-01  0.51100000000E-03 0.  1.
</event>
<event>
 8    1  0.1150863E+005  0.1043930E+01  0.7957747E-01            NaN
         13   -1    0    0    0    0  0.00000000000E+00  0.00000000000E+00  0.74505805969E-08  0.10566000000E+00  0.10566000000E+00 0.  1.
     999900   -1    0    0    0    0 -0.00000000000E+00 -0.00000000000E+00 -0.74505805969E-08  0.93827000000E+00  0.93827000000E+00 0. -1.
     999902    2    1    2    0    0  0.17773234893E-01  0.14844449102E-01 -0.45025596444E-02  0.10203393537E+01  0.10200666048E+01 0.  0.
     999903    2    3    3    0    0 -0.63904010216E-01 -0.10209843085E+00 -0.39079333065E-01  0.12818333442E+00  0.19898764971E-01 0.  0.
         14    1    1    2    0    0 -0.17773234893E-01 -0.14844449102E-01  0.45025596444E-02  0.23590646262E-01  0.00000000000E+00 0.  1.
     999901    1    3    3    0    0  0.81677245110E-01  0.11694287995E+00  0.34576773420E-01  0.89215601932E+00  0.88000000000E+00 0.  1.
        -11    1    4    4    0    0 -0.16026439982E-01 -0.32194281637E-01 -0.20648881616E-01  0.41472352015E-01  0.51100000000E-03 0.  1.
         11    1    4    4    0    0 -0.47877570234E-01 -0.69904149213E-01 -0.18430451448E-01  0.86710982408E-01  0.51100000000E-03 0. -1.
</event>
<event>
 8    1  0.1150863E+005  0.1043930E+01  0.7957747E-01            NaN
         13   -1    0    0    0    0  0.00000000000E+00  0.00000000000E+00  0.74505805969E-08  0.10566000000E+00  0.10566000000E+00 0. -1.
     999900   -1    0    0    0    0 -0.00000000000E+00 -0.00000000000E+00 -0.74505805969E-08  0.93827000000E+00  0.93827000000E+00 0. -1.
     999902    2    1    2    0    0  0.65329091475E-02  0.21680348028E-01  0.72759691882E-02  0.10201464738E+01  0.10198691935E+01 0.  0.
     999903    2    3    3    0    0  0.87676831189E-01 -0.91554257733E-01  0.23678858756E-02  0.12917481243E+00  0.24720769522E-01 0.  0.
         14    1    1    2    0    0 -0.65329091475E-02 -0.21680348028E-01 -0.72759691882E-02  0.23783526235E-01  0.00000000000E+00 0.  1.
     999901    1    3    3    0    0 -0.81143922041E-01  0.11323460576E+00  0.49080833126E-02  0.89097166134E+00  0.88000000000E+00 0. -1.
        -11    1    4    4    0    0  0.31900975742E-01 -0.18229392441E-01 -0.31522997167E-02  0.36880633353E-01  0.51100000000E-03 0.  1.
         11    1    4    4    0    0  0.55775855447E-01 -0.73324865292E-01  0.55201855922E-02  0.92294179074E-01  0.51100000000E-03 0. -1.
</event>
<event>
 8    1  0.1150863E+005  0.1043930E+01  0.7957747E-01            NaN
         13   -1    0    0    0    0  0.00000000000E+00  0.00000000000E+00  0.74505805969E-08  0.10566000000E+00  0.10566000000E+00 0. -1.
     999900   -1    0    0    0    0 -0.00000000000E+00 -0.00000000000E+00 -0.74505805969E-08  0.93827000000E+00  0.93827000000E+00 0.  1.
     999902    2    1    2    0    0 -0.32602448741E-02 -0.23693184510E-01  0.45970564726E-02  0.10195757577E+01  0.10192848457E+01 0.  0.
     999903    2    3    3    0    0  0.17964281287E-01  0.41971612443E-01 -0.11780195741E+00  0.12842825889E+00  0.23069132141E-01 0.  0.
         14    1    1    2    0    0  0.32602448741E-02  0.23693184510E-01 -0.45970564726E-02  0.24354242280E-01  0.00000000000E+00 0.  1.
     999901    1    3    3    0    0 -0.21224526161E-01 -0.65664796953E-01  0.12239901389E+00  0.89114749883E+00  0.88000000000E+00 0. -1.
        -11    1    4    4    0    0 -0.53614614636E-02  0.11057466480E-01 -0.32337432400E-01  0.34597449172E-01  0.51100000000E-03 0.  1.
         11    1    4    4    0    0  0.23325742750E-01  0.30914145963E-01 -0.85464525014E-01  0.93830809718E-01  0.51100000000E-03 0. -1.
</event>
<event>
 8    1  0.1150863E+005  0.1043930E+01  0.7957747E-01            NaN
         13   -1    0    0    0    0  0.00000000000E+00  0.00000000000E+00  0.74505805969E-08  0.10566000000E+00  0.10566000000E+00 0.  1.
     999900   -1    0    0    0    0 -0.00000000000E+00 -0.00000000000E+00 -0.74505805969E-08  0.93827000000E+00  0.93827000000E+00 0. -1.
     999902    2    1    2    0    0  0.39020988376E-02 -0.21605934721E-01  0.70476163011E-02  0.10208711257E+01  0.10206106719E+01 0.  0.
     999903    2    3    3    0    0  0.29387169930E-01 -0.62188099681E-01 -0.11050118584E+00  0.13176251483E+00  0.20491040580E-01 0.  0.
         14    1    1    2    0    0 -0.39020988376E-02  0.21605934721E-01 -0.70476163011E-02  0.23058874344E-01  0.00000000000E+00 0. -1.
     999901    1    3    3    0    0 -0.25485071093E-01  0.40582164960E-01  0.11754880214E+00  0.88910861083E+00  0.88000000000E+00 0.  1.
        -11    1    4    4    0    0  0.51678154125E-02 -0.13201952777E-01 -0.40774262570E-01  0.43171744028E-01  0.51100000000E-03 0.  1.
         11    1    4    4    0    0  0.24219354518E-01 -0.48986146904E-01 -0.69726923267E-01  0.88590770801E-01  0.51100000000E-03 0. -1.
</event>
<event>
 8    1  0.1150863E+005  0.1043930E+01  0.7957747E-01            NaN
         13   -1    0    0    0    0  0.00000000000E+00  0.00000000000E+00  0.74505805969E-08  0.10566000000E+00  0.10566000000E+00 0.  1.
     999900   -1    0    0    0    0 -0.00000000000E+00 -0.00000000000E+00 -0.74505805969E-08  0.93827000000E+00  0.93827000000E+00 0.  1.
     999902    2    1    2    0    0 -0.12380535185E-01  0.18882908882E-01 -0.51787198356E-02  0.10207640543E+01  0.10205011483E+01 0.  0.
     999903    2    3    3    0    0 -0.32271977476E-01 -0.11767549962E+00 -0.37908036417E-01  0.12940830237E+00  0.20505749337E-01 0.  0.
         14    1    1    2    0    0  0.12380535185E-01 -0.18882908882E-01  0.51787198356E-02  0.23165945663E-01  0.00000000000E+00 0. -1.
     999901    1    3    3    0    0  0.19891442291E-01  0.13655840850E+00  0.32729316581E-01  0.89135575197E+00  0.88000000000E+00 0. -1.
        -11    1    4    4    0    0 -0.15042088336E-01 -0.86046430828E-01 -0.22322513157E-01  0.90159904582E-01  0.51100000000E-03 0. -1.
         11    1    4    4    0    0 -0.17229889140E-01 -0.31629068789E-01 -0.15585523260E-01  0.39248397783E-01  0.51100000000E-03 0.  1.
</event>
<event>
 8    1  0.1150863E+005  0.1043930E+01  0.7957747E-01            NaN
         13   -1    0    0    0    0  0.00000000000E+00  0.00000000000E+00  0.74505805969E-08  0.10566000000E+00  0.10566000000E+00 0.  1.
     999900   -1    0    0    0    0 -0.00000000000E+00 -0.00000000000E+00 -0.74505805969E-08  0.93827000000E+00  0.93827000000E+00 0. -1.
     999902    2    1    2    0    0 -0.54109420012E-02  0.23198269049E-01 -0.10645960607E-02  0.10200852659E+01  0.10198065397E+01 0.  0.
     999903    2    3    3    0    0 -0.19313482116E-02  0.61254145149E-01  0.11484481147E+00  0.13166231029E+00  0.19744184557E-01 0.  0.
         14    1    1    2    0    0  0.54109420012E-02 -0.23198269049E-01  0.10645960607E-02  0.23844734114E-01  0.00000000000E+00 0.  1.
     999901    1    3    3    0    0 -0.34795937896E-02 -0.38055876099E-01 -0.11590940754E+00  0.88842295560E+00  0.88000000000E+00 0. -1.
        -11    1    4    4    0    0  0.39612668448E-02  0.33220292971E-02  0.44095539149E-02  0.68141617529E-02  0.51100000000E-03 0.  1.
         11    1    4    4    0    0 -0.58926150564E-02  0.57932115851E-01  0.11043525756E+00  0.12484814853E+00  0.51100000000E-03 0. -1.
</event>
<event>
 8    1  0.1150863E+005  0.1043930E+01  0.7957747E-01            NaN
         13   -1    0    0    0    0  0.00000000000E+00  0.00000000000E+00  0.74505805969E-08  0.10566000000E+00  0.10566000000E+00 0. -1.
     999900   -1    0    0    0    0 -0.00000000000E+00 -0.00000000000E+00 -0.74505805969E-08  0.93827000000E+00  0.93827000000E+00 0. -1.
     999902    2    1    2    0    0  0.70626654072E-02  0.22222160449E-01  0.41556152474E-02  0.10202450935E+01  0.10199701349E+01 0.  0.
     999903    2    3    3    0    0 -0.40846333998E-01 -0.57970216676E-01  0.10661697769E+00  0.12938908922E+00  0.18584602635E-01 0.  0.
         14    1    1    2    0    0 -0.70626654072E-02 -0.22222160449E-01 -0.41556152474E-02  0.23684906497E-01  0.00000000000E+00 0. -1.
     999901    1    3    3    0    0  0.47908999405E-01  0.80192377126E-01 -0.10246136244E+00  0.89085600428E+00  0.88000000000E+00 0. -1.
        -11    1    4    4    0    0 -0.19623513290E-02 -0.15076368529E-01  0.18466900605E-01  0.23925619109E-01  0.51100000000E-03 0.  1.
         11    1    4    4    0    0 -0.38883982669E-01 -0.42893848147E-01  0.88150077084E-01  0.10546347011E+00  0.51100000000E-03 0. -1.
</event>
<event>
 8    1  0.1150863E+005  0.1043930E+01  0.7957747E-01            NaN
         13   -1    0    0    0    0  0.00000000000E+00  0.00000000000E+00  0.74505805969E-08  0.10566000000E+00  0.10566000000E+00 0. -1.
     999900   -1    0    0    0    0 -0.00000000000E+00 -0.00000000000E+00 -0.74505805969E-08  0.93827000000E+00  0.93827000000E+00 0.  1.
     999902    2    1    2    0    0  0.33379221326E-02  0.64572882427E-02  0.22926507750E-01  0.10198787411E+01  0.10195951077E+01 0.  0.
     999903    2    3    3    0    0  0.10089875943E+00  0.34312560645E-02 -0.77539125416E-01  0.12880039593E+00  0.19618686163E-01 0.  0.
         14    1    1    2    0    0 -0.33379221326E-02 -0.64572882427E-02 -0.22926507750E-01  0.24051258869E-01  0.00000000000E+00 0.  1.
     999901    1    3    3    0    0 -0.97560837302E-01  0.30260321782E-02  0.10046563317E+00  0.89107834520E+00  0.88000000000E+00 0. -1.
        -11    1    4    4    0    0  0.41506297052E-01  0.78150018078E-03 -0.20077330354E-01  0.46116632061E-01  0.51100000000E-03 0.  1.
         11    1    4    4    0    0  0.59392462382E-01  0.26497558837E-02 -0.57461795062E-01  0.82683763865E-01  0.51100000000E-03 0. -1.
</event>
<event>
 8    1  0.1150863E+005  0.1043930E+01  0.7957747E-01            NaN
         13   -1    0    0    0    0  0.00000000000E+00  0.00000000000E+00  0.74505805969E-08  0.10566000000E+00  0.10566000000E+00 0.  1.
     999900   -1    0    0    0    0 -0.00000000000E+00 -0.00000000000E+00 -0.74505805969E-08  0.93827000000E+00  0.93827000000E+00 0.  1.
     999902    2    1    2    0    0  0.18867039033E-01 -0.13547266770E-01 -0.10196715328E-01  0.10185633565E+01  0.10182474378E+01 0.  0.
     999903    2    3    3    0    0  0.10678553037E+00 -0.50376715800E-01  0.53757433140E-01  0.13110845481E+00  0.18936797896E-01 0.  0.
         14    1    1    2    0    0 -0.18867039033E-01  0.13547266770E-01  0.10196715328E-01  0.25366643497E-01  0.00000000000E+00 0.  1.
     999901    1    3    3    0    0 -0.87918491332E-01  0.36829449030E-01 -0.63954148468E-01  0.88745490169E+00  0.88000000000E+00 0.  1.
        -11    1    4    4    0    0  0.25162424492E-01 -0.21023485905E-01  0.16368758240E-01  0.36651492919E-01  0.51100000000E-03 0.  1.
         11    1    4    4    0    0  0.81623105874E-01 -0.29353229895E-01  0.37388674901E-01  0.94456961890E-01  0.51100000000E-03 0. -1.
</event>
<event>
 8    1  0.1150863E+005  0.1043930E+01  0.7957747E-01            NaN
         13   -1    0    0    0    0  0.00000000000E+00  0.00000000000E+00  0.74505805969E-08  0.10566000000E+00  0.10566000000E+00 0.  1.
     999900   -1    0    0    0    0 -0.00000000000E+00 -0.00000000000E+00 -0.74505805969E-08  0.93827000000E+00  0.93827000000E+00 0.  1.
     999902    2    1    2    0    0 -0.10218959569E-01  0.13521740254E-01 -0.18163839903E-01  0.10190866976E+01  0.10187838375E+01 0.  0.
     999903    2    3    3    0    0  0.86751449747E-01  0.67124622810E-01  0.63565861613E-01  0.12838120564E+00  0.20238235541E-01 0.  0.
         14    1    1    2    0    0  0.10218959569E-01 -0.13521740254E-01  0.18163839903E-01  0.24843302401E-01  0.00000000000E+00 0.  1.
     999901    1    3    3    0    0 -0.96970409316E-01 -0.53602882556E-01 -0.81729701515E-01  0.89070549196E+00  0.88000000000E+00 0.  1.
        -11    1    4    4    0    0  0.23238855380E-01  0.92734124316E-02  0.20106266645E-01  0.32102393320E-01  0.51100000000E-03 0.  1.
         11    1    4    4    0    0  0.63512594367E-01  0.57851210378E-01  0.43459594968E-01  0.96278812317E-01  0.51100000000E-03 0. -1.
</event>
<event>
 8    1  0.1150863E+005  0.1043930E+01  0.7957747E-01            NaN
         13   -1    0    0    0    0  0.00000000000E+00  0.00000000000E+00  0.74505805969E-08  0.10566000000E+00  0.10566000000E+00 0. -1.
     999900   -1    0    0    0    0 -0.00000000000E+00 -0.00000000000E+00 -0.74505805969E-08  0.93827000000E+00  0.93827000000E+00 0. -1.
     999902    2    1    2    0    0 -0.10491878852E-01 -0.18119175482E-01  0.11389939310E-01  0.10200948419E+01  0.10198163422E+01 0.  0.
     999903    2    3    3    0    0  0.80371433438E-01  0.86689886402E-01 -0.43368957285E-01  0.12754813856E+00  0.20321355172E-01 0.  0.
         14    1    1    2    0    0  0.10491878852E-01  0.18119175482E-01 -0.11389939310E-01  0.23835158055E-01  0.00000000000E+00 0.  1.
     999901    1    3    3    0    0 -0.90863312290E-01 -0.10480906188E+00  0.54758896595E-01  0.89254670339E+00  0.88000000000E+00 0.  1.
        -11    1    4    4    0    0  0.13493109085E-01  0.26660279709E-01 -0.14000735885E-01  0.33001761063E-01  0.51100000000E-03 0. -1.
         11    1    4    4    0    0  0.66878324353E-01  0.60029606693E-01 -0.29368221400E-01  0.94546377494E-01  0.51100000000E-03 0.  1.
</event>
<event>
 8    1  0.1150863E+005  0.1043930E+01  0.7957747E-01            NaN
         13   -1    0    0    0    0  0.00000000000E+00  0.00000000000E+00  0.74505805969E-08  0.10566000000E+00  0.10566000000E+00 0. -1.
     999900   -1    0    0    0    0 -0.00000000000E+00 -0.00000000000E+00 -0.74505805969E-08  0.93827000000E+00  0.93827000000E+00 0. -1.
     999902    2    1    2    0    0 -0.19334209790E-01 -0.11565820277E-01  0.35753366159E-02  0.10211185358E+01  0.10208637036E+01 0.  0.
     999903    2    3    3    0    0 -0.10592748815E-01  0.14680751366E-02 -0.12909937131E+00  0.13103490283E+00  0.19726543377E-01 0.  0.
         14    1    1    2    0    0  0.19334209790E-01  0.11565820277E-01 -0.35753366159E-02  0.22811464197E-01  0.00000000000E+00 0.  1.
     999901    1    3    3    0    0 -0.87414609751E-02 -0.13033895414E-01  0.13267470793E+00  0.89008363298E+00  0.88000000000E+00 0.  1.
        -11    1    4    4    0    0 -0.69951578846E-02  0.78608612862E-02 -0.32692707828E-01  0.34348211600E-01  0.51100000000E-03 0.  1.
         11    1    4    4    0    0 -0.35975909306E-02 -0.63927861496E-02 -0.96406663484E-01  0.96686691226E-01  0.51100000000E-03 0. -1.
</event>
<event>
 8    1  0.1150863E+005  0.1043930E+01  0.7957747E-01            NaN
         13   -1    0    0    0    0  0.00000000000E+00  0.00000000000E+00  0.74505805969E-08  0.10566000000E+00  0.10566000000E+00 0.  1.
     999900   -1    0    0    0    0 -0.00000000000E+00 -0.00000000000E+00 -0.74505805969E-08  0.93827000000E+00  0.93827000000E+00 0.  1.
     999902    2    1    2    0    0 -0.22931194884E-01 -0.13855158515E-02 -0.10758988315E-01  0.10185623990E+01  0.10182464561E+01 0.  0.
     999903    2    3    3    0    0 -0.89368127818E-01 -0.31871564170E-01  0.86618644734E-01  0.13017865945E+00  0.21005591859E-01 0.  0.
         14    1    1    2    0    0  0.22931194884E-01  0.13855158515E-02  0.10758988315E-01  0.25367601040E-01  0.00000000000E+00 0.  1.
     999901    1    3    3    0    0  0.66436932935E-01  0.30486048318E-01 -0.97377633050E-01  0.88838373951E+00  0.88000000000E+00 0.  1.
        -11    1    4    4    0    0 -0.40362622462E-01 -0.25213805323E-01  0.39155038485E-01  0.61629988079E-01  0.51100000000E-03 0. -1.
         11    1    4    4    0    0 -0.49005505356E-01 -0.66577588463E-02  0.47463606249E-01  0.68548671375E-01  0.51100000000E-03 0.  1.
</event>
<event>
 8    1  0.1150863E+005  0.1043930E+01  0.7957747E-01            NaN
         13   -1    0    0    0    0  0.00000000000E+00  0.00000000000E+00  0.74505805969E-08  0.10566000000E+00  0.10566000000E+00 0.  1.
     999900   -1    0    0    0    0 -0.00000000000E+00 -0.00000000000E+00 -0.74505805969E-08  0.93827000000E+00  0.93827000000E+00 0. -1.
     999902    2    1    2    0    0  0.19212967059E-01  0.13712239350E-01  0.66394059096E-03  0.10203163508E+01  0.10200430634E+01 0.  0.
     999903    2    3    3    0    0 -0.56274516782E-01  0.11518361354E+00 -0.19439256771E-01  0.13104758460E+00  0.19013118077E-01 0.  0.
         14    1    1    2    0    0 -0.19212967059E-01 -0.13712239350E-01 -0.66394059096E-03  0.23613649195E-01  0.00000000000E+00 0.  1.
     999901    1    3    3    0    0  0.75487483841E-01 -0.10147137419E+00  0.20103197362E-01  0.88926876620E+00  0.88000000000E+00 0. -1.
        -11    1    4    4    0    0 -0.34188481129E-01  0.56215158569E-01 -0.25290305141E-02  0.65845678759E-01  0.51100000000E-03 0. -1.
         11    1    4    4    0    0 -0.22086035653E-01  0.58968454973E-01 -0.16910226257E-01  0.65201905845E-01  0.51100000000E-03 0.  1.
</event>
<event>
 8    1  0.1150863E+005  0.1043930E+01  0.7957747E-01            NaN
         13   -1    0    0    0    0  0.00000000000E+00  0.00000000000E+00  0.74505805969E-08  0.10566000000E+00  0.10566000000E+00 0. -1.
     999900   -1    0    0    0    0 -0.00000000000E+00 -0.00000000000E+00 -0.74505805969E-08  0.93827000000E+00  0.93827000000E+00 0. -1.
     999902    2    1    2    0    0  0.18902000039E-01 -0.78191770586E-02  0.13782063866E-01  0.10192648339E+01  0.10189663543E+01 0.  0.
     999903    2    3    3    0    0  0.70054609844E-01 -0.10831564486E+00  0.11159867540E-01  0.13206530421E+00  0.26014892848E-01 0.  0.
         14    1    1    2    0    0 -0.18902000039E-01  0.78191770586E-02 -0.13782063866E-01  0.24665166121E-01  0.00000000000E+00 0.  1.
     999901    1    3    3    0    0 -0.51152609805E-01  0.10049646781E+00  0.26221963259E-02  0.88719952967E+00  0.88000000000E+00 0.  1.
        -11    1    4    4    0    0  0.56922242600E-01 -0.67275967963E-01  0.12151083886E-01  0.88961269823E-01  0.51100000000E-03 0. -1.
         11    1    4    4    0    0  0.13132367244E-01 -0.41039676901E-01 -0.99121634606E-03  0.43104034387E-01  0.51100000000E-03 0.  1.
</event>
<event>
 8    1  0.1150863E+005  0.1043930E+01  0.7957747E-01            NaN
         13   -1    0    0    0    0  0.00000000000E+00  0.00000000000E+00  0.74505805969E-08  0.10566000000E+00  0.10566000000E+00 0.  1.
     999900   -1    0    0    0    0 -0.00000000000E+00 -0.00000000000E+00 -0.74505805969E-08  0.93827000000E+00  0.93827000000E+00 0.  1.
     999902    2    1    2    0    0  0.20127994630E-01 -0.73305312683E-02  0.10088157932E-01  0.10202520823E+01  0.10199772878E+01 0.  0.
     999903    2    3    3    0    0 -0.96478002390E-01 -0.83482908120E-01 -0.21204910055E-02  0.12921605937E+00  0.20368913153E-01 0.  0.
         14    1    1    2    0    0 -0.20127994630E-01  0.73305312683E-02 -0.10088157932E-01  0.23677917708E-01  0.00000000000E+00 0.  1.
     999901    1    3    3    0    0  0.11660599702E+00  0.76152376851E-01  0.12208648938E-01  0.89103602293E+00  0.88000000000E+00 0. -1.
        -11    1    4    4    0    0 -0.66495822141E-01 -0.63193886292E-01 -0.96310031161E-02  0.92239790595E-01  0.51100000000E-03 0. -1.
         11    1    4    4    0    0 -0.29982180248E-01 -0.20289021828E-01  0.75105121105E-02  0.36976268773E-01  0.51100000000E-03 0.  1.
</event>
<event>
 8    1  0.1150863E+005  0.1043930E+01  0.7957747E-01            NaN
         13   -1    0    0    0    0  0.00000000000E+00  0.00000000000E+00  0.74505805969E-08  0.10566000000E+00  0.10566000000E+00 0.  1.
     999900   -1    0    0    0    0 -0.00000000000E+00 -0.00000000000E+00 -0.74505805969E-08  0.93827000000E+00  0.93827000000E+00 0. -1.
     999902    2    1    2    0    0 -0.22162089206E-01 -0.76427466685E-02  0.41163960948E-02  0.10201284351E+01  0.10198507291E+01 0.  0.
     999903    2    3    3    0    0  0.73516791905E-01 -0.42562194887E-01 -0.94642566195E-01  0.12876591133E+00  0.20178836922E-01 0.  0.
         14    1    1    2    0    0  0.22162089206E-01  0.76427466685E-02 -0.41163960948E-02  0.23801564895E-01  0.00000000000E+00 0. -1.
     999901    1    3    3    0    0 -0.95678881111E-01  0.34919448218E-01  0.98758962290E-01  0.89136252377E+00  0.88000000000E+00 0.  1.
        -11    1    4    4    0    0  0.17575009177E-01 -0.56495198179E-02 -0.10684905660E-01  0.21336034114E-01  0.51100000000E-03 0. -1.
         11    1    4    4    0    0  0.55941782728E-01 -0.36912675069E-01 -0.83957660535E-01  0.10742987722E+00  0.51100000000E-03 0.  1.
</event>
<event>
 8    1  0.1150863E+005  0.1043930E+01  0.7957747E-01            NaN
         13   -1    0    0    0    0  0.00000000000E+00  0.00000000000E+00  0.74505805969E-08  0.10566000000E+00  0.10566000000E+00 0.  1.
     999900   -1    0    0    0    0 -0.00000000000E+00 -0.00000000000E+00 -0.74505805969E-08  0.93827000000E+00  0.93827000000E+00 0.  1.
     999902    2    1    2    0    0  0.14892392093E-01 -0.14601594267E-01 -0.10909875151E-01  0.10203924710E+01  0.10201209632E+01 0.  0.
     999903    2    3    3    0    0 -0.32876561615E-01  0.64161543914E-01 -0.10653458692E+00  0.13043202781E+00  0.21571361759E-01 0.  0.
         14    1    1    2    0    0 -0.14892392093E-01  0.14601594267E-01  0.10909875151E-01  0.23537529038E-01  0.00000000000E+00 0. -1.
     999901    1    3    3    0    0  0.47768953709E-01 -0.78763138182E-01  0.95624711765E-01  0.88996044315E+00  0.88000000000E+00 0. -1.
        -11    1    4    4    0    0 -0.35596237676E-01  0.53762720426E-01 -0.90520920420E-01  0.11113874392E+00  0.51100000000E-03 0.  1.
         11    1    4    4    0    0  0.27196760604E-02  0.10398823488E-01 -0.16013666496E-01  0.19293283895E-01  0.51100000000E-03 0. -1.
</event>
<event>
 8    1  0.1150863E+005  0.1043930E+01  0.7957747E-01            NaN
         13   -1    0    0    0    0  0.00000000000E+00  0.00000000000E+00  0.74505805969E-08  0.10566000000E+00  0.10566000000E+00 0. -1.
     999900   -1    0    0    0    0 -0.00000000000E+00 -0.00000000000E+00 -0.74505805969E-08  0.93827000000E+00  0.93827000000E+00 0. -1.
     999902    2    1    2    0    0  0.73330503113E-03 -0.20824180316E-01 -0.76236588452E-02  0.10217420664E+01  0.10215011238E+01 0.  0.
     999903    2    3    3    0    0 -0.10269167496E+00 -0.67800047088E-01 -0.47927263336E-01  0.13352596711E+00  0.19741702817E-01 0.  0.
         14    1    1    2    0    0 -0.73330503113E-03  0.20824180316E-01  0.76236588452E-02  0.22187933574E-01  0.00000000000E+00 0. -1.
     999901    1    3    3    0    0  0.10342498000E+00  0.46975866772E-01  0.40303604491E-01  0.88821609931E+00  0.88000000000E+00 0.  1.
        -11    1    4    4    0    0 -0.79021636075E-01 -0.41560350684E-01 -0.34182805334E-01  0.95605475881E-01  0.51100000000E-03 0.  1.
         11    1    4    4    0    0 -0.23670038889E-01 -0.26239696404E-01 -0.13744458002E-01  0.37920491230E-01  0.51100000000E-03 0. -1.
</event>
<event>
 8    1  0.1150863E+005  0.1043930E+01  0.7957747E-01            NaN
         13   -1    0    0    0    0  0.00000000000E+00  0.00000000000E+00  0.74505805969E-08  0.10566000000E+00  0.10566000000E+00 0. -1.
     999900   -1    0    0    0    0 -0.00000000000E+00 -0.00000000000E+00 -0.74505805969E-08  0.93827000000E+00  0.93827000000E+00 0.  1.
     999902    2    1    2    0    0  0.90062149986E-03  0.22923252158E-01  0.74311625593E-02  0.10198155067E+01  0.10195303620E+01 0.  0.
     999903    2    3    3    0    0 -0.61469396368E-01  0.11209910194E+00 -0.27484458292E-01  0.13242525893E+00  0.20889193629E-01 0.  0.
         14    1    1    2    0    0 -0.90062149986E-03 -0.22923252158E-01 -0.74311625593E-02  0.24114493268E-01  0.00000000000E+00 0. -1.
     999901    1    3    3    0    0  0.62370017868E-01 -0.89175849779E-01  0.34915620851E-01  0.88739024780E+00  0.88000000000E+00 0.  1.
        -11    1    4    4    0    0 -0.34459891766E-01  0.42443268016E-01 -0.14844020875E-01  0.56652636453E-01  0.51100000000E-03 0. -1.
         11    1    4    4    0    0 -0.27009504603E-01  0.69655833921E-01 -0.12640437417E-01  0.75772622478E-01  0.51100000000E-03 0.  1.
</event>
<event>
 8    1  0.1150863E+005  0.1043930E+01  0.7957747E-01            NaN
         13   -1    0    0    0    0  0.00000000000E+00  0.00000000000E+00  0.74505805969E-08  0.10566000000E+00  0.10566000000E+00 0. -1.
     999900   -1    0    0    0    0 -0.00000000000E+00 -0.00000000000E+00 -0.74505805969E-08  0.93827000000E+00  0.93827000000E+00 0.  1.
     999902    2    1    2    0    0  0.21604159923E-01 -0.10795795420E-02 -0.95528189541E-02  0.10202834026E+01  0.10200093431E+01 0.  0.
     999903    2    3    3    0    0  0.64691754879E-01  0.49129809513E-01 -0.10321054080E+00  0.13284366243E+00  0.19906320231E-01 0.  0.
         14    1    1    2    0    0 -0.21604159923E-01  0.10795795420E-02  0.95528189541E-02  0.23646597386E-01  0.00000000000E+00 0. -1.
     999901    1    3    3    0    0 -0.43087594956E-01 -0.50209389055E-01  0.93657721844E-01  0.88743974018E+00  0.88000000000E+00 0. -1.
        -11    1    4    4    0    0  0.21197611337E-01  0.28380457135E-01 -0.45047821421E-01  0.57309304736E-01  0.51100000000E-03 0. -1.
         11    1    4    4    0    0  0.43494143542E-01  0.20749352378E-01 -0.58162719377E-01  0.75534357698E-01  0.51100000000E-03 0.  1.
</event>
<event>
 8    1  0.1150863E+005  0.1043930E+01  0.7957747E-01            NaN
         13   -1    0    0    0    0  0.00000000000E+00  0.00000000000E+00  0.74505805969E-08  0.10566000000E+00  0.10566000000E+00 0.  1.
     999900   -1    0    0    0    0 -0.00000000000E+00 -0.00000000000E+00 -0.74505805969E-08  0.93827000000E+00  0.93827000000E+00 0.  1.
     999902    2    1    2    0    0  0.17302934450E-01 -0.11575941286E-01 -0.33851270922E-02  0.10228384604E+01  0.10226209772E+01 0.  0.
     999903    2    3    3    0    0 -0.52631490926E-01 -0.12070416680E+00  0.57663246568E-02  0.13329726263E+00  0.19883158824E-01 0.  0.
         14    1    1    2    0    0 -0.17302934450E-01  0.11575941286E-01  0.33851270922E-02  0.21091539599E-01  0.00000000000E+00 0.  1.
     999901    1    3    3    0    0  0.69934425377E-01  0.10912822552E+00 -0.91514517490E-02  0.88954119777E+00  0.88000000000E+00 0. -1.
        -11    1    4    4    0    0 -0.27315033405E-01 -0.63871098745E-01 -0.68724396681E-02  0.69807734906E-01  0.51100000000E-03 0.  1.
         11    1    4    4    0    0 -0.25316457522E-01 -0.56833068058E-01  0.12638764325E-01  0.63489527727E-01  0.51100000000E-03 0. -1.
</event>
<event>
 8    1  0.1150863E+005  0.1043930E+01  0.7957747E-01            NaN
         13   -1    0    0    0    0  0.00000000000E+00  0.00000000000E+00  0.74505805969E-08  0.10566000000E+00  0.10566000000E+00 0.  1.
     999900   -1    0    0    0    0 -0.00000000000E+00 -0.00000000000E+00 -0.74505805969E-08  0.93827000000E+00  0.93827000000E+00 0.  1.
     999902    2    1    2    0    0 -0.15727325204E-01 -0.12732119729E-01  0.10610239095E-01  0.10210819628E+01  0.10208263035E+01 0.  0.
     999903    2    3    3    0    0 -0.10028064670E+00 -0.75331215260E-01  0.43602501241E-01  0.13420181288E+00  0.19440894301E-01 0.  0.
         14    1    1    2    0    0  0.15727325204E-01  0.12732119729E-01 -0.10610239095E-01  0.22848037214E-01  0.00000000000E+00 0. -1.
     999901    1    3    3    0    0  0.84553321494E-01  0.62599095530E-01 -0.32992262146E-01  0.88688014991E+00  0.88000000000E+00 0.  1.
        -11    1    4    4    0    0 -0.55817576119E-01 -0.51394117978E-01  0.32228231743E-01  0.82437110629E-01  0.51100000000E-03 0.  1.
         11    1    4    4    0    0 -0.44463070578E-01 -0.23937097282E-01  0.11374269498E-01  0.51764702251E-01  0.51100000000E-03 0. -1.
</event>
<event>
 8    1  0.1150863E+005  0.1043930E+01  0.7957747E-01            NaN
         13   -1    0    0    0    0  0.00000000000E+00  0.00000000000E+00  0.74505805969E-08  0.10566000000E+00  0.10566000000E+00 0.  1.
     999900   -1    0    0    0    0 -0.00000000000E+00 -0.00000000000E+00 -0.74505805969E-08  0.93827000000E+00  0.93827000000E+00 0.  1.
     999902    2    1    2    0    0 -0.58393897603E-02  0.27944759840E-02  0.21901132703E-01  0.10210921546E+01  0.10208367259E+01 0.  0.
     999903    2    3    3    0    0  0.95847346648E-01 -0.17425379963E-01  0.87924020239E-01  0.13254949574E+00  0.18664880387E-01 0.  0.
         14    1    1    2    0    0  0.58393897603E-02 -0.27944759840E-02 -0.21901132703E-01  0.22837845399E-01  0.00000000000E+00 0. -1.
     999901    1    3    3    0    0 -0.10168673641E+00  0.20219855947E-01 -0.66022887536E-01  0.88854265886E+00  0.88000000000E+00 0.  1.
        -11    1    4    4    0    0  0.90322005613E-01 -0.14233432175E-01  0.75525934526E-01  0.11859630347E+00  0.51100000000E-03 0.  1.
         11    1    4    4    0    0  0.55253410346E-02 -0.31919477876E-02  0.12398085713E-01  0.13953192272E-01  0.51100000000E-03 0. -1.
</event>
<event>
 8    1  0.1150863E+005  0.1043930E+01  0.7957747E-01            NaN
         13   -1    0    0    0    0  0.00000000000E+00  0.00000000000E+00  0.74505805969E-08  0.10566000000E+00  0.10566000000E+00 0. -1.
     999900   -1    0    0    0    0 -0.00000000000E+00 -0.00000000000E+00 -0.74505805969E-08  0.93827000000E+00  0.93827000000E+00 0.  1.
     999902    2    1    2    0    0 -0.15970818454E-01  0.18574309397E-02 -0.28824993200E-02  0.10275951938E+01  0.10274653553E+01 0.  0.
     999903    2    3    3    0    0 -0.12332675090E+00 -0.52504647336E-01  0.30194344153E-01  0.13879003552E+00  0.19615046768E-01 0.  0.
         14    1    1    2    0    0  0.15970818454E-01 -0.18574309397E-02  0.28824993200E-02  0.16334806216E-01  0.00000000000E+00 0.  1.
     999901    1    3    3    0    0  0.10735593245E+00  0.54362078276E-01 -0.33076843473E-01  0.88880515827E+00  0.88000000000E+00 0.  1.
        -11    1    4    4    0    0 -0.72600985334E-01 -0.37719702828E-01  0.25710581102E-01  0.85761145949E-01  0.51100000000E-03 0.  1.
         11    1    4    4    0    0 -0.50725765570E-01 -0.14784944508E-01  0.44837630506E-02  0.53028889568E-01  0.51100000000E-03 0. -1.
</event>
<event>
 8    1  0.1150863E+005  0.1043930E+01  0.7957747E-01            NaN
         13   -1    0    0    0    0  0.00000000000E+00  0.00000000000E+00  0.74505805969E-08  0.10566000000E+00  0.10566000000E+00 0. -1.
     999900   -1    0    0    0    0 -0.00000000000E+00 -0.00000000000E+00 -0.74505805969E-08  0.93827000000E+00  0.93827000000E+00 0.  1.
     999902    2    1    2    0    0  0.60589932436E-02 -0.22011633427E-01  0.52808625690E-02  0.10204968842E+01  0.10202278078E+01 0.  0.
     999903    2    3    3    0    0 -0.35301942193E-01 -0.90202432993E-01  0.88771691464E-01  0.13295452995E+00  0.20341774481E-01 0.  0.
         14    1    1    2    0    0 -0.60589932436E-02  0.22011633427E-01 -0.52808625690E-02  0.23433115770E-01  0.00000000000E+00 0.  1.
     999901    1    3    3    0    0  0.41360935436E-01  0.68190799567E-01 -0.83490828895E-01  0.88754235428E+00  0.88000000000E+00 0.  1.
        -11    1    4    4    0    0 -0.13886469862E-01 -0.48439880670E-01  0.57982017749E-01  0.76820775756E-01  0.51100000000E-03 0. -1.
         11    1    4    4    0    0 -0.21415472331E-01 -0.41762552323E-01  0.30789673715E-01  0.56133754197E-01  0.51100000000E-03 0.  1.
</event>
<event>
 8    1  0.1150863E+005  0.1043930E+01  0.7957747E-01            NaN
         13   -1    0    0    0    0  0.00000000000E+00  0.00000000000E+00  0.74505805969E-08  0.10566000000E+00  0.10566000000E+00 0. -1.
     999900   -1    0    0    0    0 -0.00000000000E+00 -0.00000000000E+00 -0.74505805969E-08  0.93827000000E+00  0.93827000000E+00 0. -1.
     999902    2    1    2    0    0 -0.15908039515E-01  0.18981040473E-01  0.70970786269E-03  0.10191540176E+01  0.10188528168E+01 0.  0.
     999903    2    3    3    0    0  0.33519799450E-01 -0.12026067822E+00 -0.92102698130E-02  0.12678090424E+00  0.20058936400E-01 0.  0.
         14    1    1    2    0    0  0.15908039515E-01 -0.18981040473E-01 -0.70970786269E-03  0.24775982400E-01  0.00000000000E+00 0. -1.
     999901    1    3    3    0    0 -0.49427838965E-01  0.13924171869E+00  0.99199776757E-02  0.89237311336E+00  0.88000000000E+00 0.  1.
        -11    1    4    4    0    0  0.10382499479E-01 -0.32894235775E-01 -0.11524068489E-01  0.36371586688E-01  0.51100000000E-03 0. -1.
         11    1    4    4    0    0  0.23137299971E-01 -0.87366442443E-01  0.23137986760E-02  0.90409317553E-01  0.51100000000E-03 0.  1.
</event>
<event>
 8    1  0.1150863E+005  0.1043930E+01  0.7957747E-01            NaN
         13   -1    0    0    0    0  0.00000000000E+00  0.00000000000E+00  0.74505805969E-08  0.10566000000E+00  0.10566000000E+00 0.  1.
     999900   -1    0    0    0    0 -0.00000000000E+00 -0.00000000000E+00 -0.74505805969E-08  0.93827000000E+00  0.93827000000E+00 0. -1.
     999902    2    1    2    0    0  0.14826874014E-01  0.16742549754E-01 -0.77151503394E-02  0.10202725971E+01  0.10199982842E+01 0.  0.
     999903    2    3    3    0    0 -0.55332774117E-01  0.21767011055E-01 -0.11481425558E+00  0.13099320360E+00  0.21009222805E-01 0.  0.
         14    1    1    2    0    0 -0.14826874014E-01 -0.16742549754E-01  0.77151503394E-02  0.23657402860E-01  0.00000000000E+00 0.  1.
     999901    1    3    3    0    0  0.70159648131E-01 -0.50244613006E-02  0.10709910524E+00  0.88927939354E+00  0.88000000000E+00 0. -1.
        -11    1    4    4    0    0 -0.13290039881E-01  0.20834873892E-02 -0.46406432682E-01  0.48319604666E-01  0.51100000000E-03 0.  1.
         11    1    4    4    0    0 -0.42042734235E-01  0.19683523666E-01 -0.68407822896E-01  0.82673598931E-01  0.51100000000E-03 0. -1.
</event>
<event>
 8    1  0.1150863E+005  0.1043930E+01  0.7957747E-01            NaN
         13   -1    0    0    0    0  0.00000000000E+00  0.00000000000E+00  0.74505805969E-08  0.10566000000E+00  0.10566000000E+00 0.  1.
     999900   -1    0    0    0    0 -0.00000000000E+00 -0.00000000000E+00 -0.74505805969E-08  0.93827000000E+00  0.93827000000E+00 0.  1.
     999902    2    1    2    0    0  0.14171626825E-01 -0.96428387259E-02 -0.16194301065E-01  0.10203487631E+01  0.10200762342E+01 0.  0.
     999903    2    3    3    0    0  0.99778151484E-01 -0.54068918282E-01 -0.67598583299E-01  0.13358805479E+00  0.19926677636E-01 0.  0.
         14    1    1    2    0    0 -0.14171626825E-01  0.96428387259E-02  0.16194301065E-01  0.23581236875E-01  0.00000000000E+00 0. -1.
     999901    1    3    3    0    0 -0.85606524659E-01  0.44426079556E-01  0.51404282234E-01  0.88676070833E+00  0.88000000000E+00 0. -1.
        -11    1    4    4    0    0  0.67310235569E-01 -0.30673108346E-01 -0.52948017994E-01  0.90968462219E-01  0.51100000000E-03 0. -1.
         11    1    4    4    0    0  0.32467915915E-01 -0.23395809936E-01 -0.14650565305E-01  0.42619592574E-01  0.51100000000E-03 0.  1.
</event>
<event>
 8    1  0.1150863E+005  0.1043930E+01  0.7957747E-01            NaN
         13   -1    0    0    0    0  0.00000000000E+00  0.00000000000E+00  0.74505805969E-08  0.10566000000E+00  0.10566000000E+00 0. -1.
     999900   -1    0    0    0    0 -0.00000000000E+00 -0.00000000000E+00 -0.74505805969E-08  0.93827000000E+00  0.93827000000E+00 0.  1.
     999902    2    1    2    0    0  0.35144585862E-02  0.71547786509E-02 -0.22545163776E-01  0.10200171021E+01  0.10197367611E+01 0.  0.
     999903    2    3    3    0    0 -0.82816074719E-01  0.37571884012E-01  0.88235428613E-01  0.12836105802E+00  0.20516375250E-01 0.  0.
         14    1    1    2    0    0 -0.35144585862E-02 -0.71547786509E-02  0.22545163776E-01  0.23912897908E-01  0.00000000000E+00 0. -1.
     999901    1    3    3    0    0  0.86330533305E-01 -0.30417105361E-01 -0.11078059239E+00  0.89165604407E+00  0.88000000000E+00 0.  1.
        -11    1    4    4    0    0 -0.37737062915E-01  0.25368374821E-01  0.33949752980E-01  0.56749336621E-01  0.51100000000E-03 0. -1.
         11    1    4    4    0    0 -0.45079011804E-01  0.12203509191E-01  0.54285675633E-01  0.71611721399E-01  0.51100000000E-03 0.  1.
</event>
<event>
 8    1  0.1150863E+005  0.1043930E+01  0.7957747E-01            NaN
         13   -1    0    0    0    0  0.00000000000E+00  0.00000000000E+00  0.74505805969E-08  0.10566000000E+00  0.10566000000E+00 0. -1.
     999900   -1    0    0    0    0 -0.00000000000E+00 -0.00000000000E+00 -0.74505805969E-08  0.93827000000E+00  0.93827000000E+00 0. -1.
     999902    2    1    2    0    0 -0.16508167939E-01  0.15753708619E-01 -0.23695598474E-02  0.10209884709E+01  0.10207306912E+01 0.  0.
     999903    2    3    3    0    0 -0.41402942566E-01  0.11061906533E+00 -0.57822386712E-01  0.13380517432E+00  0.24690382778E-01 0.  0.
         14    1    1    2    0    0  0.16508167939E-01 -0.15753708619E-01  0.23695598474E-02  0.22941529108E-01  0.00000000000E+00 0. -1.
     999901    1    3    3    0    0  0.24894774626E-01 -0.94865356714E-01  0.55452826864E-01  0.88718329657E+00  0.88000000000E+00 0. -1.
        -11    1    4    4    0    0  0.13993690239E-02  0.41709100799E-02  0.14584136398E-02  0.46629192471E-02  0.51100000000E-03 0.  1.
         11    1    4    4    0    0 -0.42802311590E-01  0.10644815525E+00 -0.59280800351E-01  0.12914225507E+00  0.51100000000E-03 0. -1.
</event>
<event>
 8    1  0.1150863E+005  0.1043930E+01  0.7957747E-01            NaN
         13   -1    0    0    0    0  0.00000000000E+00  0.00000000000E+00  0.74505805969E-08  0.10566000000E+00  0.10566000000E+00 0.  1.
     999900   -1    0    0    0    0 -0.00000000000E+00 -0.00000000000E+00 -0.74505805969E-08  0.93827000000E+00  0.93827000000E+00 0. -1.
     999902    2    1    2    0    0 -0.56353935579E-02  0.22443236542E-03 -0.23400157281E-01  0.10198597821E+01  0.10195756959E+01 0.  0.
     999903    2    3    3    0    0  0.11940919025E+00  0.37604619116E-01 -0.30244303305E-01  0.13020801388E+00  0.19150637087E-01 0.  0.
         14    1    1    2    0    0  0.56353935579E-02 -0.22443236542E-03  0.23400157281E-01  0.24070217930E-01  0.00000000000E+00 0.  1.
     999901    1    3    3    0    0 -0.12504458381E+00 -0.37380186751E-01  0.68441460247E-02  0.88965176819E+00  0.88000000000E+00 0. -1.
        -11    1    4    4    0    0  0.90695716223E-01  0.36240222020E-01 -0.26604657321E-01  0.10122813613E+00  0.51100000000E-03 0. -1.
         11    1    4    4    0    0  0.28713474032E-01  0.13643970967E-02 -0.36396459846E-02  0.28979877748E-01  0.51100000000E-03 0.  1.
</event>
<event>
 8    1  0.1150863E+005  0.1043930E+01  0.7957747E-01            NaN
         13   -1    0    0    0    0  0.00000000000E+00  0.00000000000E+00  0.74505805969E-08  0.10566000000E+00  0.10566000000E+00 0. -1.
     999900   -1    0    0    0    0 -0.00000000000E+00 -0.00000000000E+00 -0.74505805969E-08  0.93827000000E+00  0.93827000000E+00 0. -1.
     999902    2    1    2    0    0  0.17108526691E-01 -0.15210828963E-01  0.71308559390E-02  0.10199525083E+01  0.10196706326E+01 0.  0.
     999903    2    3    3    0    0 -0.22269295742E-02  0.12624580878E+00  0.12265518961E-01  0.12843122137E+00  0.20029284012E-01 0.  0.
         14    1    1    2    0    0 -0.17108526691E-01  0.15210828963E-01 -0.71308559390E-02  0.23977491731E-01  0.00000000000E+00 0.  1.
     999901    1    3    3    0    0  0.19335456265E-01 -0.14145663774E+00 -0.51346630224E-02  0.89152128690E+00  0.88000000000E+00 0. -1.
        -11    1    4    4    0    0 -0.11170471143E-01  0.71740668536E-01  0.72026285171E-02  0.72963291634E-01  0.51100000000E-03 0.  1.
         11    1    4    4    0    0  0.89435415686E-02  0.54505140242E-01  0.50628904443E-02  0.55467929736E-01  0.51100000000E-03 0. -1.
</event>
<event>
 8    1  0.1150863E+005  0.1043930E+01  0.7957747E-01            NaN
         13   -1    0    0    0    0  0.00000000000E+00  0.00000000000E+00  0.74505805969E-08  0.10566000000E+00  0.10566000000E+00 0.  1.
     999900   -1    0    0    0    0 -0.00000000000E+00 -0.00000000000E+00 -0.74505805969E-08  0.93827000000E+00  0.93827000000E+00 0.  1.
     999902    2    1    2    0    0 -0.39472289249E-02  0.18988937867E-01  0.14454891781E-01  0.10197410713E+01  0.10194541422E+01 0.  0.
     999903    2    3    3    0    0 -0.46466856177E-01 -0.60994049745E-01  0.10391629336E+00  0.13057936527E+00  0.19311441765E-01 0.  0.
         14    1    1    2    0    0  0.39472289249E-02 -0.18988937867E-01 -0.14454891781E-01  0.24188928747E-01  0.00000000000E+00 0.  1.
     999901    1    3    3    0    0  0.42519627253E-01  0.79982987612E-01 -0.89461401575E-01  0.88916170598E+00  0.88000000000E+00 0.  1.
        -11    1    4    4    0    0 -0.37739376351E-01 -0.38509113551E-01  0.61571266962E-01  0.81844330226E-01  0.51100000000E-03 0.  1.
         11    1    4    4    0    0 -0.87274798266E-02 -0.22484936194E-01  0.42345026394E-01  0.48735035048E-01  0.51100000000E-03 0. -1.
</event>
<event>
 8    1  0.1150863E+005  0.1043930E+01  0.7957747E-01            NaN
         13   -1    0    0    0    0  0.00000000000E+00  0.00000000000E+00  0.74505805969E-08  0.10566000000E+00  0.10566000000E+00 0. -1.
     999900   -1    0    0    0    0 -0.00000000000E+00 -0.00000000000E+00 -0.74505805969E-08  0.93827000000E+00  0.93827000000E+00 0. -1.
     999902    2    1    2    0    0  0.11066355740E-01  0.13798702544E-01 -0.15092765424E-01  0.10206779035E+01  0.10204130158E+01 0.  0.
     999903    2    3    3    0    0  0.11190956311E-01 -0.10396351175E+00  0.72166569328E-01  0.12855563270E+00  0.19618554762E-01 0.  0.
         14    1    1    2    0    0 -0.11066355740E-01 -0.13798702544E-01  0.15092765424E-01  0.23252096452E-01  0.00000000000E+00 0. -1.
     999901    1    3    3    0    0 -0.12460057126E-03  0.11776221430E+00 -0.87259334752E-01  0.89212227085E+00  0.88000000000E+00 0. -1.
        -11    1    4    4    0    0 -0.25159533807E-02 -0.59873792202E-01  0.45404245633E-01  0.75186485864E-01  0.51100000000E-03 0. -1.
         11    1    4    4    0    0  0.13706909691E-01 -0.44089719552E-01  0.26762323695E-01  0.53369146836E-01  0.51100000000E-03 0.  1.
</event>
<event>
 8    1  0.1150863E+005  0.1043930E+01  0.7957747E-01            NaN
         13   -1    0    0    0    0  0.00000000000E+00  0.00000000000E+00  0.74505805969E-08  0.10566000000E+00  0.10566000000E+00 0.  1.
     999900   -1    0    0    0    0 -0.00000000000E+00 -0.00000000000E+00 -0.74505805969E-08  0.93827000000E+00  0.93827000000E+00 0.  1.
     999902    2    1    2    0    0  0.16231501108E-01 -0.17648868407E-01  0.14577725801E-02  0.10199077336E+01  0.10196247916E+01 0.  0.
     999903    2    3    3    0    0  0.39076299471E-01 -0.75543706388E-01  0.98979434924E-01  0.13233566792E+00  0.21954309588E-01 0.  0.
         14    1    1    2    0    0 -0.16231501108E-01  0.17648868407E-01 -0.14577725801E-02  0.24022266445E-01  0.00000000000E+00 0.  1.
     999901    1    3    3    0    0 -0.22844798363E-01  0.57894837981E-01 -0.97521662344E-01  0.88757206564E+00  0.88000000000E+00 0.  1.
        -11    1    4    4    0    0  0.26039277310E-01 -0.51905909345E-01  0.81856266424E-01  0.10036422102E+00  0.51100000000E-03 0. -1.
         11    1    4    4    0    0  0.13037022162E-01 -0.23637797043E-01  0.17123168500E-01  0.31971446892E-01  0.51100000000E-03 0.  1.
</event>
<event>
 8    1  0.1150863E+005  0.1043930E+01  0.7957747E-01            NaN
         13   -1    0    0    0    0  0.00000000000E+00  0.00000000000E+00  0.74505805969E-08  0.10566000000E+00  0.10566000000E+00 0.  1.
     999900   -1    0    0    0    0 -0.00000000000E+00 -0.00000000000E+00 -0.74505805969E-08  0.93827000000E+00  0.93827000000E+00 0. -1.
     999902    2    1    2    0    0 -0.22425205112E-02  0.10280532258E-01 -0.22354004868E-01  0.10192233253E+01  0.10189238279E+01 0.  0.
     999903    2    3    3    0    0 -0.10163067184E+00  0.58425046985E-01  0.51264740892E-01  0.12927073180E+00  0.18454508046E-01 0.  0.
         14    1    1    2    0    0  0.22425205112E-02 -0.10280532258E-01  0.22354004868E-01  0.24706674713E-01  0.00000000000E+00 0.  1.
     999901    1    3    3    0    0  0.99388151333E-01 -0.48144514727E-01 -0.73618745759E-01  0.88995259349E+00  0.88000000000E+00 0. -1.
        -11    1    4    4    0    0 -0.58909069840E-01  0.32464238349E-01  0.19478105948E-01  0.70027587516E-01  0.51100000000E-03 0.  1.
         11    1    4    4    0    0 -0.42721602004E-01  0.25960808636E-01  0.31786634944E-01  0.59243144286E-01  0.51100000000E-03 0. -1.
</event>
<event>
 8    1  0.1150863E+005  0.1043930E+01  0.7957747E-01            NaN
         13   -1    0    0    0    0  0.00000000000E+00  0.00000000000E+00  0.74505805969E-08  0.10566000000E+00  0.10566000000E+00 0. -1.
     999900   -1    0    0    0    0 -0.00000000000E+00 -0.00000000000E+00 -0.74505805969E-08  0.93827000000E+00  0.93827000000E+00 0.  1.
     999902    2    1    2    0    0  0.41351571513E-02 -0.10849276368E-01 -0.20959460916E-01  0.10199695049E+01  0.10196880335E+01 0.  0.
     999903    2    3    3    0    0  0.61423810993E-01  0.36777111720E-02  0.11071368401E+00  0.12821234049E+00  0.19861377342E-01 0.  0.
         14    1    1    2    0    0 -0.41351571513E-02  0.10849276368E-01  0.20959460916E-01  0.23960495075E-01  0.00000000000E+00 0. -1.
     999901    1    3    3    0    0 -0.57288653841E-01 -0.14526987540E-01 -0.13167314493E+00  0.89175716444E+00  0.88000000000E+00 0.  1.
        -11    1    4    4    0    0  0.46451210329E-01  0.90730962037E-02  0.93278964832E-01  0.10460048956E+00  0.51100000000E-03 0. -1.
         11    1    4    4    0    0  0.14972600664E-01 -0.53953850316E-02  0.17434719181E-01  0.23611850927E-01  0.51100000000E-03 0.  1.
</event>
<event>
 8    1  0.1150863E+005  0.1043930E+01  0.7957747E-01            NaN
         13   -1    0    0    0    0  0.00000000000E+00  0.00000000000E+00  0.74505805969E-08  0.10566000000E+00  0.10566000000E+00 0.  1.
     999900   -1    0    0    0    0 -0.00000000000E+00 -0.00000000000E+00 -0.74505805969E-08  0.93827000000E+00  0.93827000000E+00 0. -1.
     999902    2    1    2    0    0 -0.58563087245E-02 -0.22106030728E-01 -0.68289392659E-02  0.10200635516E+01  0.10197843115E+01 0.  0.
     999903    2    3    3    0    0  0.39669909135E-01 -0.78314120772E-01  0.95641914107E-01  0.13116971000E+00  0.18743369051E-01 0.  0.
         14    1    1    2    0    0  0.58563087245E-02  0.22106030728E-01  0.68289392659E-02  0.23866448373E-01  0.00000000000E+00 0.  1.
     999901    1    3    3    0    0 -0.45526217859E-01  0.56208090044E-01 -0.10247085337E+00  0.88889384163E+00  0.88000000000E+00 0. -1.
        -11    1    4    4    0    0  0.65162365169E-02 -0.19055256184E-01  0.33675241428E-01  0.39240885984E-01  0.51100000000E-03 0. -1.
         11    1    4    4    0    0  0.33153672618E-01 -0.59258864589E-01  0.61966672678E-01  0.91928824012E-01  0.51100000000E-03 0.  1.
</event>
<event>
 8    1  0.1150863E+005  0.1043930E+01  0.7957747E-01            NaN
         13   -1    0    0    0    0  0.00000000000E+00  0.00000000000E+00  0.74505805969E-08  0.10566000000E+00  0.10566000000E+00 0.  1.
     999900   -1    0    0    0    0 -0.00000000000E+00 -0.00000000000E+00 -0.74505805969E-08  0.93827000000E+00  0.93827000000E+00 0. -1.
     999902    2    1    2    0    0  0.13466950874E-01  0.19715920979E-01 -0.39971278503E-03  0.10200503837E+01  0.10197708317E+01 0.  0.
     999903    2    3    3    0    0  0.58793046763E-01  0.55183723418E-01  0.10267698368E+00  0.13216681848E+00  0.20582498686E-01 0.  0.
         14    1    1    2    0    0 -0.13466950874E-01 -0.19715920979E-01  0.39971278503E-03  0.23879616333E-01  0.00000000000E+00 0. -1.
     999901    1    3    3    0    0 -0.45326095889E-01 -0.35467802439E-01 -0.10307669646E+00  0.88788356519E+00  0.88000000000E+00 0. -1.
        -11    1    4    4    0    0  0.23389841158E-01  0.34429412733E-01  0.59296973252E-01  0.72449025449E-01  0.51100000000E-03 0. -1.
         11    1    4    4    0    0  0.35403205604E-01  0.20754310685E-01  0.43380010423E-01  0.59717793030E-01  0.51100000000E-03 0.  1.
</event>
<event>
 8    1  0.1150863E+005  0.1043930E+01  0.7957747E-01            NaN
         13   -1    0    0    0    0  0.00000000000E+00  0.00000000000E+00  0.74505805969E-08  0.10566000000E+00  0.10566000000E+00 0. -1.
     999900   -1    0    0    0    0 -0.00000000000E+00 -0.00000000000E+00 -0.74505805969E-08  0.93827000000E+00  0.93827000000E+00 0.  1.
     999902    2    1    2    0    0 -0.22382559527E-01 -0.73997158302E-02  0.18512803509E-02  0.10202833934E+01  0.10200093337E+01 0.  0.
     999903    2    3    3    0    0  0.69174300668E-01 -0.57783969131E-01 -0.90400491296E-01  0.12931110369E+00  0.20616540701E-01 0.  0.
         14    1    1    2    0    0  0.22382559527E-01  0.73997158302E-02 -0.18512803509E-02  0.23646606613E-01  0.00000000000E+00 0.  1.
     999901    1    3    3    0    0 -0.91556860196E-01  0.50384253301E-01  0.92251771647E-01  0.89097228969E+00  0.88000000000E+00 0. -1.
        -11    1    4    4    0    0  0.63637736634E-01 -0.45888574095E-01 -0.70566319979E-01  0.10552435450E+00  0.51100000000E-03 0.  1.
         11    1    4    4    0    0  0.55365640349E-02 -0.11895395036E-01 -0.19834171316E-01  0.23786749193E-01  0.51100000000E-03 0. -1.
</event>
<event>
 8    1  0.1150863E+005  0.1043930E+01  0.7957747E-01            NaN
         13   -1    0    0    0    0  0.00000000000E+00  0.00000000000E+00  0.74505805969E-08  0.10566000000E+00  0.10566000000E+00 0.  1.
     999900   -1    0    0    0    0 -0.00000000000E+00 -0.00000000000E+00 -0.74505805969E-08  0.93827000000E+00  0.93827000000E+00 0. -1.
     999902    2    1    2    0    0  0.58396902820E-02 -0.20429235482E-01  0.90859661949E-02  0.10208213344E+01  0.10205597417E+01 0.  0.
     999903    2    3    3    0    0  0.86037771079E-01 -0.33170646319E-01  0.93788684828E-01  0.13303271863E+00  0.19964894064E-01 0.  0.
         14    1    1    2    0    0 -0.58396902820E-02  0.20429235482E-01 -0.90859661949E-02  0.23108665619E-01  0.00000000000E+00 0. -1.
     999901    1    3    3    0    0 -0.80198080797E-01  0.12741410837E-01 -0.84702718633E-01  0.88778861575E+00  0.88000000000E+00 0. -1.
        -11    1    4    4    0    0  0.33237711341E-01 -0.15578609457E-01  0.50955678583E-01  0.62802713545E-01  0.51100000000E-03 0. -1.
         11    1    4    4    0    0  0.52800059738E-01 -0.17592036862E-01  0.42833006245E-01  0.70230005085E-01  0.51100000000E-03 0.  1.
</event>
<event>
 8    1  0.1150863E+005  0.1043930E+01  0.7957747E-01            NaN
         13   -1    0    0    0    0  0.00000000000E+00  0.00000000000E+00  0.74505805969E-08  0.10566000000E+00  0.10566000000E+00 0.  1.
     999900   -1    0    0    0    0 -0.00000000000E+00 -0.00000000000E+00 -0.74505805969E-08  0.93827000000E+00  0.93827000000E+00 0. -1.
     999902    2    1    2    0    0 -0.52602235971E-02  0.21956479171E-01 -0.60330717846E-02  0.10205600431E+01  0.10202924320E+01 0.  0.
     999903    2    3    3    0    0 -0.11486476738E+00  0.15344701973E-02 -0.61037837474E-01  0.13182175840E+00  0.21332815103E-01 0.  0.
         14    1    1    2    0    0  0.52602235971E-02 -0.21956479171E-01  0.60330717846E-02  0.23369956890E-01  0.00000000000E+00 0.  1.
     999901    1    3    3    0    0  0.10960454378E+00  0.20422008974E-01  0.55004765689E-01  0.88873828471E+00  0.88000000000E+00 0.  1.
        -11    1    4    4    0    0 -0.33459211106E-01  0.99329989880E-02 -0.20684729323E-01  0.40574652493E-01  0.51100000000E-03 0. -1.
         11    1    4    4    0    0 -0.81405556269E-01 -0.83985287907E-02 -0.40353108152E-01  0.91247105904E-01  0.51100000000E-03 0.  1.
</event>
<event>
 8    1  0.1150863E+005  0.1043930E+01  0.7957747E-01            NaN
         13   -1    0    0    0    0  0.00000000000E+00  0.00000000000E+00  0.74505805969E-08  0.10566000000E+00  0.10566000000E+00 0.  1.
     999900   -1    0    0    0    0 -0.00000000000E+00 -0.00000000000E+00 -0.74505805969E-08  0.93827000000E+00  0.93827000000E+00 0. -1.
     999902    2    1    2    0    0  0.17423582538E-01  0.13833388855E-01  0.75883388046E-02  0.10204241122E+01  0.10201533424E+01 0.  0.
     999903    2    3    3    0    0 -0.83612318342E-02  0.56981428669E-01  0.11688421664E+00  0.13223933474E+00  0.22550568533E-01 0.  0.
         14    1    1    2    0    0 -0.17423582538E-01 -0.13833388855E-01 -0.75883388046E-02  0.23505887804E-01  0.00000000000E+00 0. -1.
     999901    1    3    3    0    0  0.25784814372E-01 -0.43148039814E-01 -0.10929587784E+00  0.88818477746E+00  0.88000000000E+00 0. -1.
        -11    1    4    4    0    0 -0.14595912405E-01  0.25607849898E-01  0.63378003913E-01  0.69898749176E-01  0.51100000000E-03 0. -1.
         11    1    4    4    0    0  0.62346805710E-02  0.31373578771E-01  0.53506212730E-01  0.62340585564E-01  0.51100000000E-03 0.  1.
</event>
<event>
 7    1  0.1150863E+005  0.1043930E+01  0.7957747E-01            NaN
         13   -1    0    0    0    0  0.00000000000E+00  0.00000000000E+00  0.74505805969E-08  0.10566000000E+00  0.10566000000E+00 0. -1.
     999900   -1    0    0    0    0 -0.00000000000E+00 -0.00000000000E+00 -0.74505805969E-08  0.93827000000E+00  0.93827000000E+00 0.  1.
     999903    2    1    2    0    0  0.68114016910E-01 -0.40156149143E-01  0.81454710445E-02  0.81978709304E-01  0.20053041341E-01 0.  0.
         14    1    1    2    0    0  0.58231742803E-01  0.42040784801E-01  0.11343027260E-01  0.72711950352E-01  0.00000000000E+00 0.  1.
     999901    1    1    2    0    0 -0.12634575971E+00 -0.18846356581E-02 -0.19488498304E-01  0.88923934034E+00  0.88000000000E+00 0.  1.
        -11    1    3    3    0    0  0.58446670986E-01 -0.25084841249E-01  0.76099071875E-02  0.64058055061E-01  0.51100000000E-03 0.  1.
         11    1    3    3    0    0  0.96673459242E-02 -0.15071307894E-01  0.53556385701E-03  0.17920654243E-01  0.51100000000E-03 0. -1.
</event>
<event>
 8    1  0.1150863E+005  0.1043930E+01  0.7957747E-01            NaN
         13   -1    0    0    0    0  0.00000000000E+00  0.00000000000E+00  0.74505805969E-08  0.10566000000E+00  0.10566000000E+00 0. -1.
     999900   -1    0    0    0    0 -0.00000000000E+00 -0.00000000000E+00 -0.74505805969E-08  0.93827000000E+00  0.93827000000E+00 0. -1.
     999902    2    1    2    0    0 -0.21050099871E-01  0.21456325562E-02  0.88941421380E-02  0.10209775228E+01  0.10207194942E+01 0.  0.
     999903    2    3    3    0    0  0.96672665372E-01 -0.77448379523E-01 -0.29014498468E-01  0.12877187320E+00  0.19912269692E-01 0.  0.
         14    1    1    2    0    0  0.21050099871E-01 -0.21456325562E-02 -0.88941421380E-02  0.22952477165E-01  0.00000000000E+00 0. -1.
     999901    1    3    3    0    0 -0.11772276524E+00  0.79594012079E-01  0.37908640606E-01  0.89220564964E+00  0.88000000000E+00 0.  1.
        -11    1    4    4    0    0  0.40481670008E-01 -0.42948664948E-01 -0.19442520974E-01  0.62141983958E-01  0.51100000000E-03 0.  1.
         11    1    4    4    0    0  0.56190995364E-01 -0.34499714575E-01 -0.95719774944E-02  0.66629889238E-01  0.51100000000E-03 0. -1.
</event>
<event>
 8    1  0.1150863E+005  0.1043930E+01  0.7957747E-01            NaN
         13   -1    0    0    0    0  0.00000000000E+00  0.00000000000E+00  0.74505805969E-08  0.10566000000E+00  0.10566000000E+00 0.  1.
     999900   -1    0    0    0    0 -0.00000000000E+00 -0.00000000000E+00 -0.74505805969E-08  0.93827000000E+00  0.93827000000E+00 0. -1.
     999902    2    1    2    0    0 -0.11106516672E-01 -0.20139762171E-01 -0.67842686339E-02  0.10199510293E+01  0.10196691185E+01 0.  0.
     999903    2    3    3    0    0  0.47704969660E-01 -0.85537368715E-02  0.11792490016E+00  0.12913937490E+00  0.20536930793E-01 0.  0.
         14    1    1    2    0    0  0.11106516672E-01  0.20139762171E-01  0.67842686339E-02  0.23978970658E-01  0.00000000000E+00 0.  1.
     999901    1    3    3    0    0 -0.58811486332E-01 -0.11586025300E-01 -0.12470916880E+00  0.89081165444E+00  0.88000000000E+00 0. -1.
        -11    1    4    4    0    0  0.28532291608E-01  0.43656109607E-02  0.75324256519E-01  0.80666938485E-01  0.51100000000E-03 0. -1.
         11    1    4    4    0    0  0.19172678052E-01 -0.12919347832E-01  0.42600643645E-01  0.48472436415E-01  0.51100000000E-03 0.  1.
</event>
<event>
 8    1  0.1150863E+005  0.1043930E+01  0.7957747E-01            NaN
         13   -1    0    0    0    0  0.00000000000E+00  0.00000000000E+00  0.74505805969E-08  0.10566000000E+00  0.10566000000E+00 0.  1.
     999900   -1    0    0    0    0 -0.00000000000E+00 -0.00000000000E+00 -0.74505805969E-08  0.93827000000E+00  0.93827000000E+00 0. -1.
     999902    2    1    2    0    0  0.11319471922E-01  0.18927615785E-01  0.66994678690E-02  0.10208807494E+01  0.10206205154E+01 0.  0.
     999903    2    3    3    0    0 -0.59729728123E-01 -0.18684700185E-01 -0.11141837054E+00  0.12935705431E+00  0.20060801633E-01 0.  0.
         14    1    1    2    0    0 -0.11319471922E-01 -0.18927615785E-01 -0.66994678690E-02  0.23049250609E-01  0.00000000000E+00 0.  1.
     999901    1    3    3    0    0  0.71049200045E-01  0.37612315970E-01  0.11811783841E+00  0.89152369508E+00  0.88000000000E+00 0.  1.
        -11    1    4    4    0    0 -0.46600557656E-01 -0.62397294121E-02 -0.87856109662E-01  0.99646893193E-01  0.51100000000E-03 0.  1.
         11    1    4    4    0    0 -0.13129170466E-01 -0.12444970773E-01 -0.23562260883E-01  0.29710161117E-01  0.51100000000E-03 0. -1.
</event>
<event>
 8    1  0.1150863E+005  0.1043930E+01  0.7957747E-01            NaN
         13   -1    0    0    0    0  0.00000000000E+00  0.00000000000E+00  0.74505805969E-08  0.10566000000E+00  0.10566000000E+00 0. -1.
     999900   -1    0    0    0    0 -0.00000000000E+00 -0.00000000000E+00 -0.74505805969E-08  0.93827000000E+00  0.93827000000E+00 0.  1.
     999902    2    1    2    0    0 -0.20308170826E-01 -0.93672766577E-02 -0.94652253818E-02  0.10196450630E+01  0.10193558242E+01 0.  0.
     999903    2    3    3    0    0  0.53115994826E-01  0.49049992797E-01 -0.10552999269E+00  0.12945849547E+00  0.19892510974E-01 0.  0.
         14    1    1    2    0    0  0.20308170826E-01  0.93672766577E-02  0.94652253818E-02  0.24284937014E-01  0.00000000000E+00 0. -1.
     999901    1    3    3    0    0 -0.73424165652E-01 -0.58417269455E-01  0.96064767303E-01  0.89018656752E+00  0.88000000000E+00 0. -1.
        -11    1    4    4    0    0  0.24143124818E-01  0.23216560987E-01 -0.32087697069E-01  0.46387289254E-01  0.51100000000E-03 0.  1.
         11    1    4    4    0    0  0.28972870008E-01  0.25833431810E-01 -0.73442295616E-01  0.83071206214E-01  0.51100000000E-03 0. -1.
</event>
<event>
 8    1  0.1150863E+005  0.1043930E+01  0.7957747E-01            NaN
         13   -1    0    0    0    0  0.00000000000E+00  0.00000000000E+00  0.74505805969E-08  0.10566000000E+00  0.10566000000E+00 0. -1.
     999900   -1    0    0    0    0 -0.00000000000E+00 -0.00000000000E+00 -0.74505805969E-08  0.93827000000E+00  0.93827000000E+00 0.  1.
     999902    2    1    2    0    0 -0.12398585388E-01  0.19966774229E-01  0.50177290744E-02  0.10198972183E+01  0.10196140256E+01 0.  0.
     999903    2    3    3    0    0 -0.11627891212E+00  0.31875862818E-01 -0.49859056185E-01  0.13200960701E+00  0.20093651347E-01 0.  0.
         14    1    1    2    0    0  0.12398585388E-01 -0.19966774229E-01 -0.50177290744E-02  0.24032781733E-01  0.00000000000E+00 0.  1.
     999901    1    3    3    0    0  0.10388032673E+00 -0.11909088589E-01  0.54876785260E-01  0.88788761126E+00  0.88000000000E+00 0.  1.
        -11    1    4    4    0    0 -0.86450459807E-01  0.17043626891E-01 -0.42768940802E-01  0.97946978701E-01  0.51100000000E-03 0. -1.
         11    1    4    4    0    0 -0.29828452310E-01  0.14832235927E-01 -0.70901153836E-02  0.34062628304E-01  0.51100000000E-03 0.  1.
</event>
<event>
 8    1  0.1150863E+005  0.1043930E+01  0.7957747E-01            NaN
         13   -1    0    0    0    0  0.00000000000E+00  0.00000000000E+00  0.74505805969E-08  0.10566000000E+00  0.10566000000E+00 0.  1.
     999900   -1    0    0    0    0 -0.00000000000E+00 -0.00000000000E+00 -0.74505805969E-08  0.93827000000E+00  0.93827000000E+00 0.  1.
     999902    2    1    2    0    0  0.39085315889E-02 -0.37033556780E-02 -0.22770120343E-01  0.10205319265E+01  0.10202636636E+01 0.  0.
     999903    2    3    3    0    0 -0.26433442154E-01  0.37149491457E-01 -0.12406314074E+00  0.13326090452E+00  0.16970391957E-01 0.  0.
         14    1    1    2    0    0 -0.39085315889E-02  0.37033556780E-02  0.22770120343E-01  0.23398073487E-01  0.00000000000E+00 0.  1.
     999901    1    3    3    0    0  0.30341973743E-01 -0.40852847135E-01  0.10129302040E+00  0.88727102199E+00  0.88000000000E+00 0. -1.
        -11    1    4    4    0    0 -0.16926976807E-03  0.62151090857E-02 -0.32700341375E-01  0.33290083812E-01  0.51100000000E-03 0.  1.
         11    1    4    4    0    0 -0.26264172386E-01  0.30934382371E-01 -0.91362799366E-01  0.99970820707E-01  0.51100000000E-03 0. -1.
</event>
<event>
 8    1  0.1150863E+005  0.1043930E+01  0.7957747E-01            NaN
         13   -1    0    0    0    0  0.00000000000E+00  0.00000000000E+00  0.74505805969E-08  0.10566000000E+00  0.10566000000E+00 0.  1.
     999900   -1    0    0    0    0 -0.00000000000E+00 -0.00000000000E+00 -0.74505805969E-08  0.93827000000E+00  0.93827000000E+00 0. -1.
     999902    2    1    2    0    0 -0.87371769496E-02  0.10163657012E-02  0.23271500447E-01  0.10190516159E+01  0.10187478893E+01 0.  0.
     999903    2    3    3    0    0 -0.12288249036E+00 -0.33319078339E-01 -0.18279767856E-01  0.13004397639E+00  0.19157725963E-01 0.  0.
         14    1    1    2    0    0  0.87371769496E-02 -0.10163657012E-02 -0.23271500447E-01  0.24878384059E-01  0.00000000000E+00 0. -1.
     999901    1    3    3    0    0  0.11414531341E+00  0.34335444040E-01  0.41551268304E-01  0.88900763956E+00  0.88000000000E+00 0.  1.
        -11    1    4    4    0    0 -0.67815003854E-01 -0.92923582562E-02 -0.13517139913E-01  0.69772464928E-01  0.51100000000E-03 0. -1.
         11    1    4    4    0    0 -0.55067486502E-01 -0.24026720082E-01 -0.47626279432E-02  0.60271511458E-01  0.51100000000E-03 0.  1.
</event>
<event>
 8    1  0.1150863E+005  0.1043930E+01  0.7957747E-01            NaN
         13   -1    0    0    0    0  0.00000000000E+00  0.00000000000E+00  0.74505805969E-08  0.10566000000E+00  0.10566000000E+00 0. -1.
     999900   -1    0    0    0    0 -0.00000000000E+00 -0.00000000000E+00 -0.74505805969E-08  0.93827000000E+00  0.93827000000E+00 0. -1.
     999902    2    1    2    0    0  0.13299988117E-01  0.12816439867E-01  0.14714612418E-01  0.10203149490E+01  0.10200416288E+01 0.  0.
     999903    2    3    3    0    0  0.44279448662E-01  0.79684577125E-01 -0.91754081388E-01  0.13083945327E+00  0.19744611297E-01 0.  0.
         14    1    1    2    0    0 -0.13299988117E-01 -0.12816439867E-01 -0.14714612418E-01  0.23615050993E-01  0.00000000000E+00 0.  1.
     999901    1    3    3    0    0 -0.30979460545E-01 -0.66868137258E-01  0.10646869381E+00  0.88947549574E+00  0.88000000000E+00 0.  1.
        -11    1    4    4    0    0  0.19549524817E-01  0.48366398950E-01 -0.41478687420E-01  0.66650094516E-01  0.51100000000E-03 0.  1.
         11    1    4    4    0    0  0.24729923845E-01  0.31318178175E-01 -0.50275393968E-01  0.64189358754E-01  0.51100000000E-03 0. -1.
</event>
<event>
 8    1  0.1150863E+005  0.1043930E+01  0.7957747E-01            NaN
         13   -1    0    0    0    0  0.00000000000E+00  0.00000000000E+00  0.74505805969E-08  0.10566000000E+00  0.10566000000E+00 0.  1.
     999900   -1    0    0    0    0 -0.00000000000E+00 -0.00000000000E+00 -0.74505805969E-08  0.93827000000E+00  0.93827000000E+00 0.  1.
     999902    2    1    2    0    0 -0.13713221374E-01  0.83646881927E-02  0.17095481451E-01  0.10204720390E+01  0.10202023850E+01 0.  0.
     999903    2    3    3    0    0  0.12268046869E+00  0.25348636810E-01 -0.22735771162E-01  0.12891260637E+00  0.20211234633E-01 0.  0.
         14    1    1    2    0    0  0.13713221374E-01 -0.83646881927E-02 -0.17095481451E-01  0.23457961016E-01  0.00000000000E+00 0. -1.
     999901    1    3    3    0    0 -0.13639369006E+00 -0.16983948618E-01  0.39831252613E-01  0.89155943261E+00  0.88000000000E+00 0.  1.
        -11    1    4    4    0    0  0.34885937652E-01 -0.12577935904E-03 -0.79295390438E-03  0.34898916361E-01  0.51100000000E-03 0. -1.
         11    1    4    4    0    0  0.87794531035E-01  0.25474416169E-01 -0.21942817258E-01  0.94013690008E-01  0.51100000000E-03 0.  1.
</event>
<event>
 8    1  0.1150863E+005  0.1043930E+01  0.7957747E-01            NaN
         13   -1    0    0    0    0  0.00000000000E+00  0.00000000000E+00  0.74505805969E-08  0.10566000000E+00  0.10566000000E+00 0.  1.
     999900   -1    0    0    0    0 -0.00000000000E+00 -0.00000000000E+00 -0.74505805969E-08  0.93827000000E+00  0.93827000000E+00 0.  1.
     999902    2    1    2    0    0 -0.14584583310E-01  0.68456358975E-02 -0.16175095732E-01  0.10211000521E+01  0.10208448020E+01 0.  0.
     999903    2    3    3    0    0  0.85673986252E-01  0.20757246590E-01 -0.97434976128E-01  0.13157856168E+00  0.69604679442E-02 0.  0.
         14    1    1    2    0    0  0.14584583310E-01 -0.68456358975E-02  0.16175095732E-01  0.22829947943E-01  0.00000000000E+00 0.  1.
     999901    1    3    3    0    0 -0.10025856956E+00 -0.13911610692E-01  0.81259880396E-01  0.88952149038E+00  0.88000000000E+00 0.  1.
        -11    1    4    4    0    0  0.20213923699E-01  0.58243120263E-02 -0.27528982859E-01  0.34650127563E-01  0.51100000000E-03 0.  1.
         11    1    4    4    0    0  0.65460062553E-01  0.14932934564E-01 -0.69905993269E-01  0.96928434115E-01  0.51100000000E-03 0. -1.
</event>
<event>
 8    1  0.1150863E+005  0.1043930E+01  0.7957747E-01            NaN
         13   -1    0    0    0    0  0.00000000000E+00  0.00000000000E+00  0.74505805969E-08  0.10566000000E+00  0.10566000000E+00 0. -1.
     999900   -1    0    0    0    0 -0.00000000000E+00 -0.00000000000E+00 -0.74505805969E-08  0.93827000000E+00  0.93827000000E+00 0. -1.
     999902    2    1    2    0    0 -0.21112593139E-01  0.59352672103E-02  0.10101582920E-01  0.10197843800E+01  0.10194984898E+01 0.  0.
     999903    2    3    3    0    0 -0.11991193403E+00  0.16984761679E-01  0.51734239959E-01  0.13320856308E+00  0.20018382572E-01 0.  0.
         14    1    1    2    0    0  0.21112593139E-01 -0.59352672103E-02 -0.10101582920E-01  0.24145619963E-01  0.00000000000E+00 0.  1.
     999901    1    3    3    0    0  0.98799340889E-01 -0.11049494469E-01 -0.41632657038E-01  0.88657581696E+00  0.88000000000E+00 0. -1.
        -11    1    4    4    0    0 -0.68069333097E-01 -0.23828462355E-03  0.30577196310E-01  0.74623836293E-01  0.51100000000E-03 0. -1.
         11    1    4    4    0    0 -0.51842600931E-01  0.17223046303E-01  0.21157043648E-01  0.58584726783E-01  0.51100000000E-03 0.  1.
</event>
<event>
 8    1  0.1150863E+005  0.1043930E+01  0.7957747E-01            NaN
         13   -1    0    0    0    0  0.00000000000E+00  0.00000000000E+00  0.74505805969E-08  0.10566000000E+00  0.10566000000E+00 0. -1.
     999900   -1    0    0    0    0 -0.00000000000E+00 -0.00000000000E+00 -0.74505805969E-08  0.93827000000E+00  0.93827000000E+00 0.  1.
     999902    2    1    2    0    0  0.18964425147E-01 -0.59870885289E-02  0.14557618810E-01  0.10192841298E+01  0.10189861228E+01 0.  0.
     999903    2    3    3    0    0  0.65151971125E-01  0.85045814683E-01  0.73615318620E-01  0.13141697155E+00  0.19329649245E-01 0.  0.
         14    1    1    2    0    0 -0.18964425147E-01  0.59870885289E-02 -0.14557618810E-01  0.24645870153E-01  0.00000000000E+00 0.  1.
     999901    1    3    3    0    0 -0.46187545978E-01 -0.91032903212E-01 -0.59057699810E-01  0.88786715829E+00  0.88000000000E+00 0.  1.
        -11    1    4    4    0    0  0.62264036258E-01  0.79041273328E-01  0.62513130816E-01  0.11845879345E+00  0.51100000000E-03 0.  1.
         11    1    4    4    0    0  0.28879348670E-02  0.60045413554E-02  0.11102187804E-01  0.12958178102E-01  0.51100000000E-03 0. -1.
</event>
<event>
 8    1  0.1150863E+005  0.1043930E+01  0.7957747E-01            NaN
         13   -1    0    0    0    0  0.00000000000E+00  0.00000000000E+00  0.74505805969E-08  0.10566000000E+00  0.10566000000E+00 0. -1.
     999900   -1    0    0    0    0 -0.00000000000E+00 -0.00000000000E+00 -0.74505805969E-08  0.93827000000E+00  0.93827000000E+00 0. -1.
     999902    2    1    2    0    0  0.14971916175E-01 -0.18719274560E-01 -0.99299125265E-03  0.10199392613E+01  0.10196570703E+01 0.  0.
     999903    2    3    3    0    0 -0.12240920795E+00  0.30269519277E-01 -0.72868908084E-02  0.12791174578E+00  0.20200444094E-01 0.  0.
         14    1    1    2    0    0 -0.14971916175E-01  0.18719274560E-01  0.99299125265E-03  0.23990738747E-01  0.00000000000E+00 0.  1.
     999901    1    3    3    0    0  0.13738112413E+00 -0.48988793837E-01  0.62938995557E-02  0.89202751547E+00  0.88000000000E+00 0.  1.
        -11    1    4    4    0    0 -0.59941104239E-01  0.12745300677E-01  0.63536685257E-02  0.61611759360E-01  0.51100000000E-03 0. -1.
         11    1    4    4    0    0 -0.62468103715E-01  0.17524218600E-01 -0.13640559334E-01  0.66299986420E-01  0.51100000000E-03 0.  1.
</event>
<event>
 8    1  0.1150863E+005  0.1043930E+01  0.7957747E-01            NaN
         13   -1    0    0    0    0  0.00000000000E+00  0.00000000000E+00  0.74505805969E-08  0.10566000000E+00  0.10566000000E+00 0.  1.
     999900   -1    0    0    0    0 -0.00000000000E+00 -0.00000000000E+00 -0.74505805969E-08  0.93827000000E+00  0.93827000000E+00 0. -1.
     999902    2    1    2    0    0 -0.35506680384E-02 -0.22062462645E-01 -0.72487888256E-02  0.10204373535E+01  0.10201668922E+01 0.  0.
     999903    2    3    3    0    0  0.10757437974E-01 -0.77155978711E-01  0.10416208427E+00  0.13158843490E+00  0.19925081598E-01 0.  0.
         14    1    1    2    0    0  0.35506680384E-02  0.22062462645E-01  0.72487888256E-02  0.23492646529E-01  0.00000000000E+00 0. -1.
     999901    1    3    3    0    0 -0.14308106012E-01  0.55093516066E-01 -0.11141087309E+00  0.88884891858E+00  0.88000000000E+00 0. -1.
        -11    1    4    4    0    0 -0.14177417713E-02 -0.54356131266E-01  0.74639665464E-01  0.92346844990E-01  0.51100000000E-03 0.  1.
         11    1    4    4    0    0  0.12175179745E-01 -0.22799847445E-01  0.29522418803E-01  0.39241589906E-01  0.51100000000E-03 0. -1.
</event>
<event>
 8    1  0.1150863E+005  0.1043930E+01  0.7957747E-01            NaN
         13   -1    0    0    0    0  0.00000000000E+00  0.00000000000E+00  0.74505805969E-08  0.10566000000E+00  0.10566000000E+00 0.  1.
     999900   -1    0    0    0    0 -0.00000000000E+00 -0.00000000000E+00 -0.74505805969E-08  0.93827000000E+00  0.93827000000E+00 0. -1.
     999902    2    1    2    0    0 -0.17175772297E-01  0.25116582591E-01 -0.15206452470E-02  0.10134642448E+01  0.10130062257E+01 0.  0.
     999903    2    3    3    0    0 -0.63715528730E-01 -0.83849345553E-01 -0.61545462826E-01  0.12349654816E+00  0.19317661909E-01 0.  0.
         14    1    1    2    0    0  0.17175772297E-01 -0.25116582591E-01  0.15206452470E-02  0.30465755153E-01  0.00000000000E+00 0.  1.
     999901    1    3    3    0    0  0.46539756433E-01  0.10896592814E+00  0.60024817579E-01  0.88996769669E+00  0.88000000000E+00 0.  1.
        -11    1    4    4    0    0 -0.51464823205E-01 -0.53491862746E-01 -0.45105129338E-01  0.86860469842E-01  0.51100000000E-03 0.  1.
         11    1    4    4    0    0 -0.12250705525E-01 -0.30357482807E-01 -0.16440333488E-01  0.36636078316E-01  0.51100000000E-03 0. -1.
</event>
<event>
 8    1  0.1150863E+005  0.1043930E+01  0.7957747E-01            NaN
         13   -1    0    0    0    0  0.00000000000E+00  0.00000000000E+00  0.74505805969E-08  0.10566000000E+00  0.10566000000E+00 0. -1.
     999900   -1    0    0    0    0 -0.00000000000E+00 -0.00000000000E+00 -0.74505805969E-08  0.93827000000E+00  0.93827000000E+00 0.  1.
     999902    2    1    2    0    0 -0.14063770365E-01  0.14908335219E-01 -0.13221858504E-01  0.10195401325E+01  0.10192483584E+01 0.  0.
     999903    2    3    3    0    0 -0.39299901872E-01 -0.74396239734E-01 -0.97702136138E-01  0.13063682684E+00  0.20999770196E-01 0.  0.
         14    1    1    2    0    0  0.14063770365E-01 -0.14908335219E-01  0.13221858504E-01  0.24389867531E-01  0.00000000000E+00 0.  1.
     999901    1    3    3    0    0  0.25236131508E-01  0.89304574954E-01  0.84480277633E-01  0.88890330562E+00  0.88000000000E+00 0. -1.
        -11    1    4    4    0    0 -0.16857430503E-01 -0.13538672924E-01 -0.28648476399E-01  0.35895193950E-01  0.51100000000E-03 0.  1.
         11    1    4    4    0    0 -0.22442471369E-01 -0.60857566810E-01 -0.69053659738E-01  0.94741632894E-01  0.51100000000E-03 0. -1.
</event>
<event>
 8    1  0.1150863E+005  0.1043930E+01  0.7957747E-01            NaN
         13   -1    0    0    0    0  0.00000000000E+00  0.00000000000E+00  0.74505805969E-08  0.10566000000E+00  0.10566000000E+00 0.  1.
     999900   -1    0    0    0    0 -0.00000000000E+00 -0.00000000000E+00 -0.74505805969E-08  0.93827000000E+00  0.93827000000E+00 0.  1.
     999902    2    1    2    0    0 -0.93671395596E-02  0.20086630642E-01  0.78421383865E-02  0.10204201049E+01  0.10201492417E+01 0.  0.
     999903    2    3    3    0    0 -0.28623279861E-01  0.12802277728E+00 -0.12531817136E-01  0.13338227663E+00  0.20607319664E-01 0.  0.
         14    1    1    2    0    0  0.93671395596E-02 -0.20086630642E-01 -0.78421383865E-02  0.23509895120E-01  0.00000000000E+00 0. -1.
     999901    1    3    3    0    0  0.19256140301E-01 -0.10793614664E+00  0.20373955522E-01  0.88703782825E+00  0.88000000000E+00 0.  1.
        -11    1    4    4    0    0 -0.10553558523E-01  0.60228242397E-01 -0.15755031543E-01  0.63145078349E-01  0.51100000000E-03 0.  1.
         11    1    4    4    0    0 -0.18069721338E-01  0.67794534886E-01  0.32232144071E-02  0.70237198277E-01  0.51100000000E-03 0. -1.
</event>
<event>
 8    1  0.1150863E+005  0.1043930E+01  0.7957747E-01            NaN
         13   -1    0    0    0    0  0.00000000000E+00  0.00000000000E+00  0.74505805969E-08  0.10566000000E+00  0.10566000000E+00 0. -1.
     999900   -1    0    0    0    0 -0.00000000000E+00 -0.00000000000E+00 -0.74505805969E-08  0.93827000000E+00  0.93827000000E+00 0. -1.
     999902    2    1    2    0    0 -0.19206700268E-01 -0.10177787705E-02 -0.13540175574E-01  0.10204083172E+01  0.10201371791E+01 0.  0.
     999903    2    3    3    0    0  0.17762499347E-01 -0.61143985863E-01 -0.11394485446E+00  0.13189102299E+00  0.18913452840E-01 0.  0.
         14    1    1    2    0    0  0.19206700268E-01  0.10177787705E-02  0.13540175574E-01  0.23521682835E-01  0.00000000000E+00 0. -1.
     999901    1    3    3    0    0 -0.36969199615E-01  0.60126207093E-01  0.10040467888E+00  0.88851729417E+00  0.88000000000E+00 0.  1.
        -11    1    4    4    0    0  0.19884829952E-01 -0.52678355200E-01 -0.10623100714E+00  0.12023187417E+00  0.51100000000E-03 0.  1.
         11    1    4    4    0    0 -0.21223306054E-02 -0.84656306628E-02 -0.77138473238E-02  0.11659148822E-01  0.51100000000E-03 0. -1.
</event>
<event>
 8    1  0.1150863E+005  0.1043930E+01  0.7957747E-01            NaN
         13   -1    0    0    0    0  0.00000000000E+00  0.00000000000E+00  0.74505805969E-08  0.10566000000E+00  0.10566000000E+00 0.  1.
     999900   -1    0    0    0    0 -0.00000000000E+00 -0.00000000000E+00 -0.74505805969E-08  0.93827000000E+00  0.93827000000E+00 0. -1.
     999902    2    1    2    0    0  0.19653538079E-01 -0.11003311173E-01  0.88349037231E-02  0.10197351671E+01  0.10194480963E+01 0.  0.
     999903    2    3    3    0    0 -0.37131945404E-01 -0.69605744099E-02 -0.12146681013E+00  0.12832085742E+00  0.16876774598E-01 0.  0.
         14    1    1    2    0    0 -0.19653538079E-01  0.11003311173E-01 -0.88349037231E-02  0.24194832911E-01  0.00000000000E+00 0. -1.
     999901    1    3    3    0    0  0.56785483482E-01 -0.40427367635E-02  0.13030171385E+00  0.89141430967E+00  0.88000000000E+00 0.  1.
        -11    1    4    4    0    0  0.72799711346E-03  0.13825790170E-02 -0.13572715615E-01  0.13671914084E-01  0.51100000000E-03 0.  1.
         11    1    4    4    0    0 -0.37859942517E-01 -0.83431534269E-02 -0.10789409451E+00  0.11464894333E+00  0.51100000000E-03 0. -1.
</event>
<event>
 8    1  0.1150863E+005  0.1043930E+01  0.7957747E-01            NaN
         13   -1    0    0    0    0  0.00000000000E+00  0.00000000000E+00  0.74505805969E-08  0.10566000000E+00  0.10566000000E+00 0.  1.
     999900   -1    0    0    0    0 -0.00000000000E+00 -0.00000000000E+00 -0.74505805969E-08  0.93827000000E+00  0.93827000000E+00 0. -1.
     999902    2    1    2    0    0  0.25840019511E-01 -0.42512737992E-02  0.34186173364E-02  0.10175204017E+01  0.10171776153E+01 0.  0.
     999903    2    3    3    0    0  0.48920955966E-01  0.10636691276E+00 -0.49512401198E-01  0.12871738329E+00  0.20236275035E-01 0.  0.
         14    1    1    2    0    0 -0.25840019511E-01  0.42512737992E-02 -0.34186173364E-02  0.26409598288E-01  0.00000000000E+00 0.  1.
     999901    1    3    3    0    0 -0.23080936455E-01 -0.11061818656E+00  0.52931018535E-01  0.88880301842E+00  0.88000000000E+00 0.  1.
        -11    1    4    4    0    0  0.23062844898E-01  0.70593779501E-01 -0.25887433114E-01  0.78649836829E-01  0.51100000000E-03 0.  1.
         11    1    4    4    0    0  0.25858111067E-01  0.35773133258E-01 -0.23624968084E-01  0.50067546465E-01  0.51100000000E-03 0. -1.
</event>
<event>
 8    1  0.1150863E+005  0.1043930E+01  0.7957747E-01            NaN
         13   -1    0    0    0    0  0.00000000000E+00  0.00000000000E+00  0.74505805969E-08  0.10566000000E+00  0.10566000000E+00 0. -1.
     999900   -1    0    0    0    0 -0.00000000000E+00 -0.00000000000E+00 -0.74505805969E-08  0.93827000000E+00  0.93827000000E+00 0. -1.
     999902    2    1    2    0    0 -0.16033682291E-01  0.16340195424E-01  0.77096251775E-02  0.10197738564E+01  0.10194877139E+01 0.  0.
     999903    2    3    3    0    0  0.11315853249E+00 -0.53028281087E-01 -0.12465100548E-01  0.12741202761E+00  0.21484738239E-01 0.  0.
         14    1    1    2    0    0  0.16033682291E-01 -0.16340195424E-01 -0.77096251775E-02  0.24156143622E-01  0.00000000000E+00 0.  1.
     999901    1    3    3    0    0 -0.12919221478E+00  0.69368476511E-01  0.20174725726E-01  0.89236182877E+00  0.88000000000E+00 0. -1.
        -11    1    4    4    0    0  0.39710790526E-01 -0.29036574119E-01 -0.93718400600E-02  0.50081553769E-01  0.51100000000E-03 0.  1.
         11    1    4    4    0    0  0.73447741961E-01 -0.23991706968E-01 -0.30932604885E-02  0.77330473837E-01  0.51100000000E-03 0. -1.
</event>
<event>
 8    1  0.1150863E+005  0.1043930E+01  0.7957747E-01            NaN
         13   -1    0    0    0    0  0.00000000000E+00  0.00000000000E+00  0.74505805969E-08  0.10566000000E+00  0.10566000000E+00 0.  1.
     999900   -1    0    0    0    0 -0.00000000000E+00 -0.00000000000E+00 -0.74505805969E-08  0.93827000000E+00  0.93827000000E+00 0.  1.
     999902    2    1    2    0    0 -0.10486005337E-01  0.21058727299E-01  0.31975282745E-02  0.10201886755E+01  0.10199123899E+01 0.  0.
     999903    2    3    3    0    0  0.12847838558E-01 -0.12536735987E+00  0.89014804928E-02  0.12776635261E+00  0.19051578045E-01 0.  0.
         14    1    1    2    0    0  0.10486005337E-01 -0.21058727299E-01 -0.31975282745E-02  0.23741324530E-01  0.00000000000E+00 0.  1.
     999901    1    3    3    0    0 -0.23333843896E-01  0.14642608717E+00 -0.57039522183E-02  0.89242232286E+00  0.88000000000E+00 0.  1.
        -11    1    4    4    0    0  0.15317327606E-01 -0.59456865361E-01  0.67799321091E-02  0.61773521544E-01  0.51100000000E-03 0.  1.
         11    1    4    4    0    0 -0.24694890475E-02 -0.65910494512E-01  0.21215483837E-02  0.65992831062E-01  0.51100000000E-03 0. -1.
</event>
<event>
 8    1  0.1150863E+005  0.1043930E+01  0.7957747E-01            NaN
         13   -1    0    0    0    0  0.00000000000E+00  0.00000000000E+00  0.74505805969E-08  0.10566000000E+00  0.10566000000E+00 0. -1.
     999900   -1    0    0    0    0 -0.00000000000E+00 -0.00000000000E+00 -0.74505805969E-08  0.93827000000E+00  0.93827000000E+00 0. -1.
     999902    2    1    2    0    0  0.18959560245E-01  0.11449562379E-01 -0.90558840345E-02  0.10200016394E+01  0.10197209314E+01 0.  0.
     999903    2    3    3    0    0 -0.84760497318E-01  0.91184978077E-01  0.31228410546E-01  0.12941845341E+00  0.16579515211E-01 0.  0.
         14    1    1    2    0    0 -0.18959560245E-01 -0.11449562379E-01  0.90558840345E-02  0.23928360558E-01  0.00000000000E+00 0. -1.
     999901    1    3    3    0    0  0.10372005756E+00 -0.79735415698E-01 -0.40284294581E-01  0.89058318603E+00  0.88000000000E+00 0. -1.
        -11    1    4    4    0    0 -0.38884610746E-01  0.44767637614E-01  0.23142167744E-01  0.63655128460E-01  0.51100000000E-03 0.  1.
         11    1    4    4    0    0 -0.45875886572E-01  0.46417340463E-01  0.80862428019E-02  0.65763324947E-01  0.51100000000E-03 0. -1.
</event>
<event>
 8    1  0.1150863E+005  0.1043930E+01  0.7957747E-01            NaN
         13   -1    0    0    0    0  0.00000000000E+00  0.00000000000E+00  0.74505805969E-08  0.10566000000E+00  0.10566000000E+00 0. -1.
     999900   -1    0    0    0    0 -0.00000000000E+00 -0.00000000000E+00 -0.74505805969E-08  0.93827000000E+00  0.93827000000E+00 0.  1.
     999902    2    1    2    0    0  0.84655087901E-02  0.18688486927E-01  0.92571600386E-02  0.10214217927E+01  0.10211737655E+01 0.  0.
     999903    2    3    3    0    0 -0.82460096308E-01  0.10172245049E+00  0.27502461360E-02  0.13282489610E+00  0.22085396851E-01 0.  0.
         14    1    1    2    0    0 -0.84655087901E-02 -0.18688486927E-01 -0.92571600386E-02  0.22508207274E-01  0.00000000000E+00 0.  1.
     999901    1    3    3    0    0  0.90925605098E-01 -0.83033963558E-01  0.65069139026E-02  0.88859689663E+00  0.88000000000E+00 0. -1.
        -11    1    4    4    0    0 -0.43768694506E-01  0.67856358076E-01 -0.46013829563E-02  0.80880268275E-01  0.51100000000E-03 0. -1.
         11    1    4    4    0    0 -0.38691401802E-01  0.33866092409E-01  0.73516290923E-02  0.51944627825E-01  0.51100000000E-03 0.  1.
</event>
<event>
 8    1  0.1150863E+005  0.1043930E+01  0.7957747E-01            NaN
         13   -1    0    0    0    0  0.00000000000E+00  0.00000000000E+00  0.74505805969E-08  0.10566000000E+00  0.10566000000E+00 0. -1.
     999900   -1    0    0    0    0 -0.00000000000E+00 -0.00000000000E+00 -0.74505805969E-08  0.93827000000E+00  0.93827000000E+00 0. -1.
     999902    2    1    2    0    0  0.69785129931E-02 -0.10307520660E-01  0.21680600752E-01  0.10189301385E+01  0.10186234015E+01 0.  0.
     999903    2    3    3    0    0 -0.64889305076E-02 -0.11296351172E+00  0.64467468830E-01  0.13182792308E+00  0.20486228718E-01 0.  0.
         14    1    1    2    0    0 -0.69785129931E-02  0.10307520660E-01 -0.21680600752E-01  0.24999861494E-01  0.00000000000E+00 0.  1.
     999901    1    3    3    0    0  0.13467443501E-01  0.10265599106E+00 -0.42786868077E-01  0.88710221543E+00  0.88000000000E+00 0. -1.
        -11    1    4    4    0    0  0.37587832137E-02 -0.73392255384E-01  0.34774745065E-01  0.81302494531E-01  0.51100000000E-03 0.  1.
         11    1    4    4    0    0 -0.10247713721E-01 -0.39571256335E-01  0.29692723765E-01  0.50525428549E-01  0.51100000000E-03 0. -1.
</event>
<event>
 8    1  0.1150863E+005  0.1043930E+01  0.7957747E-01            NaN
         13   -1    0    0    0    0  0.00000000000E+00  0.00000000000E+00  0.74505805969E-08  0.10566000000E+00  0.10566000000E+00 0.  1.
     999900   -1    0    0    0    0 -0.00000000000E+00 -0.00000000000E+00 -0.74505805969E-08  0.93827000000E+00  0.93827000000E+00 0.  1.
     999902    2    1    2    0    0 -0.81340418977E-02 -0.38201989468E-02  0.21453454240E-01  0.10206704373E+01  0.10204053775E+01 0.  0.
     999903    2    3    3    0    0 -0.31474381839E-01  0.62669534574E-01 -0.10589475231E+00  0.12871571770E+00  0.20878940114E-01 0.  0.
         14    1    1    2    0    0  0.81340418977E-02  0.38201989468E-02 -0.21453454240E-01  0.23259562688E-01  0.00000000000E+00 0. -1.
     999901    1    3    3    0    0  0.23340339942E-01 -0.66489733521E-01  0.12734820655E+00  0.89195471961E+00  0.88000000000E+00 0. -1.
        -11    1    4    4    0    0 -0.94373539945E-02  0.29942521825E-01 -0.63260603659E-01  0.70624240598E-01  0.51100000000E-03 0.  1.
         11    1    4    4    0    0 -0.22037027845E-01  0.32727012748E-01 -0.42634148648E-01  0.58091477099E-01  0.51100000000E-03 0. -1.
</event>
<event>
 8    1  0.1150863E+005  0.1043930E+01  0.7957747E-01            NaN
         13   -1    0    0    0    0  0.00000000000E+00  0.00000000000E+00  0.74505805969E-08  0.10566000000E+00  0.10566000000E+00 0. -1.
     999900   -1    0    0    0    0 -0.00000000000E+00 -0.00000000000E+00 -0.74505805969E-08  0.93827000000E+00  0.93827000000E+00 0. -1.
     999902    2    1    2    0    0 -0.17966871425E-01 -0.12448130300E-02  0.16151847136E-01  0.10197382619E+01  0.10194512654E+01 0.  0.
     999903    2    3    3    0    0 -0.10075003071E+00  0.26728263946E-01  0.80171098216E-01  0.13309627718E+00  0.20548606438E-01 0.  0.
         14    1    1    2    0    0  0.17966871425E-01  0.12448130300E-02 -0.16151847136E-01  0.24191738139E-01  0.00000000000E+00 0.  1.
     999901    1    3    3    0    0  0.82783159288E-01 -0.27973076976E-01 -0.64019251079E-01  0.88664198468E+00  0.88000000000E+00 0.  1.
        -11    1    4    4    0    0 -0.41010985579E-01  0.15095263087E-01  0.45326094065E-01  0.62964147180E-01  0.51100000000E-03 0. -1.
         11    1    4    4    0    0 -0.59739045134E-01  0.11633000859E-01  0.34845004151E-01  0.70132129996E-01  0.51100000000E-03 0.  1.
</event>
<event>
 8    1  0.1512431E+005  0.1043930E+01  0.7957747E-01            NaN
         13   -1    0    0    0    0  0.00000000000E+00  0.00000000000E+00  0.74505805969E-08  0.10566000000E+00  0.10566000000E+00 0.  1.
     999900   -1    0    0    0    0 -0.00000000000E+00 -0.00000000000E+00 -0.74505805969E-08  0.93827000000E+00  0.93827000000E+00 0.  1.
     999902    2    1    2    0    0 -0.16924109729E-01  0.38529407237E-02 -0.16156443838E-01  0.10202171065E+01  0.10199414900E+01 0.  0.
     999903    2    3    3    0    0  0.11454863324E+00 -0.32223119362E-01  0.41944543648E-01  0.12782577470E+00  0.20502808063E-01 0.  0.
         14    1    1    2    0    0  0.16924109729E-01 -0.38529407237E-02  0.16156443838E-01  0.23712893536E-01  0.00000000000E+00 0.  1.
     999901    1    3    3    0    0 -0.13147274297E+00  0.36076060085E-01 -0.58100987487E-01  0.89239133176E+00  0.88000000000E+00 0.  1.
        -11    1    4    4    0    0  0.55128623514E-01 -0.49104275095E-02  0.19130184400E-01  0.58561954416E-01  0.51100000000E-03 0.  1.
         11    1    4    4    0    0  0.59420009725E-01 -0.27312691852E-01  0.22814359248E-01  0.69263820287E-01  0.51100000000E-03 0. -1.
</event>
<event>
 8    1  0.1150863E+005  0.1043930E+01  0.7957747E-01            NaN
         13   -1    0    0    0    0  0.00000000000E+00  0.00000000000E+00  0.74505805969E-08  0.10566000000E+00  0.10566000000E+00 0.  1.
     999900   -1    0    0    0    0 -0.00000000000E+00 -0.00000000000E+00 -0.74505805969E-08  0.93827000000E+00  0.93827000000E+00 0. -1.
     999902    2    1    2    0    0  0.62389892275E-02 -0.21914730069E-01  0.41213105626E-02  0.10207747505E+01  0.10205120899E+01 0.  0.
     999903    2    3    3    0    0 -0.19075439680E-01 -0.13091839727E+00  0.99338743305E-02  0.13366911657E+00  0.16286550353E-01 0.  0.
         14    1    1    2    0    0 -0.62389892275E-02  0.21914730069E-01 -0.41213105626E-02  0.23155249541E-01  0.00000000000E+00 0. -1.
     999901    1    3    3    0    0  0.25314428907E-01  0.10900366721E+00 -0.58125637679E-02  0.88710563389E+00  0.88000000000E+00 0.  1.
        -11    1    4    4    0    0 -0.16305018514E-01 -0.10386684659E+00  0.13496463246E-02  0.10514874282E+00  0.51100000000E-03 0.  1.
         11    1    4    4    0    0 -0.27704211655E-02 -0.27051550679E-01  0.85842280059E-02  0.28520373754E-01  0.51100000000E-03 0. -1.
</event>
<event>
 8    1  0.1150863E+005  0.1043930E+01  0.7957747E-01            NaN
         13   -1    0    0    0    0  0.00000000000E+00  0.00000000000E+00  0.74505805969E-08  0.10566000000E+00  0.10566000000E+00 0. -1.
     999900   -1    0    0    0    0 -0.00000000000E+00 -0.00000000000E+00 -0.74505805969E-08  0.93827000000E+00  0.93827000000E+00 0.  1.
     999902    2    1    2    0    0 -0.14944254316E-01 -0.16445682752E-01  0.19111843690E-02  0.10216265509E+01  0.10213830650E+01 0.  0.
     999903    2    3    3    0    0  0.98001862986E-01  0.80550610166E-01 -0.12654244504E-01  0.12900274545E+00  0.19718328591E-01 0.  0.
         14    1    1    2    0    0  0.14944254316E-01  0.16445682752E-01 -0.19111843690E-02  0.22303449149E-01  0.00000000000E+00 0.  1.
     999901    1    3    3    0    0 -0.11294611730E+00 -0.96996292918E-01  0.14565428873E-01  0.89262380540E+00  0.88000000000E+00 0.  1.
        -11    1    4    4    0    0  0.84332533822E-01  0.59303068414E-01 -0.94273956115E-02  0.10352761512E+00  0.51100000000E-03 0.  1.
         11    1    4    4    0    0  0.13669329164E-01  0.21247541752E-01 -0.32268488925E-02  0.25475130325E-01  0.51100000000E-03 0. -1.
</event>
<event>
 8    1  0.1150863E+005  0.1043930E+01  0.7957747E-01            NaN
         13   -1    0    0    0    0  0.00000000000E+00  0.00000000000E+00  0.74505805969E-08  0.10566000000E+00  0.10566000000E+00 0. -1.
     999900   -1    0    0    0    0 -0.00000000000E+00 -0.00000000000E+00 -0.74505805969E-08  0.93827000000E+00  0.93827000000E+00 0. -1.
     999902    2    1    2    0    0 -0.48330791257E-02 -0.18650300386E-01  0.13170373104E-01  0.10205922391E+01  0.10203253733E+01 0.  0.
     999903    2    3    3    0    0 -0.57514852231E-01  0.48815322786E-01 -0.10272275370E+00  0.12887580634E+00  0.19134141379E-01 0.  0.
         14    1    1    2    0    0  0.48330791257E-02  0.18650300386E-01 -0.13170373104E-01  0.23337760947E-01  0.00000000000E+00 0.  1.
     999901    1    3    3    0    0  0.52681773106E-01 -0.67465623172E-01  0.11589312681E+00  0.89171643271E+00  0.88000000000E+00 0.  1.
        -11    1    4    4    0    0 -0.15573794526E-01  0.12286774512E-01 -0.14474179029E-01  0.24561573309E-01  0.51100000000E-03 0.  1.
         11    1    4    4    0    0 -0.41941057705E-01  0.36528548274E-01 -0.88248574672E-01  0.10431423303E+00  0.51100000000E-03 0. -1.
</event>
<event>
 8    1  0.1150863E+005  0.1043930E+01  0.7957747E-01            NaN
         13   -1    0    0    0    0  0.00000000000E+00  0.00000000000E+00  0.74505805969E-08  0.10566000000E+00  0.10566000000E+00 0. -1.
     999900   -1    0    0    0    0 -0.00000000000E+00 -0.00000000000E+00 -0.74505805969E-08  0.93827000000E+00  0.93827000000E+00 0. -1.
     999902    2    1    2    0    0 -0.14741449763E-01  0.16578722016E-01 -0.73479534421E-02  0.10205600025E+01  0.10202923904E+01 0.  0.
     999903    2    3    3    0    0 -0.60521708280E-01 -0.88590366914E-01 -0.72068158283E-01  0.13075942130E+00  0.19826157898E-01 0.  0.
         14    1    1    2    0    0  0.14741449763E-01 -0.16578722016E-01  0.73479534421E-02  0.23369997531E-01  0.00000000000E+00 0.  1.
     999901    1    3    3    0    0  0.45780258517E-01  0.10516908893E+00  0.64720204841E-01  0.88980058117E+00  0.88000000000E+00 0.  1.
        -11    1    4    4    0    0 -0.57994358692E-02 -0.21254529060E-01 -0.10815960824E-01  0.24548616896E-01  0.51100000000E-03 0. -1.
         11    1    4    4    0    0 -0.54722272411E-01 -0.67335837854E-01 -0.61252197459E-01  0.10621080440E+00  0.51100000000E-03 0.  1.
</event>
<event>
 8    1  0.1150863E+005  0.1043930E+01  0.7957747E-01            NaN
         13   -1    0    0    0    0  0.00000000000E+00  0.00000000000E+00  0.74505805969E-08  0.10566000000E+00  0.10566000000E+00 0. -1.
     999900   -1    0    0    0    0 -0.00000000000E+00 -0.00000000000E+00 -0.74505805969E-08  0.93827000000E+00  0.93827000000E+00 0.  1.
     999902    2    1    2    0    0  0.16540056968E-01  0.63627452801E-03 -0.16133920406E-01  0.10208154652E+01  0.10205537381E+01 0.  0.
     999903    2    3    3    0    0  0.11303920908E+00 -0.60826961982E-01 -0.30034400657E-01  0.13330037288E+00  0.19726684815E-01 0.  0.
         14    1    1    2    0    0 -0.16540056968E-01 -0.63627452801E-03  0.16133920406E-01  0.23114534766E-01  0.00000000000E+00 0. -1.
     999901    1    3    3    0    0 -0.96499152114E-01  0.61463236510E-01  0.13900480250E-01  0.88751509235E+00  0.88000000000E+00 0. -1.
        -11    1    4    4    0    0  0.10317802019E+00 -0.54212635336E-01 -0.32832029549E-01  0.12109053211E+00  0.51100000000E-03 0.  1.
         11    1    4    4    0    0  0.98611888887E-02 -0.66143266467E-02  0.27976288927E-02  0.12209840773E-01  0.51100000000E-03 0. -1.
</event>
<event>
 8    1  0.1150863E+005  0.1043930E+01  0.7957747E-01            NaN
         13   -1    0    0    0    0  0.00000000000E+00  0.00000000000E+00  0.74505805969E-08  0.10566000000E+00  0.10566000000E+00 0. -1.
     999900   -1    0    0    0    0 -0.00000000000E+00 -0.00000000000E+00 -0.74505805969E-08  0.93827000000E+00  0.93827000000E+00 0.  1.
     999902    2    1    2    0    0  0.13217421027E-01 -0.18060775166E-01 -0.50288055060E-02  0.10209913709E+01  0.10207336571E+01 0.  0.
     999903    2    3    3    0    0 -0.11704404065E+00 -0.39583160679E-01  0.35213487852E-01  0.13023287188E+00  0.21318469227E-01 0.  0.
         14    1    1    2    0    0 -0.13217421027E-01  0.18060775166E-01  0.50288055060E-02  0.22938629057E-01  0.00000000000E+00 0. -1.
     999901    1    3    3    0    0  0.13026146168E+00  0.21522385513E-01 -0.40242293358E-01  0.89075849906E+00  0.88000000000E+00 0.  1.
        -11    1    4    4    0    0 -0.25160923255E-01 -0.18122613921E-01  0.79302429039E-02  0.32010171319E-01  0.51100000000E-03 0.  1.
         11    1    4    4    0    0 -0.91883117396E-01 -0.21460546757E-01  0.27283244948E-01  0.98222700561E-01  0.51100000000E-03 0. -1.
</event>
<event>
 8    1  0.1150863E+005  0.1043930E+01  0.7957747E-01            NaN
         13   -1    0    0    0    0  0.00000000000E+00  0.00000000000E+00  0.74505805969E-08  0.10566000000E+00  0.10566000000E+00 0.  1.
     999900   -1    0    0    0    0 -0.00000000000E+00 -0.00000000000E+00 -0.74505805969E-08  0.93827000000E+00  0.93827000000E+00 0. -1.
     999902    2    1    2    0    0 -0.21623796928E-01 -0.66525896420E-02 -0.58055686149E-02  0.10205729846E+01  0.10203056732E+01 0.  0.
     999903    2    3    3    0    0  0.11992919127E-01 -0.11307379435E+00 -0.63168122150E-01  0.13167140456E+00  0.20436096587E-01 0.  0.
         14    1    1    2    0    0  0.21623796928E-01  0.66525896420E-02  0.58055686149E-02  0.23357015423E-01  0.00000000000E+00 0.  1.
     999901    1    3    3    0    0 -0.33616716055E-01  0.10642120471E+00  0.57362553535E-01  0.88890158002E+00  0.88000000000E+00 0.  1.
        -11    1    4    4    0    0  0.14870288201E-01 -0.54388975245E-01 -0.25570229222E-01  0.61914326637E-01  0.51100000000E-03 0.  1.
         11    1    4    4    0    0 -0.28773690736E-02 -0.58684819109E-01 -0.37597892928E-01  0.69757077923E-01  0.51100000000E-03 0. -1.
</event>
<event>
 8    1  0.1150863E+005  0.1043930E+01  0.7957747E-01            NaN
         13   -1    0    0    0    0  0.00000000000E+00  0.00000000000E+00  0.74505805969E-08  0.10566000000E+00  0.10566000000E+00 0.  1.
     999900   -1    0    0    0    0 -0.00000000000E+00 -0.00000000000E+00 -0.74505805969E-08  0.93827000000E+00  0.93827000000E+00 0.  1.
     999902    2    1    2    0    0 -0.22235933107E-01 -0.11952509647E-02 -0.87499154684E-02  0.10200045665E+01  0.10197239280E+01 0.  0.
     999903    2    3    3    0    0 -0.48628428658E-01 -0.97961688452E-01  0.68791579741E-01  0.13091908654E+00  0.21126033699E-01 0.  0.
         14    1    1    2    0    0  0.22235933107E-01  0.11952509647E-02  0.87499154684E-02  0.23925433469E-01  0.00000000000E+00 0.  1.
     999901    1    3    3    0    0  0.26392495552E-01  0.96766437487E-01 -0.77541495210E-01  0.88908547999E+00  0.88000000000E+00 0.  1.
        -11    1    4    4    0    0 -0.21249954272E-01 -0.30232679156E-01  0.13680883412E-01  0.39408160797E-01  0.51100000000E-03 0.  1.
         11    1    4    4    0    0 -0.27378474387E-01 -0.67729009296E-01  0.55110696329E-01  0.91510925746E-01  0.51100000000E-03 0. -1.
</event>
<event>
 8    1  0.1150863E+005  0.1043930E+01  0.7957747E-01            NaN
         13   -1    0    0    0    0  0.00000000000E+00  0.00000000000E+00  0.74505805969E-08  0.10566000000E+00  0.10566000000E+00 0. -1.
     999900   -1    0    0    0    0 -0.00000000000E+00 -0.00000000000E+00 -0.74505805969E-08  0.93827000000E+00  0.93827000000E+00 0.  1.
     999902    2    1    2    0    0 -0.48472969329E-02 -0.18361130833E-01 -0.13482118600E-01  0.10206406261E+01  0.10203748786E+01 0.  0.
     999903    2    3    3    0    0  0.54079689999E-01 -0.11454067040E+00  0.32391983446E-01  0.13225595334E+00  0.19955414208E-01 0.  0.
         14    1    1    2    0    0  0.48472969329E-02  0.18361130833E-01  0.13482118600E-01  0.23289373863E-01  0.00000000000E+00 0. -1.
     999901    1    3    3    0    0 -0.58926986931E-01  0.96179539568E-01 -0.45874102046E-01  0.88838467280E+00  0.88000000000E+00 0. -1.
        -11    1    4    4    0    0  0.39692117073E-01 -0.88035118134E-01  0.15875406993E-01  0.97866929301E-01  0.51100000000E-03 0. -1.
         11    1    4    4    0    0  0.14387572926E-01 -0.26505552267E-01  0.16516576453E-01  0.34389024039E-01  0.51100000000E-03 0.  1.
</event>
<event>
 8    1  0.1150863E+005  0.1043930E+01  0.7957747E-01            NaN
         13   -1    0    0    0    0  0.00000000000E+00  0.00000000000E+00  0.74505805969E-08  0.10566000000E+00  0.10566000000E+00 0.  1.
     999900   -1    0    0    0    0 -0.00000000000E+00 -0.00000000000E+00 -0.74505805969E-08  0.93827000000E+00  0.93827000000E+00 0. -1.
     999902    2    1    2    0    0 -0.17028138199E-01  0.74582573586E-03 -0.18751997209E-01  0.10185892986E+01  0.10182740339E+01 0.  0.
     999903    2    3    3    0    0 -0.12840204006E+00  0.48168061868E-02  0.15145613682E-01  0.13091268695E+00  0.19961374646E-01 0.  0.
         14    1    1    2    0    0  0.17028138199E-01 -0.74582573586E-03  0.18751997209E-01  0.25340701369E-01  0.00000000000E+00 0.  1.
     999901    1    3    3    0    0  0.11137390186E+00 -0.40709804510E-02 -0.33897610890E-01  0.88767661168E+00  0.88000000000E+00 0. -1.
        -11    1    4    4    0    0 -0.43852182697E-01  0.44703225454E-02  0.14341895420E-01  0.46356755670E-01  0.51100000000E-03 0.  1.
         11    1    4    4    0    0 -0.84549857363E-01  0.34648364146E-03  0.80371826150E-03  0.84555931283E-01  0.51100000000E-03 0. -1.
</event>
<event>
 8    1  0.1150863E+005  0.1043930E+01  0.7957747E-01            NaN
         13   -1    0    0    0    0  0.00000000000E+00  0.00000000000E+00  0.74505805969E-08  0.10566000000E+00  0.10566000000E+00 0. -1.
     999900   -1    0    0    0    0 -0.00000000000E+00 -0.00000000000E+00 -0.74505805969E-08  0.93827000000E+00  0.93827000000E+00 0. -1.
     999902    2    1    2    0    0  0.19442190071E-01  0.94197555388E-02  0.98375490668E-02  0.10201916782E+01  0.10199154634E+01 0.  0.
     999903    2    3    3    0    0  0.97765107443E-01 -0.71663866593E-01  0.49156900171E-01  0.13212915535E+00  0.18654405649E-01 0.  0.
         14    1    1    2    0    0 -0.19442190071E-01 -0.94197555388E-02 -0.98375490668E-02  0.23738321777E-01  0.00000000000E+00 0.  1.
     999901    1    3    3    0    0 -0.78322917372E-01  0.81083622131E-01 -0.39319351105E-01  0.88806252287E+00  0.88000000000E+00 0.  1.
        -11    1    4    4    0    0  0.91151304714E-01 -0.60711386879E-01  0.40978853869E-01  0.11693571068E+00  0.51100000000E-03 0. -1.
         11    1    4    4    0    0  0.66138027289E-02 -0.10952479713E-01  0.81780463027E-02  0.15193444663E-01  0.51100000000E-03 0.  1.
</event>
<event>
 8    1  0.1150863E+005  0.1043930E+01  0.7957747E-01            NaN
         13   -1    0    0    0    0  0.00000000000E+00  0.00000000000E+00  0.74505805969E-08  0.10566000000E+00  0.10566000000E+00 0.  1.
     999900   -1    0    0    0    0 -0.00000000000E+00 -0.00000000000E+00 -0.74505805969E-08  0.93827000000E+00  0.93827000000E+00 0. -1.
     999902    2    1    2    0    0 -0.12936006361E-01  0.14113273237E-01  0.13587445588E-01  0.10204535561E+01  0.10201834721E+01 0.  0.
     999903    2    3    3    0    0  0.60982603064E-01  0.42001633995E-01  0.10726825435E+00  0.13196167911E+00  0.20600757934E-01 0.  0.
         14    1    1    2    0    0  0.12936006361E-01 -0.14113273237E-01 -0.13587445588E-01  0.23476443931E-01  0.00000000000E+00 0. -1.
     999901    1    3    3    0    0 -0.73918609425E-01 -0.27888360758E-01 -0.93680808767E-01  0.88849187696E+00  0.88000000000E+00 0. -1.
        -11    1    4    4    0    0  0.51906066714E-01  0.25444505636E-01  0.84423885437E-01  0.10231967642E+00  0.51100000000E-03 0. -1.
         11    1    4    4    0    0  0.90765363500E-02  0.16557128360E-01  0.22844368918E-01  0.29642002697E-01  0.51100000000E-03 0.  1.
</event>
<event>
 8    1  0.1150863E+005  0.1043930E+01  0.7957747E-01            NaN
         13   -1    0    0    0    0  0.00000000000E+00  0.00000000000E+00  0.74505805969E-08  0.10566000000E+00  0.10566000000E+00 0.  1.
     999900   -1    0    0    0    0 -0.00000000000E+00 -0.00000000000E+00 -0.74505805969E-08  0.93827000000E+00  0.93827000000E+00 0.  1.
     999902    2    1    2    0    0  0.23844811800E-01  0.59707405573E-02  0.65831609085E-02  0.10184827447E+01  0.10181647895E+01 0.  0.
     999903    2    3    3    0    0  0.74871891075E-01  0.10630255224E+00 -0.25302916575E-02  0.13126614758E+00  0.17842825995E-01 0.  0.
         14    1    1    2    0    0 -0.23844811800E-01 -0.59707405573E-02 -0.65831609085E-02  0.25447255258E-01  0.00000000000E+00 0.  1.
     999901    1    3    3    0    0 -0.51027079274E-01 -0.10033181168E+00  0.91134525660E-02  0.88721659716E+00  0.88000000000E+00 0. -1.
        -11    1    4    4    0    0  0.55204406350E-01  0.64076017612E-01 -0.38019036812E-02  0.84663912655E-01  0.51100000000E-03 0.  1.
         11    1    4    4    0    0  0.19667484724E-01  0.42226534630E-01  0.12716120237E-02  0.46602234929E-01  0.51100000000E-03 0. -1.
</event>
<event>
 8    1  0.1150863E+005  0.1043930E+01  0.7957747E-01            NaN
         13   -1    0    0    0    0  0.00000000000E+00  0.00000000000E+00  0.74505805969E-08  0.10566000000E+00  0.10566000000E+00 0. -1.
     999900   -1    0    0    0    0 -0.00000000000E+00 -0.00000000000E+00 -0.74505805969E-08  0.93827000000E+00  0.93827000000E+00 0.  1.
     999902    2    1    2    0    0 -0.19987025459E-01  0.38644650978E-02  0.12091486515E-01  0.10202525989E+01  0.10199778165E+01 0.  0.
     999903    2    3    3    0    0  0.95861988043E-01 -0.15991124456E-01 -0.79545596454E-01  0.12772103455E+00  0.23236263436E-01 0.  0.
         14    1    1    2    0    0  0.19987025459E-01 -0.38644650978E-02 -0.12091486515E-01  0.23677401110E-01  0.00000000000E+00 0. -1.
     999901    1    3    3    0    0 -0.11584901350E+00  0.19855589554E-01  0.91637082969E-01  0.89253156434E+00  0.88000000000E+00 0.  1.
        -11    1    4    4    0    0  0.87510463629E-01 -0.91689390490E-02 -0.64043194998E-01  0.10882987933E+00  0.51100000000E-03 0.  1.
         11    1    4    4    0    0  0.83515244148E-02 -0.68221854069E-02 -0.15502401457E-01  0.18891155224E-01  0.51100000000E-03 0. -1.
</event>
<event>
 8    1  0.1150863E+005  0.1043930E+01  0.7957747E-01            NaN
         13   -1    0    0    0    0  0.00000000000E+00  0.00000000000E+00  0.74505805969E-08  0.10566000000E+00  0.10566000000E+00 0.  1.
     999900   -1    0    0    0    0 -0.00000000000E+00 -0.00000000000E+00 -0.74505805969E-08  0.93827000000E+00  0.93827000000E+00 0. -1.
     999902    2    1    2    0    0  0.14247543396E-01  0.15842449074E-01  0.10800849903E-01  0.10200420523E+01  0.10197623029E+01 0.  0.
     999903    2    3    3    0    0 -0.96825855854E-01 -0.80591364627E-01 -0.78426455045E-02  0.12763835423E+00  0.18969131998E-01 0.  0.
         14    1    1    2    0    0 -0.14247543396E-01 -0.15842449074E-01 -0.10800849903E-01  0.23887947675E-01  0.00000000000E+00 0.  1.
     999901    1    3    3    0    0  0.11107339925E+00  0.96433813701E-01  0.18643495407E-01  0.89240369809E+00  0.88000000000E+00 0.  1.
        -11    1    4    4    0    0 -0.62455839374E-01 -0.41414716991E-01 -0.56300047912E-04  0.74941143213E-01  0.51100000000E-03 0. -1.
         11    1    4    4    0    0 -0.34370016480E-01 -0.39176647636E-01 -0.77863454566E-02  0.52697211021E-01  0.51100000000E-03 0.  1.
</event>
<event>
 8    1  0.1150863E+005  0.1043930E+01  0.7957747E-01            NaN
         13   -1    0    0    0    0  0.00000000000E+00  0.00000000000E+00  0.74505805969E-08  0.10566000000E+00  0.10566000000E+00 0. -1.
     999900   -1    0    0    0    0 -0.00000000000E+00 -0.00000000000E+00 -0.74505805969E-08  0.93827000000E+00  0.93827000000E+00 0. -1.
     999902    2    1    2    0    0  0.16822483766E-01 -0.10550836246E-01 -0.14668655196E-01  0.10192422388E+01  0.10189432054E+01 0.  0.
     999903    2    3    3    0    0  0.55689540234E-01 -0.11728832199E+00 -0.82717508249E-02  0.13191791295E+00  0.21818307219E-01 0.  0.
         14    1    1    2    0    0 -0.16822483766E-01  0.10550836246E-01  0.14668655196E-01  0.24687761154E-01  0.00000000000E+00 0. -1.
     999901    1    3    3    0    0 -0.38867056468E-01  0.10673748574E+00 -0.63969043708E-02  0.88732432590E+00  0.88000000000E+00 0. -1.
        -11    1    4    4    0    0  0.28969613364E-01 -0.46237678248E-01 -0.12173330665E-01  0.55907177434E-01  0.51100000000E-03 0.  1.
         11    1    4    4    0    0  0.26719926871E-01 -0.71050643738E-01  0.39015798400E-02  0.76010735516E-01  0.51100000000E-03 0. -1.
</event>
<event>
 8    1  0.1150863E+005  0.1043930E+01  0.7957747E-01            NaN
         13   -1    0    0    0    0  0.00000000000E+00  0.00000000000E+00  0.74505805969E-08  0.10566000000E+00  0.10566000000E+00 0.  1.
     999900   -1    0    0    0    0 -0.00000000000E+00 -0.00000000000E+00 -0.74505805969E-08  0.93827000000E+00  0.93827000000E+00 0.  1.
     999902    2    1    2    0    0 -0.10389872427E-02 -0.14186845324E-01 -0.16441930996E-01  0.10221887220E+01  0.10219574845E+01 0.  0.
     999903    2    3    3    0    0  0.44905461097E-01  0.11095586493E+00  0.45936821689E-01  0.12996526396E+00  0.21285531508E-01 0.  0.
         14    1    1    2    0    0  0.10389872427E-02  0.14186845324E-01  0.16441930996E-01  0.21741278012E-01  0.00000000000E+00 0.  1.
     999901    1    3    3    0    0 -0.45944448340E-01 -0.12514271025E+00 -0.62378752685E-01  0.89222345802E+00  0.88000000000E+00 0. -1.
        -11    1    4    4    0    0  0.21214639293E-01  0.75760375254E-01  0.35242789508E-01  0.86209110378E-01  0.51100000000E-03 0. -1.
         11    1    4    4    0    0  0.23690821804E-01  0.35195489675E-01  0.10694032181E-01  0.43756153585E-01  0.51100000000E-03 0.  1.
</event>
<event>
 8    1  0.1150863E+005  0.1043930E+01  0.7957747E-01            NaN
         13   -1    0    0    0    0  0.00000000000E+00  0.00000000000E+00  0.74505805969E-08  0.10566000000E+00  0.10566000000E+00 0. -1.
     999900   -1    0    0    0    0 -0.00000000000E+00 -0.00000000000E+00 -0.74505805969E-08  0.93827000000E+00  0.93827000000E+00 0.  1.
     999902    2    1    2    0    0 -0.10684539217E-01 -0.20592802724E-01  0.21971321282E-02  0.10206265605E+01  0.10203604881E+01 0.  0.
     999903    2    3    3    0    0 -0.88527412963E-02  0.10726347797E+00  0.68055523841E-01  0.12894953841E+00  0.20312665908E-01 0.  0.
         14    1    1    2    0    0  0.10684539217E-01  0.20592802724E-01 -0.21971321282E-02  0.23303439487E-01  0.00000000000E+00 0.  1.
     999901    1    3    3    0    0 -0.18317979205E-02 -0.12785628069E+00 -0.65858391713E-01  0.89167702211E+00  0.88000000000E+00 0. -1.
        -11    1    4    4    0    0 -0.82268262054E-02  0.62953283499E-01  0.28685066666E-01  0.69669869695E-01  0.51100000000E-03 0. -1.
         11    1    4    4    0    0 -0.62591509087E-03  0.44310194466E-01  0.39370457174E-01  0.59279668711E-01  0.51100000000E-03 0.  1.
</event>
<event>
 8    1  0.1150863E+005  0.1043930E+01  0.7957747E-01            NaN
         13   -1    0    0    0    0  0.00000000000E+00  0.00000000000E+00  0.74505805969E-08  0.10566000000E+00  0.10566000000E+00 0.  1.
     999900   -1    0    0    0    0 -0.00000000000E+00 -0.00000000000E+00 -0.74505805969E-08  0.93827000000E+00  0.93827000000E+00 0. -1.
     999902    2    1    2    0    0 -0.14573523461E-01 -0.60655878418E-02  0.16956599109E-01  0.10207631013E+01  0.10205001733E+01 0.  0.
     999903    2    3    3    0    0 -0.10487207572E+00  0.65571840175E-01  0.44655146304E-01  0.13281436452E+00  0.18648186058E-01 0.  0.
         14    1    1    2    0    0  0.14573523461E-01  0.60655878418E-02 -0.16956599109E-01  0.23166898698E-01  0.00000000000E+00 0. -1.
     999901    1    3    3    0    0  0.90298552254E-01 -0.71637428017E-01 -0.27698547195E-01  0.88794873678E+00  0.88000000000E+00 0. -1.
        -11    1    4    4    0    0 -0.36646946335E-01  0.13784270413E-01  0.18091679377E-01  0.43134380373E-01  0.51100000000E-03 0.  1.
         11    1    4    4    0    0 -0.68225129380E-01  0.51787569762E-01  0.26563466927E-01  0.89679984149E-01  0.51100000000E-03 0. -1.
</event>
<event>
 8    1  0.1150863E+005  0.1043930E+01  0.7957747E-01            NaN
         13   -1    0    0    0    0  0.00000000000E+00  0.00000000000E+00  0.74505805969E-08  0.10566000000E+00  0.10566000000E+00 0.  1.
     999900   -1    0    0    0    0 -0.00000000000E+00 -0.00000000000E+00 -0.74505805969E-08  0.93827000000E+00  0.93827000000E+00 0.  1.
     999902    2    1    2    0    0  0.50756005576E-02 -0.16799646698E-01  0.16469124119E-01  0.10198629707E+01  0.10195789607E+01 0.  0.
     999903    2    3    3    0    0  0.78383528463E-01 -0.10421830923E+00  0.12910734871E-01  0.13249115630E+00  0.19539342632E-01 0.  0.
         14    1    1    2    0    0 -0.50756005576E-02  0.16799646698E-01 -0.16469124119E-01  0.24067029302E-01  0.00000000000E+00 0. -1.
     999901    1    3    3    0    0 -0.73307927906E-01  0.87418662529E-01  0.35583892476E-02  0.88737181440E+00  0.88000000000E+00 0. -1.
        -11    1    4    4    0    0  0.40808005195E-01 -0.64647317268E-01  0.16792263809E-03  0.76451672558E-01  0.51100000000E-03 0.  1.
         11    1    4    4    0    0  0.37575523269E-01 -0.39570991959E-01  0.12742812233E-01  0.56039483742E-01  0.51100000000E-03 0. -1.
</event>
<event>
 8    1  0.1150863E+005  0.1043930E+01  0.7957747E-01            NaN
         13   -1    0    0    0    0  0.00000000000E+00  0.00000000000E+00  0.74505805969E-08  0.10566000000E+00  0.10566000000E+00 0.  1.
     999900   -1    0    0    0    0 -0.00000000000E+00 -0.00000000000E+00 -0.74505805969E-08  0.93827000000E+00  0.93827000000E+00 0.  1.
     999902    2    1    2    0    0  0.13191641368E-01  0.77601813794E-02  0.14841242618E-01  0.10226109405E+01  0.10223886899E+01 0.  0.
     999903    2    3    3    0    0 -0.64218877309E-01 -0.11468202610E-01 -0.11084061666E+00  0.13010993268E+00  0.19681676916E-01 0.  0.
         14    1    1    2    0    0 -0.13191641368E-01 -0.77601813794E-02 -0.14841242618E-01  0.21319059535E-01  0.00000000000E+00 0. -1.
     999901    1    3    3    0    0  0.77410518677E-01  0.19228383990E-01  0.12568185927E+00  0.89250100779E+00  0.88000000000E+00 0. -1.
        -11    1    4    4    0    0 -0.45190402369E-01 -0.18772282171E-02 -0.61328221173E-01  0.76204384948E-01  0.51100000000E-03 0.  1.
         11    1    4    4    0    0 -0.19028474940E-01 -0.95909743929E-02 -0.49512395484E-01  0.53905547728E-01  0.51100000000E-03 0. -1.
</event>
<event>
 8    1  0.1150863E+005  0.1043930E+01  0.7957747E-01            NaN
         13   -1    0    0    0    0  0.00000000000E+00  0.00000000000E+00  0.74505805969E-08  0.10566000000E+00  0.10566000000E+00 0.  1.
     999900   -1    0    0    0    0 -0.00000000000E+00 -0.00000000000E+00 -0.74505805969E-08  0.93827000000E+00  0.93827000000E+00 0. -1.
     999902    2    1    2    0    0 -0.17763581996E-01 -0.91184277023E-02 -0.12744614283E-01  0.10202421178E+01  0.10199670893E+01 0.  0.
     999903    2    3    3    0    0  0.11458941105E+00  0.71039622885E-02  0.52436130196E-01  0.12781340349E+00  0.20137501252E-01 0.  0.
         14    1    1    2    0    0  0.17763581996E-01  0.91184277023E-02  0.12744614283E-01  0.23687882183E-01  0.00000000000E+00 0.  1.
     999901    1    3    3    0    0 -0.13235299305E+00 -0.16222389991E-01 -0.65180744479E-01  0.89242871433E+00  0.88000000000E+00 0. -1.
        -11    1    4    4    0    0  0.61033477840E-01 -0.43672218803E-02  0.34106286639E-01  0.70054678313E-01  0.51100000000E-03 0.  1.
         11    1    4    4    0    0  0.53555933210E-01  0.11471184169E-01  0.18329843556E-01  0.57758725177E-01  0.51100000000E-03 0. -1.
</event>
<event>
 8    1  0.1150863E+005  0.1043930E+01  0.7957747E-01            NaN
         13   -1    0    0    0    0  0.00000000000E+00  0.00000000000E+00  0.74505805969E-08  0.10566000000E+00  0.10566000000E+00 0.  1.
     999900   -1    0    0    0    0 -0.00000000000E+00 -0.00000000000E+00 -0.74505805969E-08  0.93827000000E+00  0.93827000000E+00 0. -1.
     999902    2    1    2    0    0  0.15977242357E-01 -0.12691813884E-01  0.11036240942E-01  0.10207318745E+01  0.10204682291E+01 0.  0.
     999903    2    3    3    0    0  0.13074948197E+00  0.53836430754E-02  0.75259516424E-02  0.13308796432E+00  0.23051152955E-01 0.  0.
         14    1    1    2    0    0 -0.15977242357E-01  0.12691813884E-01 -0.11036240942E-01  0.23198125508E-01  0.00000000000E+00 0.  1.
     999901    1    3    3    0    0 -0.11477223961E+00 -0.18075456959E-01  0.35102892991E-02  0.88764391017E+00  0.88000000000E+00 0. -1.
        -11    1    4    4    0    0  0.56666833801E-01  0.11492507152E-01 -0.35494530011E-02  0.57931576116E-01  0.51100000000E-03 0. -1.
         11    1    4    4    0    0  0.74082648164E-01 -0.61088640762E-02  0.11075404643E-01  0.75156388207E-01  0.51100000000E-03 0.  1.
</event>
<event>
 8    1  0.1150863E+005  0.1043930E+01  0.7957747E-01            NaN
         13   -1    0    0    0    0  0.00000000000E+00  0.00000000000E+00  0.74505805969E-08  0.10566000000E+00  0.10566000000E+00 0. -1.
     999900   -1    0    0    0    0 -0.00000000000E+00 -0.00000000000E+00 -0.74505805969E-08  0.93827000000E+00  0.93827000000E+00 0.  1.
     999902    2    1    2    0    0 -0.11005832017E-01  0.18889861997E-01  0.92143110862E-02  0.10202053556E+01  0.10199294626E+01 0.  0.
     999903    2    3    3    0    0  0.12049451309E+00  0.15977475835E-01  0.42677922593E-01  0.12980059589E+00  0.15892834812E-01 0.  0.
         14    1    1    2    0    0  0.11005832017E-01 -0.18889861997E-01 -0.92143110862E-02  0.23724644432E-01  0.00000000000E+00 0.  1.
     999901    1    3    3    0    0 -0.13150034511E+00  0.29123861616E-02 -0.33463611507E-01  0.89040475967E+00  0.88000000000E+00 0. -1.
        -11    1    4    4    0    0  0.95750016877E-01  0.19091258593E-01  0.33635785431E-01  0.10326746375E+00  0.51100000000E-03 0.  1.
         11    1    4    4    0    0  0.24744496214E-01 -0.31137827571E-02  0.90421371618E-02  0.26533132144E-01  0.51100000000E-03 0. -1.
</event>
<event>
 8    1  0.1150863E+005  0.1043930E+01  0.7957747E-01            NaN
         13   -1    0    0    0    0  0.00000000000E+00  0.00000000000E+00  0.74505805969E-08  0.10566000000E+00  0.10566000000E+00 0. -1.
     999900   -1    0    0    0    0 -0.00000000000E+00 -0.00000000000E+00 -0.74505805969E-08  0.93827000000E+00  0.93827000000E+00 0. -1.
     999902    2    1    2    0    0  0.14035049460E-01 -0.18534788247E-01  0.45316797086E-02  0.10202433559E+01  0.10199683564E+01 0.  0.
     999903    2    3    3    0    0 -0.97249752327E-01  0.61564918352E-01 -0.52112112901E-01  0.12782597071E+00  0.19392085457E-01 0.  0.
         14    1    1    2    0    0 -0.14035049460E-01  0.18534788247E-01 -0.45316797086E-02  0.23686644120E-01  0.00000000000E+00 0. -1.
     999901    1    3    3    0    0  0.11128480179E+00 -0.80099706599E-01  0.56643792610E-01  0.89241738517E+00  0.88000000000E+00 0. -1.
        -11    1    4    4    0    0 -0.79101545363E-01  0.41055007044E-01 -0.43043969822E-01  0.98972786872E-01  0.51100000000E-03 0. -1.
         11    1    4    4    0    0 -0.18148206965E-01  0.20509911308E-01 -0.90681430793E-02  0.28853183841E-01  0.51100000000E-03 0.  1.
</event>
<event>
 8    1  0.1150863E+005  0.1043930E+01  0.7957747E-01            NaN
         13   -1    0    0    0    0  0.00000000000E+00  0.00000000000E+00  0.74505805969E-08  0.10566000000E+00  0.10566000000E+00 0. -1.
     999900   -1    0    0    0    0 -0.00000000000E+00 -0.00000000000E+00 -0.74505805969E-08  0.93827000000E+00  0.93827000000E+00 0.  1.
     999902    2    1    2    0    0 -0.86947787505E-02  0.96697017237E-02 -0.19726868076E-01  0.10203026507E+01  0.10200290425E+01 0.  0.
     999903    2    3    3    0    0 -0.72416056571E-01 -0.10310158637E+00 -0.28560377725E-01  0.13077704933E+00  0.20320410816E-01 0.  0.
         14    1    1    2    0    0  0.86947787505E-02 -0.96697017237E-02  0.19726868076E-01  0.23627349260E-01  0.00000000000E+00 0. -1.
     999901    1    3    3    0    0  0.63721277820E-01  0.11277128809E+00  0.88335096489E-02  0.88952560141E+00  0.88000000000E+00 0.  1.
        -11    1    4    4    0    0 -0.36574266580E-01 -0.45633930873E-01 -0.36042319073E-02  0.58595087093E-01  0.51100000000E-03 0.  1.
         11    1    4    4    0    0 -0.35841789991E-01 -0.57467655495E-01 -0.24956145818E-01  0.72181962240E-01  0.51100000000E-03 0. -1.
</event>
<event>
 8    1  0.1150863E+005  0.1043930E+01  0.7957747E-01            NaN
         13   -1    0    0    0    0  0.00000000000E+00  0.00000000000E+00  0.74505805969E-08  0.10566000000E+00  0.10566000000E+00 0.  1.
     999900   -1    0    0    0    0 -0.00000000000E+00 -0.00000000000E+00 -0.74505805969E-08  0.93827000000E+00  0.93827000000E+00 0. -1.
     999902    2    1    2    0    0 -0.10293918678E-01 -0.20197199741E-01 -0.17232337977E-02  0.10211954190E+01  0.10209423209E+01 0.  0.
     999903    2    3    3    0    0 -0.29132166160E-01 -0.11592665372E+00 -0.57387798327E-01  0.13405532201E+00  0.19743297964E-01 0.  0.
         14    1    1    2    0    0  0.10293918678E-01  0.20197199741E-01  0.17232337977E-02  0.22734581013E-01  0.00000000000E+00 0. -1.
     999901    1    3    3    0    0  0.18838247482E-01  0.95729453975E-01  0.55664564529E-01  0.88714009698E+00  0.88000000000E+00 0.  1.
        -11    1    4    4    0    0 -0.10376986906E-01 -0.77354705292E-01 -0.40765631358E-01  0.88054131698E-01  0.51100000000E-03 0. -1.
         11    1    4    4    0    0 -0.18755179253E-01 -0.38571948424E-01 -0.16622166969E-01  0.46001190308E-01  0.51100000000E-03 0.  1.
</event>
<event>
 8    1  0.1150863E+005  0.1043930E+01  0.7957747E-01            NaN
         13   -1    0    0    0    0  0.00000000000E+00  0.00000000000E+00  0.74505805969E-08  0.10566000000E+00  0.10566000000E+00 0.  1.
     999900   -1    0    0    0    0 -0.00000000000E+00 -0.00000000000E+00 -0.74505805969E-08  0.93827000000E+00  0.93827000000E+00 0.  1.
     999902    2    1    2    0    0  0.14239428711E-01 -0.14904407005E-01 -0.12038157293E-01  0.10200590991E+01  0.10197797536E+01 0.  0.
     999903    2    3    3    0    0 -0.12911635686E-01 -0.91378507632E-01  0.90073709543E-01  0.13044553036E+00  0.19647423393E-01 0.  0.
         14    1    1    2    0    0 -0.14239428711E-01  0.14904407005E-01  0.12038157293E-01  0.23870900888E-01  0.00000000000E+00 0.  1.
     999901    1    3    3    0    0  0.27151064397E-01  0.76474100627E-01 -0.10211186684E+00  0.88961356876E+00  0.88000000000E+00 0.  1.
        -11    1    4    4    0    0 -0.79577797789E-02 -0.44703093132E-01  0.30947599718E-01  0.54951868429E-01  0.51100000000E-03 0. -1.
         11    1    4    4    0    0 -0.49538559068E-02 -0.46675414500E-01  0.59126109826E-01  0.75493661927E-01  0.51100000000E-03 0.  1.
</event>
<event>
 8    1  0.1150863E+005  0.1043930E+01  0.7957747E-01            NaN
         13   -1    0    0    0    0  0.00000000000E+00  0.00000000000E+00  0.74505805969E-08  0.10566000000E+00  0.10566000000E+00 0.  1.
     999900   -1    0    0    0    0 -0.00000000000E+00 -0.00000000000E+00 -0.74505805969E-08  0.93827000000E+00  0.93827000000E+00 0.  1.
     999902    2    1    2    0    0 -0.16781848264E-01 -0.16988597830E-01  0.24822509362E-03  0.10200489510E+01  0.10197693650E+01 0.  0.
     999903    2    3    3    0    0 -0.85026244798E-01  0.96358131750E-01 -0.44955523283E-02  0.13014598873E+00  0.20085231729E-01 0.  0.
         14    1    1    2    0    0  0.16781848264E-01  0.16988597830E-01 -0.24822509362E-03  0.23881049036E-01  0.00000000000E+00 0. -1.
     999901    1    3    3    0    0  0.68244396533E-01 -0.11334672958E+00  0.47437774219E-02  0.88990296223E+00  0.88000000000E+00 0. -1.
        -11    1    4    4    0    0 -0.40306776587E-01  0.32223248977E-01 -0.59196461548E-02  0.51944945328E-01  0.51100000000E-03 0.  1.
         11    1    4    4    0    0 -0.44719468210E-01  0.64134882773E-01  0.14240938266E-02  0.78201043404E-01  0.51100000000E-03 0. -1.
</event>
<event>
 7    1  0.1150863E+005  0.1043930E+01  0.7957747E-01            NaN
         13   -1    0    0    0    0  0.00000000000E+00  0.00000000000E+00  0.74505805969E-08  0.10566000000E+00  0.10566000000E+00 0. -1.
     999900   -1    0    0    0    0 -0.00000000000E+00 -0.00000000000E+00 -0.74505805969E-08  0.93827000000E+00  0.93827000000E+00 0.  1.
     999902    2    1    2    0    0 -0.20564168539E-01  0.46452217222E-02  0.11999960095E-01  0.10196717611E+01  0.10193831656E+01 0.  0.
         14    1    1    2    0    0  0.20564168539E-01 -0.46452217222E-02 -0.11999960095E-01  0.24258238906E-01  0.00000000000E+00 0.  1.
     999901    1    3    3    0    0  0.10514072366E+00  0.28850663275E-01  0.14852152354E-01  0.88685259146E+00  0.88000000000E+00 0.  1.
        -11    1    3    3    0    0 -0.44906346502E-01  0.83432178271E-02 -0.70530856328E-03  0.45683124029E-01  0.51100000000E-03 0.  1.
         11    1    3    3    0    0 -0.80798545695E-01 -0.32548659380E-01 -0.21468836958E-02  0.87136045609E-01  0.51100000000E-03 0. -1.
</event>
<event>
 8    1  0.1150863E+005  0.1043930E+01  0.7957747E-01            NaN
         13   -1    0    0    0    0  0.00000000000E+00  0.00000000000E+00  0.74505805969E-08  0.10566000000E+00  0.10566000000E+00 0. -1.
     999900   -1    0    0    0    0 -0.00000000000E+00 -0.00000000000E+00 -0.74505805969E-08  0.93827000000E+00  0.93827000000E+00 0. -1.
     999902    2    1    2    0    0 -0.87206124114E-02 -0.47403428403E-03 -0.21793372188E-01  0.10204518216E+01  0.10201816972E+01 0.  0.
     999903    2    3    3    0    0  0.81406736274E-01  0.14134129487E-01  0.95871607326E-01  0.12793774058E+00  0.18704813445E-01 0.  0.
         14    1    1    2    0    0  0.87206124114E-02  0.47403428403E-03  0.21793372188E-01  0.23478178393E-01  0.00000000000E+00 0. -1.
     999901    1    3    3    0    0 -0.90127348685E-01 -0.14608163771E-01 -0.11766497951E+00  0.89251408103E+00  0.88000000000E+00 0. -1.
        -11    1    4    4    0    0  0.23817396892E-01  0.12919485451E-01  0.29742738727E-01  0.40237707775E-01  0.51100000000E-03 0.  1.
         11    1    4    4    0    0  0.57589339381E-01  0.12146440367E-02  0.66128868600E-01  0.87700032804E-01  0.51100000000E-03 0. -1.
</event>
<event>
 8    1  0.1150863E+005  0.1043930E+01  0.7957747E-01            NaN
         13   -1    0    0    0    0  0.00000000000E+00  0.00000000000E+00  0.74505805969E-08  0.10566000000E+00  0.10566000000E+00 0. -1.
     999900   -1    0    0    0    0 -0.00000000000E+00 -0.00000000000E+00 -0.74505805969E-08  0.93827000000E+00  0.93827000000E+00 0.  1.
     999902    2    1    2    0    0 -0.18269508952E-01 -0.12647374164E-01 -0.75943390887E-02  0.10204479852E+01  0.10201777716E+01 0.  0.
     999903    2    3    3    0    0  0.91605950064E-01 -0.85059721176E-01 -0.31264551950E-01  0.13034886522E+00  0.19660829140E-01 0.  0.
         14    1    1    2    0    0  0.18269508952E-01  0.12647374164E-01  0.75943390887E-02  0.23482014752E-01  0.00000000000E+00 0. -1.
     999901    1    3    3    0    0 -0.10987545902E+00  0.72412347011E-01  0.23670212861E-01  0.89009912003E+00  0.88000000000E+00 0.  1.
        -11    1    4    4    0    0  0.18724933038E-01 -0.19602461403E-01 -0.15184540835E-01  0.31075891165E-01  0.51100000000E-03 0.  1.
         11    1    4    4    0    0  0.72881017026E-01 -0.65457259773E-01 -0.16080011115E-01  0.99272974058E-01  0.51100000000E-03 0. -1.
</event>
<event>
 8    1  0.1150863E+005  0.1043930E+01  0.7957747E-01            NaN
         13   -1    0    0    0    0  0.00000000000E+00  0.00000000000E+00  0.74505805969E-08  0.10566000000E+00  0.10566000000E+00 0.  1.
     999900   -1    0    0    0    0 -0.00000000000E+00 -0.00000000000E+00 -0.74505805969E-08  0.93827000000E+00  0.93827000000E+00 0. -1.
     999902    2    1    2    0    0  0.12727348472E-01 -0.33302092863E-01  0.13502317439E-01  0.10058074691E+01  0.10050847414E+01 0.  0.
     999903    2    3    3    0    0 -0.92350464304E-01  0.63971182106E-01  0.70242229241E-02  0.11421036137E+00  0.19332525401E-01 0.  0.
         14    1    1    2    0    0 -0.12727348472E-01  0.33302092863E-01 -0.13502317439E-01  0.38122530928E-01  0.00000000000E+00 0. -1.
     999901    1    3    3    0    0  0.10507781278E+00 -0.97273274969E-01  0.64780945145E-02  0.89159710771E+00  0.88000000000E+00 0.  1.
        -11    1    4    4    0    0 -0.44429682175E-01  0.42031780810E-01  0.11137816477E-02  0.61173269381E-01  0.51100000000E-03 0.  1.
         11    1    4    4    0    0 -0.47920782130E-01  0.21939401296E-01  0.59104412764E-02  0.53037091985E-01  0.51100000000E-03 0. -1.
</event>
<event>
 8    1  0.1150863E+005  0.1043930E+01  0.7957747E-01            NaN
         13   -1    0    0    0    0  0.00000000000E+00  0.00000000000E+00  0.74505805969E-08  0.10566000000E+00  0.10566000000E+00 0. -1.
     999900   -1    0    0    0    0 -0.00000000000E+00 -0.00000000000E+00 -0.74505805969E-08  0.93827000000E+00  0.93827000000E+00 0. -1.
     999902    2    1    2    0    0 -0.22968711607E-01 -0.12886584934E-02  0.34839949531E-02  0.10206628434E+01  0.10203976085E+01 0.  0.
     999903    2    3    3    0    0  0.74233672844E-01  0.99991835625E-01 -0.26828639977E-01  0.12902115651E+00  0.20437160482E-01 0.  0.
         14    1    1    2    0    0  0.22968711607E-01  0.12886584934E-02 -0.34839949531E-02  0.23267156561E-01  0.00000000000E+00 0. -1.
     999901    1    3    3    0    0 -0.97202384452E-01 -0.10128049412E+00  0.30312634930E-01  0.89164168693E+00  0.88000000000E+00 0.  1.
        -11    1    4    4    0    0  0.13673282877E-01  0.27227759624E-01  0.53016841984E-03  0.30477069386E-01  0.51100000000E-03 0.  1.
         11    1    4    4    0    0  0.60560389968E-01  0.72764076001E-01 -0.27358808397E-01  0.98544087125E-01  0.51100000000E-03 0. -1.
</event>
<event>
 8    1  0.1150863E+005  0.1043930E+01  0.7957747E-01            NaN
         13   -1    0    0    0    0  0.00000000000E+00  0.00000000000E+00  0.74505805969E-08  0.10566000000E+00  0.10566000000E+00 0. -1.
     999900   -1    0    0    0    0 -0.00000000000E+00 -0.00000000000E+00 -0.74505805969E-08  0.93827000000E+00  0.93827000000E+00 0. -1.
     999902    2    1    2    0    0 -0.28827625830E-02  0.20365307970E-01  0.12562713984E-01  0.10198285919E+01  0.10195437602E+01 0.  0.
     999903    2    3    3    0    0  0.12527157318E+00  0.25799059223E-01  0.17360480133E-01  0.13051645437E+00  0.19354588296E-01 0.  0.
         14    1    1    2    0    0  0.28827625830E-02 -0.20365307970E-01 -0.12562713984E-01  0.24101408081E-01  0.00000000000E+00 0. -1.
     999901    1    3    3    0    0 -0.12815433576E+00 -0.54337512523E-02 -0.47977661492E-02  0.88931213755E+00  0.88000000000E+00 0.  1.
        -11    1    4    4    0    0  0.65588007619E-01  0.10191665893E-01  0.18167949945E-01  0.68818546362E-01  0.51100000000E-03 0.  1.
         11    1    4    4    0    0  0.59683565559E-01  0.15607393329E-01 -0.80746981169E-03  0.61697908011E-01  0.51100000000E-03 0. -1.
</event>
<event>
 8    1  0.1150863E+005  0.1043930E+01  0.7957747E-01            NaN
         13   -1    0    0    0    0  0.00000000000E+00  0.00000000000E+00  0.74505805969E-08  0.10566000000E+00  0.10566000000E+00 0.  1.
     999900   -1    0    0    0    0 -0.00000000000E+00 -0.00000000000E+00 -0.74505805969E-08  0.93827000000E+00  0.93827000000E+00 0. -1.
     999902    2    1    2    0    0 -0.12838190465E-01 -0.20462988816E-01  0.53040114332E-02  0.10191977218E+01  0.10188975957E+01 0.  0.
     999903    2    3    3    0    0  0.20407859208E-01 -0.12854279156E+00 -0.65419361680E-02  0.13188330741E+00  0.20265237832E-01 0.  0.
         14    1    1    2    0    0  0.12838190465E-01  0.20462988816E-01 -0.53040114332E-02  0.24732278160E-01  0.00000000000E+00 0. -1.
     999901    1    3    3    0    0 -0.33246049673E-01  0.10807980275E+00  0.11845947601E-01  0.88731441443E+00  0.88000000000E+00 0.  1.
        -11    1    4    4    0    0  0.18966384142E-01 -0.55348473299E-01 -0.30872412432E-02  0.58591547201E-01  0.51100000000E-03 0.  1.
         11    1    4    4    0    0  0.14414750657E-02 -0.73194318264E-01 -0.34546949248E-02  0.73291760209E-01  0.51100000000E-03 0. -1.
</event>
<event>
 8    1  0.1150863E+005  0.1043930E+01  0.7957747E-01            NaN
         13   -1    0    0    0    0  0.00000000000E+00  0.00000000000E+00  0.74505805969E-08  0.10566000000E+00  0.10566000000E+00 0. -1.
     999900   -1    0    0    0    0 -0.00000000000E+00 -0.00000000000E+00 -0.74505805969E-08  0.93827000000E+00  0.93827000000E+00 0.  1.
     999902    2    1    2    0    0 -0.20080492649E-01 -0.11765678376E-01  0.77957251878E-02  0.10193855362E+01  0.10190900062E+01 0.  0.
     999903    2    3    3    0    0  0.10495910602E+00  0.60866606878E-01 -0.30956108413E-01  0.12674223973E+00  0.19599921282E-01 0.  0.
         14    1    1    2    0    0  0.20080492649E-01  0.11765678376E-01 -0.77957251878E-02  0.24544463813E-01  0.00000000000E+00 0.  1.
     999901    1    3    3    0    0 -0.12503959867E+00 -0.72632285253E-01  0.38751833600E-01  0.89264329645E+00  0.88000000000E+00 0. -1.
        -11    1    4    4    0    0  0.74950760610E-01  0.36948401774E-01 -0.28480790055E-01  0.88284865253E-01  0.51100000000E-03 0. -1.
         11    1    4    4    0    0  0.30008345415E-01  0.23918205104E-01 -0.24753183576E-02  0.38457374480E-01  0.51100000000E-03 0.  1.
</event>
<event>
 8    1  0.1150863E+005  0.1043930E+01  0.7957747E-01            NaN
         13   -1    0    0    0    0  0.00000000000E+00  0.00000000000E+00  0.74505805969E-08  0.10566000000E+00  0.10566000000E+00 0. -1.
     999900   -1    0    0    0    0 -0.00000000000E+00 -0.00000000000E+00 -0.74505805969E-08  0.93827000000E+00  0.93827000000E+00 0. -1.
     999902    2    1    2    0    0 -0.22876239107E-01  0.54589805714E-02 -0.27009803175E-02  0.10202568490E+01  0.10199821664E+01 0.  0.
     999903    2    3    3    0    0 -0.94568149793E-01 -0.24724044094E-01 -0.87577130727E-01  0.13275771887E+00  0.20011116457E-01 0.  0.
         14    1    1    2    0    0  0.22876239107E-01 -0.54589805714E-02  0.27009803175E-02  0.23673151020E-01  0.00000000000E+00 0. -1.
     999901    1    3    3    0    0  0.71691910686E-01  0.30183024665E-01  0.84876150410E-01  0.88749913011E+00  0.88000000000E+00 0.  1.
        -11    1    4    4    0    0 -0.25333053604E-01 -0.14443510214E-01 -0.32678338461E-01  0.43800839236E-01  0.51100000000E-03 0. -1.
         11    1    4    4    0    0 -0.69235096188E-01 -0.10280533879E-01 -0.54898792266E-01  0.88956879635E-01  0.51100000000E-03 0.  1.
</event>
<event>
 8    1  0.1150863E+005  0.1043930E+01  0.7957747E-01            NaN
         13   -1    0    0    0    0  0.00000000000E+00  0.00000000000E+00  0.74505805969E-08  0.10566000000E+00  0.10566000000E+00 0. -1.
     999900   -1    0    0    0    0 -0.00000000000E+00 -0.00000000000E+00 -0.74505805969E-08  0.93827000000E+00  0.93827000000E+00 0.  1.
     999902    2    1    2    0    0 -0.42680147080E-02  0.18258828269E-01 -0.13371916315E-01  0.10208993920E+01  0.10206395836E+01 0.  0.
     999903    2    3    3    0    0 -0.11597954727E+00 -0.53871091939E-01 -0.19723992221E-01  0.13088672873E+00  0.19721814233E-01 0.  0.
         14    1    1    2    0    0  0.42680147080E-02 -0.18258828269E-01  0.13371916315E-01  0.23030608009E-01  0.00000000000E+00 0. -1.
     999901    1    3    3    0    0  0.11171153256E+00  0.72129920208E-01  0.63520759059E-02  0.89001266326E+00  0.88000000000E+00 0.  1.
        -11    1    4    4    0    0 -0.42270023657E-01 -0.16482374856E-01 -0.16138783804E-01  0.48157502474E-01  0.51100000000E-03 0.  1.
         11    1    4    4    0    0 -0.73709523613E-01 -0.37388717083E-01 -0.35852084168E-02  0.82729226256E-01  0.51100000000E-03 0. -1.
</event>
<event>
 8    1  0.1150863E+005  0.1043930E+01  0.7957747E-01            NaN
         13   -1    0    0    0    0  0.00000000000E+00  0.00000000000E+00  0.74505805969E-08  0.10566000000E+00  0.10566000000E+00 0.  1.
     999900   -1    0    0    0    0 -0.00000000000E+00 -0.00000000000E+00 -0.74505805969E-08  0.93827000000E+00  0.93827000000E+00 0. -1.
     999902    2    1    2    0    0 -0.22193748423E-01  0.64543486222E-03  0.69615439399E-02  0.10206610905E+01  0.10203958151E+01 0.  0.
     999903    2    3    3    0    0 -0.12135437412E+00  0.49213841650E-01 -0.15197852720E-01  0.13348424303E+00  0.20932799192E-01 0.  0.
         14    1    1    2    0    0  0.22193748423E-01 -0.64543486222E-03 -0.69615439399E-02  0.23268909499E-01  0.00000000000E+00 0. -1.
     999901    1    3    3    0    0  0.99160625698E-01 -0.48568406788E-01  0.22159396660E-01  0.88717684747E+00  0.88000000000E+00 0.  1.
        -11    1    4    4    0    0 -0.84880861382E-01  0.29947733744E-01 -0.15197434693E-02  0.90023319904E-01  0.51100000000E-03 0.  1.
         11    1    4    4    0    0 -0.36473512739E-01  0.19266107906E-01 -0.13678109250E-01  0.43460923127E-01  0.51100000000E-03 0. -1.
</event>
<event>
 8    1  0.1150863E+005  0.1043930E+01  0.7957747E-01            NaN
         13   -1    0    0    0    0  0.00000000000E+00  0.00000000000E+00  0.74505805969E-08  0.10566000000E+00  0.10566000000E+00 0. -1.
     999900   -1    0    0    0    0 -0.00000000000E+00 -0.00000000000E+00 -0.74505805969E-08  0.93827000000E+00  0.93827000000E+00 0.  1.
     999902    2    1    2    0    0 -0.22820760795E-01 -0.41485790499E-02  0.30565014636E-02  0.10205347006E+01  0.10202665020E+01 0.  0.
     999903    2    3    3    0    0 -0.46816418910E-02 -0.85700219082E-01 -0.96921033070E-01  0.13094198200E+00  0.19638499880E-01 0.  0.
         14    1    1    2    0    0  0.22820760795E-01  0.41485790499E-02 -0.30565014636E-02  0.23395299370E-01  0.00000000000E+00 0. -1.
     999901    1    3    3    0    0 -0.18139118904E-01  0.81551640032E-01  0.99977534534E-01  0.88959271863E+00  0.88000000000E+00 0.  1.
        -11    1    4    4    0    0 -0.80581836730E-02 -0.13822963978E-01 -0.15547895368E-01  0.22316066603E-01  0.51100000000E-03 0. -1.
         11    1    4    4    0    0  0.33765417820E-02 -0.71877255103E-01 -0.81373137702E-01  0.10862591540E+00  0.51100000000E-03 0.  1.
</event>
<event>
 8    1  0.1150863E+005  0.1043930E+01  0.7957747E-01            NaN
         13   -1    0    0    0    0  0.00000000000E+00  0.00000000000E+00  0.74505805969E-08  0.10566000000E+00  0.10566000000E+00 0. -1.
     999900   -1    0    0    0    0 -0.00000000000E+00 -0.00000000000E+00 -0.74505805969E-08  0.93827000000E+00  0.93827000000E+00 0.  1.
     999902    2    1    2    0    0  0.19315084891E-01  0.11624595121E-01 -0.70920099270E-02  0.10202973886E+01  0.10200236570E+01 0.  0.
     999903    2    3    3    0    0  0.57089880472E-01  0.11739497556E+00 -0.17911327713E-01  0.13309314708E+00  0.18765271119E-01 0.  0.
         14    1    1    2    0    0 -0.19315084891E-01 -0.11624595121E-01  0.70920099270E-02  0.23632611385E-01  0.00000000000E+00 0. -1.
     999901    1    3    3    0    0 -0.37774795581E-01 -0.10577038044E+00  0.10819317786E-01  0.88720424153E+00  0.88000000000E+00 0.  1.
        -11    1    4    4    0    0  0.13968492775E-01  0.48911843021E-01 -0.92079888593E-02  0.51696570079E-01  0.51100000000E-03 0.  1.
         11    1    4    4    0    0  0.43121387696E-01  0.68483132539E-01 -0.87033388540E-02  0.81396577001E-01  0.51100000000E-03 0. -1.
</event>
<event>
 8    1  0.1150863E+005  0.1043930E+01  0.7957747E-01            NaN
         13   -1    0    0    0    0  0.00000000000E+00  0.00000000000E+00  0.74505805969E-08  0.10566000000E+00  0.10566000000E+00 0. -1.
     999900   -1    0    0    0    0 -0.00000000000E+00 -0.00000000000E+00 -0.74505805969E-08  0.93827000000E+00  0.93827000000E+00 0. -1.
     999902    2    1    2    0    0 -0.21784153058E-01 -0.77691692325E-03 -0.99074770274E-02  0.10199860858E+01  0.10197050085E+01 0.  0.
     999903    2    3    3    0    0 -0.60927486864E-01  0.53130946437E-01  0.10055164635E+00  0.13058208526E+00  0.20149225298E-01 0.  0.
         14    1    1    2    0    0  0.21784153058E-01  0.77691692325E-03  0.99074770274E-02  0.23943914162E-01  0.00000000000E+00 0. -1.
     999901    1    3    3    0    0  0.39143333806E-01 -0.53907863360E-01 -0.11045912338E+00  0.88940400058E+00  0.88000000000E+00 0. -1.
        -11    1    4    4    0    0 -0.41956851432E-01  0.42983370036E-01  0.61341121726E-01  0.85854189282E-01  0.51100000000E-03 0.  1.
         11    1    4    4    0    0 -0.18970635432E-01  0.10147576402E-01  0.39210524629E-01  0.44727895973E-01  0.51100000000E-03 0. -1.
</event>
<event>
 8    1  0.1150863E+005  0.1043930E+01  0.7957747E-01            NaN
         13   -1    0    0    0    0  0.00000000000E+00  0.00000000000E+00  0.74505805969E-08  0.10566000000E+00  0.10566000000E+00 0.  1.
     999900   -1    0    0    0    0 -0.00000000000E+00 -0.00000000000E+00 -0.74505805969E-08  0.93827000000E+00  0.93827000000E+00 0. -1.
     999902    2    1    2    0    0  0.17748049225E-01  0.78539715948E-02  0.14086605057E-01  0.10199485371E+01  0.10196665670E+01 0.  0.
     999903    2    3    3    0    0 -0.90582339583E-02 -0.11016033763E+00 -0.62105149540E-01  0.12840429396E+00  0.20328834623E-01 0.  0.
         14    1    1    2    0    0 -0.17748049225E-01 -0.78539715948E-02 -0.14086605057E-01  0.23981462907E-01  0.00000000000E+00 0. -1.
     999901    1    3    3    0    0  0.26806283183E-01  0.11801430923E+00  0.76191754597E-01  0.89154424314E+00  0.88000000000E+00 0.  1.
        -11    1    4    4    0    0 -0.72174132312E-02 -0.14398315426E-01 -0.49088082041E-02  0.16845179128E-01  0.51100000000E-03 0. -1.
         11    1    4    4    0    0 -0.18408207271E-02 -0.95762022208E-01 -0.57196341336E-01  0.11155911483E+00  0.51100000000E-03 0.  1.
</event>
<event>
 8    1  0.1150863E+005  0.1043930E+01  0.7957747E-01            NaN
         13   -1    0    0    0    0  0.00000000000E+00  0.00000000000E+00  0.74505805969E-08  0.10566000000E+00  0.10566000000E+00 0. -1.
     999900   -1    0    0    0    0 -0.00000000000E+00 -0.00000000000E+00 -0.74505805969E-08  0.93827000000E+00  0.93827000000E+00 0.  1.
     999902    2    1    2    0    0  0.23332640889E-01 -0.46510379131E-02 -0.51420195309E-03  0.10201327588E+01  0.10198551549E+01 0.  0.
     999903    2    3    3    0    0  0.94307291089E-02 -0.99817390951E-01  0.81971455272E-01  0.13105808166E+00  0.20110969683E-01 0.  0.
         14    1    1    2    0    0 -0.23332640889E-01  0.46510379131E-02  0.51420195309E-03  0.23797241189E-01  0.00000000000E+00 0.  1.
     999901    1    3    3    0    0  0.13901911780E-01  0.95166353038E-01 -0.82485657225E-01  0.88907467715E+00  0.88000000000E+00 0.  1.
        -11    1    4    4    0    0  0.10244350130E-01 -0.59608210099E-01  0.60139229066E-01  0.85294040908E-01  0.51100000000E-03 0. -1.
         11    1    4    4    0    0 -0.81362102071E-03 -0.40209180853E-01  0.21832226206E-01  0.45764040753E-01  0.51100000000E-03 0.  1.
</event>
<event>
 8    1  0.1150863E+005  0.1043930E+01  0.7957747E-01            NaN
         13   -1    0    0    0    0  0.00000000000E+00  0.00000000000E+00  0.74505805969E-08  0.10566000000E+00  0.10566000000E+00 0. -1.
     999900   -1    0    0    0    0 -0.00000000000E+00 -0.00000000000E+00 -0.74505805969E-08  0.93827000000E+00  0.93827000000E+00 0. -1.
     999902    2    1    2    0    0  0.23644202748E-01  0.74205688585E-02 -0.18195914447E-02  0.10190819804E+01  0.10187790038E+01 0.  0.
     999903    2    3    3    0    0  0.39985678406E-01 -0.16990127749E-02  0.12214308629E+00  0.13019674816E+00  0.20748941678E-01 0.  0.
         14    1    1    2    0    0 -0.23644202748E-01 -0.74205688585E-02  0.18195914447E-02  0.24848019615E-01  0.00000000000E+00 0. -1.
     999901    1    3    3    0    0 -0.16341475658E-01  0.91195816334E-02 -0.12396267774E+00  0.88888523222E+00  0.88000000000E+00 0. -1.
        -11    1    4    4    0    0  0.50301613082E-02 -0.79554176845E-02  0.30015853439E-01  0.31461147023E-01  0.51100000000E-03 0. -1.
         11    1    4    4    0    0  0.34955517098E-01  0.62564049097E-02  0.92127232852E-01  0.98735601137E-01  0.51100000000E-03 0.  1.
</event>
<event>
 8    1  0.1150863E+005  0.1043930E+01  0.7957747E-01            NaN
         13   -1    0    0    0    0  0.00000000000E+00  0.00000000000E+00  0.74505805969E-08  0.10566000000E+00  0.10566000000E+00 0.  1.
     999900   -1    0    0    0    0 -0.00000000000E+00 -0.00000000000E+00 -0.74505805969E-08  0.93827000000E+00  0.93827000000E+00 0.  1.
     999902    2    1    2    0    0  0.23330730515E-01 -0.45901759321E-02  0.45547200055E-02  0.10197197093E+01  0.10194322672E+01 0.  0.
     999903    2    3    3    0    0 -0.11639220209E+00 -0.47005754868E-01  0.11263269527E-01  0.12766220899E+00  0.20349266947E-01 0.  0.
         14    1    1    2    0    0 -0.23330730515E-01  0.45901759321E-02 -0.45547200055E-02  0.24210290700E-01  0.00000000000E+00 0.  1.
     999901    1    3    3    0    0  0.13972293260E+00  0.42415578936E-01 -0.67085495212E-02  0.89205750031E+00  0.88000000000E+00 0. -1.
        -11    1    4    4    0    0 -0.36373489182E-01 -0.14645635528E-01  0.13046418909E-01  0.41327902471E-01  0.51100000000E-03 0.  1.
         11    1    4    4    0    0 -0.80018712905E-01 -0.32360119340E-01 -0.17831493819E-02  0.86334306515E-01  0.51100000000E-03 0. -1.
</event>
<event>
 8    1  0.1150863E+005  0.1043930E+01  0.7957747E-01            NaN
         13   -1    0    0    0    0  0.00000000000E+00  0.00000000000E+00  0.74505805969E-08  0.10566000000E+00  0.10566000000E+00 0. -1.
     999900   -1    0    0    0    0 -0.00000000000E+00 -0.00000000000E+00 -0.74505805969E-08  0.93827000000E+00  0.93827000000E+00 0. -1.
     999902    2    1    2    0    0 -0.94225129174E-02  0.21845707846E-01 -0.55621625192E-02  0.10194973097E+01  0.10192044977E+01 0.  0.
     999903    2    3    3    0    0 -0.51698622003E-01  0.11723089882E+00 -0.29674723494E-01  0.13300589995E+00  0.19853187438E-01 0.  0.
         14    1    1    2    0    0  0.94225129174E-02 -0.21845707846E-01  0.55621625192E-02  0.24432690250E-01  0.00000000000E+00 0. -1.
     999901    1    3    3    0    0  0.42276109086E-01 -0.95385190972E-01  0.24112560975E-01  0.88649140980E+00  0.88000000000E+00 0.  1.
        -11    1    4    4    0    0 -0.24560509348E-01  0.75280002819E-01 -0.23854882176E-01  0.82701958674E-01  0.51100000000E-03 0.  1.
         11    1    4    4    0    0 -0.27138112655E-01  0.41950895999E-01 -0.58198413184E-02  0.50303941273E-01  0.51100000000E-03 0. -1.
</event>
<event>
 8    1  0.1150863E+005  0.1043930E+01  0.7957747E-01            NaN
         13   -1    0    0    0    0  0.00000000000E+00  0.00000000000E+00  0.74505805969E-08  0.10566000000E+00  0.10566000000E+00 0. -1.
     999900   -1    0    0    0    0 -0.00000000000E+00 -0.00000000000E+00 -0.74505805969E-08  0.93827000000E+00  0.93827000000E+00 0.  1.
     999902    2    1    2    0    0 -0.15465417364E-01  0.95719809848E-02  0.15326294047E-01  0.10201456092E+01  0.10198683086E+01 0.  0.
     999903    2    3    3    0    0  0.11170564173E-01 -0.31552082984E-02  0.13029215021E+00  0.13217680071E+00  0.18971699823E-01 0.  0.
         14    1    1    2    0    0  0.15465417364E-01 -0.95719809848E-02 -0.15326294047E-01  0.23784390752E-01  0.00000000000E+00 0.  1.
     999901    1    3    3    0    0 -0.26635981537E-01  0.12727189283E-01 -0.11496585617E+00  0.88796880854E+00  0.88000000000E+00 0.  1.
        -11    1    4    4    0    0  0.13330138149E-01  0.36223185764E-02  0.62488000311E-01  0.63998633414E-01  0.51100000000E-03 0. -1.
         11    1    4    4    0    0 -0.21595739763E-02 -0.67775268748E-02  0.67804149903E-01  0.68178167293E-01  0.51100000000E-03 0.  1.
</event>
<event>
 8    1  0.1150863E+005  0.1043930E+01  0.7957747E-01            NaN
         13   -1    0    0    0    0  0.00000000000E+00  0.00000000000E+00  0.74505805969E-08  0.10566000000E+00  0.10566000000E+00 0.  1.
     999900   -1    0    0    0    0 -0.00000000000E+00 -0.00000000000E+00 -0.74505805969E-08  0.93827000000E+00  0.93827000000E+00 0. -1.
     999902    2    1    2    0    0  0.15071230496E-01 -0.17141127216E-01 -0.75144010853E-02  0.10199003006E+01  0.10196171814E+01 0.  0.
     999903    2    3    3    0    0  0.83755038843E-01 -0.91577035177E-01 -0.45015845081E-01  0.13329749874E+00  0.18453643472E-01 0.  0.
         14    1    1    2    0    0 -0.15071230496E-01  0.17141127216E-01  0.75144010853E-02  0.24029699428E-01  0.00000000000E+00 0.  1.
     999901    1    3    3    0    0 -0.68683808347E-01  0.74435907961E-01  0.37501443995E-01  0.88660280184E+00  0.88000000000E+00 0.  1.
        -11    1    4    4    0    0  0.17142831618E-01 -0.23504938093E-01 -0.31762842186E-02  0.29269586486E-01  0.51100000000E-03 0. -1.
         11    1    4    4    0    0  0.66612207225E-01 -0.68072097085E-01 -0.41839560862E-01  0.10402791225E+00  0.51100000000E-03 0.  1.
</event>
<event>
 8    1  0.1150863E+005  0.1043930E+01  0.7957747E-01            NaN
         13   -1    0    0    0    0  0.00000000000E+00  0.00000000000E+00  0.74505805969E-08  0.10566000000E+00  0.10566000000E+00 0. -1.
     999900   -1    0    0    0    0 -0.00000000000E+00 -0.00000000000E+00 -0.74505805969E-08  0.93827000000E+00  0.93827000000E+00 0. -1.
     999902    2    1    2    0    0  0.14111605089E-01 -0.10631657977E-01  0.15753203014E-01  0.10202586470E+01  0.10199840066E+01 0.  0.
     999903    2    3    3    0    0  0.18978699149E-01 -0.24906574242E-01 -0.12355688149E+00  0.12917236523E+00  0.20944414863E-01 0.  0.
         14    1    1    2    0    0 -0.14111605089E-01  0.10631657977E-01 -0.15753203014E-01  0.23671353039E-01  0.00000000000E+00 0.  1.
     999901    1    3    3    0    0 -0.48670940598E-02  0.14274916266E-01  0.13931008451E+00  0.89108628173E+00  0.88000000000E+00 0.  1.
        -11    1    4    4    0    0  0.66458891856E-02 -0.17115723084E-01 -0.98297407045E-01  0.99998785856E-01  0.51100000000E-03 0.  1.
         11    1    4    4    0    0  0.12332809963E-01 -0.77908511579E-02 -0.25259474446E-01  0.29173579377E-01  0.51100000000E-03 0. -1.
</event>
<event>
 8    1  0.1150863E+005  0.1043930E+01  0.7957747E-01            NaN
         13   -1    0    0    0    0  0.00000000000E+00  0.00000000000E+00  0.74505805969E-08  0.10566000000E+00  0.10566000000E+00 0.  1.
     999900   -1    0    0    0    0 -0.00000000000E+00 -0.00000000000E+00 -0.74505805969E-08  0.93827000000E+00  0.93827000000E+00 0.  1.
     999902    2    1    2    0    0  0.79714121780E-02  0.92728577613E-02 -0.21578271990E-01  0.10191277597E+01  0.10188259122E+01 0.  0.
     999903    2    3    3    0    0  0.63829437458E-01  0.10919499030E+00  0.24026510101E-01  0.13054217139E+00  0.21592645298E-01 0.  0.
         14    1    1    2    0    0 -0.79714121780E-02 -0.92728577613E-02  0.21578271990E-01  0.24802240327E-01  0.00000000000E+00 0.  1.
     999901    1    3    3    0    0 -0.55858025280E-01 -0.99922132535E-01 -0.45604782091E-01  0.88858558829E+00  0.88000000000E+00 0.  1.
        -11    1    4    4    0    0  0.58490854452E-01  0.98729116374E-01  0.28012152434E-01  0.11812518901E+00  0.51100000000E-03 0. -1.
         11    1    4    4    0    0  0.53385830060E-02  0.10465873922E-01 -0.39856423331E-02  0.12416982374E-01  0.51100000000E-03 0.  1.
</event>
<event>
 8    1  0.1150863E+005  0.1043930E+01  0.7957747E-01            NaN
         13   -1    0    0    0    0  0.00000000000E+00  0.00000000000E+00  0.74505805969E-08  0.10566000000E+00  0.10566000000E+00 0. -1.
     999900   -1    0    0    0    0 -0.00000000000E+00 -0.00000000000E+00 -0.74505805969E-08  0.93827000000E+00  0.93827000000E+00 0.  1.
     999902    2    1    2    0    0 -0.17778071988E-01 -0.11738502849E-01  0.12286939515E-01  0.10193368876E+01  0.10190401706E+01 0.  0.
     999903    2    3    3    0    0 -0.56847866919E-01  0.56328521904E-01 -0.99011852205E-01  0.12886117783E+00  0.19931731502E-01 0.  0.
         14    1    1    2    0    0  0.17778071988E-01  0.11738502849E-01 -0.12286939515E-01  0.24593112357E-01  0.00000000000E+00 0.  1.
     999901    1    3    3    0    0  0.39069794931E-01 -0.68067024753E-01  0.11129879172E+00  0.89047570982E+00  0.88000000000E+00 0. -1.
        -11    1    4    4    0    0 -0.43826352901E-01  0.38585508409E-01 -0.83654906007E-01  0.10201958188E+00  0.51100000000E-03 0. -1.
         11    1    4    4    0    0 -0.13021514018E-01  0.17743013495E-01 -0.15356946197E-01  0.26841595942E-01  0.51100000000E-03 0.  1.
</event>
<event>
 8    1  0.1150863E+005  0.1043930E+01  0.7957747E-01            NaN
         13   -1    0    0    0    0  0.00000000000E+00  0.00000000000E+00  0.74505805969E-08  0.10566000000E+00  0.10566000000E+00 0. -1.
     999900   -1    0    0    0    0 -0.00000000000E+00 -0.00000000000E+00 -0.74505805969E-08  0.93827000000E+00  0.93827000000E+00 0. -1.
     999902    2    1    2    0    0  0.14798823875E-01  0.12672562804E-01  0.12130333455E-01  0.10209790953E+01  0.10207211025E+01 0.  0.
     999903    2    3    3    0    0  0.72433627635E-01  0.14243014484E-01  0.10874739489E+00  0.13381558531E+00  0.25122123799E-01 0.  0.
         14    1    1    2    0    0 -0.14798823875E-01 -0.12672562804E-01 -0.12130333455E-01  0.22950904684E-01  0.00000000000E+00 0.  1.
     999901    1    3    3    0    0 -0.57634803760E-01 -0.15704516809E-02 -0.96617061430E-01  0.88716351000E+00  0.88000000000E+00 0. -1.
        -11    1    4    4    0    0  0.25819704301E-01  0.22839661332E-02  0.19576628220E-01  0.32486599160E-01  0.51100000000E-03 0.  1.
         11    1    4    4    0    0  0.46613923333E-01  0.11959048351E-01  0.89170766665E-01  0.10132898615E+00  0.51100000000E-03 0. -1.
</event>
<event>
 8    1  0.1150863E+005  0.1043930E+01  0.7957747E-01            NaN
         13   -1    0    0    0    0  0.00000000000E+00  0.00000000000E+00  0.74505805969E-08  0.10566000000E+00  0.10566000000E+00 0. -1.
     999900   -1    0    0    0    0 -0.00000000000E+00 -0.00000000000E+00 -0.74505805969E-08  0.93827000000E+00  0.93827000000E+00 0.  1.
     999902    2    1    2    0    0 -0.14529177981E-01 -0.11331603516E-02 -0.18705599723E-01  0.10202175449E+01  0.10199419388E+01 0.  0.
     999903    2    3    3    0    0 -0.11499643709E+00  0.62433689390E-01 -0.86126714730E-02  0.13216558599E+00  0.16474765436E-01 0.  0.
         14    1    1    2    0    0  0.14529177981E-01  0.11331603516E-02  0.18705599723E-01  0.23712455086E-01  0.00000000000E+00 0. -1.
     999901    1    3    3    0    0  0.10046725911E+00 -0.63566849742E-01 -0.10092928250E-01  0.88805195892E+00  0.88000000000E+00 0. -1.
        -11    1    4    4    0    0 -0.67711689961E-01  0.28298108183E-01 -0.14188200948E-02  0.73402520771E-01  0.51100000000E-03 0.  1.
         11    1    4    4    0    0 -0.47284747133E-01  0.34135581207E-01 -0.71938513782E-02  0.58763065223E-01  0.51100000000E-03 0. -1.
</event>
<event>
 8    1  0.1150863E+005  0.1043930E+01  0.7957747E-01            NaN
         13   -1    0    0    0    0  0.00000000000E+00  0.00000000000E+00  0.74505805969E-08  0.10566000000E+00  0.10566000000E+00 0.  1.
     999900   -1    0    0    0    0 -0.00000000000E+00 -0.00000000000E+00 -0.74505805969E-08  0.93827000000E+00  0.93827000000E+00 0.  1.
     999902    2    1    2    0    0 -0.92475486674E-02  0.11625068211E-02  0.22447781067E-01  0.10196242095E+01  0.10193344677E+01 0.  0.
     999903    2    3    3    0    0 -0.12729747544E+00 -0.24520918544E-01 -0.34075645174E-02  0.13099384624E+00  0.18489282233E-01 0.  0.
         14    1    1    2    0    0  0.92475486674E-02 -0.11625068211E-02 -0.22447781067E-01  0.24305790530E-01  0.00000000000E+00 0.  1.
     999901    1    3    3    0    0  0.11804992678E+00  0.25683425365E-01  0.25855345584E-01  0.88863036323E+00  0.88000000000E+00 0. -1.
        -11    1    4    4    0    0 -0.71428795818E-01 -0.19455502203E-01  0.52986261220E-02  0.74222139539E-01  0.51100000000E-03 0. -1.
         11    1    4    4    0    0 -0.55868679626E-01 -0.50654163408E-02 -0.87061906394E-02  0.56771706706E-01  0.51100000000E-03 0.  1.
</event>
<event>
 8    1  0.1150863E+005  0.1043930E+01  0.7957747E-01            NaN
         13   -1    0    0    0    0  0.00000000000E+00  0.00000000000E+00  0.74505805969E-08  0.10566000000E+00  0.10566000000E+00 0. -1.
     999900   -1    0    0    0    0 -0.00000000000E+00 -0.00000000000E+00 -0.74505805969E-08  0.93827000000E+00  0.93827000000E+00 0. -1.
     999902    2    1    2    0    0  0.90675720085E-02 -0.18810620014E-01 -0.10701393675E-01  0.10204655564E+01  0.10201957516E+01 0.  0.
     999903    2    3    3    0    0  0.11330307035E+00 -0.16867187700E-01 -0.63560444943E-01  0.13273648998E+00  0.21376572221E-01 0.  0.
         14    1    1    2    0    0 -0.90675720085E-02  0.18810620014E-01  0.10701393675E-01  0.23464443612E-01  0.00000000000E+00 0. -1.
     999901    1    3    3    0    0 -0.10423549834E+00 -0.19434323140E-02  0.52859051269E-01  0.88772906641E+00  0.88000000000E+00 0.  1.
        -11    1    4    4    0    0  0.77878471228E-01 -0.21506148598E-01 -0.43598435052E-01  0.91807708654E-01  0.51100000000E-03 0. -1.
         11    1    4    4    0    0  0.35424599120E-01  0.46389608976E-02 -0.19962009891E-01  0.40928781327E-01  0.51100000000E-03 0.  1.
</event>
<event>
 8    1  0.1150863E+005  0.1043930E+01  0.7957747E-01            NaN
         13   -1    0    0    0    0  0.00000000000E+00  0.00000000000E+00  0.74505805969E-08  0.10566000000E+00  0.10566000000E+00 0.  1.
     999900   -1    0    0    0    0 -0.00000000000E+00 -0.00000000000E+00 -0.74505805969E-08  0.93827000000E+00  0.93827000000E+00 0. -1.
     999902    2    1    2    0    0 -0.14137106350E-01 -0.71985501801E-02  0.19099891427E-01  0.10191009293E+01  0.10187984203E+01 0.  0.
     999903    2    3    3    0    0  0.16295785562E-01 -0.12611630167E+00 -0.16144076176E-01  0.12988232298E+00  0.20926357841E-01 0.  0.
         14    1    1    2    0    0  0.14137106350E-01  0.71985501801E-02 -0.19099891427E-01  0.24829070727E-01  0.00000000000E+00 0. -1.
     999901    1    3    3    0    0 -0.30432891912E-01  0.11891775149E+00  0.35243967602E-01  0.88921860630E+00  0.88000000000E+00 0.  1.
        -11    1    4    4    0    0  0.33931770568E-02 -0.56516051395E-01  0.25167727822E-02  0.56676035342E-01  0.51100000000E-03 0. -1.
         11    1    4    4    0    0  0.12902608505E-01 -0.69600250275E-01 -0.18660848958E-01  0.73206287636E-01  0.51100000000E-03 0.  1.
</event>
<event>
 8    1  0.1150863E+005  0.1043930E+01  0.7957747E-01            NaN
         13   -1    0    0    0    0  0.00000000000E+00  0.00000000000E+00  0.74505805969E-08  0.10566000000E+00  0.10566000000E+00 0.  1.
     999900   -1    0    0    0    0 -0.00000000000E+00 -0.00000000000E+00 -0.74505805969E-08  0.93827000000E+00  0.93827000000E+00 0. -1.
     999902    2    1    2    0    0  0.22901343204E-01 -0.26838246481E-02  0.35410919196E-02  0.10206016103E+01  0.10203349612E+01 0.  0.
     999903    2    3    3    0    0  0.41979503666E-01 -0.12347147950E+00  0.91214586769E-02  0.13212832746E+00  0.19162696349E-01 0.  0.
         14    1    1    2    0    0 -0.22901343204E-01  0.26838246481E-02 -0.35410919196E-02  0.23328389728E-01  0.00000000000E+00 0. -1.
     999901    1    3    3    0    0 -0.19078160462E-01  0.12078765485E+00 -0.55803667573E-02  0.88847328281E+00  0.88000000000E+00 0. -1.
        -11    1    4    4    0    0  0.19426499864E-01 -0.83973563699E-01  0.31336098250E-02  0.86249805384E-01  0.51100000000E-03 0. -1.
         11    1    4    4    0    0  0.22553003802E-01 -0.39497915803E-01  0.59878488519E-02  0.45878522079E-01  0.51100000000E-03 0.  1.
</event>
<event>
 8    1  0.1150863E+005  0.1043930E+01  0.7957747E-01            NaN
         13   -1    0    0    0    0  0.00000000000E+00  0.00000000000E+00  0.74505805969E-08  0.10566000000E+00  0.10566000000E+00 0. -1.
     999900   -1    0    0    0    0 -0.00000000000E+00 -0.00000000000E+00 -0.74505805969E-08  0.93827000000E+00  0.93827000000E+00 0.  1.
     999902    2    1    2    0    0  0.13731732628E-02 -0.25087149504E-01 -0.38540797088E-02  0.10185114122E+01  0.10181941820E+01 0.  0.
     999903    2    3    3    0    0  0.51700525204E-01  0.27965929126E-01 -0.11296171458E+00  0.12876316270E+00  0.19093601272E-01 0.  0.
         14    1    1    2    0    0 -0.13731732628E-02  0.25087149504E-01  0.38540797088E-02  0.25418587794E-01  0.00000000000E+00 0. -1.
     999901    1    3    3    0    0 -0.50327351941E-01 -0.53053078630E-01  0.10910763487E+00  0.88974824950E+00  0.88000000000E+00 0. -1.
        -11    1    4    4    0    0  0.98464439876E-02  0.67517519477E-02 -0.42171452262E-01  0.43831850525E-01  0.51100000000E-03 0. -1.
         11    1    4    4    0    0  0.41854081216E-01  0.21214177179E-01 -0.70790262321E-01  0.84931312178E-01  0.51100000000E-03 0.  1.
</event>
<event>
 8    1  0.1150863E+005  0.1043930E+01  0.7957747E-01            NaN
         13   -1    0    0    0    0  0.00000000000E+00  0.00000000000E+00  0.74505805969E-08  0.10566000000E+00  0.10566000000E+00 0. -1.
     999900   -1    0    0    0    0 -0.00000000000E+00 -0.00000000000E+00 -0.74505805969E-08  0.93827000000E+00  0.93827000000E+00 0. -1.
     999902    2    1    2    0    0  0.34375220212E-02 -0.23653094491E-01 -0.16122574983E-02  0.10199741070E+01  0.10196927449E+01 0.  0.
     999903    2    3    3    0    0 -0.11413740117E+00 -0.12456496226E-01 -0.58395047520E-01  0.13026993613E+00  0.19436152902E-01 0.  0.
         14    1    1    2    0    0 -0.34375220212E-02  0.23653094491E-01  0.16122574983E-02  0.23955893030E-01  0.00000000000E+00 0. -1.
     999901    1    3    3    0    0  0.11757492319E+00 -0.11196598265E-01  0.56782790022E-01  0.88970417084E+00  0.88000000000E+00 0.  1.
        -11    1    4    4    0    0 -0.35826345059E-01 -0.12659715170E-01 -0.22041709802E-01  0.43930552927E-01  0.51100000000E-03 0. -1.
         11    1    4    4    0    0 -0.78311056109E-01  0.20321894423E-03 -0.36353337718E-01  0.86339383199E-01  0.51100000000E-03 0.  1.
</event>
<event>
 7    1  0.1150863E+005  0.1043930E+01  0.7957747E-01            NaN
         13   -1    0    0    0    0  0.00000000000E+00  0.00000000000E+00  0.74505805969E-08  0.10566000000E+00  0.10566000000E+00 0.  1.
     999900   -1    0    0    0    0 -0.00000000000E+00 -0.00000000000E+00 -0.74505805969E-08  0.93827000000E+00  0.93827000000E+00 0.  1.
     999903    2    1    2    0    0  0.12543694964E+00 -0.54899477622E-01  0.41478064767E-01  0.14443318866E+00  0.19802402634E-01 0.  0.
         14    1    1    2    0    0  0.53188562769E-02 -0.43929441185E-02 -0.14969604483E-04  0.68984356351E-02  0.00000000000E+00 0.  1.
     999901    1    1    2    0    0 -0.13075580592E+00  0.59292421741E-01 -0.41463095162E-01  0.89259837571E+00  0.88000000000E+00 0.  1.
        -11    1    3    3    0    0  0.48701576721E-01 -0.11102134455E-01  0.16644659084E-01  0.52653649081E-01  0.51100000000E-03 0.  1.
         11    1    3    3    0    0  0.76735372921E-01 -0.43797343168E-01  0.24833405683E-01  0.91779539575E-01  0.51100000000E-03 0. -1.
</event>
<event>
 8    1  0.1150863E+005  0.1043930E+01  0.7957747E-01            NaN
         13   -1    0    0    0    0  0.00000000000E+00  0.00000000000E+00  0.74505805969E-08  0.10566000000E+00  0.10566000000E+00 0.  1.
     999900   -1    0    0    0    0 -0.00000000000E+00 -0.00000000000E+00 -0.74505805969E-08  0.93827000000E+00  0.93827000000E+00 0. -1.
     999902    2    1    2    0    0  0.17319244341E-01 -0.75774102460E-02  0.21812741197E-02  0.10249002515E+01  0.10247235697E+01 0.  0.
     999903    2    3    3    0    0  0.12892516629E+00 -0.17015992188E-01 -0.38250938485E-01  0.13688013212E+00  0.19020877459E-01 0.  0.
         14    1    1    2    0    0 -0.17319244341E-01  0.75774102460E-02 -0.21812741197E-02  0.19029748484E-01  0.00000000000E+00 0.  1.
     999901    1    3    3    0    0 -0.11160592195E+00  0.94385819417E-02  0.40432212605E-01  0.88802011940E+00  0.88000000000E+00 0.  1.
        -11    1    4    4    0    0  0.93882314062E-01 -0.12116896996E-01 -0.18841137132E-01  0.96519208740E-01  0.51100000000E-03 0.  1.
         11    1    4    4    0    0  0.35042852231E-01 -0.48990951920E-02 -0.19409801353E-01  0.40360923376E-01  0.51100000000E-03 0. -1.
</event>
<event>
 8    1  0.1150863E+005  0.1043930E+01  0.7957747E-01            NaN
         13   -1    0    0    0    0  0.00000000000E+00  0.00000000000E+00  0.74505805969E-08  0.10566000000E+00  0.10566000000E+00 0.  1.
     999900   -1    0    0    0    0 -0.00000000000E+00 -0.00000000000E+00 -0.74505805969E-08  0.93827000000E+00  0.93827000000E+00 0. -1.
     999902    2    1    2    0    0 -0.12562406647E-01 -0.33066275633E-03  0.19816369437E-01  0.10204648792E+01  0.10201950586E+01 0.  0.
     999903    2    3    3    0    0 -0.95452895368E-01  0.85372223135E-01 -0.22350784976E-01  0.13142388647E+00  0.19313431273E-01 0.  0.
         14    1    1    2    0    0  0.12562406647E-01  0.33066275633E-03 -0.19816369437E-01  0.23465120845E-01  0.00000000000E+00 0. -1.
     999901    1    3    3    0    0  0.82890488721E-01 -0.85702885891E-01  0.42167154413E-01  0.88904099269E+00  0.88000000000E+00 0. -1.
        -11    1    4    4    0    0 -0.38267640698E-01  0.35868060064E-01 -0.18743287251E-01  0.55700107678E-01  0.51100000000E-03 0. -1.
         11    1    4    4    0    0 -0.57185254670E-01  0.49504163071E-01 -0.36074977240E-02  0.75723778787E-01  0.51100000000E-03 0.  1.
</event>
<event>
 8    1  0.1150863E+005  0.1043930E+01  0.7957747E-01            NaN
         13   -1    0    0    0    0  0.00000000000E+00  0.00000000000E+00  0.74505805969E-08  0.10566000000E+00  0.10566000000E+00 0. -1.
     999900   -1    0    0    0    0 -0.00000000000E+00 -0.00000000000E+00 -0.74505805969E-08  0.93827000000E+00  0.93827000000E+00 0.  1.
     999902    2    1    2    0    0 -0.22020433624E-01  0.88551222231E-02 -0.42954428905E-02  0.10198102256E+01  0.10195249545E+01 0.  0.
     999903    2    3    3    0    0  0.92503291593E-01 -0.67041254353E-01  0.52741504043E-01  0.12732540394E+00  0.19460305714E-01 0.  0.
         14    1    1    2    0    0  0.22020433624E-01 -0.88551222231E-02  0.42954428905E-02  0.24119774381E-01  0.00000000000E+00 0. -1.
     999901    1    3    3    0    0 -0.11452372522E+00  0.75896376576E-01 -0.57036946934E-01  0.89248482168E+00  0.88000000000E+00 0.  1.
        -11    1    4    4    0    0  0.49199077681E-01 -0.37433683110E-01  0.17949107381E-01  0.64375938460E-01  0.51100000000E-03 0. -1.
         11    1    4    4    0    0  0.43304213912E-01 -0.29607571243E-01  0.34792396662E-01  0.62949465478E-01  0.51100000000E-03 0.  1.
</event>
<event>
 8    1  0.1150863E+005  0.1043930E+01  0.7957747E-01            NaN
         13   -1    0    0    0    0  0.00000000000E+00  0.00000000000E+00  0.74505805969E-08  0.10566000000E+00  0.10566000000E+00 0.  1.
     999900   -1    0    0    0    0 -0.00000000000E+00 -0.00000000000E+00 -0.74505805969E-08  0.93827000000E+00  0.93827000000E+00 0.  1.
     999902    2    1    2    0    0 -0.18262417479E-01  0.13379873751E-01  0.77751991092E-02  0.10199927772E+01  0.10197118588E+01 0.  0.
     999903    2    3    3    0    0 -0.27870343509E-01  0.60470204964E-01  0.11285650589E+00  0.13243889571E+00  0.19237162951E-01 0.  0.
         14    1    1    2    0    0  0.18262417479E-01 -0.13379873751E-01 -0.77751991092E-02  0.23937222792E-01  0.00000000000E+00 0. -1.
     999901    1    3    3    0    0  0.96079260301E-02 -0.47090331213E-01 -0.10508130678E+00  0.88755388150E+00  0.88000000000E+00 0.  1.
        -11    1    4    4    0    0 -0.45320443920E-02  0.10597821408E-01  0.36625525965E-01  0.38399785392E-01  0.51100000000E-03 0. -1.
         11    1    4    4    0    0 -0.23338299117E-01  0.49872383556E-01  0.76230979925E-01  0.94039110313E-01  0.51100000000E-03 0.  1.
</event>
<event>
 8    1  0.1150863E+005  0.1043930E+01  0.7957747E-01            NaN
         13   -1    0    0    0    0  0.00000000000E+00  0.00000000000E+00  0.74505805969E-08  0.10566000000E+00  0.10566000000E+00 0. -1.
     999900   -1    0    0    0    0 -0.00000000000E+00 -0.00000000000E+00 -0.74505805969E-08  0.93827000000E+00  0.93827000000E+00 0. -1.
     999902    2    1    2    0    0 -0.66612313004E-02 -0.20342778910E-01 -0.10670061423E-01  0.10200124151E+01  0.10197319629E+01 0.  0.
     999903    2    3    3    0    0  0.15035967575E-01 -0.13664355681E-01  0.12590913197E+00  0.12918737850E+00  0.20578491534E-01 0.  0.
         14    1    1    2    0    0  0.66612313004E-02  0.20342778910E-01  0.10670061423E-01  0.23917584891E-01  0.00000000000E+00 0.  1.
     999901    1    3    3    0    0 -0.21697198876E-01 -0.66784232288E-02 -0.13657919339E+00  0.89082503661E+00  0.88000000000E+00 0. -1.
        -11    1    4    4    0    0  0.67537897934E-03  0.44230982725E-02  0.95665171888E-02  0.10573519150E-01  0.51100000000E-03 0. -1.
         11    1    4    4    0    0  0.14360588596E-01 -0.18087453954E-01  0.11634261478E+00  0.11861385935E+00  0.51100000000E-03 0.  1.
</event>
<event>
 8    1  0.1150863E+005  0.1043930E+01  0.7957747E-01            NaN
         13   -1    0    0    0    0  0.00000000000E+00  0.00000000000E+00  0.74505805969E-08  0.10566000000E+00  0.10566000000E+00 0. -1.
     999900   -1    0    0    0    0 -0.00000000000E+00 -0.00000000000E+00 -0.74505805969E-08  0.93827000000E+00  0.93827000000E+00 0.  1.
     999902    2    1    2    0    0  0.71661272151E-03  0.19573030252E-01 -0.12254177905E-01  0.10208262790E+01  0.10205647995E+01 0.  0.
     999903    2    3    3    0    0  0.12545096964E+00  0.28131700179E-01  0.18568805459E-01  0.13145460928E+00  0.20153794366E-01 0.  0.
         14    1    1    2    0    0 -0.71661272151E-03 -0.19573030252E-01  0.12254177905E-01  0.23103720981E-01  0.00000000000E+00 0. -1.
     999901    1    3    3    0    0 -0.12473435692E+00 -0.85586699264E-02 -0.30822983364E-01  0.88937166974E+00  0.88000000000E+00 0. -1.
        -11    1    4    4    0    0  0.33118863441E-01  0.66948929767E-02 -0.39627614954E-02  0.34024187092E-01  0.51100000000E-03 0.  1.
         11    1    4    4    0    0  0.92332106197E-01  0.21436807202E-01  0.22531566954E-01  0.97430422191E-01  0.51100000000E-03 0. -1.
</event>
<event>
 8    1  0.1150863E+005  0.1043930E+01  0.7957747E-01            NaN
         13   -1    0    0    0    0  0.00000000000E+00  0.00000000000E+00  0.74505805969E-08  0.10566000000E+00  0.10566000000E+00 0. -1.
     999900   -1    0    0    0    0 -0.00000000000E+00 -0.00000000000E+00 -0.74505805969E-08  0.93827000000E+00  0.93827000000E+00 0. -1.
     999902    2    1    2    0    0  0.18222392133E-01  0.61849795903E-02  0.11240131489E-01  0.10216443521E+01  0.10214012591E+01 0.  0.
     999903    2    3    3    0    0  0.57649485088E-01  0.73441271762E-02  0.11890569770E+00  0.13420550154E+00  0.22252019306E-01 0.  0.
         14    1    1    2    0    0 -0.18222392133E-01 -0.61849795903E-02 -0.11240131489E-01  0.22285647926E-01  0.00000000000E+00 0. -1.
     999901    1    3    3    0    0 -0.39427092954E-01 -0.11591475859E-02 -0.10766556622E+00  0.88743885053E+00  0.88000000000E+00 0. -1.
        -11    1    4    4    0    0  0.45313610104E-01  0.79239610052E-02  0.70012798427E-01  0.83774491841E-01  0.51100000000E-03 0.  1.
         11    1    4    4    0    0  0.12335874984E-01 -0.57983382900E-03  0.48892899277E-01  0.50431009702E-01  0.51100000000E-03 0. -1.
</event>
<event>
 8    1  0.1150863E+005  0.1043930E+01  0.7957747E-01            NaN
         13   -1    0    0    0    0  0.00000000000E+00  0.00000000000E+00  0.74505805969E-08  0.10566000000E+00  0.10566000000E+00 0. -1.
     999900   -1    0    0    0    0 -0.00000000000E+00 -0.00000000000E+00 -0.74505805969E-08  0.93827000000E+00  0.93827000000E+00 0.  1.
     999902    2    1    2    0    0 -0.18201986189E-01 -0.15770300621E-01 -0.46441688553E-03  0.10198420286E+01  0.10195575182E+01 0.  0.
     999903    2    3    3    0    0  0.11236103221E+00 -0.54769253383E-01  0.24962487130E-01  0.12899179005E+00  0.19775830184E-01 0.  0.
         14    1    1    2    0    0  0.18201986189E-01  0.15770300621E-01  0.46441688553E-03  0.24087971396E-01  0.00000000000E+00 0. -1.
     999901    1    3    3    0    0 -0.13056301840E+00  0.38998952762E-01 -0.25426904015E-01  0.89085023856E+00  0.88000000000E+00 0. -1.
        -11    1    4    4    0    0  0.81289016191E-01 -0.37553908050E-01  0.88482938928E-02  0.89981962576E-01  0.51100000000E-03 0. -1.
         11    1    4    4    0    0  0.31072016022E-01 -0.17215345333E-01  0.16114193237E-01  0.39009827471E-01  0.51100000000E-03 0.  1.
</event>
<event>
 8    1  0.1150863E+005  0.1043930E+01  0.7957747E-01            NaN
         13   -1    0    0    0    0  0.00000000000E+00  0.00000000000E+00  0.74505805969E-08  0.10566000000E+00  0.10566000000E+00 0.  1.
     999900   -1    0    0    0    0 -0.00000000000E+00 -0.00000000000E+00 -0.74505805969E-08  0.93827000000E+00  0.93827000000E+00 0.  1.
     999902    2    1    2    0    0 -0.11061778174E-01 -0.18392169597E-01  0.92919370026E-02  0.10205425048E+01  0.10202744872E+01 0.  0.
     999903    2    3    3    0    0  0.12472802406E+00 -0.24101771911E-01  0.19104765533E-01  0.13005513175E+00  0.20282254111E-01 0.  0.
         14    1    1    2    0    0  0.11061778174E-01  0.18392169597E-01 -0.92919370026E-02  0.23387495208E-01  0.00000000000E+00 0. -1.
     999901    1    3    3    0    0 -0.13578980224E+00  0.57096023148E-02 -0.98128285306E-02  0.89048737305E+00  0.88000000000E+00 0.  1.
        -11    1    4    4    0    0  0.27450378965E-01 -0.28547612488E-02  0.12391078649E-01  0.30256783011E-01  0.51100000000E-03 0. -1.
         11    1    4    4    0    0  0.97277645097E-01 -0.21247010663E-01  0.67136868846E-02  0.99798348735E-01  0.51100000000E-03 0.  1.
</event>
<event>
 8    1  0.1150863E+005  0.1043930E+01  0.7957747E-01            NaN
         13   -1    0    0    0    0  0.00000000000E+00  0.00000000000E+00  0.74505805969E-08  0.10566000000E+00  0.10566000000E+00 0.  1.
     999900   -1    0    0    0    0 -0.00000000000E+00 -0.00000000000E+00 -0.74505805969E-08  0.93827000000E+00  0.93827000000E+00 0.  1.
     999902    2    1    2    0    0 -0.83864074608E-02 -0.12031552118E-01 -0.17708431538E-01  0.10209369875E+01  0.10206780363E+01 0.  0.
     999903    2    3    3    0    0  0.10360450077E+00  0.25173688699E-01 -0.73671068367E-01  0.13129772904E+00  0.21072734852E-01 0.  0.
         14    1    1    2    0    0  0.83864074608E-02  0.12031552118E-01  0.17708431538E-01  0.22993012504E-01  0.00000000000E+00 0.  1.
     999901    1    3    3    0    0 -0.11199090823E+00 -0.37205240818E-01  0.55962636829E-01  0.88963925846E+00  0.88000000000E+00 0. -1.
        -11    1    4    4    0    0  0.45337158178E-01  0.12276254700E-01 -0.45148574149E-01  0.65152277089E-01  0.51100000000E-03 0.  1.
         11    1    4    4    0    0  0.58267342588E-01  0.12897433999E-01 -0.28522494218E-01  0.66145451948E-01  0.51100000000E-03 0. -1.
</event>
<event>
 8    1  0.1150863E+005  0.1043930E+01  0.7957747E-01            NaN
         13   -1    0    0    0    0  0.00000000000E+00  0.00000000000E+00  0.74505805969E-08  0.10566000000E+00  0.10566000000E+00 0.  1.
     999900   -1    0    0    0    0 -0.00000000000E+00 -0.00000000000E+00 -0.74505805969E-08  0.93827000000E+00  0.93827000000E+00 0.  1.
     999902    2    1    2    0    0 -0.12504955582E-01  0.62638868890E-02 -0.18970154779E-01  0.10203614412E+01  0.10200892087E+01 0.  0.
     999903    2    3    3    0    0 -0.51755610487E-01  0.11536403569E+00  0.30238179489E-01  0.13139298473E+00  0.19033260130E-01 0.  0.
         14    1    1    2    0    0  0.12504955582E-01 -0.62638868890E-02  0.18970154779E-01  0.23568558831E-01  0.00000000000E+00 0.  1.
     999901    1    3    3    0    0  0.39250654905E-01 -0.10910014880E+00 -0.49208334268E-01  0.88896845644E+00  0.88000000000E+00 0. -1.
        -11    1    4    4    0    0 -0.40112839300E-01  0.99437292886E-01  0.19695329846E-01  0.10901826559E+00  0.51100000000E-03 0. -1.
         11    1    4    4    0    0 -0.11642771186E-01  0.15926742800E-01  0.10542849643E-01  0.22374719143E-01  0.51100000000E-03 0.  1.
</event>
<event>
 7    1  0.1150863E+005  0.1043930E+01  0.7957747E-01            NaN
         13   -1    0    0    0    0  0.00000000000E+00  0.00000000000E+00  0.74505805969E-08  0.10566000000E+00  0.10566000000E+00 0. -1.
     999900   -1    0    0    0    0 -0.00000000000E+00 -0.00000000000E+00 -0.74505805969E-08  0.93827000000E+00  0.93827000000E+00 0. -1.
     999903    2    1    2    0    0 -0.25373810246E-01 -0.27843223508E-01 -0.98699878471E-01  0.10757237643E+00  0.20274980095E-01 0.  0.
         14    1    1    2    0    0 -0.13303759182E-01 -0.36318605882E-01 -0.22734229047E-01  0.44865090125E-01  0.00000000000E+00 0. -1.
     999901    1    1    2    0    0  0.38677569428E-01  0.64161829390E-01  0.12143410752E+00  0.89149253345E+00  0.88000000000E+00 0.  1.
        -11    1    3    3    0    0 -0.27238835398E-01 -0.21778029467E-01 -0.70411829423E-01  0.78576864056E-01  0.51100000000E-03 0. -1.
         11    1    3    3    0    0  0.18650251515E-02 -0.60651940410E-02 -0.28288049048E-01  0.28995512369E-01  0.51100000000E-03 0.  1.
</event>
<event>
 8    1  0.1150863E+005  0.1043930E+01  0.7957747E-01            NaN
         13   -1    0    0    0    0  0.00000000000E+00  0.00000000000E+00  0.74505805969E-08  0.10566000000E+00  0.10566000000E+00 0.  1.
     999900   -1    0    0    0    0 -0.00000000000E+00 -0.00000000000E+00 -0.74505805969E-08  0.93827000000E+00  0.93827000000E+00 0.  1.
     999902    2    1    2    0    0  0.76922166620E-02  0.15802074572E-01  0.17473007826E-01  0.10191473093E+01  0.10188459433E+01 0.  0.
     999903    2    3    3    0    0  0.37864862555E-01  0.68057758824E-01  0.10543829636E+00  0.13270558129E+00  0.20686483850E-01 0.  0.
         14    1    1    2    0    0 -0.76922166620E-02 -0.15802074572E-01 -0.17473007826E-01  0.24782690742E-01  0.00000000000E+00 0. -1.
     999901    1    3    3    0    0 -0.30172645893E-01 -0.52255684252E-01 -0.87965288532E-01  0.88644172797E+00  0.88000000000E+00 0.  1.
        -11    1    4    4    0    0  0.18525299690E-01  0.14219124718E-01  0.31725815714E-01  0.39397445857E-01  0.51100000000E-03 0.  1.
         11    1    4    4    0    0  0.19339562865E-01  0.53838634106E-01  0.73712480644E-01  0.93308135432E-01  0.51100000000E-03 0. -1.
</event>
<event>
 8    1  0.1150863E+005  0.1043930E+01  0.7957747E-01            NaN
         13   -1    0    0    0    0  0.00000000000E+00  0.00000000000E+00  0.74505805969E-08  0.10566000000E+00  0.10566000000E+00 0.  1.
     999900   -1    0    0    0    0 -0.00000000000E+00 -0.00000000000E+00 -0.74505805969E-08  0.93827000000E+00  0.93827000000E+00 0.  1.
     999902    2    1    2    0    0 -0.47436211019E-02 -0.14269670211E-01 -0.18113566776E-01  0.10203879795E+01  0.10201163669E+01 0.  0.
     999903    2    3    3    0    0 -0.57933743046E-01  0.11074205989E+00 -0.29443429331E-01  0.12989065353E+00  0.19609791676E-01 0.  0.
         14    1    1    2    0    0  0.47436211019E-02  0.14269670211E-01  0.18113566776E-01  0.23542020525E-01  0.00000000000E+00 0.  1.
     999901    1    3    3    0    0  0.53190121944E-01 -0.12501173011E+00  0.11329862555E-01  0.89049732595E+00  0.88000000000E+00 0.  1.
        -11    1    4    4    0    0 -0.11413709953E-01  0.15207779648E-01  0.18697740254E-02  0.19112993293E-01  0.51100000000E-03 0.  1.
         11    1    4    4    0    0 -0.46520033092E-01  0.95534280247E-01 -0.31313203356E-01  0.11077766023E+00  0.51100000000E-03 0. -1.
</event>
<event>
 8    1  0.1150863E+005  0.1043930E+01  0.7957747E-01            NaN
         13   -1    0    0    0    0  0.00000000000E+00  0.00000000000E+00  0.74505805969E-08  0.10566000000E+00  0.10566000000E+00 0. -1.
     999900   -1    0    0    0    0 -0.00000000000E+00 -0.00000000000E+00 -0.74505805969E-08  0.93827000000E+00  0.93827000000E+00 0. -1.
     999902    2    1    2    0    0  0.17787799016E-01 -0.21771092771E-02  0.15787004191E-01  0.10200474729E+01  0.10197678520E+01 0.  0.
     999903    2    3    3    0    0  0.42930160041E-02 -0.12829252165E+00  0.16481557141E-01  0.13095372712E+00  0.19995895171E-01 0.  0.
         14    1    1    2    0    0 -0.17787799016E-01  0.21771092771E-02 -0.15787004191E-01  0.23882527084E-01  0.00000000000E+00 0.  1.
     999901    1    3    3    0    0  0.13494783012E-01  0.12611541237E+00 -0.69455295000E-03  0.88909374579E+00  0.88000000000E+00 0.  1.
        -11    1    4    4    0    0  0.69161284148E-02 -0.47368458501E-01 -0.19539848079E-02  0.47913284908E-01  0.51100000000E-03 0.  1.
         11    1    4    4    0    0 -0.26231124106E-02 -0.80924063148E-01  0.18435541948E-01  0.83040442214E-01  0.51100000000E-03 0. -1.
</event>
<event>
 8    1  0.1150863E+005  0.1043930E+01  0.7957747E-01            NaN
         13   -1    0    0    0    0  0.00000000000E+00  0.00000000000E+00  0.74505805969E-08  0.10566000000E+00  0.10566000000E+00 0. -1.
     999900   -1    0    0    0    0 -0.00000000000E+00 -0.00000000000E+00 -0.74505805969E-08  0.93827000000E+00  0.93827000000E+00 0.  1.
     999902    2    1    2    0    0 -0.91414814817E-02 -0.79025411103E-02 -0.20654254417E-01  0.10200006234E+01  0.10197198913E+01 0.  0.
     999903    2    3    3    0    0  0.14743122957E-02  0.62405637823E-01 -0.11487977721E+00  0.13211865812E+00  0.19008928973E-01 0.  0.
         14    1    1    2    0    0  0.91414814817E-02  0.79025411103E-02  0.20654254417E-01  0.23929376616E-01  0.00000000000E+00 0. -1.
     999901    1    3    3    0    0 -0.10615793777E-01 -0.70308178933E-01  0.94225522797E-01  0.88788196527E+00  0.88000000000E+00 0. -1.
        -11    1    4    4    0    0  0.31118271663E-02  0.19443321523E-01 -0.54846386416E-01  0.58276182477E-01  0.51100000000E-03 0.  1.
         11    1    4    4    0    0 -0.16375148706E-02  0.42962316299E-01 -0.60033390798E-01  0.73842475639E-01  0.51100000000E-03 0. -1.
</event>
<event>
 8    1  0.1150863E+005  0.1043930E+01  0.7957747E-01            NaN
         13   -1    0    0    0    0  0.00000000000E+00  0.00000000000E+00  0.74505805969E-08  0.10566000000E+00  0.10566000000E+00 0.  1.
     999900   -1    0    0    0    0 -0.00000000000E+00 -0.00000000000E+00 -0.74505805969E-08  0.93827000000E+00  0.93827000000E+00 0. -1.
     999902    2    1    2    0    0  0.24254341784E-01  0.38496916987E-02 -0.54780754043E-04  0.10193719825E+01  0.10190761220E+01 0.  0.
     999903    2    3    3    0    0  0.97198331995E-03  0.40641943244E-01  0.12173185750E+00  0.12991837314E+00  0.20184802330E-01 0.  0.
         14    1    1    2    0    0 -0.24254341784E-01 -0.38496916987E-02  0.54780754043E-04  0.24558017479E-01  0.00000000000E+00 0.  1.
     999901    1    3    3    0    0  0.23282358464E-01 -0.36792251546E-01 -0.12178663826E+00  0.88945360938E+00  0.88000000000E+00 0. -1.
        -11    1    4    4    0    0  0.97657767191E-02  0.27486239683E-01  0.70564449050E-01  0.76357490514E-01  0.51100000000E-03 0.  1.
         11    1    4    4    0    0 -0.87937933992E-02  0.13155703562E-01  0.51167408452E-01  0.53560882622E-01  0.51100000000E-03 0. -1.
</event>
<event>
 8    1  0.1150863E+005  0.1043930E+01  0.7957747E-01            NaN
         13   -1    0    0    0    0  0.00000000000E+00  0.00000000000E+00  0.74505805969E-08  0.10566000000E+00  0.10566000000E+00 0.  1.
     999900   -1    0    0    0    0 -0.00000000000E+00 -0.00000000000E+00 -0.74505805969E-08  0.93827000000E+00  0.93827000000E+00 0. -1.
     999902    2    1    2    0    0  0.20312240065E-01  0.10015346039E-01 -0.72997565006E-02  0.10201354482E+01  0.10198579077E+01 0.  0.
     999903    2    3    3    0    0  0.11151338642E+00  0.21868688213E-01 -0.66550877629E-01  0.13336104269E+00  0.21039807976E-01 0.  0.
         14    1    1    2    0    0 -0.20312240065E-01 -0.10015346039E-01  0.72997565006E-02  0.23794551849E-01  0.00000000000E+00 0.  1.
     999901    1    3    3    0    0 -0.91201146357E-01 -0.11853342175E-01  0.59251121129E-01  0.88677440546E+00  0.88000000000E+00 0.  1.
        -11    1    4    4    0    0  0.83710624663E-01  0.18886756148E-01 -0.39566411718E-01  0.94498361343E-01  0.51100000000E-03 0. -1.
         11    1    4    4    0    0  0.27802761759E-01  0.29819320655E-02 -0.26984465911E-01  0.38862681351E-01  0.51100000000E-03 0.  1.
</event>
<event>
 8    1  0.1150863E+005  0.1043930E+01  0.7957747E-01            NaN
         13   -1    0    0    0    0  0.00000000000E+00  0.00000000000E+00  0.74505805969E-08  0.10566000000E+00  0.10566000000E+00 0. -1.
     999900   -1    0    0    0    0 -0.00000000000E+00 -0.00000000000E+00 -0.74505805969E-08  0.93827000000E+00  0.93827000000E+00 0. -1.
     999902    2    1    2    0    0  0.19303652688E-01 -0.10997241870E-01  0.79413953584E-02  0.10203368634E+01  0.10200640562E+01 0.  0.
     999903    2    3    3    0    0  0.95021598695E-02  0.93665894436E-01  0.87964332899E-01  0.13047501348E+00  0.20552723824E-01 0.  0.
         14    1    1    2    0    0 -0.19303652688E-01  0.10997241870E-01 -0.79413953584E-02  0.23593136631E-01  0.00000000000E+00 0.  1.
     999901    1    3    3    0    0  0.98014928185E-02 -0.10466313631E+00 -0.80022937540E-01  0.88986184989E+00  0.88000000000E+00 0. -1.
        -11    1    4    4    0    0 -0.11477846355E-02  0.30959470484E-01  0.41086730464E-01  0.51460535981E-01  0.51100000000E-03 0.  1.
         11    1    4    4    0    0  0.10649944505E-01  0.62706423952E-01  0.46877602435E-01  0.79014477495E-01  0.51100000000E-03 0. -1.
</event>
<event>
 8    1  0.1150863E+005  0.1043930E+01  0.7957747E-01            NaN
         13   -1    0    0    0    0  0.00000000000E+00  0.00000000000E+00  0.74505805969E-08  0.10566000000E+00  0.10566000000E+00 0.  1.
     999900   -1    0    0    0    0 -0.00000000000E+00 -0.00000000000E+00 -0.74505805969E-08  0.93827000000E+00  0.93827000000E+00 0. -1.
     999902    2    1    2    0    0  0.24259065970E-02  0.28152427229E-02  0.22604118950E-01  0.10210224290E+01  0.10207654205E+01 0.  0.
     999903    2    3    3    0    0 -0.94333205259E-02  0.12961884003E+00 -0.87795260290E-03  0.13154437913E+00  0.20325394283E-01 0.  0.
         14    1    1    2    0    0 -0.24259065970E-02 -0.28152427229E-02 -0.22604118950E-01  0.22907570974E-01  0.00000000000E+00 0. -1.
     999901    1    3    3    0    0  0.11859227123E-01 -0.12680359731E+00  0.23482071553E-01  0.88947804989E+00  0.88000000000E+00 0.  1.
        -11    1    4    4    0    0  0.21680132092E-03  0.94216391031E-01 -0.63927128891E-02  0.94434650636E-01  0.51100000000E-03 0.  1.
         11    1    4    4    0    0 -0.96501218468E-02  0.35402449003E-01  0.55147602862E-02  0.37109728496E-01  0.51100000000E-03 0. -1.
</event>
<event>
 8    1  0.1150863E+005  0.1043930E+01  0.7957747E-01            NaN
         13   -1    0    0    0    0  0.00000000000E+00  0.00000000000E+00  0.74505805969E-08  0.10566000000E+00  0.10566000000E+00 0. -1.
     999900   -1    0    0    0    0 -0.00000000000E+00 -0.00000000000E+00 -0.74505805969E-08  0.93827000000E+00  0.93827000000E+00 0. -1.
     999902    2    1    2    0    0 -0.36489724798E-02 -0.18461620323E-01  0.14331276089E-01  0.10202755734E+01  0.10200013302E+01 0.  0.
     999903    2    3    3    0    0 -0.10052760466E+00  0.69270951623E-01  0.38796089981E-01  0.13028624721E+00  0.23771949342E-01 0.  0.
         14    1    1    2    0    0  0.36489724798E-02  0.18461620323E-01 -0.14331276089E-01  0.23654426635E-01  0.00000000000E+00 0.  1.
     999901    1    3    3    0    0  0.96878632184E-01 -0.87732571947E-01 -0.24464813892E-01  0.88998932616E+00  0.88000000000E+00 0. -1.
        -11    1    4    4    0    0 -0.87992540007E-02  0.81653289563E-02  0.11732321850E-01  0.16793092774E-01  0.51100000000E-03 0.  1.
         11    1    4    4    0    0 -0.91728350663E-01  0.61105622667E-01  0.27063768131E-01  0.11349315443E+00  0.51100000000E-03 0. -1.
</event>
<event>
 8    1  0.1150863E+005  0.1043930E+01  0.7957747E-01            NaN
         13   -1    0    0    0    0  0.00000000000E+00  0.00000000000E+00  0.74505805969E-08  0.10566000000E+00  0.10566000000E+00 0. -1.
     999900   -1    0    0    0    0 -0.00000000000E+00 -0.00000000000E+00 -0.74505805969E-08  0.93827000000E+00  0.93827000000E+00 0.  1.
     999902    2    1    2    0    0  0.26692982132E-02 -0.11525640792E-01  0.20835087331E-01  0.10199703169E+01  0.10196888648E+01 0.  0.
     999903    2    3    3    0    0  0.48651045169E-01 -0.52438750438E-01 -0.10550905957E+00  0.12881878826E+00  0.18584181811E-01 0.  0.
         14    1    1    2    0    0 -0.26692982132E-02  0.11525640792E-01 -0.20835087331E-01  0.23959683068E-01  0.00000000000E+00 0.  1.
     999901    1    3    3    0    0 -0.45981746956E-01  0.40913109647E-01  0.12634414690E+00  0.89115152867E+00  0.88000000000E+00 0. -1.
        -11    1    4    4    0    0  0.13403752755E-01 -0.27694717631E-01 -0.46659318976E-01  0.55892854113E-01  0.51100000000E-03 0.  1.
         11    1    4    4    0    0  0.35247292415E-01 -0.24744032807E-01 -0.58849740597E-01  0.72925934149E-01  0.51100000000E-03 0. -1.
</event>
<event>
 8    1  0.1150863E+005  0.1043930E+01  0.7957747E-01            NaN
         13   -1    0    0    0    0  0.00000000000E+00  0.00000000000E+00  0.74505805969E-08  0.10566000000E+00  0.10566000000E+00 0.  1.
     999900   -1    0    0    0    0 -0.00000000000E+00 -0.00000000000E+00 -0.74505805969E-08  0.93827000000E+00  0.93827000000E+00 0.  1.
     999902    2    1    2    0    0  0.74981296247E-02  0.21529435063E-01 -0.66887621760E-02  0.10201712529E+01  0.10198945569E+01 0.  0.
     999903    2    3    3    0    0  0.17911949502E-01 -0.92432306232E-01  0.84421663849E-01  0.12809679650E+00  0.20425542231E-01 0.  0.
         14    1    1    2    0    0 -0.74981296247E-02 -0.21529435063E-01  0.66887621760E-02  0.23758747051E-01  0.00000000000E+00 0.  1.
     999901    1    3    3    0    0 -0.10413819878E-01  0.11396174129E+00 -0.91110426025E-01  0.89207445645E+00  0.88000000000E+00 0.  1.
        -11    1    4    4    0    0  0.11542757324E-01 -0.51782866860E-01  0.60625096368E-01  0.80562795244E-01  0.51100000000E-03 0.  1.
         11    1    4    4    0    0  0.63691921787E-02 -0.40649439372E-01  0.23796567481E-01  0.47534001253E-01  0.51100000000E-03 0. -1.
</event>
<event>
 8    1  0.1150863E+005  0.1043930E+01  0.7957747E-01            NaN
         13   -1    0    0    0    0  0.00000000000E+00  0.00000000000E+00  0.74505805969E-08  0.10566000000E+00  0.10566000000E+00 0. -1.
     999900   -1    0    0    0    0 -0.00000000000E+00 -0.00000000000E+00 -0.74505805969E-08  0.93827000000E+00  0.93827000000E+00 0. -1.
     999902    2    1    2    0    0  0.19185242875E-01 -0.13044437098E-01 -0.40184967164E-03  0.10207267165E+01  0.10204629525E+01 0.  0.
     999903    2    3    3    0    0  0.58765117734E-01 -0.75861017473E-01 -0.89060482354E-01  0.13316103304E+00  0.24328135308E-01 0.  0.
         14    1    1    2    0    0 -0.19185242875E-01  0.13044437098E-01  0.40184967164E-03  0.23203283529E-01  0.00000000000E+00 0. -1.
     999901    1    3    3    0    0 -0.39579874859E-01  0.62816580375E-01  0.88658632683E-01  0.88756568344E+00  0.88000000000E+00 0.  1.
        -11    1    4    4    0    0  0.15192670943E-01 -0.39208896065E-01 -0.38308543708E-01  0.56885502750E-01  0.51100000000E-03 0.  1.
         11    1    4    4    0    0  0.43572446791E-01 -0.36652121407E-01 -0.50751938646E-01  0.76275530285E-01  0.51100000000E-03 0. -1.
</event>
<event>
 8    1  0.1150863E+005  0.1043930E+01  0.7957747E-01            NaN
         13   -1    0    0    0    0  0.00000000000E+00  0.00000000000E+00  0.74505805969E-08  0.10566000000E+00  0.10566000000E+00 0.  1.
     999900   -1    0    0    0    0 -0.00000000000E+00 -0.00000000000E+00 -0.74505805969E-08  0.93827000000E+00  0.93827000000E+00 0. -1.
     999902    2    1    2    0    0  0.15229116185E-01  0.12559029780E-01  0.12128672354E-01  0.10207619206E+01  0.10204989656E+01 0.  0.
     999903    2    3    3    0    0  0.26427449949E-01  0.96251630322E-01 -0.83377478137E-01  0.13157618140E+00  0.19942447205E-01 0.  0.
         14    1    1    2    0    0 -0.15229116185E-01 -0.12559029780E-01 -0.12128672354E-01  0.23168079373E-01  0.00000000000E+00 0. -1.
     999901    1    3    3    0    0 -0.11198333765E-01 -0.83692600542E-01  0.95506150490E-01  0.88918573923E+00  0.88000000000E+00 0.  1.
        -11    1    4    4    0    0  0.12742761168E-01  0.72562377374E-01 -0.53421567749E-01  0.91004404257E-01  0.51100000000E-03 0.  1.
         11    1    4    4    0    0  0.13684688782E-01  0.23689252948E-01 -0.29955910388E-01  0.40571777142E-01  0.51100000000E-03 0. -1.
</event>
<event>
 8    1  0.1150863E+005  0.1043930E+01  0.7957747E-01            NaN
         13   -1    0    0    0    0  0.00000000000E+00  0.00000000000E+00  0.74505805969E-08  0.10566000000E+00  0.10566000000E+00 0. -1.
     999900   -1    0    0    0    0 -0.00000000000E+00 -0.00000000000E+00 -0.74505805969E-08  0.93827000000E+00  0.93827000000E+00 0. -1.
     999902    2    1    2    0    0 -0.17367026023E-01  0.91016521185E-02 -0.12341703347E-01  0.10207616745E+01  0.10204987138E+01 0.  0.
     999903    2    3    3    0    0  0.68642843467E-01 -0.36948960148E-01 -0.10311637299E+00  0.13072886771E+00  0.19493200318E-01 0.  0.
         14    1    1    2    0    0  0.17367026023E-01 -0.91016521185E-02  0.12341703347E-01  0.23168325483E-01  0.00000000000E+00 0. -1.
     999901    1    3    3    0    0 -0.86009869490E-01  0.46050612266E-01  0.90774669648E-01  0.89003280681E+00  0.88000000000E+00 0.  1.
        -11    1    4    4    0    0  0.35822236806E-01 -0.83661550330E-02 -0.45159328261E-01  0.58248186666E-01  0.51100000000E-03 0. -1.
         11    1    4    4    0    0  0.32820606660E-01 -0.28582805115E-01 -0.57957044733E-01  0.72480681046E-01  0.51100000000E-03 0.  1.
</event>
<event>
 8    1  0.1150863E+005  0.1043930E+01  0.7957747E-01            NaN
         13   -1    0    0    0    0  0.00000000000E+00  0.00000000000E+00  0.74505805969E-08  0.10566000000E+00  0.10566000000E+00 0.  1.
     999900   -1    0    0    0    0 -0.00000000000E+00 -0.00000000000E+00 -0.74505805969E-08  0.93827000000E+00  0.93827000000E+00 0.  1.
     999902    2    1    2    0    0  0.55262567542E-02  0.22154862130E-01 -0.56258611736E-02  0.10204134581E+01  0.10201424399E+01 0.  0.
     999903    2    3    3    0    0  0.26302882924E-01  0.95333093344E-01  0.85950586170E-01  0.13239714775E+00  0.19006870652E-01 0.  0.
         14    1    1    2    0    0 -0.55262567542E-02 -0.22154862130E-01  0.56258611736E-02  0.23516541915E-01  0.00000000000E+00 0. -1.
     999901    1    3    3    0    0 -0.20776626170E-01 -0.73178231214E-01 -0.91576447343E-01  0.88801631034E+00  0.88000000000E+00 0. -1.
        -11    1    4    4    0    0  0.99566383906E-02  0.27645192692E-01  0.37129320015E-01  0.47352284558E-01  0.51100000000E-03 0.  1.
         11    1    4    4    0    0  0.16346244533E-01  0.67687900651E-01  0.48821266155E-01  0.85044863189E-01  0.51100000000E-03 0. -1.
</event>
<event>
 8    1  0.1150863E+005  0.1043930E+01  0.7957747E-01            NaN
         13   -1    0    0    0    0  0.00000000000E+00  0.00000000000E+00  0.74505805969E-08  0.10566000000E+00  0.10566000000E+00 0. -1.
     999900   -1    0    0    0    0 -0.00000000000E+00 -0.00000000000E+00 -0.74505805969E-08  0.93827000000E+00  0.93827000000E+00 0.  1.
     999902    2    1    2    0    0  0.23044649499E-01  0.33727859735E-02 -0.10365355807E-02  0.10206167857E+01  0.10203504875E+01 0.  0.
     999903    2    3    3    0    0 -0.88380182323E-01  0.41161097929E-01 -0.82307333258E-01  0.12907408215E+00  0.19502024637E-01 0.  0.
         14    1    1    2    0    0 -0.23044649499E-01 -0.33727859735E-02  0.10365355807E-02  0.23313214316E-01  0.00000000000E+00 0.  1.
     999901    1    3    3    0    0  0.11142483182E+00 -0.37788311955E-01  0.81270797678E-01  0.89154270353E+00  0.88000000000E+00 0. -1.
        -11    1    4    4    0    0 -0.26169577101E-01  0.19796965440E-01 -0.35473784857E-01  0.48326153782E-01  0.51100000000E-03 0. -1.
         11    1    4    4    0    0 -0.62210605221E-01  0.21364132488E-01 -0.46833548401E-01  0.80747928369E-01  0.51100000000E-03 0.  1.
</event>
<event>
 8    1  0.1150863E+005  0.1043930E+01  0.7957747E-01            NaN
         13   -1    0    0    0    0  0.00000000000E+00  0.00000000000E+00  0.74505805969E-08  0.10566000000E+00  0.10566000000E+00 0.  1.
     999900   -1    0    0    0    0 -0.00000000000E+00 -0.00000000000E+00 -0.74505805969E-08  0.93827000000E+00  0.93827000000E+00 0. -1.
     999902    2    1    2    0    0 -0.48720617485E-02 -0.10776295810E-01  0.20551475542E-01  0.10202186381E+01  0.10199430576E+01 0.  0.
     999903    2    3    3    0    0 -0.10945519070E+00  0.36781957600E-01  0.60569070719E-01  0.13184888046E+00  0.19549009595E-01 0.  0.
         14    1    1    2    0    0  0.48720617485E-02  0.10776295810E-01 -0.20551475542E-01  0.23711361919E-01  0.00000000000E+00 0. -1.
     999901    1    3    3    0    0  0.10458312895E+00 -0.47558253410E-01 -0.40017595177E-01  0.88836975762E+00  0.88000000000E+00 0. -1.
        -11    1    4    4    0    0 -0.43684112089E-01  0.16075733346E-01  0.35252729638E-01  0.58393038280E-01  0.51100000000E-03 0.  1.
         11    1    4    4    0    0 -0.65771078607E-01  0.20706224253E-01  0.25316341082E-01  0.73455842182E-01  0.51100000000E-03 0. -1.
</event>
<event>
 8    1  0.1150863E+005  0.1043930E+01  0.7957747E-01            NaN
         13   -1    0    0    0    0  0.00000000000E+00  0.00000000000E+00  0.74505805969E-08  0.10566000000E+00  0.10566000000E+00 0. -1.
     999900   -1    0    0    0    0 -0.00000000000E+00 -0.00000000000E+00 -0.74505805969E-08  0.93827000000E+00  0.93827000000E+00 0. -1.
     999902    2    1    2    0    0  0.23502647835E-01 -0.17795644357E-02 -0.22897055806E-02  0.10202491204E+01  0.10199742564E+01 0.  0.
     999903    2    3    3    0    0 -0.73425955870E-01  0.10377063489E+00  0.32976378283E-02  0.12863977931E+00  0.19432003102E-01 0.  0.
         14    1    1    2    0    0 -0.23502647835E-01  0.17795644357E-02  0.22897055806E-02  0.23680879555E-01  0.00000000000E+00 0.  1.
     999901    1    3    3    0    0  0.96928603705E-01 -0.10555019933E+00 -0.55873434089E-02  0.89160934114E+00  0.88000000000E+00 0.  1.
        -11    1    4    4    0    0 -0.12314802407E-01  0.25766167804E-01 -0.57451935745E-02  0.29134483552E-01  0.51100000000E-03 0. -1.
         11    1    4    4    0    0 -0.61111153463E-01  0.78004467086E-01  0.90428314027E-02  0.99505295757E-01  0.51100000000E-03 0.  1.
</event>
<event>
 8    1  0.1150863E+005  0.1043930E+01  0.7957747E-01            NaN
         13   -1    0    0    0    0  0.00000000000E+00  0.00000000000E+00  0.74505805969E-08  0.10566000000E+00  0.10566000000E+00 0. -1.
     999900   -1    0    0    0    0 -0.00000000000E+00 -0.00000000000E+00 -0.74505805969E-08  0.93827000000E+00  0.93827000000E+00 0. -1.
     999902    2    1    2    0    0  0.16040571326E-01 -0.60331462738E-02  0.16505371442E-01  0.10201365961E+01  0.10198590827E+01 0.  0.
     999903    2    3    3    0    0 -0.16477585981E-01 -0.80710410561E-01 -0.97294232344E-01  0.12907853168E+00  0.20234092040E-01 0.  0.
         14    1    1    2    0    0 -0.16040571326E-01  0.60331462738E-02 -0.16505371442E-01  0.23793403894E-01  0.00000000000E+00 0.  1.
     999901    1    3    3    0    0  0.32518157307E-01  0.74677264287E-01  0.11379960379E+00  0.89105806443E+00  0.88000000000E+00 0.  1.
        -11    1    4    4    0    0  0.38133906848E-02 -0.20189733462E-01 -0.29581596194E-01  0.36020816761E-01  0.51100000000E-03 0. -1.
         11    1    4    4    0    0 -0.20290976665E-01 -0.60520677099E-01 -0.67712636150E-01  0.93057714919E-01  0.51100000000E-03 0.  1.
</event>
<event>
 8    1  0.1150863E+005  0.1043930E+01  0.7957747E-01            NaN
         13   -1    0    0    0    0  0.00000000000E+00  0.00000000000E+00  0.74505805969E-08  0.10566000000E+00  0.10566000000E+00 0. -1.
     999900   -1    0    0    0    0 -0.00000000000E+00 -0.00000000000E+00 -0.74505805969E-08  0.93827000000E+00  0.93827000000E+00 0.  1.
     999902    2    1    2    0    0  0.50932403171E-02  0.42079120482E-03  0.22889684763E-01  0.10204767309E+01  0.10202071861E+01 0.  0.
     999903    2    3    3    0    0 -0.87643412038E-01 -0.48028811364E-01 -0.78196979117E-01  0.12853168536E+00  0.20432625959E-01 0.  0.
         14    1    1    2    0    0 -0.50932403171E-02 -0.42079120482E-03 -0.22889684763E-01  0.23453269084E-01  0.00000000000E+00 0.  1.
     999901    1    3    3    0    0  0.92736652355E-01  0.48449602568E-01  0.10108666388E+00  0.89194504556E+00  0.88000000000E+00 0. -1.
        -11    1    4    4    0    0 -0.41823847040E-01 -0.13252941155E-01 -0.26959745676E-01  0.51497219715E-01  0.51100000000E-03 0.  1.
         11    1    4    4    0    0 -0.45819564998E-01 -0.34775870209E-01 -0.51237233441E-01  0.77034465644E-01  0.51100000000E-03 0. -1.
</event>
<event>
 8    1  0.1150863E+005  0.1043930E+01  0.7957747E-01            NaN
         13   -1    0    0    0    0  0.00000000000E+00  0.00000000000E+00  0.74505805969E-08  0.10566000000E+00  0.10566000000E+00 0.  1.
     999900   -1    0    0    0    0 -0.00000000000E+00 -0.00000000000E+00 -0.74505805969E-08  0.93827000000E+00  0.93827000000E+00 0.  1.
     999902    2    1    2    0    0  0.21508485269E-01  0.82473786482E-02  0.27712338463E-03  0.10208928346E+01  0.10206328766E+01 0.  0.
     999903    2    3    3    0    0 -0.66948224092E-01 -0.27447666764E-01 -0.10546671333E+00  0.12944430286E+00  0.19928893711E-01 0.  0.
         14    1    1    2    0    0 -0.21508485269E-01 -0.82473786482E-02 -0.27712338463E-03  0.23037165419E-01  0.00000000000E+00 0. -1.
     999901    1    3    3    0    0  0.88456709361E-01  0.35695045412E-01  0.10574383671E+00  0.89144853172E+00  0.88000000000E+00 0. -1.
        -11    1    4    4    0    0 -0.19554719539E-01 -0.36385849675E-02 -0.43784701552E-01  0.48093529375E-01  0.51100000000E-03 0. -1.
         11    1    4    4    0    0 -0.47393504553E-01 -0.23809081796E-01 -0.61682011774E-01  0.81350773489E-01  0.51100000000E-03 0.  1.
</event>
<event>
 8    1  0.1150863E+005  0.1043930E+01  0.7957747E-01            NaN
         13   -1    0    0    0    0  0.00000000000E+00  0.00000000000E+00  0.74505805969E-08  0.10566000000E+00  0.10566000000E+00 0.  1.
     999900   -1    0    0    0    0 -0.00000000000E+00 -0.00000000000E+00 -0.74505805969E-08  0.93827000000E+00  0.93827000000E+00 0.  1.
     999902    2    1    2    0    0  0.14814486195E-01  0.17719043457E-01  0.59727499100E-02  0.10200740313E+01  0.10197950392E+01 0.  0.
     999903    2    3    3    0    0  0.73145866456E-01 -0.96070027314E-01 -0.38456585208E-01  0.12972327547E+00  0.27738985644E-01 0.  0.
         14    1    1    2    0    0 -0.14814486195E-01 -0.17719043457E-01 -0.59727499100E-02  0.23855968724E-01  0.00000000000E+00 0.  1.
     999901    1    3    3    0    0 -0.58331380261E-01  0.11378907077E+00  0.44429335118E-01  0.89035075581E+00  0.88000000000E+00 0. -1.
        -11    1    4    4    0    0  0.17756337057E-01 -0.45665945778E-01 -0.15401976809E-01  0.51362906071E-01  0.51100000000E-03 0.  1.
         11    1    4    4    0    0  0.55389529400E-01 -0.50404081536E-01 -0.23054608398E-01  0.78360369397E-01  0.51100000000E-03 0. -1.
</event>
<event>
 8    1  0.1150863E+005  0.1043930E+01  0.7957747E-01            NaN
         13   -1    0    0    0    0  0.00000000000E+00  0.00000000000E+00  0.74505805969E-08  0.10566000000E+00  0.10566000000E+00 0.  1.
     999900   -1    0    0    0    0 -0.00000000000E+00 -0.00000000000E+00 -0.74505805969E-08  0.93827000000E+00  0.93827000000E+00 0.  1.
     999902    2    1    2    0    0 -0.15248821439E-01 -0.16172318542E-01  0.60850431497E-02  0.10208844323E+01  0.10206242824E+01 0.  0.
     999903    2    3    3    0    0  0.10083440363E+00 -0.18038041162E-01 -0.76050223359E-01  0.12946702270E+00  0.22025567176E-01 0.  0.
         14    1    1    2    0    0  0.15248821439E-01  0.16172318542E-01 -0.60850431497E-02  0.23045567739E-01  0.00000000000E+00 0. -1.
     999901    1    3    3    0    0 -0.11608322507E+00  0.18657226207E-02  0.82135266509E-01  0.89141740956E+00  0.88000000000E+00 0.  1.
        -11    1    4    4    0    0  0.33481720279E-01 -0.32722108308E-02 -0.37836609055E-01  0.50632035929E-01  0.51100000000E-03 0.  1.
         11    1    4    4    0    0  0.67352683351E-01 -0.14765830332E-01 -0.38213614304E-01  0.78834986771E-01  0.51100000000E-03 0. -1.
</event>
<event>
 8    1  0.1150863E+005  0.1043930E+01  0.7957747E-01            NaN
         13   -1    0    0    0    0  0.00000000000E+00  0.00000000000E+00  0.74505805969E-08  0.10566000000E+00  0.10566000000E+00 0. -1.
     999900   -1    0    0    0    0 -0.00000000000E+00 -0.00000000000E+00 -0.74505805969E-08  0.93827000000E+00  0.93827000000E+00 0. -1.
     999902    2    1    2    0    0  0.19368232388E-01  0.53770097305E-02  0.11396002286E-01  0.10208235176E+01  0.10205619749E+01 0.  0.
     999903    2    3    3    0    0  0.10265840768E+00 -0.59487522146E-01 -0.53512721198E-01  0.13214033270E+00  0.22802241907E-01 0.  0.
         14    1    1    2    0    0 -0.19368232388E-01 -0.53770097305E-02 -0.11396002286E-01  0.23106482371E-01  0.00000000000E+00 0.  1.
     999901    1    3    3    0    0 -0.83290175296E-01  0.64864531876E-01  0.64908723484E-01  0.88868318493E+00  0.88000000000E+00 0.  1.
        -11    1    4    4    0    0  0.19263294040E-01 -0.22185351136E-01 -0.11040073892E-01  0.31391219391E-01  0.51100000000E-03 0. -1.
         11    1    4    4    0    0  0.83395113645E-01 -0.37302171009E-01 -0.42472647306E-01  0.10074911331E+00  0.51100000000E-03 0.  1.
</event>
<event>
 8    1  0.1150863E+005  0.1043930E+01  0.7957747E-01            NaN
         13   -1    0    0    0    0  0.00000000000E+00  0.00000000000E+00  0.74505805969E-08  0.10566000000E+00  0.10566000000E+00 0.  1.
     999900   -1    0    0    0    0 -0.00000000000E+00 -0.00000000000E+00 -0.74505805969E-08  0.93827000000E+00  0.93827000000E+00 0. -1.
     999902    2    1    2    0    0  0.21913058042E-01 -0.30229894159E-02 -0.79789807207E-02  0.10204143730E+01  0.10201433762E+01 0.  0.
     999903    2    3    3    0    0  0.80341289936E-01 -0.26036483390E-01 -0.10125620452E+00  0.13325930223E+00  0.19302884293E-01 0.  0.
         14    1    1    2    0    0 -0.21913058042E-01  0.30229894159E-02  0.79789807207E-02  0.23515626955E-01  0.00000000000E+00 0.  1.
     999901    1    3    3    0    0 -0.58428231894E-01  0.23013493975E-01  0.93277223799E-01  0.88715507081E+00  0.88000000000E+00 0.  1.
        -11    1    4    4    0    0  0.24261904926E-01 -0.75075882120E-02 -0.45095255844E-01  0.51757580431E-01  0.51100000000E-03 0. -1.
         11    1    4    4    0    0  0.56079385010E-01 -0.18528895178E-01 -0.56160948675E-01  0.81501721802E-01  0.51100000000E-03 0.  1.
</event>
<event>
 8    1  0.1150863E+005  0.1043930E+01  0.7957747E-01            NaN
         13   -1    0    0    0    0  0.00000000000E+00  0.00000000000E+00  0.74505805969E-08  0.10566000000E+00  0.10566000000E+00 0.  1.
     999900   -1    0    0    0    0 -0.00000000000E+00 -0.00000000000E+00 -0.74505805969E-08  0.93827000000E+00  0.93827000000E+00 0. -1.
     999902    2    1    2    0    0  0.10957388005E-01 -0.40149081015E-02  0.20630246399E-01  0.10202278713E+01  0.10199525079E+01 0.  0.
     999903    2    3    3    0    0  0.11010358626E+00  0.58727074340E-01 -0.33768510235E-01  0.13077537131E+00  0.19753898117E-01 0.  0.
         14    1    1    2    0    0 -0.10957388005E-01  0.40149081015E-02 -0.20630246399E-01  0.23702128711E-01  0.00000000000E+00 0. -1.
     999901    1    3    3    0    0 -0.99146198255E-01 -0.62741982441E-01  0.54398756634E-01  0.88945249998E+00  0.88000000000E+00 0. -1.
        -11    1    4    4    0    0  0.57000865569E-01  0.21377088885E-01 -0.22360848086E-01  0.64856358616E-01  0.51100000000E-03 0.  1.
         11    1    4    4    0    0  0.53102720691E-01  0.37349985455E-01 -0.11407662148E-01  0.65919012697E-01  0.51100000000E-03 0. -1.
</event>
<event>
 8    1  0.1150863E+005  0.1043930E+01  0.7957747E-01            NaN
         13   -1    0    0    0    0  0.00000000000E+00  0.00000000000E+00  0.74505805969E-08  0.10566000000E+00  0.10566000000E+00 0.  1.
     999900   -1    0    0    0    0 -0.00000000000E+00 -0.00000000000E+00 -0.74505805969E-08  0.93827000000E+00  0.93827000000E+00 0. -1.
     999902    2    1    2    0    0 -0.14994746889E-01  0.13205905378E-01 -0.14027796009E-01  0.10195165318E+01  0.10192241859E+01 0.  0.
     999903    2    3    3    0    0 -0.71276058854E-01 -0.40858301030E-01  0.97414831288E-01  0.12906160102E+00  0.20434533837E-01 0.  0.
         14    1    1    2    0    0  0.14994746889E-01 -0.13205905378E-01  0.14027796009E-01  0.24413468249E-01  0.00000000000E+00 0. -1.
     999901    1    3    3    0    0  0.56281311965E-01  0.54064206407E-01 -0.11144262730E+00  0.89045493073E+00  0.88000000000E+00 0.  1.
        -11    1    4    4    0    0 -0.44155345630E-01 -0.30290463841E-01  0.49086559519E-01  0.72642674743E-01  0.51100000000E-03 0. -1.
         11    1    4    4    0    0 -0.27120713224E-01 -0.10567837189E-01  0.48328271769E-01  0.56418926273E-01  0.51100000000E-03 0.  1.
</event>
<event>
 8    1  0.1150863E+005  0.1043930E+01  0.7957747E-01            NaN
         13   -1    0    0    0    0  0.00000000000E+00  0.00000000000E+00  0.74505805969E-08  0.10566000000E+00  0.10566000000E+00 0.  1.
     999900   -1    0    0    0    0 -0.00000000000E+00 -0.00000000000E+00 -0.74505805969E-08  0.93827000000E+00  0.93827000000E+00 0.  1.
     999902    2    1    2    0    0 -0.66318159609E-02  0.30785646657E-02  0.21687669157E-01  0.10210430269E+01  0.10207864856E+01 0.  0.
     999903    2    3    3    0    0  0.11593038098E+00 -0.54955652560E-01 -0.10463335402E-01  0.13007549127E+00  0.18712964973E-01 0.  0.
         14    1    1    2    0    0  0.66318159609E-02 -0.30785646657E-02 -0.21687669157E-01  0.22886973081E-01  0.00000000000E+00 0. -1.
     999901    1    3    3    0    0 -0.12256219694E+00  0.58034217225E-01  0.32151004560E-01  0.89096753565E+00  0.88000000000E+00 0. -1.
        -11    1    4    4    0    0  0.68097303137E-01 -0.42212273357E-01 -0.77991549530E-02  0.80499730779E-01  0.51100000000E-03 0. -1.
         11    1    4    4    0    0  0.47833077846E-01 -0.12743379203E-01 -0.26641804494E-02  0.49575760490E-01  0.51100000000E-03 0.  1.
</event>
<event>
 8    1  0.1150863E+005  0.1043930E+01  0.7957747E-01            NaN
         13   -1    0    0    0    0  0.00000000000E+00  0.00000000000E+00  0.74505805969E-08  0.10566000000E+00  0.10566000000E+00 0. -1.
     999900   -1    0    0    0    0 -0.00000000000E+00 -0.00000000000E+00 -0.74505805969E-08  0.93827000000E+00  0.93827000000E+00 0. -1.
     999902    2    1    2    0    0 -0.77265537356E-02  0.21134367639E-03 -0.21834978362E-01  0.10207673020E+01  0.10205044705E+01 0.  0.
     999903    2    3    3    0    0  0.60319735150E-01  0.54591454516E-03 -0.11707795033E+00  0.13301641741E+00  0.18637391902E-01 0.  0.
         14    1    1    2    0    0  0.77265537356E-02 -0.21134367639E-03  0.21834978362E-01  0.23162698004E-01  0.00000000000E+00 0. -1.
     999901    1    3    3    0    0 -0.68046288886E-01 -0.33457086877E-03  0.95242971967E-01  0.88775088458E+00  0.88000000000E+00 0.  1.
        -11    1    4    4    0    0  0.99811104325E-02 -0.26942029076E-02 -0.88856159377E-02  0.13641722265E-01  0.51100000000E-03 0. -1.
         11    1    4    4    0    0  0.50338624717E-01  0.32401174527E-02 -0.10819233439E+00  0.11937469515E+00  0.51100000000E-03 0.  1.
</event>
<event>
 8    1  0.1150863E+005  0.1043930E+01  0.7957747E-01            NaN
         13   -1    0    0    0    0  0.00000000000E+00  0.00000000000E+00  0.74505805969E-08  0.10566000000E+00  0.10566000000E+00 0.  1.
     999900   -1    0    0    0    0 -0.00000000000E+00 -0.00000000000E+00 -0.74505805969E-08  0.93827000000E+00  0.93827000000E+00 0.  1.
     999902    2    1    2    0    0  0.14102442376E-01 -0.13421326623E-01  0.19974868135E-01  0.10160372367E+01  0.10156543014E+01 0.  0.
     999903    2    3    3    0    0  0.48428005860E-01 -0.94437776675E-01 -0.67415121388E-01  0.12734217099E+00  0.20185750080E-01 0.  0.
         14    1    1    2    0    0 -0.14102442376E-01  0.13421326623E-01 -0.19974868135E-01  0.27892763333E-01  0.00000000000E+00 0. -1.
     999901    1    3    3    0    0 -0.34325563484E-01  0.81016450051E-01  0.87389989523E-01  0.88869506568E+00  0.88000000000E+00 0. -1.
        -11    1    4    4    0    0  0.38337242711E-01 -0.76865408960E-01 -0.63190879256E-01  0.10663668982E+00  0.51100000000E-03 0.  1.
         11    1    4    4    0    0  0.10090763149E-01 -0.17572367715E-01 -0.42242421318E-02  0.20705481173E-01  0.51100000000E-03 0. -1.
</event>
<event>
 8    1  0.1150863E+005  0.1043930E+01  0.7957747E-01            NaN
         13   -1    0    0    0    0  0.00000000000E+00  0.00000000000E+00  0.74505805969E-08  0.10566000000E+00  0.10566000000E+00 0.  1.
     999900   -1    0    0    0    0 -0.00000000000E+00 -0.00000000000E+00 -0.74505805969E-08  0.93827000000E+00  0.93827000000E+00 0. -1.
     999902    2    1    2    0    0  0.22420980793E-01  0.16640815405E-01 -0.86725084816E-02  0.10146925323E+01  0.10142712189E+01 0.  0.
     999903    2    3    3    0    0  0.52266231614E-01  0.10455364925E+00 -0.50263068614E-01  0.12883183212E+00  0.20200008924E-01 0.  0.
         14    1    1    2    0    0 -0.22420980793E-01 -0.16640815405E-01  0.86725084816E-02  0.29237467750E-01  0.00000000000E+00 0. -1.
     999901    1    3    3    0    0 -0.29845250821E-01 -0.87912833848E-01  0.41590560133E-01  0.88586070014E+00  0.88000000000E+00 0.  1.
        -11    1    4    4    0    0  0.27270311472E-01  0.63708162977E-01 -0.19799633250E-01  0.72074173707E-01  0.51100000000E-03 0. -1.
         11    1    4    4    0    0  0.24995920142E-01  0.40845486275E-01 -0.30463435364E-01  0.56757658408E-01  0.51100000000E-03 0.  1.
</event>
<event>
 8    1  0.1150863E+005  0.1043930E+01  0.7957747E-01            NaN
         13   -1    0    0    0    0  0.00000000000E+00  0.00000000000E+00  0.74505805969E-08  0.10566000000E+00  0.10566000000E+00 0. -1.
     999900   -1    0    0    0    0 -0.00000000000E+00 -0.00000000000E+00 -0.74505805969E-08  0.93827000000E+00  0.93827000000E+00 0. -1.
     999902    2    1    2    0    0  0.91814793940E-02  0.28738715813E-01 -0.54285796669E-02  0.10132757535E+01  0.10128119617E+01 0.  0.
     999903    2    3    3    0    0  0.85747479630E-01 -0.85088770055E-01 -0.71252321516E-02  0.12264568016E+00  0.19961585016E-01 0.  0.
         14    1    1    2    0    0 -0.91814793940E-02 -0.28738715813E-01  0.54285796669E-02  0.30654246486E-01  0.00000000000E+00 0. -1.
     999901    1    3    3    0    0 -0.76566000236E-01  0.11382748587E+00  0.16966524847E-02  0.89063007335E+00  0.88000000000E+00 0. -1.
        -11    1    4    4    0    0  0.10013512154E-01 -0.26348089482E-02 -0.20845564625E-02  0.10574456984E-01  0.51100000000E-03 0. -1.
         11    1    4    4    0    0  0.75733967476E-01 -0.82453961107E-01 -0.50406756891E-02  0.11207122318E+00  0.51100000000E-03 0.  1.
</event>
<event>
 8    1  0.1150863E+005  0.1043930E+01  0.7957747E-01            NaN
         13   -1    0    0    0    0  0.00000000000E+00  0.00000000000E+00  0.74505805969E-08  0.10566000000E+00  0.10566000000E+00 0.  1.
     999900   -1    0    0    0    0 -0.00000000000E+00 -0.00000000000E+00 -0.74505805969E-08  0.93827000000E+00  0.93827000000E+00 0. -1.
     999902    2    1    2    0    0  0.11387279573E-01  0.16713538039E-01  0.14548848981E-01  0.10190165198E+01  0.10187119250E+01 0.  0.
     999903    2    3    3    0    0  0.71147120255E-01 -0.69795076809E-01 -0.77094106336E-01  0.12803200237E+00  0.22703015948E-01 0.  0.
         14    1    1    2    0    0 -0.11387279573E-01 -0.16713538039E-01 -0.14548848981E-01  0.24913480217E-01  0.00000000000E+00 0. -1.
     999901    1    3    3    0    0 -0.59759840681E-01  0.86508614848E-01  0.91642955317E-01  0.89098451741E+00  0.88000000000E+00 0.  1.
        -11    1    4    4    0    0  0.45761198228E-01 -0.36312258536E-01 -0.32892596184E-01  0.67043652853E-01  0.51100000000E-03 0.  1.
         11    1    4    4    0    0  0.25385922027E-01 -0.33482818273E-01 -0.44201510152E-01  0.60988349522E-01  0.51100000000E-03 0. -1.
</event>
<event>
 8    1  0.1150863E+005  0.1043930E+01  0.7957747E-01            NaN
         13   -1    0    0    0    0  0.00000000000E+00  0.00000000000E+00  0.74505805969E-08  0.10566000000E+00  0.10566000000E+00 0.  1.
     999900   -1    0    0    0    0 -0.00000000000E+00 -0.00000000000E+00 -0.74505805969E-08  0.93827000000E+00  0.93827000000E+00 0. -1.
     999902    2    1    2    0    0  0.15195674801E-01  0.12418828450E-01  0.13429675641E-01  0.10201499239E+01  0.10198727250E+01 0.  0.
     999903    2    3    3    0    0 -0.72462030388E-01  0.12142879473E-01 -0.10310089087E+00  0.12815030372E+00  0.19862307918E-01 0.  0.
         14    1    1    2    0    0 -0.15195674801E-01 -0.12418828450E-01 -0.13429675641E-01  0.23780076126E-01  0.00000000000E+00 0. -1.
     999901    1    3    3    0    0  0.87657705189E-01  0.27594897743E-03  0.11653056651E+00  0.89199962016E+00  0.88000000000E+00 0.  1.
        -11    1    4    4    0    0 -0.22367795889E-01  0.11808324789E-01 -0.26636360265E-01  0.36735699754E-01  0.51100000000E-03 0.  1.
         11    1    4    4    0    0 -0.50094234499E-01  0.33455468417E-03 -0.76464530601E-01  0.91414603965E-01  0.51100000000E-03 0. -1.
</event>
<event>
 8    1  0.1150863E+005  0.1043930E+01  0.7957747E-01            NaN
         13   -1    0    0    0    0  0.00000000000E+00  0.00000000000E+00  0.74505805969E-08  0.10566000000E+00  0.10566000000E+00 0.  1.
     999900   -1    0    0    0    0 -0.00000000000E+00 -0.00000000000E+00 -0.74505805969E-08  0.93827000000E+00  0.93827000000E+00 0.  1.
     999902    2    1    2    0    0  0.13639894088E-01 -0.17157460392E-01  0.15940406282E-01  0.10168279390E+01  0.10164666919E+01 0.  0.
     999903    2    3    3    0    0 -0.49703511863E-01  0.95051401519E-01  0.62961974735E-01  0.12620217940E+00  0.21390927991E-01 0.  0.
         14    1    1    2    0    0 -0.13639894088E-01  0.17157460392E-01 -0.15940406282E-01  0.27102060997E-01  0.00000000000E+00 0. -1.
     999901    1    3    3    0    0  0.63343405951E-01 -0.11220886191E+00 -0.47021568453E-01  0.89062575960E+00  0.88000000000E+00 0.  1.
        -11    1    4    4    0    0 -0.43746343612E-01  0.68454398951E-01  0.53815069235E-01  0.97447781468E-01  0.51100000000E-03 0. -1.
         11    1    4    4    0    0 -0.59571682508E-02  0.26597002569E-01  0.91469055000E-02  0.28754397932E-01  0.51100000000E-03 0.  1.
</event>
<event>
 8    1  0.1150863E+005  0.1043930E+01  0.7957747E-01            NaN
         13   -1    0    0    0    0  0.00000000000E+00  0.00000000000E+00  0.74505805969E-08  0.10566000000E+00  0.10566000000E+00 0. -1.
     999900   -1    0    0    0    0 -0.00000000000E+00 -0.00000000000E+00 -0.74505805969E-08  0.93827000000E+00  0.93827000000E+00 0. -1.
     999902    2    1    2    0    0 -0.20635182088E-01 -0.75811907923E-02  0.13589556022E-01  0.10180850541E+01  0.10177569534E+01 0.  0.
     999903    2    3    3    0    0  0.97025187864E-01  0.61999978475E-01 -0.45890961203E-01  0.12554741700E+00  0.19957183805E-01 0.  0.
         14    1    1    2    0    0  0.20635182088E-01  0.75811907923E-02 -0.13589556022E-01  0.25844945860E-01  0.00000000000E+00 0.  1.
     999901    1    3    3    0    0 -0.11766036995E+00 -0.69581169267E-01  0.59480517225E-01  0.89253763714E+00  0.88000000000E+00 0.  1.
        -11    1    4    4    0    0  0.82445683862E-01  0.43249730856E-01 -0.36513664022E-01  0.10000669372E+00  0.51100000000E-03 0. -1.
         11    1    4    4    0    0  0.14579504002E-01  0.18750247618E-01 -0.93772971815E-02  0.25540723289E-01  0.51100000000E-03 0.  1.
</event>
<event>
 8    1  0.1150863E+005  0.1043930E+01  0.7957747E-01            NaN
         13   -1    0    0    0    0  0.00000000000E+00  0.00000000000E+00  0.74505805969E-08  0.10566000000E+00  0.10566000000E+00 0. -1.
     999900   -1    0    0    0    0 -0.00000000000E+00 -0.00000000000E+00 -0.74505805969E-08  0.93827000000E+00  0.93827000000E+00 0.  1.
     999902    2    1    2    0    0 -0.31186215814E-02 -0.22109560761E-01  0.90597038101E-02  0.10198335955E+01  0.10195488835E+01 0.  0.
     999903    2    3    3    0    0 -0.26731623954E-01 -0.25512732622E-02  0.12632442706E+00  0.13152558819E+00  0.24900416954E-01 0.  0.
         14    1    1    2    0    0  0.31186215814E-02  0.22109560761E-01 -0.90597038101E-02  0.24096404519E-01  0.00000000000E+00 0. -1.
     999901    1    3    3    0    0  0.23613002372E-01 -0.19558287499E-01 -0.11726472325E+00  0.88830800729E+00  0.88000000000E+00 0.  1.
        -11    1    4    4    0    0 -0.27805568398E-01 -0.94850271105E-02  0.96015378736E-01  0.10041080344E+00  0.51100000000E-03 0.  1.
         11    1    4    4    0    0  0.10739444440E-02  0.69337538483E-02  0.30309048320E-01  0.31114784752E-01  0.51100000000E-03 0. -1.
</event>
<event>
 7    1  0.1150863E+005  0.1043930E+01  0.7957747E-01            NaN
         13   -1    0    0    0    0  0.00000000000E+00  0.00000000000E+00  0.74505805969E-08  0.10566000000E+00  0.10566000000E+00 0.  1.
     999900   -1    0    0    0    0 -0.00000000000E+00 -0.00000000000E+00 -0.74505805969E-08  0.93827000000E+00  0.93827000000E+00 0. -1.
     999903    2    1    2    0    0 -0.10261769753E+00  0.38410446834E-01  0.25728664166E-01  0.11424044940E+00  0.19574520360E-01 0.  0.
         14    1    1    2    0    0 -0.27622999276E-01 -0.19823809363E-01 -0.20873841713E-01  0.39896500780E-01  0.00000000000E+00 0.  1.
     999901    1    1    2    0    0  0.13024069681E+00 -0.18586637471E-01 -0.48548224529E-02  0.88979304981E+00  0.88000000000E+00 0.  1.
        -11    1    3    3    0    0 -0.65691136915E-01  0.34401127380E-01  0.17537557047E-01  0.76200984655E-01  0.51100000000E-03 0. -1.
         11    1    3    3    0    0 -0.36926560619E-01  0.40093194534E-02  0.81911071192E-02  0.38039464750E-01  0.51100000000E-03 0.  1.
</event>
<event>
 8    1  0.1150863E+005  0.1043930E+01  0.7957747E-01            NaN
         13   -1    0    0    0    0  0.00000000000E+00  0.00000000000E+00  0.74505805969E-08  0.10566000000E+00  0.10566000000E+00 0. -1.
     999900   -1    0    0    0    0 -0.00000000000E+00 -0.00000000000E+00 -0.74505805969E-08  0.93827000000E+00  0.93827000000E+00 0.  1.
     999902    2    1    2    0    0  0.18941469262E-01 -0.29093383564E-02  0.12936072260E-01  0.10208088955E+01  0.10205470179E+01 0.  0.
     999903    2    3    3    0    0 -0.61255671743E-01  0.59247373116E-01  0.95617593770E-01  0.13112846288E+00  0.28096992652E-01 0.  0.
         14    1    1    2    0    0 -0.18941469262E-01  0.29093383564E-02 -0.12936072260E-01  0.23121104493E-01  0.00000000000E+00 0. -1.
     999901    1    3    3    0    0  0.80197141005E-01 -0.62156711472E-01 -0.82681521510E-01  0.88968043263E+00  0.88000000000E+00 0.  1.
        -11    1    4    4    0    0 -0.20104111767E-01  0.39046061835E-02  0.26404841463E-01  0.33420024432E-01  0.51100000000E-03 0. -1.
         11    1    4    4    0    0 -0.41151559976E-01  0.55342766932E-01  0.69212752307E-01  0.97708438444E-01  0.51100000000E-03 0.  1.
</event>
<event>
 8    1  0.1150863E+005  0.1043930E+01  0.7957747E-01            NaN
         13   -1    0    0    0    0  0.00000000000E+00  0.00000000000E+00  0.74505805969E-08  0.10566000000E+00  0.10566000000E+00 0.  1.
     999900   -1    0    0    0    0 -0.00000000000E+00 -0.00000000000E+00 -0.74505805969E-08  0.93827000000E+00  0.93827000000E+00 0.  1.
     999902    2    1    2    0    0  0.18455453223E-01 -0.10512293141E-01 -0.90311993339E-02  0.10208502552E+01  0.10205893243E+01 0.  0.
     999903    2    3    3    0    0  0.95573351478E-01  0.34859656589E-01 -0.83577095814E-01  0.13317752563E+00  0.20041487439E-01 0.  0.
         14    1    1    2    0    0 -0.18455453223E-01  0.10512293141E-01  0.90311993339E-02  0.23079744846E-01  0.00000000000E+00 0.  1.
     999901    1    3    3    0    0 -0.77117898255E-01 -0.45371949730E-01  0.74545896480E-01  0.88767272952E+00  0.88000000000E+00 0. -1.
        -11    1    4    4    0    0  0.66316947760E-01  0.22154364415E-01 -0.68536124477E-01  0.97909217657E-01  0.51100000000E-03 0. -1.
         11    1    4    4    0    0  0.29256403718E-01  0.12705292174E-01 -0.15040971337E-01  0.35268307976E-01  0.51100000000E-03 0.  1.
</event>
<event>
 8    1  0.1150863E+005  0.1043930E+01  0.7957747E-01            NaN
         13   -1    0    0    0    0  0.00000000000E+00  0.00000000000E+00  0.74505805969E-08  0.10566000000E+00  0.10566000000E+00 0.  1.
     999900   -1    0    0    0    0 -0.00000000000E+00 -0.00000000000E+00 -0.74505805969E-08  0.93827000000E+00  0.93827000000E+00 0. -1.
     999902    2    1    2    0    0  0.10563237328E-01 -0.81038448564E-02  0.19443899192E-01  0.10203647820E+01  0.10200926276E+01 0.  0.
     999903    2    3    3    0    0  0.10384842590E+00  0.26270595623E-01  0.76118216188E-01  0.13295523348E+00  0.20210678315E-01 0.  0.
         14    1    1    2    0    0 -0.10563237328E-01  0.81038448564E-02 -0.19443899192E-01  0.23565218015E-01  0.00000000000E+00 0.  1.
     999901    1    3    3    0    0 -0.93285188575E-01 -0.34374440479E-01 -0.56674316996E-01  0.88740954850E+00  0.88000000000E+00 0. -1.
        -11    1    4    4    0    0  0.96106409246E-01  0.19097909253E-01  0.72083306827E-01  0.12164471333E+00  0.51100000000E-03 0. -1.
         11    1    4    4    0    0  0.77420166570E-02  0.71726863694E-02  0.40349093610E-02  0.11310520157E-01  0.51100000000E-03 0.  1.
</event>
<event>
 8    1  0.1150863E+005  0.1043930E+01  0.7957747E-01            NaN
         13   -1    0    0    0    0  0.00000000000E+00  0.00000000000E+00  0.74505805969E-08  0.10566000000E+00  0.10566000000E+00 0. -1.
     999900   -1    0    0    0    0 -0.00000000000E+00 -0.00000000000E+00 -0.74505805969E-08  0.93827000000E+00  0.93827000000E+00 0. -1.
     999902    2    1    2    0    0  0.82689611052E-02  0.93580910582E-02 -0.18870400768E-01  0.10213016635E+01  0.10210509519E+01 0.  0.
     999903    2    3    3    0    0  0.42513240508E-01  0.71772706040E-01  0.98627266801E-01  0.13064238148E+00  0.19529391441E-01 0.  0.
         14    1    1    2    0    0 -0.82689611052E-02 -0.93580910582E-02  0.18870400768E-01  0.22628336465E-01  0.00000000000E+00 0. -1.
     999901    1    3    3    0    0 -0.34244279403E-01 -0.62414614982E-01 -0.11749766757E+00  0.89065928206E+00  0.88000000000E+00 0. -1.
        -11    1    4    4    0    0  0.15445656406E-01  0.41335759208E-01  0.42299079455E-01  0.61128442928E-01  0.51100000000E-03 0. -1.
         11    1    4    4    0    0  0.27067584102E-01  0.30436946832E-01  0.56328187346E-01  0.69513938547E-01  0.51100000000E-03 0.  1.
</event>
<event>
 8    1  0.1150863E+005  0.1043930E+01  0.7957747E-01            NaN
         13   -1    0    0    0    0  0.00000000000E+00  0.00000000000E+00  0.74505805969E-08  0.10566000000E+00  0.10566000000E+00 0.  1.
     999900   -1    0    0    0    0 -0.00000000000E+00 -0.00000000000E+00 -0.74505805969E-08  0.93827000000E+00  0.93827000000E+00 0.  1.
     999902    2    1    2    0    0 -0.11625793327E-01  0.93827691122E-02 -0.17493981833E-01  0.10209248956E+01  0.10206656689E+01 0.  0.
     999903    2    3    3    0    0 -0.11648673293E+00 -0.56222063186E-01 -0.18652963780E-01  0.13227358386E+00  0.20452104803E-01 0.  0.
         14    1    1    2    0    0  0.11625793327E-01 -0.93827691122E-02  0.17493981833E-01  0.23005104370E-01  0.00000000000E+00 0.  1.
     999901    1    3    3    0    0  0.10486093960E+00  0.65604832298E-01  0.11589819472E-02  0.88865131177E+00  0.88000000000E+00 0.  1.
        -11    1    4    4    0    0 -0.86479001752E-02 -0.44918072035E-02 -0.71878154075E-02  0.12119749202E-01  0.51100000000E-03 0.  1.
         11    1    4    4    0    0 -0.10783883276E+00 -0.51730255983E-01 -0.11465148373E-01  0.12015383466E+00  0.51100000000E-03 0. -1.
</event>
<event>
 7    1  0.1150863E+005  0.1043930E+01  0.7957747E-01            NaN
         13   -1    0    0    0    0  0.00000000000E+00  0.00000000000E+00  0.74505805969E-08  0.10566000000E+00  0.10566000000E+00 0. -1.
     999900   -1    0    0    0    0 -0.00000000000E+00 -0.00000000000E+00 -0.74505805969E-08  0.93827000000E+00  0.93827000000E+00 0. -1.
     999903    2    1    2    0    0 -0.19459607239E-01 -0.10446005040E+00  0.27792389659E-01  0.11147573420E+00  0.19074693945E-01 0.  0.
         14    1    1    2    0    0  0.14939748304E-01  0.60888684955E-02  0.41231590989E-01  0.44275438952E-01  0.00000000000E+00 0. -1.
     999901    1    1    2    0    0  0.45198589356E-02  0.98371181905E-01 -0.69023980648E-01  0.88817882685E+00  0.88000000000E+00 0. -1.
        -11    1    3    3    0    0 -0.15331211490E-01 -0.53913983291E-01  0.63501193467E-02  0.56412310508E-01  0.51100000000E-03 0. -1.
         11    1    3    3    0    0 -0.41283957489E-02 -0.50546067110E-01  0.21442270312E-01  0.55063423694E-01  0.51100000000E-03 0.  1.
</event>
<event>
 8    1  0.1150863E+005  0.1043930E+01  0.7957747E-01            NaN
         13   -1    0    0    0    0  0.00000000000E+00  0.00000000000E+00  0.74505805969E-08  0.10566000000E+00  0.10566000000E+00 0.  1.
     999900   -1    0    0    0    0 -0.00000000000E+00 -0.00000000000E+00 -0.74505805969E-08  0.93827000000E+00  0.93827000000E+00 0. -1.
     999902    2    1    2    0    0  0.27132700446E-02  0.18551446771E-01  0.14427616954E-01  0.10202725669E+01  0.10199982532E+01 0.  0.
     999903    2    3    3    0    0 -0.22192874039E-01  0.87163632140E-01 -0.93666448639E-01  0.13065901312E+00  0.14434392334E-01 0.  0.
         14    1    1    2    0    0 -0.27132700446E-02 -0.18551446771E-01 -0.14427616954E-01  0.23657433136E-01  0.00000000000E+00 0. -1.
     999901    1    3    3    0    0  0.24906144084E-01 -0.68612185369E-01  0.10809406559E+00  0.88961355375E+00  0.88000000000E+00 0.  1.
        -11    1    4    4    0    0 -0.11103735844E-01  0.57078641117E-01 -0.51449932815E-01  0.77644194433E-01  0.51100000000E-03 0. -1.
         11    1    4    4    0    0 -0.11089138195E-01  0.30084991022E-01 -0.42216515824E-01  0.53014818683E-01  0.51100000000E-03 0.  1.
</event>
<event>
 8    1  0.1150863E+005  0.1043930E+01  0.7957747E-01            NaN
         13   -1    0    0    0    0  0.00000000000E+00  0.00000000000E+00  0.74505805969E-08  0.10566000000E+00  0.10566000000E+00 0.  1.
     999900   -1    0    0    0    0 -0.00000000000E+00 -0.00000000000E+00 -0.74505805969E-08  0.93827000000E+00  0.93827000000E+00 0.  1.
     999902    2    1    2    0    0  0.18900913679E-01  0.18281513587E-01  0.10205368723E-01  0.10157234790E+01  0.10153317576E+01 0.  0.
     999903    2    3    3    0    0 -0.12304186518E-01 -0.90320964524E-01 -0.81433483461E-01  0.12377844942E+00  0.19504427061E-01 0.  0.
         14    1    1    2    0    0 -0.18900913679E-01 -0.18281513587E-01 -0.10205368723E-01  0.28206521014E-01  0.00000000000E+00 0. -1.
     999901    1    3    3    0    0  0.31205100197E-01  0.10860247811E+00  0.91638852184E-01  0.89194502956E+00  0.88000000000E+00 0. -1.
        -11    1    4    4    0    0 -0.83081125482E-02 -0.22811893610E-01 -0.31189385416E-01  0.39527789058E-01  0.51100000000E-03 0.  1.
         11    1    4    4    0    0 -0.39960739697E-02 -0.67509070914E-01 -0.50244098045E-01  0.84250660366E-01  0.51100000000E-03 0. -1.
</event>
<event>
 8    1  0.1150863E+005  0.1043930E+01  0.7957747E-01            NaN
         13   -1    0    0    0    0  0.00000000000E+00  0.00000000000E+00  0.74505805969E-08  0.10566000000E+00  0.10566000000E+00 0. -1.
     999900   -1    0    0    0    0 -0.00000000000E+00 -0.00000000000E+00 -0.74505805969E-08  0.93827000000E+00  0.93827000000E+00 0. -1.
     999902    2    1    2    0    0  0.11254105132E-01 -0.76565644395E-02  0.22817024557E-01  0.10173613254E+01  0.10170143420E+01 0.  0.
     999903    2    3    3    0    0  0.96297020397E-01  0.26836081032E-01  0.81276487900E-01  0.13065982607E+00  0.21744683963E-01 0.  0.
         14    1    1    2    0    0 -0.11254105132E-01  0.76565644395E-02 -0.22817024557E-01  0.26568674618E-01  0.00000000000E+00 0. -1.
     999901    1    3    3    0    0 -0.85042915265E-01 -0.34492645472E-01 -0.58459463343E-01  0.88670149931E+00  0.88000000000E+00 0. -1.
        -11    1    4    4    0    0  0.71182529967E-01  0.17721782177E-01  0.70820932531E-01  0.10196509080E+00  0.51100000000E-03 0.  1.
         11    1    4    4    0    0  0.25114490430E-01  0.91142988550E-02  0.10455555369E-01  0.28694735271E-01  0.51100000000E-03 0. -1.
</event>
<event>
 8    1  0.1150863E+005  0.1043930E+01  0.7957747E-01            NaN
         13   -1    0    0    0    0  0.00000000000E+00  0.00000000000E+00  0.74505805969E-08  0.10566000000E+00  0.10566000000E+00 0.  1.
     999900   -1    0    0    0    0 -0.00000000000E+00 -0.00000000000E+00 -0.74505805969E-08  0.93827000000E+00  0.93827000000E+00 0. -1.
     999902    2    1    2    0    0 -0.21469711426E-01 -0.41299630105E-02  0.12536340884E-01  0.10187275210E+01  0.10184157290E+01 0.  0.
     999903    2    3    3    0    0 -0.12999142005E+00  0.43483801087E-02  0.10664241300E-01  0.13201880432E+00  0.19963991484E-01 0.  0.
         14    1    1    2    0    0  0.21469711426E-01  0.41299630105E-02 -0.12536340884E-01  0.25202478965E-01  0.00000000000E+00 0.  1.
     999901    1    3    3    0    0  0.10852170862E+00 -0.84783431192E-02  0.18720995844E-02  0.88670871672E+00  0.88000000000E+00 0.  1.
        -11    1    4    4    0    0 -0.74057675241E-01  0.12316744999E-01  0.68880376905E-02  0.75391960140E-01  0.51100000000E-03 0.  1.
         11    1    4    4    0    0 -0.55933744805E-01 -0.79683648901E-02  0.37762036096E-02  0.56626844179E-01  0.51100000000E-03 0. -1.
</event>
<event>
 8    1  0.1150863E+005  0.1043930E+01  0.7957747E-01            NaN
         13   -1    0    0    0    0  0.00000000000E+00  0.00000000000E+00  0.74505805969E-08  0.10566000000E+00  0.10566000000E+00 0.  1.
     999900   -1    0    0    0    0 -0.00000000000E+00 -0.00000000000E+00 -0.74505805969E-08  0.93827000000E+00  0.93827000000E+00 0. -1.
     999902    2    1    2    0    0 -0.34680647373E-02  0.21745162641E-01 -0.80849280257E-02  0.10204726849E+01  0.10202030459E+01 0.  0.
     999903    2    3    3    0    0  0.76162622740E-01  0.10420834266E+00  0.24879158074E-01  0.13242547137E+00  0.16043976426E-01 0.  0.
         14    1    1    2    0    0  0.34680647373E-02 -0.21745162641E-01  0.80849280257E-02  0.23457315117E-01  0.00000000000E+00 0.  1.
     999901    1    3    3    0    0 -0.79630687477E-01 -0.82463180020E-01 -0.32964086100E-01  0.88804721351E+00  0.88000000000E+00 0. -1.
        -11    1    4    4    0    0  0.59476157720E-02  0.11446673834E-01 -0.18832915138E-02  0.13046393493E-01  0.51100000000E-03 0.  1.
         11    1    4    4    0    0  0.70215006968E-01  0.92761668827E-01  0.26762449588E-01  0.11937907788E+00  0.51100000000E-03 0. -1.
</event>
<event>
 8    1  0.1150863E+005  0.1043930E+01  0.7957747E-01            NaN
         13   -1    0    0    0    0  0.00000000000E+00  0.00000000000E+00  0.74505805969E-08  0.10566000000E+00  0.10566000000E+00 0.  1.
     999900   -1    0    0    0    0 -0.00000000000E+00 -0.00000000000E+00 -0.74505805969E-08  0.93827000000E+00  0.93827000000E+00 0.  1.
     999902    2    1    2    0    0 -0.32213897279E-02  0.86802479184E-02  0.21571477242E-01  0.10204554886E+01  0.10201854496E+01 0.  0.
     999903    2    3    3    0    0  0.12945903673E-01  0.12835921615E+00 -0.14329449035E-01  0.13148230940E+00  0.20942296501E-01 0.  0.
         14    1    1    2    0    0  0.32213897279E-02 -0.86802479184E-02 -0.21571477242E-01  0.23474511413E-01  0.00000000000E+00 0. -1.
     999901    1    3    3    0    0 -0.16167293400E-01 -0.11967896823E+00  0.35900926277E-01  0.88897317919E+00  0.88000000000E+00 0. -1.
        -11    1    4    4    0    0 -0.17586195690E-02  0.74217148032E-01 -0.33695083958E-02  0.74316165891E-01  0.51100000000E-03 0. -1.
         11    1    4    4    0    0  0.14704523242E-01  0.54142068115E-01 -0.10959940639E-01  0.57166143506E-01  0.51100000000E-03 0.  1.
</event>
<event>
 8    1  0.1150863E+005  0.1043930E+01  0.7957747E-01            NaN
         13   -1    0    0    0    0  0.00000000000E+00  0.00000000000E+00  0.74505805969E-08  0.10566000000E+00  0.10566000000E+00 0.  1.
     999900   -1    0    0    0    0 -0.00000000000E+00 -0.00000000000E+00 -0.74505805969E-08  0.93827000000E+00  0.93827000000E+00 0.  1.
     999902    2    1    2    0    0 -0.18915835090E-01  0.29289693022E-02  0.15427706381E-01  0.10193454153E+01  0.10190489066E+01 0.  0.
     999903    2    3    3    0    0 -0.55807507129E-01  0.11225701340E+00  0.34612116973E-01  0.13160578105E+00  0.20148648947E-01 0.  0.
         14    1    1    2    0    0  0.18915835090E-01 -0.29289693022E-02 -0.15427706381E-01  0.24584584652E-01  0.00000000000E+00 0.  1.
     999901    1    3    3    0    0  0.36891672039E-01 -0.10932804410E+00 -0.19184410592E-01  0.88773963430E+00  0.88000000000E+00 0.  1.
        -11    1    4    4    0    0 -0.78967431192E-02  0.36387836826E-01  0.10520242187E-01  0.38695863312E-01  0.51100000000E-03 0.  1.
         11    1    4    4    0    0 -0.47910764010E-01  0.75869176577E-01  0.24091874785E-01  0.92909917739E-01  0.51100000000E-03 0. -1.
</event>
<event>
 8    1  0.1150863E+005  0.1043930E+01  0.7957747E-01            NaN
         13   -1    0    0    0    0  0.00000000000E+00  0.00000000000E+00  0.74505805969E-08  0.10566000000E+00  0.10566000000E+00 0. -1.
     999900   -1    0    0    0    0 -0.00000000000E+00 -0.00000000000E+00 -0.74505805969E-08  0.93827000000E+00  0.93827000000E+00 0. -1.
     999902    2    1    2    0    0  0.15169041708E-01 -0.17397338753E-01 -0.21917415261E-02  0.10207444236E+01  0.10204810666E+01 0.  0.
     999903    2    3    3    0    0  0.19572953803E-01  0.93071812473E-01 -0.86103405139E-01  0.12986620796E+00  0.20148766608E-01 0.  0.
         14    1    1    2    0    0 -0.15169041708E-01  0.17397338753E-01  0.21917415261E-02  0.23185576399E-01  0.00000000000E+00 0.  1.
     999901    1    3    3    0    0 -0.44039120951E-02 -0.11046915123E+00  0.83911663613E-01  0.89087821564E+00  0.88000000000E+00 0.  1.
        -11    1    4    4    0    0  0.50799125354E-02  0.26925184381E-01 -0.37787556016E-01  0.46679027153E-01  0.51100000000E-03 0.  1.
         11    1    4    4    0    0  0.14493041267E-01  0.66146628092E-01 -0.48315849123E-01  0.83187180807E-01  0.51100000000E-03 0. -1.
</event>
<event>
 8    1  0.1150863E+005  0.1043930E+01  0.7957747E-01            NaN
         13   -1    0    0    0    0  0.00000000000E+00  0.00000000000E+00  0.74505805969E-08  0.10566000000E+00  0.10566000000E+00 0.  1.
     999900   -1    0    0    0    0 -0.00000000000E+00 -0.00000000000E+00 -0.74505805969E-08  0.93827000000E+00  0.93827000000E+00 0. -1.
     999902    2    1    2    0    0  0.92642841037E-02  0.13612672511E-01  0.17262901152E-01  0.10200733538E+01  0.10197943457E+01 0.  0.
     999903    2    3    3    0    0 -0.59721070243E-01 -0.87634061820E-02  0.11529603175E+00  0.13166457247E+00  0.19974513405E-01 0.  0.
         14    1    1    2    0    0 -0.92642841037E-02 -0.13612672511E-01 -0.17262901152E-01  0.23856646223E-01  0.00000000000E+00 0. -1.
     999901    1    3    3    0    0  0.68985354347E-01  0.22376078693E-01 -0.98033130603E-01  0.88840878131E+00  0.88000000000E+00 0. -1.
        -11    1    4    4    0    0 -0.95911569891E-02  0.59755064686E-02  0.19489330918E-01  0.22534243066E-01  0.51100000000E-03 0.  1.
         11    1    4    4    0    0 -0.50129913254E-01 -0.14738912651E-01  0.95806700837E-01  0.10913032940E+00  0.51100000000E-03 0. -1.
</event>
<event>
 8    1  0.1150863E+005  0.1043930E+01  0.7957747E-01            NaN
         13   -1    0    0    0    0  0.00000000000E+00  0.00000000000E+00  0.74505805969E-08  0.10566000000E+00  0.10566000000E+00 0.  1.
     999900   -1    0    0    0    0 -0.00000000000E+00 -0.00000000000E+00 -0.74505805969E-08  0.93827000000E+00  0.93827000000E+00 0.  1.
     999902    2    1    2    0    0 -0.94835893467E-02  0.32837908796E-02 -0.21363855330E-01  0.10203262701E+01  0.10200532150E+01 0.  0.
     999903    2    3    3    0    0 -0.83520037150E-01 -0.58069438500E-01  0.77655974798E-01  0.12956786230E+00  0.20241645808E-01 0.  0.
         14    1    1    2    0    0  0.94835893467E-02 -0.32837908796E-02  0.21363855330E-01  0.23603729875E-01  0.00000000000E+00 0.  1.
     999901    1    3    3    0    0  0.74036447803E-01  0.61353229380E-01 -0.99019830128E-01  0.89075840783E+00  0.88000000000E+00 0.  1.
        -11    1    4    4    0    0 -0.43851814244E-01 -0.39493146255E-01  0.52878117251E-01  0.79240435503E-01  0.51100000000E-03 0.  1.
         11    1    4    4    0    0 -0.39668222906E-01 -0.18576292245E-01  0.24777857547E-01  0.50327426794E-01  0.51100000000E-03 0. -1.
</event>
<event>
 8    1  0.1150863E+005  0.1043930E+01  0.7957747E-01            NaN
         13   -1    0    0    0    0  0.00000000000E+00  0.00000000000E+00  0.74505805969E-08  0.10566000000E+00  0.10566000000E+00 0.  1.
     999900   -1    0    0    0    0 -0.00000000000E+00 -0.00000000000E+00 -0.74505805969E-08  0.93827000000E+00  0.93827000000E+00 0.  1.
     999902    2    1    2    0    0 -0.13849829918E-01  0.15398554519E-01  0.10659425348E-01  0.10206371552E+01  0.10203713275E+01 0.  0.
     999903    2    3    3    0    0  0.52020740035E-01  0.88373697670E-02  0.11888055002E+00  0.13153997662E+00  0.19644942837E-01 0.  0.
         14    1    1    2    0    0  0.13849829918E-01 -0.15398554519E-01 -0.10659425348E-01  0.23292844798E-01  0.00000000000E+00 0. -1.
     999901    1    3    3    0    0 -0.65870569953E-01  0.65611847521E-02 -0.10822112467E+00  0.88909717858E+00  0.88000000000E+00 0.  1.
        -11    1    4    4    0    0  0.16763870918E-01 -0.17793859456E-02  0.57870854813E-01  0.60278441753E-01  0.51100000000E-03 0. -1.
         11    1    4    4    0    0  0.35256869118E-01  0.10616755713E-01  0.61009695206E-01  0.71261534870E-01  0.51100000000E-03 0.  1.
</event>
<event>
 8    1  0.1150863E+005  0.1043930E+01  0.7957747E-01            NaN
         13   -1    0    0    0    0  0.00000000000E+00  0.00000000000E+00  0.74505805969E-08  0.10566000000E+00  0.10566000000E+00 0. -1.
     999900   -1    0    0    0    0 -0.00000000000E+00 -0.00000000000E+00 -0.74505805969E-08  0.93827000000E+00  0.93827000000E+00 0. -1.
     999902    2    1    2    0    0  0.11584810642E-01  0.45588301321E-02 -0.22052347902E-01  0.10186061611E+01  0.10182913211E+01 0.  0.
     999903    2    3    3    0    0  0.11500620860E+00  0.54823649498E-01  0.17740604727E-01  0.13023348213E+00  0.20346258903E-01 0.  0.
         14    1    1    2    0    0 -0.11584810642E-01 -0.45588301321E-02  0.22052347902E-01  0.25323838922E-01  0.00000000000E+00 0. -1.
     999901    1    3    3    0    0 -0.10342139796E+00 -0.50264819366E-01 -0.39792952629E-01  0.88837267895E+00  0.88000000000E+00 0. -1.
        -11    1    4    4    0    0  0.63261808559E-01  0.40789706101E-01  0.13235315804E-01  0.76428340630E-01  0.51100000000E-03 0.  1.
         11    1    4    4    0    0  0.51744400038E-01  0.14033943398E-01  0.45052889229E-02  0.53805141500E-01  0.51100000000E-03 0. -1.
</event>
<event>
 8    1  0.1150863E+005  0.1043930E+01  0.7957747E-01            NaN
         13   -1    0    0    0    0  0.00000000000E+00  0.00000000000E+00  0.74505805969E-08  0.10566000000E+00  0.10566000000E+00 0. -1.
     999900   -1    0    0    0    0 -0.00000000000E+00 -0.00000000000E+00 -0.74505805969E-08  0.93827000000E+00  0.93827000000E+00 0.  1.
     999902    2    1    2    0    0 -0.10860592145E-01 -0.22042566465E-01 -0.56887843245E-02  0.10187072035E+01  0.10183949022E+01 0.  0.
     999903    2    3    3    0    0  0.47034737278E-01  0.11534440017E+00  0.94711939475E-02  0.12603880326E+00  0.16717633000E-01 0.  0.
         14    1    1    2    0    0  0.10860592145E-01  0.22042566465E-01  0.56887843245E-02  0.25222796538E-01  0.00000000000E+00 0. -1.
     999901    1    3    3    0    0 -0.57895329423E-01 -0.13738696663E+00 -0.15159978272E-01  0.89266840020E+00  0.88000000000E+00 0.  1.
        -11    1    4    4    0    0  0.16178836457E-01  0.60909666029E-01  0.70664622848E-02  0.63418752551E-01  0.51100000000E-03 0.  1.
         11    1    4    4    0    0  0.30855900821E-01  0.54434734137E-01  0.24047316628E-02  0.62620050714E-01  0.51100000000E-03 0. -1.
</event>
<event>
 8    1  0.1150863E+005  0.1043930E+01  0.7957747E-01            NaN
         13   -1    0    0    0    0  0.00000000000E+00  0.00000000000E+00  0.74505805969E-08  0.10566000000E+00  0.10566000000E+00 0. -1.
     999900   -1    0    0    0    0 -0.00000000000E+00 -0.00000000000E+00 -0.74505805969E-08  0.93827000000E+00  0.93827000000E+00 0.  1.
     999902    2    1    2    0    0 -0.10123779519E-02  0.21279724783E-01  0.86651198704E-02  0.10209313936E+01  0.10206723149E+01 0.  0.
     999903    2    3    3    0    0  0.71334287069E-01 -0.10308650571E+00 -0.21479448840E-01  0.12873763980E+00  0.19914944309E-01 0.  0.
         14    1    1    2    0    0  0.10123779519E-02 -0.21279724783E-01 -0.86651198704E-02  0.22998606443E-01  0.00000000000E+00 0.  1.
     999901    1    3    3    0    0 -0.72346665021E-01  0.12436623049E+00  0.30144568711E-01  0.89219375376E+00  0.88000000000E+00 0. -1.
        -11    1    4    4    0    0  0.60925995091E-01 -0.84177486921E-01 -0.10295808672E-01  0.10442265549E+00  0.51100000000E-03 0.  1.
         11    1    4    4    0    0  0.10408291978E-01 -0.18909018789E-01 -0.11183640169E-01  0.24314984308E-01  0.51100000000E-03 0. -1.
</event>
<event>
 8    1  0.1150863E+005  0.1043930E+01  0.7957747E-01            NaN
         13   -1    0    0    0    0  0.00000000000E+00  0.00000000000E+00  0.74505805969E-08  0.10566000000E+00  0.10566000000E+00 0.  1.
     999900   -1    0    0    0    0 -0.00000000000E+00 -0.00000000000E+00 -0.74505805969E-08  0.93827000000E+00  0.93827000000E+00 0. -1.
     999902    2    1    2    0    0  0.17358113908E-01  0.10957548195E-01 -0.10709070657E-01  0.10207771130E+01  0.10205145067E+01 0.  0.
     999903    2    3    3    0    0  0.71895550798E-01 -0.60030837885E-01 -0.91549939485E-01  0.13254914170E+00  0.20376747109E-01 0.  0.
         14    1    1    2    0    0 -0.17358113908E-01 -0.10957548195E-01  0.10709070657E-01  0.23152886974E-01  0.00000000000E+00 0.  1.
     999901    1    3    3    0    0 -0.54537436890E-01  0.70988386080E-01  0.80840868828E-01  0.88822797133E+00  0.88000000000E+00 0.  1.
        -11    1    4    4    0    0  0.20420126048E-01 -0.12042507048E-01 -0.34958012683E-01  0.42241298460E-01  0.51100000000E-03 0.  1.
         11    1    4    4    0    0  0.51475424750E-01 -0.47988330837E-01 -0.56591926802E-01  0.90307843235E-01  0.51100000000E-03 0. -1.
</event>
<event>
 8    1  0.1150863E+005  0.1043930E+01  0.7957747E-01            NaN
         13   -1    0    0    0    0  0.00000000000E+00  0.00000000000E+00  0.74505805969E-08  0.10566000000E+00  0.10566000000E+00 0.  1.
     999900   -1    0    0    0    0 -0.00000000000E+00 -0.00000000000E+00 -0.74505805969E-08  0.93827000000E+00  0.93827000000E+00 0.  1.
     999902    2    1    2    0    0 -0.20421808582E-01 -0.34828895084E-02 -0.12846235231E-01  0.10195536478E+01  0.10192622009E+01 0.  0.
     999903    2    3    3    0    0  0.11315265385E+00 -0.55975802458E-01  0.39183657893E-02  0.12776965226E+00  0.19311056750E-01 0.  0.
         14    1    1    2    0    0  0.20421808582E-01  0.34828895084E-02  0.12846235231E-01  0.24376352161E-01  0.00000000000E+00 0.  1.
     999901    1    3    3    0    0 -0.13357446244E+00  0.52492912950E-01 -0.16764601020E-01  0.89178399558E+00  0.88000000000E+00 0. -1.
        -11    1    4    4    0    0  0.53316760531E-01 -0.27378058639E-01  0.11454766282E-01  0.61022191373E-01  0.51100000000E-03 0. -1.
         11    1    4    4    0    0  0.59835893323E-01 -0.28597743820E-01 -0.75364004930E-02  0.66747460886E-01  0.51100000000E-03 0.  1.
</event>
<event>
 8    1  0.1150863E+005  0.1043930E+01  0.7957747E-01            NaN
         13   -1    0    0    0    0  0.00000000000E+00  0.00000000000E+00  0.74505805969E-08  0.10566000000E+00  0.10566000000E+00 0.  1.
     999900   -1    0    0    0    0 -0.00000000000E+00 -0.00000000000E+00 -0.74505805969E-08  0.93827000000E+00  0.93827000000E+00 0.  1.
     999902    2    1    2    0    0 -0.39956703008E-02 -0.21631530862E-01  0.80942866325E-02  0.10204905891E+01  0.10202213664E+01 0.  0.
     999903    2    3    3    0    0  0.69238804612E-01 -0.65771293369E-01 -0.87686329748E-01  0.13117313539E+00  0.19940509715E-01 0.  0.
         14    1    1    2    0    0  0.39956703008E-02  0.21631530862E-01 -0.80942866325E-02  0.23439410928E-01  0.00000000000E+00 0. -1.
     999901    1    3    3    0    0 -0.73234474913E-01  0.44139762507E-01  0.95780616380E-01  0.88931745368E+00  0.88000000000E+00 0. -1.
        -11    1    4    4    0    0  0.35207733161E-01 -0.20174082727E-01 -0.33938133134E-01  0.52902136912E-01  0.51100000000E-03 0.  1.
         11    1    4    4    0    0  0.34031071451E-01 -0.45597210642E-01 -0.53748196614E-01  0.78270998478E-01  0.51100000000E-03 0. -1.
</event>
<event>
 8    1  0.1150863E+005  0.1043930E+01  0.7957747E-01            NaN
         13   -1    0    0    0    0  0.00000000000E+00  0.00000000000E+00  0.74505805969E-08  0.10566000000E+00  0.10566000000E+00 0. -1.
     999900   -1    0    0    0    0 -0.00000000000E+00 -0.00000000000E+00 -0.74505805969E-08  0.93827000000E+00  0.93827000000E+00 0. -1.
     999902    2    1    2    0    0  0.12384635110E-01  0.10929357473E-01 -0.17406236379E-01  0.10199340190E+01  0.10196517032E+01 0.  0.
     999903    2    3    3    0    0 -0.77990483594E-01  0.10104040670E+00  0.17431356948E-01  0.13004564327E+00  0.17785887933E-01 0.  0.
         14    1    1    2    0    0 -0.12384635110E-01 -0.10929357473E-01  0.17406236379E-01  0.23995981048E-01  0.00000000000E+00 0. -1.
     999901    1    3    3    0    0  0.90375118704E-01 -0.90111049229E-01 -0.34837593327E-01  0.88988837569E+00  0.88000000000E+00 0.  1.
        -11    1    4    4    0    0 -0.69343301435E-01  0.96802976959E-01  0.14446713228E-01  0.11995115025E+00  0.51100000000E-03 0. -1.
         11    1    4    4    0    0 -0.86471821593E-02  0.42374297428E-02  0.29846437199E-02  0.10094493016E-01  0.51100000000E-03 0.  1.
</event>
<event>
 8    1  0.1150863E+005  0.1043930E+01  0.7957747E-01            NaN
         13   -1    0    0    0    0  0.00000000000E+00  0.00000000000E+00  0.74505805969E-08  0.10566000000E+00  0.10566000000E+00 0.  1.
     999900   -1    0    0    0    0 -0.00000000000E+00 -0.00000000000E+00 -0.74505805969E-08  0.93827000000E+00  0.93827000000E+00 0. -1.
     999902    2    1    2    0    0 -0.70829927833E-02  0.20457634115E-01 -0.57859940318E-02  0.10215210440E+01  0.10212752235E+01 0.  0.
     999903    2    3    3    0    0 -0.87940986408E-01  0.52009943868E-01 -0.83913709896E-01  0.13380627939E+00  0.20590248776E-01 0.  0.
         14    1    1    2    0    0  0.70829927833E-02 -0.20457634115E-01  0.57859940318E-02  0.22408955962E-01  0.00000000000E+00 0.  1.
     999901    1    3    3    0    0  0.80857993625E-01 -0.31552309753E-01  0.78127715864E-01  0.88771476465E+00  0.88000000000E+00 0.  1.
        -11    1    4    4    0    0 -0.57918834777E-01  0.34612553725E-01 -0.67414203268E-01  0.95381110397E-01  0.51100000000E-03 0.  1.
         11    1    4    4    0    0 -0.30022151631E-01  0.17397390143E-01 -0.16499506629E-01  0.38425168996E-01  0.51100000000E-03 0. -1.
</event>
<event>
 8    1  0.1150863E+005  0.1043930E+01  0.7957747E-01            NaN
         13   -1    0    0    0    0  0.00000000000E+00  0.00000000000E+00  0.74505805969E-08  0.10566000000E+00  0.10566000000E+00 0. -1.
     999900   -1    0    0    0    0 -0.00000000000E+00 -0.00000000000E+00 -0.74505805969E-08  0.93827000000E+00  0.93827000000E+00 0.  1.
     999902    2    1    2    0    0  0.14189969147E-01 -0.13232544615E-01 -0.13174070983E-01  0.10204776737E+01  0.10202081508E+01 0.  0.
     999903    2    3    3    0    0  0.11038839056E+00 -0.59224784032E-01  0.38812913117E-01  0.13251817640E+00  0.19011918304E-01 0.  0.
         14    1    1    2    0    0 -0.14189969147E-01  0.13232544615E-01  0.13174070983E-01  0.23452326274E-01  0.00000000000E+00 0.  1.
     999901    1    3    3    0    0 -0.96198421418E-01  0.45992239417E-01 -0.51986984100E-01  0.88795949732E+00  0.88000000000E+00 0.  1.
        -11    1    4    4    0    0  0.80862251834E-01 -0.44573858008E-01  0.37095944089E-01  0.99508305072E-01  0.51100000000E-03 0. -1.
         11    1    4    4    0    0  0.29526138731E-01 -0.14650926024E-01  0.17169690282E-02  0.33009871332E-01  0.51100000000E-03 0.  1.
</event>
<event>
 8    1  0.1150863E+005  0.1043930E+01  0.7957747E-01            NaN
         13   -1    0    0    0    0  0.00000000000E+00  0.00000000000E+00  0.74505805969E-08  0.10566000000E+00  0.10566000000E+00 0. -1.
     999900   -1    0    0    0    0 -0.00000000000E+00 -0.00000000000E+00 -0.74505805969E-08  0.93827000000E+00  0.93827000000E+00 0. -1.
     999902    2    1    2    0    0  0.13751907281E-01  0.12266929868E-01 -0.14297386170E-01  0.10206060258E+01  0.10203394788E+01 0.  0.
     999903    2    3    3    0    0 -0.46948462628E-01  0.30370701328E-01 -0.11831166911E+00  0.13221914356E+00  0.18913308355E-01 0.  0.
         14    1    1    2    0    0 -0.13751907281E-01 -0.12266929868E-01  0.14297386170E-01  0.23323974223E-01  0.00000000000E+00 0. -1.
     999901    1    3    3    0    0  0.60700369910E-01 -0.18103771460E-01  0.10401428294E+00  0.88838688222E+00  0.88000000000E+00 0.  1.
        -11    1    4    4    0    0 -0.40618806329E-01  0.17438490182E-01 -0.95553468116E-01  0.10528397199E+00  0.51100000000E-03 0. -1.
         11    1    4    4    0    0 -0.63296562991E-02  0.12932211145E-01 -0.22758200993E-01  0.26935171568E-01  0.51100000000E-03 0.  1.
</event>
<event>
 8    1  0.1150863E+005  0.1043930E+01  0.7957747E-01            NaN
         13   -1    0    0    0    0  0.00000000000E+00  0.00000000000E+00  0.74505805969E-08  0.10566000000E+00  0.10566000000E+00 0. -1.
     999900   -1    0    0    0    0 -0.00000000000E+00 -0.00000000000E+00 -0.74505805969E-08  0.93827000000E+00  0.93827000000E+00 0.  1.
     999902    2    1    2    0    0 -0.22009295511E-01  0.93876219792E-02  0.35832093750E-02  0.10197354567E+01  0.10194483929E+01 0.  0.
     999903    2    3    3    0    0 -0.11886777952E+00 -0.54028244609E-01  0.71556977492E-02  0.13214551720E+00  0.19042937819E-01 0.  0.
         14    1    1    2    0    0  0.22009295511E-01 -0.93876219792E-02 -0.35832093750E-02  0.24194543284E-01  0.00000000000E+00 0.  1.
     999901    1    3    3    0    0  0.96858484012E-01  0.63415866589E-01 -0.35724883742E-02  0.88758993952E+00  0.88000000000E+00 0. -1.
        -11    1    4    4    0    0 -0.57685043397E-01 -0.24293640984E-01 -0.59182202635E-02  0.62873139544E-01  0.51100000000E-03 0.  1.
         11    1    4    4    0    0 -0.61182736126E-01 -0.29734603625E-01  0.13073918013E-01  0.69272377654E-01  0.51100000000E-03 0. -1.
</event>
<event>
 8    1  0.1150863E+005  0.1043930E+01  0.7957747E-01            NaN
         13   -1    0    0    0    0  0.00000000000E+00  0.00000000000E+00  0.74505805969E-08  0.10566000000E+00  0.10566000000E+00 0.  1.
     999900   -1    0    0    0    0 -0.00000000000E+00 -0.00000000000E+00 -0.74505805969E-08  0.93827000000E+00  0.93827000000E+00 0. -1.
     999902    2    1    2    0    0 -0.13362062104E-02 -0.26686713398E-01 -0.87664501705E-02  0.10158085355E+01  0.10154192060E+01 0.  0.
     999903    2    3    3    0    0 -0.92163134117E-01  0.67478869631E-01 -0.47415048887E-01  0.12529722052E+00  0.20093916304E-01 0.  0.
         14    1    1    2    0    0  0.13362062104E-02  0.26686713398E-01  0.87664501705E-02  0.28121464535E-01  0.00000000000E+00 0.  1.
     999901    1    3    3    0    0  0.90826927906E-01 -0.94165583029E-01  0.38648598717E-01  0.89051131494E+00  0.88000000000E+00 0. -1.
        -11    1    4    4    0    0 -0.64752436608E-01  0.37456687975E-01 -0.25018101609E-01  0.78879959748E-01  0.51100000000E-03 0.  1.
         11    1    4    4    0    0 -0.27410697509E-01  0.30022181655E-01 -0.22396947279E-01  0.46417260773E-01  0.51100000000E-03 0. -1.
</event>
<event>
 8    1  0.1150863E+005  0.1043930E+01  0.7957747E-01            NaN
         13   -1    0    0    0    0  0.00000000000E+00  0.00000000000E+00  0.74505805969E-08  0.10566000000E+00  0.10566000000E+00 0. -1.
     999900   -1    0    0    0    0 -0.00000000000E+00 -0.00000000000E+00 -0.74505805969E-08  0.93827000000E+00  0.93827000000E+00 0.  1.
     999902    2    1    2    0    0  0.23356819792E-01  0.28889076043E-02  0.28774808756E-02  0.10202199449E+01  0.10199443952E+01 0.  0.
     999903    2    3    3    0    0 -0.10938361974E+00  0.11476160892E-01 -0.61875120787E-01  0.12787098587E+00  0.20639280975E-01 0.  0.
         14    1    1    2    0    0 -0.23356819792E-01 -0.28889076043E-02 -0.28774808756E-02  0.23710055127E-01  0.00000000000E+00 0. -1.
     999901    1    3    3    0    0  0.13274043953E+00 -0.85872532881E-02  0.64752601663E-01  0.89234895900E+00  0.88000000000E+00 0.  1.
        -11    1    4    4    0    0 -0.24410392824E-01 -0.56376114043E-02 -0.16820113426E-01  0.30179915123E-01  0.51100000000E-03 0. -1.
         11    1    4    4    0    0 -0.84973226918E-01  0.17113772297E-01 -0.45055007362E-01  0.97691070750E-01  0.51100000000E-03 0.  1.
</event>
<event>
 8    1  0.1150863E+005  0.1043930E+01  0.7957747E-01            NaN
         13   -1    0    0    0    0  0.00000000000E+00  0.00000000000E+00  0.74505805969E-08  0.10566000000E+00  0.10566000000E+00 0. -1.
     999900   -1    0    0    0    0 -0.00000000000E+00 -0.00000000000E+00 -0.74505805969E-08  0.93827000000E+00  0.93827000000E+00 0. -1.
     999902    2    1    2    0    0 -0.89854408151E-02  0.20943127198E-01  0.53067439903E-02  0.10205309775E+01  0.10202626925E+01 0.  0.
     999903    2    3    3    0    0  0.79797939188E-01 -0.88761933627E-01 -0.42188345055E-01  0.12802132911E+00  0.19058129205E-01 0.  0.
         14    1    1    2    0    0  0.89854408151E-02 -0.20943127198E-01 -0.53067439903E-02  0.23399022528E-01  0.00000000000E+00 0. -1.
     999901    1    3    3    0    0 -0.88783380003E-01  0.10970506083E+00  0.47495089046E-01  0.89250964836E+00  0.88000000000E+00 0.  1.
        -11    1    4    4    0    0  0.46828452212E-01 -0.50152544978E-01 -0.14297584816E-01  0.70091823752E-01  0.51100000000E-03 0.  1.
         11    1    4    4    0    0  0.32969486976E-01 -0.38609388649E-01 -0.27890760239E-01  0.57929505358E-01  0.51100000000E-03 0. -1.
</event>
<event>
 8    1  0.1150863E+005  0.1043930E+01  0.7957747E-01            NaN
         13   -1    0    0    0    0  0.00000000000E+00  0.00000000000E+00  0.74505805969E-08  0.10566000000E+00  0.10566000000E+00 0. -1.
     999900   -1    0    0    0    0 -0.00000000000E+00 -0.00000000000E+00 -0.74505805969E-08  0.93827000000E+00  0.93827000000E+00 0.  1.
     999902    2    1    2    0    0 -0.15073525075E-01  0.97682274488E-02  0.14715195117E-01  0.10207100432E+01  0.10204458956E+01 0.  0.
     999903    2    3    3    0    0  0.42008293955E-01 -0.11878276407E-01 -0.11906821967E+00  0.12850776387E+00  0.20765698383E-01 0.  0.
         14    1    1    2    0    0  0.15073525075E-01 -0.97682274488E-02 -0.14715195117E-01  0.23219956783E-01  0.00000000000E+00 0. -1.
     999901    1    3    3    0    0 -0.57081819030E-01  0.21646503856E-01  0.13378341479E+00  0.89220227934E+00  0.88000000000E+00 0. -1.
        -11    1    4    4    0    0  0.22060043402E-01 -0.38683054653E-02 -0.33653274179E-01  0.40427877585E-01  0.51100000000E-03 0. -1.
         11    1    4    4    0    0  0.19948250553E-01 -0.80099709419E-02 -0.85414945490E-01  0.88079886289E-01  0.51100000000E-03 0.  1.
</event>
<event>
 8    1  0.1150863E+005  0.1043930E+01  0.7957747E-01            NaN
         13   -1    0    0    0    0  0.00000000000E+00  0.00000000000E+00  0.74505805969E-08  0.10566000000E+00  0.10566000000E+00 0.  1.
     999900   -1    0    0    0    0 -0.00000000000E+00 -0.00000000000E+00 -0.74505805969E-08  0.93827000000E+00  0.93827000000E+00 0.  1.
     999902    2    1    2    0    0  0.22537193397E-01 -0.55808406158E-02  0.17794584077E-03  0.10207114184E+01  0.10204473024E+01 0.  0.
     999903    2    3    3    0    0  0.82598668539E-01 -0.79005327702E-01  0.64675785798E-01  0.13326648630E+00  0.22641052360E-01 0.  0.
         14    1    1    2    0    0 -0.22537193397E-01  0.55808406158E-02 -0.17794584077E-03  0.23218581631E-01  0.00000000000E+00 0.  1.
     999901    1    3    3    0    0 -0.60061475141E-01  0.73424487086E-01 -0.64497839957E-01  0.88744493207E+00  0.88000000000E+00 0.  1.
        -11    1    4    4    0    0  0.13499907163E-01 -0.65604386729E-02  0.16002417691E-01  0.21945964138E-01  0.51100000000E-03 0.  1.
         11    1    4    4    0    0  0.69098761376E-01 -0.72444889029E-01  0.48673368107E-01  0.11132052216E+00  0.51100000000E-03 0. -1.
</event>
<event>
 8    1  0.1150863E+005  0.1043930E+01  0.7957747E-01            NaN
         13   -1    0    0    0    0  0.00000000000E+00  0.00000000000E+00  0.74505805969E-08  0.10566000000E+00  0.10566000000E+00 0.  1.
     999900   -1    0    0    0    0 -0.00000000000E+00 -0.00000000000E+00 -0.74505805969E-08  0.93827000000E+00  0.93827000000E+00 0. -1.
     999902    2    1    2    0    0  0.28267630760E-02 -0.13078254613E-01  0.28704482359E-01  0.10122601620E+01  0.10117646252E+01 0.  0.
     999903    2    3    3    0    0  0.55967066045E-01 -0.18064381001E-01  0.11048769746E+00  0.12685785368E+00  0.20657913940E-01 0.  0.
         14    1    1    2    0    0 -0.28267630760E-02  0.13078254613E-01 -0.28704482359E-01  0.31669838028E-01  0.00000000000E+00 0. -1.
     999901    1    3    3    0    0 -0.53140302969E-01  0.49861263883E-02 -0.81783215099E-01  0.88540230829E+00  0.88000000000E+00 0. -1.
        -11    1    4    4    0    0  0.34714284838E-01 -0.19581334869E-01  0.83005605236E-01  0.92079866793E-01  0.51100000000E-03 0. -1.
         11    1    4    4    0    0  0.21252781207E-01  0.15169538683E-02  0.27482092222E-01  0.34777986888E-01  0.51100000000E-03 0.  1.
</event>
<event>
 8    1  0.1150863E+005  0.1043930E+01  0.7957747E-01            NaN
         13   -1    0    0    0    0  0.00000000000E+00  0.00000000000E+00  0.74505805969E-08  0.10566000000E+00  0.10566000000E+00 0. -1.
     999900   -1    0    0    0    0 -0.00000000000E+00 -0.00000000000E+00 -0.74505805969E-08  0.93827000000E+00  0.93827000000E+00 0. -1.
     999902    2    1    2    0    0 -0.54356315404E-02 -0.12536661535E-01  0.20638114351E-01  0.10191783185E+01  0.10188777155E+01 0.  0.
     999903    2    3    3    0    0  0.27305647286E-01  0.81059050106E-01  0.96029830312E-01  0.13040609830E+00  0.21629937275E-01 0.  0.
         14    1    1    2    0    0  0.54356315404E-02  0.12536661535E-01 -0.20638114351E-01  0.24751681492E-01  0.00000000000E+00 0.  1.
     999901    1    3    3    0    0 -0.32741278827E-01 -0.93595711641E-01 -0.75391715960E-01  0.88877222021E+00  0.88000000000E+00 0. -1.
        -11    1    4    4    0    0  0.33325107955E-02  0.30507570432E-01  0.46300024350E-01  0.55549715190E-01  0.51100000000E-03 0. -1.
         11    1    4    4    0    0  0.23973136491E-01  0.50551479674E-01  0.49729805961E-01  0.74856383111E-01  0.51100000000E-03 0.  1.
</event>
<event>
 8    1  0.1150863E+005  0.1043930E+01  0.7957747E-01            NaN
         13   -1    0    0    0    0  0.00000000000E+00  0.00000000000E+00  0.74505805969E-08  0.10566000000E+00  0.10566000000E+00 0.  1.
     999900   -1    0    0    0    0 -0.00000000000E+00 -0.00000000000E+00 -0.74505805969E-08  0.93827000000E+00  0.93827000000E+00 0. -1.
     999902    2    1    2    0    0  0.13969037155E-01  0.16653282617E-01  0.46452269257E-02  0.10217029005E+01  0.10214610971E+01 0.  0.
     999903    2    3    3    0    0  0.88809683242E-01 -0.15016140904E-02  0.97707816374E-01  0.13345103970E+00  0.19311859927E-01 0.  0.
         14    1    1    2    0    0 -0.13969037155E-01 -0.16653282617E-01 -0.46452269257E-02  0.22227099544E-01  0.00000000000E+00 0. -1.
     999901    1    3    3    0    0 -0.74840646087E-01  0.18154896707E-01 -0.93062589449E-01  0.88825186076E+00  0.88000000000E+00 0. -1.
        -11    1    4    4    0    0  0.27757346158E-01  0.79867422933E-02  0.26869132188E-01  0.39452119129E-01  0.51100000000E-03 0. -1.
         11    1    4    4    0    0  0.61052337084E-01 -0.94883563837E-02  0.70838684187E-01  0.93998920571E-01  0.51100000000E-03 0.  1.
</event>
<event>
 8    1  0.1150863E+005  0.1043930E+01  0.7957747E-01            NaN
         13   -1    0    0    0    0  0.00000000000E+00  0.00000000000E+00  0.74505805969E-08  0.10566000000E+00  0.10566000000E+00 0. -1.
     999900   -1    0    0    0    0 -0.00000000000E+00 -0.00000000000E+00 -0.74505805969E-08  0.93827000000E+00  0.93827000000E+00 0. -1.
     999902    2    1    2    0    0  0.15945904471E-01  0.14637739735E-01  0.89943309054E-02  0.10204900068E+01  0.10202207705E+01 0.  0.
     999903    2    3    3    0    0  0.12758803703E+00  0.23934269209E-01 -0.19727198687E-01  0.13292292904E+00  0.20682994496E-01 0.  0.
         14    1    1    2    0    0 -0.15945904471E-01 -0.14637739735E-01 -0.89943309054E-02  0.23439993225E-01  0.00000000000E+00 0. -1.
     999901    1    3    3    0    0 -0.11164213255E+00 -0.92965294741E-02  0.28721529593E-01  0.88756707774E+00  0.88000000000E+00 0.  1.
        -11    1    4    4    0    0  0.88186325993E-01  0.17960325062E-01 -0.40314993186E-02  0.90088375921E-01  0.51100000000E-03 0.  1.
         11    1    4    4    0    0  0.39401711033E-01  0.59739441465E-02 -0.15695699369E-01  0.42834553116E-01  0.51100000000E-03 0. -1.
</event>
<event>
 8    1  0.1150863E+005  0.1043930E+01  0.7957747E-01            NaN
         13   -1    0    0    0    0  0.00000000000E+00  0.00000000000E+00  0.74505805969E-08  0.10566000000E+00  0.10566000000E+00 0.  1.
     999900   -1    0    0    0    0 -0.00000000000E+00 -0.00000000000E+00 -0.74505805969E-08  0.93827000000E+00  0.93827000000E+00 0. -1.
     999902    2    1    2    0    0  0.11566362231E-01  0.12455335532E-01  0.16193563494E-01  0.10204534667E+01  0.10201833806E+01 0.  0.
     999903    2    3    3    0    0 -0.31320016363E-01  0.11676647012E+00  0.50778806725E-01  0.13258174547E+00  0.19597960336E-01 0.  0.
         14    1    1    2    0    0 -0.11566362231E-01 -0.12455335532E-01 -0.16193563494E-01  0.23476533328E-01  0.00000000000E+00 0. -1.
     999901    1    3    3    0    0  0.42886378594E-01 -0.10431113459E+00 -0.34585243231E-01  0.88787172121E+00  0.88000000000E+00 0.  1.
        -11    1    4    4    0    0 -0.29515303908E-01  0.10302271234E+00  0.37955312425E-01  0.11369124542E+00  0.51100000000E-03 0.  1.
         11    1    4    4    0    0 -0.18047124553E-02  0.13743757775E-01  0.12823494300E-01  0.18890500044E-01  0.51100000000E-03 0. -1.
</event>
<event>
 8    1  0.1150863E+005  0.1043930E+01  0.7957747E-01            NaN
         13   -1    0    0    0    0  0.00000000000E+00  0.00000000000E+00  0.74505805969E-08  0.10566000000E+00  0.10566000000E+00 0.  1.
     999900   -1    0    0    0    0 -0.00000000000E+00 -0.00000000000E+00 -0.74505805969E-08  0.93827000000E+00  0.93827000000E+00 0. -1.
     999902    2    1    2    0    0  0.15865066554E-01  0.46327829269E-02  0.16957718645E-01  0.10202503202E+01  0.10199754843E+01 0.  0.
     999903    2    3    3    0    0 -0.20791326704E-01 -0.12638483036E+00  0.26109962837E-02  0.12968020245E+00  0.20117976928E-01 0.  0.
         14    1    1    2    0    0 -0.15865066554E-01 -0.46327829269E-02 -0.16957718645E-01  0.23679679813E-01  0.00000000000E+00 0. -1.
     999901    1    3    3    0    0  0.36656393257E-01  0.13101761329E+00  0.14346722362E-01  0.89057011773E+00  0.88000000000E+00 0. -1.
        -11    1    4    4    0    0 -0.13509176023E-01 -0.93473539338E-01 -0.67691055443E-02  0.94688343021E-01  0.51100000000E-03 0. -1.
         11    1    4    4    0    0 -0.72821506812E-02 -0.32911291022E-01  0.93801018280E-02  0.34991859433E-01  0.51100000000E-03 0.  1.
</event>
<event>
 8    1  0.1150863E+005  0.1043930E+01  0.7957747E-01            NaN
         13   -1    0    0    0    0  0.00000000000E+00  0.00000000000E+00  0.74505805969E-08  0.10566000000E+00  0.10566000000E+00 0. -1.
     999900   -1    0    0    0    0 -0.00000000000E+00 -0.00000000000E+00 -0.74505805969E-08  0.93827000000E+00  0.93827000000E+00 0.  1.
     999902    2    1    2    0    0  0.11577724100E-01 -0.20170135405E-01  0.34163516457E-02  0.10204236282E+01  0.10201528471E+01 0.  0.
     999903    2    3    3    0    0 -0.28174628008E-02  0.70338303711E-01  0.10691584530E+00  0.12963120334E+00  0.20441033238E-01 0.  0.
         14    1    1    2    0    0 -0.11577724100E-01  0.20170135405E-01 -0.34163516457E-02  0.23506371820E-01  0.00000000000E+00 0.  1.
     999901    1    3    3    0    0  0.14395186900E-01 -0.90508439116E-01 -0.10349949365E+00  0.89079242483E+00  0.88000000000E+00 0.  1.
        -11    1    4    4    0    0  0.55452296439E-02  0.14992052864E-01  0.14516672259E-01  0.21598752634E-01  0.51100000000E-03 0.  1.
         11    1    4    4    0    0 -0.83626924447E-02  0.55346250847E-01  0.92399173036E-01  0.10803245071E+00  0.51100000000E-03 0. -1.
</event>
<event>
 8    1  0.1150863E+005  0.1043930E+01  0.7957747E-01            NaN
         13   -1    0    0    0    0  0.00000000000E+00  0.00000000000E+00  0.74505805969E-08  0.10566000000E+00  0.10566000000E+00 0.  1.
     999900   -1    0    0    0    0 -0.00000000000E+00 -0.00000000000E+00 -0.74505805969E-08  0.93827000000E+00  0.93827000000E+00 0.  1.
     999902    2    1    2    0    0 -0.13215601098E-01  0.13487299653E-01 -0.16013075798E-01  0.10191716083E+01  0.10188708403E+01 0.  0.
     999903    2    3    3    0    0  0.65928964468E-01  0.99585174726E-01  0.46111733608E-01  0.12926363646E+00  0.17859461199E-01 0.  0.
         14    1    1    2    0    0  0.13215601098E-01 -0.13487299653E-01  0.16013075798E-01  0.24758391725E-01  0.00000000000E+00 0.  1.
     999901    1    3    3    0    0 -0.79144565566E-01 -0.86097875073E-01 -0.62124809406E-01  0.88990797181E+00  0.88000000000E+00 0.  1.
        -11    1    4    4    0    0  0.32587239413E-01  0.63346414104E-01  0.22963497851E-01  0.74848378118E-01  0.51100000000E-03 0.  1.
         11    1    4    4    0    0  0.33341725055E-01  0.36238760622E-01  0.23148235758E-01  0.54415258345E-01  0.51100000000E-03 0. -1.
</event>
<event>
 8    1  0.1150863E+005  0.1043930E+01  0.7957747E-01            NaN
         13   -1    0    0    0    0  0.00000000000E+00  0.00000000000E+00  0.74505805969E-08  0.10566000000E+00  0.10566000000E+00 0.  1.
     999900   -1    0    0    0    0 -0.00000000000E+00 -0.00000000000E+00 -0.74505805969E-08  0.93827000000E+00  0.93827000000E+00 0.  1.
     999902    2    1    2    0    0  0.13872680681E-01  0.16226342635E-01  0.10206692949E-01  0.10202673280E+01  0.10199928914E+01 0.  0.
     999903    2    3    3    0    0 -0.36495433092E-01 -0.11542409477E+00  0.38373686997E-01  0.12860474379E+00  0.20297831915E-01 0.  0.
         14    1    1    2    0    0 -0.13872680681E-01 -0.16226342635E-01 -0.10206692949E-01  0.23662671986E-01  0.00000000000E+00 0. -1.
     999901    1    3    3    0    0  0.50368113773E-01  0.13165043741E+00 -0.28166994049E-01  0.89166258423E+00  0.88000000000E+00 0. -1.
        -11    1    4    4    0    0 -0.99271384007E-02 -0.35611954271E-01  0.22048253540E-02  0.37038921956E-01  0.51100000000E-03 0. -1.
         11    1    4    4    0    0 -0.26568294691E-01 -0.79812140501E-01  0.36168861643E-01  0.91565821832E-01  0.51100000000E-03 0.  1.
</event>
<event>
 8    1  0.1150863E+005  0.1043930E+01  0.7957747E-01            NaN
         13   -1    0    0    0    0  0.00000000000E+00  0.00000000000E+00  0.74505805969E-08  0.10566000000E+00  0.10566000000E+00 0.  1.
     999900   -1    0    0    0    0 -0.00000000000E+00 -0.00000000000E+00 -0.74505805969E-08  0.93827000000E+00  0.93827000000E+00 0.  1.
     999902    2    1    2    0    0 -0.22167917628E-01  0.39047647498E-02  0.82503906238E-02  0.10199564165E+01  0.10196746338E+01 0.  0.
     999903    2    3    3    0    0  0.34895002911E-01  0.12001852845E+00 -0.29687738830E-01  0.12968798245E+00  0.17762391614E-01 0.  0.
         14    1    1    2    0    0  0.22167917628E-01 -0.39047647498E-02 -0.82503906238E-02  0.23973583486E-01  0.00000000000E+00 0.  1.
     999901    1    3    3    0    0 -0.57062920539E-01 -0.11611376370E+00  0.37938129453E-01  0.89026843406E+00  0.88000000000E+00 0. -1.
        -11    1    4    4    0    0  0.69813511188E-02  0.31581270118E-01 -0.11581768696E-03  0.32347958520E-01  0.51100000000E-03 0.  1.
         11    1    4    4    0    0  0.27913651792E-01  0.88437258333E-01 -0.29571921143E-01  0.97340023931E-01  0.51100000000E-03 0. -1.
</event>
<event>
 8    1  0.1150863E+005  0.1043930E+01  0.7957747E-01            NaN
         13   -1    0    0    0    0  0.00000000000E+00  0.00000000000E+00  0.74505805969E-08  0.10566000000E+00  0.10566000000E+00 0.  1.
     999900   -1    0    0    0    0 -0.00000000000E+00 -0.00000000000E+00 -0.74505805969E-08  0.93827000000E+00  0.93827000000E+00 0.  1.
     999902    2    1    2    0    0 -0.12250130493E-01 -0.74908690629E-02 -0.19072388840E-01  0.10200566921E+01  0.10197772895E+01 0.  0.
     999903    2    3    3    0    0  0.51376484893E-01  0.10226018190E+00  0.53064245691E-01  0.12803800760E+00  0.21936937248E-01 0.  0.
         14    1    1    2    0    0  0.12250130493E-01  0.74908690629E-02  0.19072388840E-01  0.23873307950E-01  0.00000000000E+00 0.  1.
     999901    1    3    3    0    0 -0.63626615386E-01 -0.10975105097E+00 -0.72136634531E-01  0.89201868445E+00  0.88000000000E+00 0.  1.
        -11    1    4    4    0    0  0.12211071331E-01  0.94113270824E-02  0.10413190608E-01  0.18611260036E-01  0.51100000000E-03 0.  1.
         11    1    4    4    0    0  0.39165413561E-01  0.92848854820E-01  0.42651055083E-01  0.10942674756E+00  0.51100000000E-03 0. -1.
</event>
<event>
 8    1  0.1150863E+005  0.1043930E+01  0.7957747E-01            NaN
         13   -1    0    0    0    0  0.00000000000E+00  0.00000000000E+00  0.74505805969E-08  0.10566000000E+00  0.10566000000E+00 0. -1.
     999900   -1    0    0    0    0 -0.00000000000E+00 -0.00000000000E+00 -0.74505805969E-08  0.93827000000E+00  0.93827000000E+00 0. -1.
     999902    2    1    2    0    0  0.73525888094E-02  0.10902649398E-01 -0.21026283346E-01  0.10191301428E+01  0.10188283541E+01 0.  0.
     999903    2    3    3    0    0  0.55538437021E-01  0.13525777323E-01  0.11237836052E+00  0.12776851260E+00  0.20698605274E-01 0.  0.
         14    1    1    2    0    0 -0.73525888094E-02 -0.10902649398E-01  0.21026283346E-01  0.24799857206E-01  0.00000000000E+00 0. -1.
     999901    1    3    3    0    0 -0.48185848212E-01 -0.26231279251E-02 -0.13340464387E+00  0.89136163019E+00  0.88000000000E+00 0. -1.
        -11    1    4    4    0    0  0.19516601852E-01  0.14880907789E-01  0.40570805846E-01  0.47419305905E-01  0.51100000000E-03 0.  1.
         11    1    4    4    0    0  0.36021835169E-01 -0.13551304661E-02  0.71807554677E-01  0.80349206699E-01  0.51100000000E-03 0. -1.
</event>
<event>
 8    1  0.1150863E+005  0.1043930E+01  0.7957747E-01            NaN
         13   -1    0    0    0    0  0.00000000000E+00  0.00000000000E+00  0.74505805969E-08  0.10566000000E+00  0.10566000000E+00 0.  1.
     999900   -1    0    0    0    0 -0.00000000000E+00 -0.00000000000E+00 -0.74505805969E-08  0.93827000000E+00  0.93827000000E+00 0.  1.
     999902    2    1    2    0    0 -0.22283235588E-01  0.13866441921E-02 -0.95492649071E-02  0.10196472112E+01  0.10193580242E+01 0.  0.
     999903    2    3    3    0    0  0.78113231568E-01 -0.79686454290E-01 -0.60823363964E-01  0.12875926589E+00  0.20684752948E-01 0.  0.
         14    1    1    2    0    0  0.22283235588E-01 -0.13866441921E-02  0.95492649071E-02  0.24282788774E-01  0.00000000000E+00 0.  1.
     999901    1    3    3    0    0 -0.10039646716E+00  0.81073098483E-01  0.51274099057E-01  0.89088794534E+00  0.88000000000E+00 0. -1.
        -11    1    4    4    0    0  0.59518771393E-01 -0.49505802195E-01 -0.47825051806E-01  0.90998930215E-01  0.51100000000E-03 0. -1.
         11    1    4    4    0    0  0.18594460176E-01 -0.30180652095E-01 -0.12998312159E-01  0.37760335673E-01  0.51100000000E-03 0.  1.
</event>
<event>
 8    1  0.1150863E+005  0.1043930E+01  0.7957747E-01            NaN
         13   -1    0    0    0    0  0.00000000000E+00  0.00000000000E+00  0.74505805969E-08  0.10566000000E+00  0.10566000000E+00 0.  1.
     999900   -1    0    0    0    0 -0.00000000000E+00 -0.00000000000E+00 -0.74505805969E-08  0.93827000000E+00  0.93827000000E+00 0.  1.
     999902    2    1    2    0    0 -0.85833873626E-02  0.92354109950E-02  0.20113295367E-01  0.10201915922E+01  0.10199153753E+01 0.  0.
     999903    2    3    3    0    0 -0.10000899860E+00  0.26157497965E-01  0.81342131129E-01  0.13317751691E+00  0.20825326223E-01 0.  0.
         14    1    1    2    0    0  0.85833873626E-02 -0.92354109950E-02 -0.20113295367E-01  0.23738407811E-01  0.00000000000E+00 0. -1.
     999901    1    3    3    0    0  0.91425611239E-01 -0.16922086970E-01 -0.61228835761E-01  0.88701407528E+00  0.88000000000E+00 0.  1.
        -11    1    4    4    0    0 -0.55561852671E-01  0.22180373541E-01  0.37448943233E-01  0.70581675475E-01  0.51100000000E-03 0. -1.
         11    1    4    4    0    0 -0.44447145930E-01  0.39771244239E-02  0.43893187896E-01  0.62595841433E-01  0.51100000000E-03 0.  1.
</event>
<event>
 8    1  0.1150863E+005  0.1043930E+01  0.7957747E-01            NaN
         13   -1    0    0    0    0  0.00000000000E+00  0.00000000000E+00  0.74505805969E-08  0.10566000000E+00  0.10566000000E+00 0. -1.
     999900   -1    0    0    0    0 -0.00000000000E+00 -0.00000000000E+00 -0.74505805969E-08  0.93827000000E+00  0.93827000000E+00 0.  1.
     999902    2    1    2    0    0 -0.96549907350E-02  0.76582005071E-02 -0.18069144241E-01  0.10220585379E+01  0.10218244928E+01 0.  0.
     999903    2    3    3    0    0 -0.11271349807E+00  0.31523747389E-01 -0.63213402132E-01  0.13457410181E+00  0.20400376781E-01 0.  0.
         14    1    1    2    0    0  0.96549907350E-02 -0.76582005071E-02  0.18069144241E-01  0.21871462107E-01  0.00000000000E+00 0. -1.
     999901    1    3    3    0    0  0.10305850734E+00 -0.23865546882E-01  0.45144257891E-01  0.88748443608E+00  0.88000000000E+00 0.  1.
        -11    1    4    4    0    0 -0.13026597899E-01  0.43779364496E-03 -0.14002422653E-01  0.19136689297E-01  0.51100000000E-03 0.  1.
         11    1    4    4    0    0 -0.99686900172E-01  0.31085953744E-01 -0.49210979479E-01  0.11543741252E+00  0.51100000000E-03 0. -1.
</event>
<event>
 7    1  0.1150863E+005  0.1043930E+01  0.7957747E-01            NaN
         13   -1    0    0    0    0  0.00000000000E+00  0.00000000000E+00  0.74505805969E-08  0.10566000000E+00  0.10566000000E+00 0. -1.
     999900   -1    0    0    0    0 -0.00000000000E+00 -0.00000000000E+00 -0.74505805969E-08  0.93827000000E+00  0.93827000000E+00 0. -1.
     999903    2    1    2    0    0 -0.45506370304E-01 -0.46287756668E-01  0.82041342104E-01  0.10644549424E+00  0.19658974403E-01 0.  0.
         14    1    1    2    0    0  0.11561703420E-01 -0.16641151941E-01  0.41307367930E-01  0.46009776887E-01  0.00000000000E+00 0. -1.
     999901    1    1    2    0    0  0.33944666884E-01  0.62928908609E-01 -0.12334871003E+00  0.89147472887E+00  0.88000000000E+00 0. -1.
        -11    1    3    3    0    0  0.12700042688E-02 -0.40998154374E-02  0.25418710780E-02  0.50143421344E-02  0.51100000000E-03 0.  1.
         11    1    3    3    0    0 -0.46776374573E-01 -0.42187941231E-01  0.79499471026E-01  0.10143115211E+00  0.51100000000E-03 0. -1.
</event>
<event>
 8    1  0.1150863E+005  0.1043930E+01  0.7957747E-01            NaN
         13   -1    0    0    0    0  0.00000000000E+00  0.00000000000E+00  0.74505805969E-08  0.10566000000E+00  0.10566000000E+00 0. -1.
     999900   -1    0    0    0    0 -0.00000000000E+00 -0.00000000000E+00 -0.74505805969E-08  0.93827000000E+00  0.93827000000E+00 0. -1.
     999902    2    1    2    0    0  0.14521299806E-01  0.14614612508E-01 -0.99675110104E-02  0.10210431845E+01  0.10207866468E+01 0.  0.
     999903    2    3    3    0    0  0.92044764230E-01 -0.15244949201E-01 -0.92950765142E-01  0.13324382576E+00  0.20234259657E-01 0.  0.
         14    1    1    2    0    0 -0.14521299806E-01 -0.14614612508E-01  0.99675110104E-02  0.22886815474E-01  0.00000000000E+00 0.  1.
     999901    1    3    3    0    0 -0.77523464424E-01  0.29859561709E-01  0.82983254132E-01  0.88779935877E+00  0.88000000000E+00 0.  1.
        -11    1    4    4    0    0  0.66749742845E-01 -0.38891131920E-02 -0.57162784436E-01  0.87968735451E-01  0.51100000000E-03 0.  1.
         11    1    4    4    0    0  0.25295021385E-01 -0.11355836009E-01 -0.35787980706E-01  0.45275090307E-01  0.51100000000E-03 0. -1.
</event>
<event>
 8    1  0.1150863E+005  0.1043930E+01  0.7957747E-01            NaN
         13   -1    0    0    0    0  0.00000000000E+00  0.00000000000E+00  0.74505805969E-08  0.10566000000E+00  0.10566000000E+00 0. -1.
     999900   -1    0    0    0    0 -0.00000000000E+00 -0.00000000000E+00 -0.74505805969E-08  0.93827000000E+00  0.93827000000E+00 0.  1.
     999902    2    1    2    0    0 -0.24775955083E-02  0.12213906010E-01  0.20512597768E-01  0.10199282366E+01  0.10196457832E+01 0.  0.
     999903    2    3    3    0    0  0.19363143343E-01  0.11506250406E+00  0.59919280863E-01  0.13279367032E+00  0.20725045196E-01 0.  0.
         14    1    1    2    0    0  0.24775955083E-02 -0.12213906010E-01 -0.20512597768E-01  0.24001763408E-01  0.00000000000E+00 0. -1.
     999901    1    3    3    0    0 -0.21840738851E-01 -0.10284859805E+00 -0.39406683095E-01  0.88713456627E+00  0.88000000000E+00 0.  1.
        -11    1    4    4    0    0  0.13629905073E-01  0.92364828806E-01  0.56495525282E-01  0.10912855451E+00  0.51100000000E-03 0. -1.
         11    1    4    4    0    0  0.57332382692E-02  0.22697675254E-01  0.34237555817E-02  0.23665115809E-01  0.51100000000E-03 0.  1.
</event>
<event>
 8    1  0.1150863E+005  0.1043930E+01  0.7957747E-01            NaN
         13   -1    0    0    0    0  0.00000000000E+00  0.00000000000E+00  0.74505805969E-08  0.10566000000E+00  0.10566000000E+00 0. -1.
     999900   -1    0    0    0    0 -0.00000000000E+00 -0.00000000000E+00 -0.74505805969E-08  0.93827000000E+00  0.93827000000E+00 0. -1.
     999902    2    1    2    0    0  0.13414512006E-02 -0.11887076110E-01  0.21137742395E-01  0.10196420148E+01  0.10193527026E+01 0.  0.
     999903    2    3    3    0    0  0.10630008561E+00 -0.58236723235E-01 -0.41677954838E-01  0.12997330316E+00  0.21558837616E-01 0.  0.
         14    1    1    2    0    0 -0.13414512006E-02  0.11887076110E-01 -0.21137742395E-01  0.24287985164E-01  0.00000000000E+00 0.  1.
     999901    1    3    3    0    0 -0.10495863441E+00  0.46349647126E-01  0.62815697232E-01  0.88966871168E+00  0.88000000000E+00 0. -1.
        -11    1    4    4    0    0  0.72651998565E-01 -0.49558519327E-01 -0.25033367258E-01  0.91440091484E-01  0.51100000000E-03 0. -1.
         11    1    4    4    0    0  0.33648087047E-01 -0.86782039084E-02 -0.16644587579E-01  0.38533211671E-01  0.51100000000E-03 0.  1.
</event>
<event>
 8    1  0.1150863E+005  0.1043930E+01  0.7957747E-01            NaN
         13   -1    0    0    0    0  0.00000000000E+00  0.00000000000E+00  0.74505805969E-08  0.10566000000E+00  0.10566000000E+00 0.  1.
     999900   -1    0    0    0    0 -0.00000000000E+00 -0.00000000000E+00 -0.74505805969E-08  0.93827000000E+00  0.93827000000E+00 0. -1.
     999902    2    1    2    0    0  0.69401922043E-02  0.26525981095E-02 -0.22161199112E-01  0.10205564831E+01  0.10202887895E+01 0.  0.
     999903    2    3    3    0    0  0.49998828713E-01 -0.50616111427E-01 -0.11106316294E+00  0.13342900596E+00  0.20159361592E-01 0.  0.
         14    1    1    2    0    0 -0.69401922043E-02 -0.26525981095E-02  0.22161199112E-01  0.23373516865E-01  0.00000000000E+00 0.  1.
     999901    1    3    3    0    0 -0.43058636509E-01  0.53268709537E-01  0.88901963827E-01  0.88712747718E+00  0.88000000000E+00 0.  1.
        -11    1    4    4    0    0  0.31660233858E-01 -0.28719405574E-01 -0.48486144280E-01  0.64640095704E-01  0.51100000000E-03 0. -1.
         11    1    4    4    0    0  0.18338594855E-01 -0.21896705853E-01 -0.62577018659E-01  0.68788910252E-01  0.51100000000E-03 0.  1.
</event>
<event>
 8    1  0.1150863E+005  0.1043930E+01  0.7957747E-01            NaN
         13   -1    0    0    0    0  0.00000000000E+00  0.00000000000E+00  0.74505805969E-08  0.10566000000E+00  0.10566000000E+00 0. -1.
     999900   -1    0    0    0    0 -0.00000000000E+00 -0.00000000000E+00 -0.74505805969E-08  0.93827000000E+00  0.93827000000E+00 0.  1.
     999902    2    1    2    0    0 -0.12506805092E-02 -0.13680400274E-01  0.18641687754E-01  0.10207733578E+01  0.10205106653E+01 0.  0.
     999903    2    3    3    0    0 -0.23327901910E-01  0.10643455072E+00 -0.64804796716E-01  0.12842907399E+00  0.20539249604E-01 0.  0.
         14    1    1    2    0    0  0.12506805092E-02  0.13680400274E-01 -0.18641687754E-01  0.23156642151E-01  0.00000000000E+00 0.  1.
     999901    1    3    3    0    0  0.22077221401E-01 -0.12011495100E+00  0.83446484470E-01  0.89234428385E+00  0.88000000000E+00 0. -1.
        -11    1    4    4    0    0 -0.60819381168E-02  0.54584483875E-01 -0.22641497159E-01  0.59408369492E-01  0.51100000000E-03 0.  1.
         11    1    4    4    0    0 -0.17245963793E-01  0.51850066850E-01 -0.42163299557E-01  0.69020704502E-01  0.51100000000E-03 0. -1.
</event>
<event>
 8    1  0.1150863E+005  0.1043930E+01  0.7957747E-01            NaN
         13   -1    0    0    0    0  0.00000000000E+00  0.00000000000E+00  0.74505805969E-08  0.10566000000E+00  0.10566000000E+00 0. -1.
     999900   -1    0    0    0    0 -0.00000000000E+00 -0.00000000000E+00 -0.74505805969E-08  0.93827000000E+00  0.93827000000E+00 0.  1.
     999902    2    1    2    0    0 -0.15578529444E-01  0.93412696424E-02  0.15773935150E-01  0.10198724247E+01  0.10195886405E+01 0.  0.
     999903    2    3    3    0    0 -0.52294314001E-01  0.91805004786E-01 -0.74912426970E-01  0.13061861803E+00  0.16926236429E-01 0.  0.
         14    1    1    2    0    0  0.15578529444E-01 -0.93412696424E-02 -0.15773935150E-01  0.24057575279E-01  0.00000000000E+00 0.  1.
     999901    1    3    3    0    0  0.36715784556E-01 -0.82463735143E-01  0.90686362120E-01  0.88925380670E+00  0.88000000000E+00 0. -1.
        -11    1    4    4    0    0 -0.20779131330E-01  0.23231590399E-01 -0.17139271236E-01  0.35573794158E-01  0.51100000000E-03 0.  1.
         11    1    4    4    0    0 -0.31515182671E-01  0.68573414386E-01 -0.57773155734E-01  0.95044823867E-01  0.51100000000E-03 0. -1.
</event>
<event>
 8    1  0.1150863E+005  0.1043930E+01  0.7957747E-01            NaN
         13   -1    0    0    0    0  0.00000000000E+00  0.00000000000E+00  0.74505805969E-08  0.10566000000E+00  0.10566000000E+00 0.  1.
     999900   -1    0    0    0    0 -0.00000000000E+00 -0.00000000000E+00 -0.74505805969E-08  0.93827000000E+00  0.93827000000E+00 0. -1.
     999902    2    1    2    0    0 -0.11863347331E-01  0.20108728367E-01  0.48974693129E-02  0.10200744939E+01  0.10197955128E+01 0.  0.
     999903    2    3    3    0    0  0.50821010617E-01  0.21149217203E-01 -0.11613895822E+00  0.12958012100E+00  0.16513195763E-01 0.  0.
         14    1    1    2    0    0  0.11863347331E-01 -0.20108728367E-01 -0.48974693129E-02  0.23855506117E-01  0.00000000000E+00 0. -1.
     999901    1    3    3    0    0 -0.62684357948E-01 -0.10404888367E-02  0.12103642753E+00  0.89049437288E+00  0.88000000000E+00 0.  1.
        -11    1    4    4    0    0  0.93441750123E-02 -0.25022073080E-02 -0.17973961708E-01  0.20418106390E-01  0.51100000000E-03 0.  1.
         11    1    4    4    0    0  0.41476835604E-01  0.23651424511E-01 -0.98164996508E-01  0.10916201461E+00  0.51100000000E-03 0. -1.
</event>
<event>
 8    1  0.1150863E+005  0.1043930E+01  0.7957747E-01            NaN
         13   -1    0    0    0    0  0.00000000000E+00  0.00000000000E+00  0.74505805969E-08  0.10566000000E+00  0.10566000000E+00 0.  1.
     999900   -1    0    0    0    0 -0.00000000000E+00 -0.00000000000E+00 -0.74505805969E-08  0.93827000000E+00  0.93827000000E+00 0.  1.
     999902    2    1    2    0    0  0.16864006179E-01  0.13777789782E-01  0.84942713941E-02  0.10205553376E+01  0.10202876174E+01 0.  0.
     999903    2    3    3    0    0  0.49749312981E-01  0.10520872199E+00  0.62373502743E-01  0.13356941306E+00  0.20160975529E-01 0.  0.
         14    1    1    2    0    0 -0.16864006179E-01 -0.13777789782E-01 -0.84942713941E-02  0.23374662398E-01  0.00000000000E+00 0. -1.
     999901    1    3    3    0    0 -0.32885306801E-01 -0.91430932213E-01 -0.53879231349E-01  0.88698592454E+00  0.88000000000E+00 0.  1.
        -11    1    4    4    0    0  0.50367287506E-01  0.92191371922E-01  0.54803617751E-01  0.11848970566E+00  0.51100000000E-03 0. -1.
         11    1    4    4    0    0 -0.61797452547E-03  0.13017350073E-01  0.75698849919E-02  0.15079707398E-01  0.51100000000E-03 0.  1.
</event>
<event>
 8    1  0.1150863E+005  0.1043930E+01  0.7957747E-01            NaN
         13   -1    0    0    0    0  0.00000000000E+00  0.00000000000E+00  0.74505805969E-08  0.10566000000E+00  0.10566000000E+00 0. -1.
     999900   -1    0    0    0    0 -0.00000000000E+00 -0.00000000000E+00 -0.74505805969E-08  0.93827000000E+00  0.93827000000E+00 0. -1.
     999902    2    1    2    0    0  0.21365372863E-01  0.16371902832E-02 -0.12206645870E-01  0.10192690642E+01  0.10189706883E+01 0.  0.
     999903    2    3    3    0    0  0.47849073164E-02 -0.10203135676E-01  0.12601931180E+00  0.12824632573E+00  0.20958382579E-01 0.  0.
         14    1    1    2    0    0 -0.21365372863E-01 -0.16371902832E-02  0.12206645870E-01  0.24660935769E-01  0.00000000000E+00 0. -1.
     999901    1    3    3    0    0  0.16580465547E-01  0.11840325959E-01 -0.13822595767E+00  0.89102273850E+00  0.88000000000E+00 0. -1.
        -11    1    4    4    0    0 -0.56980987435E-02 -0.31169514318E-02  0.86557794419E-01  0.86802630209E-01  0.51100000000E-03 0. -1.
         11    1    4    4    0    0  0.10483006060E-01 -0.70861842440E-02  0.39461517381E-01  0.41443695518E-01  0.51100000000E-03 0.  1.
</event>
<event>
 8    1  0.1150863E+005  0.1043930E+01  0.7957747E-01            NaN
         13   -1    0    0    0    0  0.00000000000E+00  0.00000000000E+00  0.74505805969E-08  0.10566000000E+00  0.10566000000E+00 0. -1.
     999900   -1    0    0    0    0 -0.00000000000E+00 -0.00000000000E+00 -0.74505805969E-08  0.93827000000E+00  0.93827000000E+00 0. -1.
     999902    2    1    2    0    0 -0.18427278297E-01 -0.27907031854E-02  0.16170479769E-01  0.10192553769E+01  0.10189566656E+01 0.  0.
     999903    2    3    3    0    0 -0.12440317259E+00 -0.57821633843E-04  0.40962663085E-01  0.13254628639E+00  0.20357445215E-01 0.  0.
         14    1    1    2    0    0  0.18427278297E-01  0.27907031854E-02 -0.16170479769E-01  0.24674623111E-01  0.00000000000E+00 0.  1.
     999901    1    3    3    0    0  0.10597589429E+00 -0.27328815516E-02 -0.24792183317E-01  0.88670909050E+00  0.88000000000E+00 0.  1.
        -11    1    4    4    0    0 -0.80028285416E-01 -0.86603525529E-02  0.21416086912E-01  0.83297287307E-01  0.51100000000E-03 0.  1.
         11    1    4    4    0    0 -0.44374887175E-01  0.86025309191E-02  0.19546576174E-01  0.49248999088E-01  0.51100000000E-03 0. -1.
</event>
<event>
 8    1  0.1150863E+005  0.1043930E+01  0.7957747E-01            NaN
         13   -1    0    0    0    0  0.00000000000E+00  0.00000000000E+00  0.74505805969E-08  0.10566000000E+00  0.10566000000E+00 0.  1.
     999900   -1    0    0    0    0 -0.00000000000E+00 -0.00000000000E+00 -0.74505805969E-08  0.93827000000E+00  0.93827000000E+00 0.  1.
     999902    2    1    2    0    0 -0.59133698457E-02  0.22748066884E-01  0.32126787079E-02  0.10202073569E+01  0.10199315111E+01 0.  0.
     999903    2    3    3    0    0  0.48884819299E-01 -0.22605396842E-01 -0.11585328979E+00  0.12934458239E+00  0.20181841198E-01 0.  0.
         14    1    1    2    0    0  0.59133698457E-02 -0.22748066884E-01 -0.32126787079E-02  0.23722643073E-01  0.00000000000E+00 0. -1.
     999901    1    3    3    0    0 -0.54798189145E-01  0.45353463725E-01  0.11906596850E+00  0.89086277454E+00  0.88000000000E+00 0. -1.
        -11    1    4    4    0    0  0.16062358410E-01 -0.91106519388E-02 -0.20476448543E-01  0.27578060163E-01  0.51100000000E-03 0. -1.
         11    1    4    4    0    0  0.32822460890E-01 -0.13494744903E-01 -0.95376841246E-01  0.10176652223E+00  0.51100000000E-03 0.  1.
</event>
<event>
 8    1  0.1150863E+005  0.1043930E+01  0.7957747E-01            NaN
         13   -1    0    0    0    0  0.00000000000E+00  0.00000000000E+00  0.74505805969E-08  0.10566000000E+00  0.10566000000E+00 0.  1.
     999900   -1    0    0    0    0 -0.00000000000E+00 -0.00000000000E+00 -0.74505805969E-08  0.93827000000E+00  0.93827000000E+00 0.  1.
     999902    2    1    2    0    0  0.12668068933E-01  0.19181354200E-01 -0.57127877903E-02  0.10202437115E+01  0.10199687204E+01 0.  0.
     999903    2    3    3    0    0 -0.78816601994E-02  0.96287675678E-01 -0.88667490857E-01  0.13274770645E+00  0.20654117721E-01 0.  0.
         14    1    1    2    0    0 -0.12668068933E-01 -0.19181354200E-01  0.57127877903E-02  0.23686288519E-01  0.00000000000E+00 0. -1.
     999901    1    3    3    0    0  0.20549729133E-01 -0.77106321477E-01  0.82954703067E-01  0.88749600503E+00  0.88000000000E+00 0. -1.
        -11    1    4    4    0    0  0.37507473145E-02  0.54231460181E-01 -0.57441881755E-01  0.79088243623E-01  0.51100000000E-03 0. -1.
         11    1    4    4    0    0 -0.11632407514E-01  0.42056215497E-01 -0.31225609102E-01  0.53659462831E-01  0.51100000000E-03 0.  1.
</event>
<event>
 8    1  0.1150863E+005  0.1043930E+01  0.7957747E-01            NaN
         13   -1    0    0    0    0  0.00000000000E+00  0.00000000000E+00  0.74505805969E-08  0.10566000000E+00  0.10566000000E+00 0. -1.
     999900   -1    0    0    0    0 -0.00000000000E+00 -0.00000000000E+00 -0.74505805969E-08  0.93827000000E+00  0.93827000000E+00 0.  1.
     999902    2    1    2    0    0  0.18656554707E-02 -0.10563505454E-01  0.21669539571E-01  0.10197507266E+01  0.10194640293E+01 0.  0.
     999903    2    3    3    0    0  0.11923033968E+00  0.20936138252E-01 -0.40479675285E-01  0.12922884501E+00  0.20181538251E-01 0.  0.
         14    1    1    2    0    0 -0.18656554707E-02  0.10563505454E-01 -0.21669539571E-01  0.24179273418E-01  0.00000000000E+00 0.  1.
     999901    1    3    3    0    0 -0.11736468421E+00 -0.31499643706E-01  0.62149214856E-01  0.89052188157E+00  0.88000000000E+00 0.  1.
        -11    1    4    4    0    0  0.38638904340E-01  0.11228133385E-01 -0.46873288455E-02  0.40512566947E-01  0.51100000000E-03 0. -1.
         11    1    4    4    0    0  0.80591435339E-01  0.97080048678E-02 -0.35792346440E-01  0.88716278062E-01  0.51100000000E-03 0.  1.
</event>
<event>
 8    1  0.1150863E+005  0.1043930E+01  0.7957747E-01            NaN
         13   -1    0    0    0    0  0.00000000000E+00  0.00000000000E+00  0.74505805969E-08  0.10566000000E+00  0.10566000000E+00 0.  1.
     999900   -1    0    0    0    0 -0.00000000000E+00 -0.00000000000E+00 -0.74505805969E-08  0.93827000000E+00  0.93827000000E+00 0. -1.
     999902    2    1    2    0    0  0.19171938969E-02 -0.23071518242E-01 -0.60224705822E-02  0.10200084462E+01  0.10197278997E+01 0.  0.
     999903    2    3    3    0    0  0.34830306553E-01  0.12114005945E+00  0.27281859752E-02  0.12762017521E+00  0.19783878906E-01 0.  0.
         14    1    1    2    0    0 -0.19171938969E-02  0.23071518242E-01  0.60224705822E-02  0.23921553844E-01  0.00000000000E+00 0.  1.
     999901    1    3    3    0    0 -0.32913112656E-01 -0.14421157769E+00 -0.87506565574E-02  0.89238827094E+00  0.88000000000E+00 0.  1.
        -11    1    4    4    0    0  0.14352890434E-01  0.52339115765E-01 -0.85852179764E-02  0.54948663238E-01  0.51100000000E-03 0. -1.
         11    1    4    4    0    0  0.20477416119E-01  0.68800943685E-01  0.11313403952E-01  0.72671511975E-01  0.51100000000E-03 0.  1.
</event>
<event>
 8    1  0.1150863E+005  0.1043930E+01  0.7957747E-01            NaN
         13   -1    0    0    0    0  0.00000000000E+00  0.00000000000E+00  0.74505805969E-08  0.10566000000E+00  0.10566000000E+00 0. -1.
     999900   -1    0    0    0    0 -0.00000000000E+00 -0.00000000000E+00 -0.74505805969E-08  0.93827000000E+00  0.93827000000E+00 0.  1.
     999902    2    1    2    0    0 -0.11295722667E-01  0.15990135572E-01  0.16770820668E-01  0.10181513613E+01  0.10178249635E+01 0.  0.
     999903    2    3    3    0    0  0.88275052265E-01 -0.86436777784E-01  0.19471876352E-01  0.12662855875E+00  0.19794860879E-01 0.  0.
         14    1    1    2    0    0  0.11295722667E-01 -0.15990135572E-01 -0.16770820668E-01  0.25778638677E-01  0.00000000000E+00 0.  1.
     999901    1    3    3    0    0 -0.99570774932E-01  0.10242691336E+00 -0.27010556842E-02  0.89152280257E+00  0.88000000000E+00 0.  1.
        -11    1    4    4    0    0  0.43837075272E-01 -0.47973704740E-01  0.91452782718E-03  0.64994330499E-01  0.51100000000E-03 0.  1.
         11    1    4    4    0    0  0.44437976993E-01 -0.38463073044E-01  0.18557348525E-01  0.61634228254E-01  0.51100000000E-03 0. -1.
</event>
<event>
 8    1  0.1150863E+005  0.1043930E+01  0.7957747E-01            NaN
         13   -1    0    0    0    0  0.00000000000E+00  0.00000000000E+00  0.74505805969E-08  0.10566000000E+00  0.10566000000E+00 0.  1.
     999900   -1    0    0    0    0 -0.00000000000E+00 -0.00000000000E+00 -0.74505805969E-08  0.93827000000E+00  0.93827000000E+00 0. -1.
     999902    2    1    2    0    0  0.12654986868E-01  0.19550428016E-01  0.26260290072E-02  0.10204936190E+01  0.10202244667E+01 0.  0.
     999903    2    3    3    0    0  0.11025481297E+00 -0.66680886733E-01 -0.72212246624E-03  0.13090226568E+00  0.23074168698E-01 0.  0.
         14    1    1    2    0    0 -0.12654986868E-01 -0.19550428016E-01 -0.26260290072E-02  0.23436381047E-01  0.00000000000E+00 0.  1.
     999901    1    3    3    0    0 -0.97599826102E-01  0.86231314749E-01  0.33481514734E-02  0.88959135327E+00  0.88000000000E+00 0.  1.
        -11    1    4    4    0    0  0.10686417957E-01 -0.41388061930E-02  0.63421861299E-02  0.13107772174E-01  0.51100000000E-03 0.  1.
         11    1    4    4    0    0  0.99568395012E-01 -0.62542080540E-01 -0.70643085962E-02  0.11779449351E+00  0.51100000000E-03 0. -1.
</event>
<event>
 8    1  0.1150863E+005  0.1043930E+01  0.7957747E-01            NaN
         13   -1    0    0    0    0  0.00000000000E+00  0.00000000000E+00  0.74505805969E-08  0.10566000000E+00  0.10566000000E+00 0.  1.
     999900   -1    0    0    0    0 -0.00000000000E+00 -0.00000000000E+00 -0.74505805969E-08  0.93827000000E+00  0.93827000000E+00 0.  1.
     999902    2    1    2    0    0  0.78853288159E-02 -0.20076798141E-01 -0.98591608409E-02  0.10202137759E+01  0.10199380811E+01 0.  0.
     999903    2    3    3    0    0 -0.10209318814E+00 -0.65713208717E-01 -0.46962192305E-01  0.13141987901E+00  0.18013667830E-01 0.  0.
         14    1    1    2    0    0 -0.78853288159E-02  0.20076798141E-01  0.98591608409E-02  0.23716224122E-01  0.00000000000E+00 0. -1.
     999901    1    3    3    0    0  0.10997851696E+00  0.45636410576E-01  0.37103031464E-01  0.88879389687E+00  0.88000000000E+00 0. -1.
        -11    1    4    4    0    0 -0.76996936086E-01 -0.50900632961E-01 -0.27274364292E-01  0.96247361891E-01  0.51100000000E-03 0. -1.
         11    1    4    4    0    0 -0.25096252055E-01 -0.14812575756E-01 -0.19687828013E-01  0.35172517120E-01  0.51100000000E-03 0.  1.
</event>
<event>
 8    1  0.1150863E+005  0.1043930E+01  0.7957747E-01            NaN
         13   -1    0    0    0    0  0.00000000000E+00  0.00000000000E+00  0.74505805969E-08  0.10566000000E+00  0.10566000000E+00 0. -1.
     999900   -1    0    0    0    0 -0.00000000000E+00 -0.00000000000E+00 -0.74505805969E-08  0.93827000000E+00  0.93827000000E+00 0. -1.
     999902    2    1    2    0    0  0.48237717663E-02  0.22359326208E-01  0.74211017391E-02  0.10198825263E+01  0.10195989831E+01 0.  0.
     999903    2    3    3    0    0 -0.73740343818E-01 -0.99429826637E-01 -0.22514353110E-01  0.12752550720E+00  0.20782929486E-01 0.  0.
         14    1    1    2    0    0 -0.48237717663E-02 -0.22359326208E-01 -0.74211017391E-02  0.24047473745E-01  0.00000000000E+00 0. -1.
     999901    1    3    3    0    0  0.78564115584E-01  0.12178915284E+00  0.29935454849E-01  0.89235701906E+00  0.88000000000E+00 0.  1.
        -11    1    4    4    0    0 -0.51103124897E-01 -0.52793092030E-01 -0.16757830380E-01  0.75363956507E-01  0.51100000000E-03 0. -1.
         11    1    4    4    0    0 -0.22637218921E-01 -0.46636734607E-01 -0.57565227298E-02  0.52161550688E-01  0.51100000000E-03 0.  1.
</event>
<event>
 8    1  0.1150863E+005  0.1043930E+01  0.7957747E-01            NaN
         13   -1    0    0    0    0  0.00000000000E+00  0.00000000000E+00  0.74505805969E-08  0.10566000000E+00  0.10566000000E+00 0. -1.
     999900   -1    0    0    0    0 -0.00000000000E+00 -0.00000000000E+00 -0.74505805969E-08  0.93827000000E+00  0.93827000000E+00 0. -1.
     999902    2    1    2    0    0 -0.21458479954E-01  0.12004983063E-02 -0.51864324763E-02  0.10218210281E+01  0.10215818160E+01 0.  0.
     999903    2    3    3    0    0 -0.90872511291E-01  0.97432897723E-02 -0.96448743506E-01  0.13434139650E+00  0.19811756244E-01 0.  0.
         14    1    1    2    0    0  0.21458479954E-01 -0.12004983063E-02  0.51864324763E-02  0.22108971933E-01  0.00000000000E+00 0. -1.
     999901    1    3    3    0    0  0.69414031337E-01 -0.85427914660E-02  0.91262311030E-01  0.88747963157E+00  0.88000000000E+00 0.  1.
        -11    1    4    4    0    0 -0.36182191463E-01 -0.56999417657E-02 -0.40018965874E-01  0.54253286221E-01  0.51100000000E-03 0.  1.
         11    1    4    4    0    0 -0.54690319828E-01  0.15443231538E-01 -0.56429777632E-01  0.80088110278E-01  0.51100000000E-03 0. -1.
</event>
<event>
 8    1  0.1150863E+005  0.1043930E+01  0.7957747E-01            NaN
         13   -1    0    0    0    0  0.00000000000E+00  0.00000000000E+00  0.74505805969E-08  0.10566000000E+00  0.10566000000E+00 0. -1.
     999900   -1    0    0    0    0 -0.00000000000E+00 -0.00000000000E+00 -0.74505805969E-08  0.93827000000E+00  0.93827000000E+00 0. -1.
     999902    2    1    2    0    0  0.46787017284E-02  0.46722648935E-02 -0.22920779061E-01  0.10200745515E+01  0.10197955718E+01 0.  0.
     999903    2    3    3    0    0 -0.57794305714E-01 -0.87613962423E-01 -0.76425314075E-01  0.13143381440E+00  0.20436016053E-01 0.  0.
         14    1    1    2    0    0 -0.46787017284E-02 -0.46722648935E-02  0.22920779061E-01  0.23855448474E-01  0.00000000000E+00 0. -1.
     999901    1    3    3    0    0  0.62473007443E-01  0.92286227317E-01  0.53504535013E-01  0.88864073713E+00  0.88000000000E+00 0.  1.
        -11    1    4    4    0    0 -0.57004141998E-01 -0.83521470076E-01 -0.67530129113E-01  0.12159723528E+00  0.51100000000E-03 0. -1.
         11    1    4    4    0    0 -0.79016371577E-03 -0.40924923472E-02 -0.88951849618E-02  0.98365791215E-02  0.51100000000E-03 0.  1.
</event>
<event>
 8    1  0.1150863E+005  0.1043930E+01  0.7957747E-01            NaN
         13   -1    0    0    0    0  0.00000000000E+00  0.00000000000E+00  0.74505805969E-08  0.10566000000E+00  0.10566000000E+00 0. -1.
     999900   -1    0    0    0    0 -0.00000000000E+00 -0.00000000000E+00 -0.74505805969E-08  0.93827000000E+00  0.93827000000E+00 0. -1.
     999902    2    1    2    0    0 -0.70660688632E-03 -0.36593470539E-03 -0.23711532473E-01  0.10202051191E+01  0.10199292206E+01 0.  0.
     999903    2    3    3    0    0  0.77214379313E-01  0.76070623115E-01 -0.72881080260E-01  0.13209934168E+00  0.19742951603E-01 0.  0.
         14    1    1    2    0    0  0.70660688632E-03  0.36593470539E-03  0.23711532473E-01  0.23724880900E-01  0.00000000000E+00 0. -1.
     999901    1    3    3    0    0 -0.77920986199E-01 -0.76436557820E-01  0.49169547787E-01  0.88810577742E+00  0.88000000000E+00 0.  1.
        -11    1    4    4    0    0  0.32464410002E-01  0.42315197677E-01 -0.43405832035E-01  0.68766570707E-01  0.51100000000E-03 0. -1.
         11    1    4    4    0    0  0.44749969311E-01  0.33755425438E-01 -0.29475248225E-01  0.63332770970E-01  0.51100000000E-03 0.  1.
</event>
<event>
 8    1  0.1150863E+005  0.1043930E+01  0.7957747E-01            NaN
         13   -1    0    0    0    0  0.00000000000E+00  0.00000000000E+00  0.74505805969E-08  0.10566000000E+00  0.10566000000E+00 0.  1.
     999900   -1    0    0    0    0 -0.00000000000E+00 -0.00000000000E+00 -0.74505805969E-08  0.93827000000E+00  0.93827000000E+00 0.  1.
     999902    2    1    2    0    0 -0.18852317743E-01 -0.32596718041E-02  0.14374552778E-01  0.10199996195E+01  0.10197188635E+01 0.  0.
     999903    2    3    3    0    0  0.48641829255E-01 -0.68139515886E-01 -0.94919632315E-01  0.12831017076E+00  0.21088910451E-01 0.  0.
         14    1    1    2    0    0  0.18852317743E-01  0.32596718041E-02 -0.14374552778E-01  0.23930380526E-01  0.00000000000E+00 0. -1.
     999901    1    3    3    0    0 -0.67494146998E-01  0.64879844082E-01  0.10929418509E+00  0.89168944871E+00  0.88000000000E+00 0. -1.
        -11    1    4    4    0    0  0.18874473998E-01 -0.17395030901E-01 -0.17489082854E-01  0.31063837638E-01  0.51100000000E-03 0. -1.
         11    1    4    4    0    0  0.29767355257E-01 -0.50744484985E-01 -0.77430549461E-01  0.97246333125E-01  0.51100000000E-03 0.  1.
</event>
<event>
 8    1  0.1150863E+005  0.1043930E+01  0.7957747E-01            NaN
         13   -1    0    0    0    0  0.00000000000E+00  0.00000000000E+00  0.74505805969E-08  0.10566000000E+00  0.10566000000E+00 0.  1.
     999900   -1    0    0    0    0 -0.00000000000E+00 -0.00000000000E+00 -0.74505805969E-08  0.93827000000E+00  0.93827000000E+00 0.  1.
     999902    2    1    2    0    0  0.15096620800E-02 -0.20101712657E-01 -0.12825382952E-01  0.10200375665E+01  0.10197577108E+01 0.  0.
     999903    2    3    3    0    0 -0.32393605739E-01  0.38424921128E-01 -0.11900473214E+00  0.13107814524E+00  0.22215616853E-01 0.  0.
         14    1    1    2    0    0 -0.15096620800E-02  0.20101712657E-01  0.12825382952E-01  0.23892433513E-01  0.00000000000E+00 0.  1.
     999901    1    3    3    0    0  0.33903267819E-01 -0.58526633784E-01  0.10617934918E+00  0.88895942125E+00  0.88000000000E+00 0. -1.
        -11    1    4    4    0    0  0.11404036777E-02  0.70660649031E-02 -0.30956557492E-01  0.31777340457E-01  0.51100000000E-03 0.  1.
         11    1    4    4    0    0 -0.33534009417E-01  0.31358856225E-01 -0.88048174645E-01  0.99300804783E-01  0.51100000000E-03 0. -1.
</event>
<event>
 8    1  0.1150863E+005  0.1043930E+01  0.7957747E-01            NaN
         13   -1    0    0    0    0  0.00000000000E+00  0.00000000000E+00  0.74505805969E-08  0.10566000000E+00  0.10566000000E+00 0. -1.
     999900   -1    0    0    0    0 -0.00000000000E+00 -0.00000000000E+00 -0.74505805969E-08  0.93827000000E+00  0.93827000000E+00 0.  1.
     999902    2    1    2    0    0 -0.18180614632E-01  0.74081122230E-02  0.12906460599E-01  0.10204354985E+01  0.10201649940E+01 0.  0.
     999903    2    3    3    0    0 -0.83090419241E-01 -0.92265145336E-01 -0.36870424888E-01  0.13103919801E+00  0.19873811183E-01 0.  0.
         14    1    1    2    0    0  0.18180614632E-01 -0.74081122230E-02 -0.12906460599E-01  0.23494501491E-01  0.00000000000E+00 0. -1.
     999901    1    3    3    0    0  0.64909804609E-01  0.99673257559E-01  0.49776885488E-01  0.88939630050E+00  0.88000000000E+00 0.  1.
        -11    1    4    4    0    0 -0.50378553450E-01 -0.58205912109E-01 -0.12822264894E-01  0.78042286295E-01  0.51100000000E-03 0. -1.
         11    1    4    4    0    0 -0.32711865791E-01 -0.34059233227E-01 -0.24048159994E-01  0.52996911718E-01  0.51100000000E-03 0.  1.
</event>
<event>
 8    1  0.1150863E+005  0.1043930E+01  0.7957747E-01            NaN
         13   -1    0    0    0    0  0.00000000000E+00  0.00000000000E+00  0.74505805969E-08  0.10566000000E+00  0.10566000000E+00 0. -1.
     999900   -1    0    0    0    0 -0.00000000000E+00 -0.00000000000E+00 -0.74505805969E-08  0.93827000000E+00  0.93827000000E+00 0.  1.
     999902    2    1    2    0    0  0.14780538918E-01  0.89924099245E-02 -0.15938685792E-01  0.10204061935E+01  0.10201350059E+01 0.  0.
     999903    2    3    3    0    0  0.86998537119E-01  0.97591576009E-01  0.93825314971E-02  0.13265261535E+00  0.20391745703E-01 0.  0.
         14    1    1    2    0    0 -0.14780538918E-01 -0.89924099245E-02  0.15938685792E-01  0.23523806489E-01  0.00000000000E+00 0. -1.
     999901    1    3    3    0    0 -0.72217998201E-01 -0.88599166084E-01 -0.25321217289E-01  0.88775357816E+00  0.88000000000E+00 0. -1.
        -11    1    4    4    0    0  0.42162193507E-01  0.48369449486E-01 -0.55751314365E-02  0.64409606554E-01  0.51100000000E-03 0.  1.
         11    1    4    4    0    0  0.44836343612E-01  0.49222126523E-01  0.14957662934E-01  0.68243008794E-01  0.51100000000E-03 0. -1.
</event>
<event>
 8    1  0.1150863E+005  0.1043930E+01  0.7957747E-01            NaN
         13   -1    0    0    0    0  0.00000000000E+00  0.00000000000E+00  0.74505805969E-08  0.10566000000E+00  0.10566000000E+00 0.  1.
     999900   -1    0    0    0    0 -0.00000000000E+00 -0.00000000000E+00 -0.74505805969E-08  0.93827000000E+00  0.93827000000E+00 0. -1.
     999902    2    1    2    0    0 -0.40909190369E-03  0.19844558894E-01  0.34649493417E-02  0.10237810609E+01  0.10235827670E+01 0.  0.
     999903    2    3    3    0    0 -0.65454534245E-02 -0.12888675246E+00 -0.14822394052E-01  0.13109237783E+00  0.17631512670E-01 0.  0.
         14    1    1    2    0    0  0.40909190369E-03 -0.19844558894E-01 -0.34649493417E-02  0.20148939124E-01  0.00000000000E+00 0. -1.
     999901    1    3    3    0    0  0.61363615208E-02  0.14873131136E+00  0.18287343394E-01  0.89268868305E+00  0.88000000000E+00 0.  1.
        -11    1    4    4    0    0 -0.53870517663E-02 -0.84915453870E-01 -0.13947672446E-02  0.85099125315E-01  0.51100000000E-03 0.  1.
         11    1    4    4    0    0 -0.11584016582E-02 -0.43971298592E-01 -0.13427626807E-01  0.45993252515E-01  0.51100000000E-03 0. -1.
</event>
<event>
 8    1  0.1150863E+005  0.1043930E+01  0.7957747E-01            NaN
         13   -1    0    0    0    0  0.00000000000E+00  0.00000000000E+00  0.74505805969E-08  0.10566000000E+00  0.10566000000E+00 0.  1.
     999900   -1    0    0    0    0 -0.00000000000E+00 -0.00000000000E+00 -0.74505805969E-08  0.93827000000E+00  0.93827000000E+00 0.  1.
     999902    2    1    2    0    0 -0.39668455832E-03 -0.82852982055E-02 -0.21954473643E-01  0.10204608194E+01  0.10201909044E+01 0.  0.
     999903    2    3    3    0    0  0.93713298576E-02  0.55644848540E-01  0.11296232767E+00  0.12783266555E+00  0.19913109188E-01 0.  0.
         14    1    1    2    0    0  0.39668455832E-03  0.82852982055E-02  0.21954473643E-01  0.23469180598E-01  0.00000000000E+00 0.  1.
     999901    1    3    3    0    0 -0.97680144159E-02 -0.63930146746E-01 -0.13491680131E+00  0.89262815385E+00  0.88000000000E+00 0.  1.
        -11    1    4    4    0    0  0.71042016812E-02  0.97340999401E-02  0.38290092438E-01  0.40144921012E-01  0.51100000000E-03 0.  1.
         11    1    4    4    0    0  0.22671281764E-02  0.45910748600E-01  0.74672235230E-01  0.87687744540E-01  0.51100000000E-03 0. -1.
</event>
<event>
 8    1  0.1150863E+005  0.1043930E+01  0.7957747E-01            NaN
         13   -1    0    0    0    0  0.00000000000E+00  0.00000000000E+00  0.74505805969E-08  0.10566000000E+00  0.10566000000E+00 0.  1.
     999900   -1    0    0    0    0 -0.00000000000E+00 -0.00000000000E+00 -0.74505805969E-08  0.93827000000E+00  0.93827000000E+00 0.  1.
     999902    2    1    2    0    0 -0.56402407460E-02 -0.11642113376E-01 -0.18809609250E-01  0.10211012348E+01  0.10208460115E+01 0.  0.
     999903    2    3    3    0    0  0.13168726935E-01  0.10021548981E+00 -0.81801359455E-01  0.13158796271E+00  0.20183402963E-01 0.  0.
         14    1    1    2    0    0  0.56402407460E-02  0.11642113376E-01  0.18809609250E-01  0.22828765181E-01  0.00000000000E+00 0.  1.
     999901    1    3    3    0    0 -0.18808967681E-01 -0.11185760319E+00  0.62991750205E-01  0.88951327210E+00  0.88000000000E+00 0. -1.
        -11    1    4    4    0    0  0.11457377728E-01  0.21912063188E-01 -0.18627370870E-01  0.30962074932E-01  0.51100000000E-03 0.  1.
         11    1    4    4    0    0  0.17113492067E-02  0.78303426625E-01 -0.63173988585E-01  0.10062588778E+00  0.51100000000E-03 0. -1.
</event>
<event>
 7    1  0.1150863E+005  0.1043930E+01  0.7957747E-01            NaN
         13   -1    0    0    0    0  0.00000000000E+00  0.00000000000E+00  0.74505805969E-08  0.10566000000E+00  0.10566000000E+00 0.  1.
     999900   -1    0    0    0    0 -0.00000000000E+00 -0.00000000000E+00 -0.74505805969E-08  0.93827000000E+00  0.93827000000E+00 0.  1.
     999903    2    1    2    0    0  0.37308456400E-01  0.87567560302E-01  0.29028346207E-01  0.10150932102E+00  0.20037435830E-01 0.  0.
         14    1    1    2    0    0 -0.50069513184E-01 -0.25457176678E-01 -0.21394691805E-01  0.60106212926E-01  0.00000000000E+00 0.  1.
     999901    1    1    2    0    0  0.12761056784E-01 -0.62110383624E-01 -0.76336544014E-02  0.88231446605E+00  0.88000000000E+00 0.  1.
        -11    1    3    3    0    0  0.73481447721E-02  0.42486231330E-01  0.13863259679E-01  0.45293776329E-01  0.51100000000E-03 0. -1.
         11    1    3    3    0    0  0.29960311628E-01  0.45081328972E-01  0.15165086528E-01  0.56215544693E-01  0.51100000000E-03 0.  1.
</event>
<event>
 8    1  0.1150863E+005  0.1043930E+01  0.7957747E-01            NaN
         13   -1    0    0    0    0  0.00000000000E+00  0.00000000000E+00  0.74505805969E-08  0.10566000000E+00  0.10566000000E+00 0. -1.
     999900   -1    0    0    0    0 -0.00000000000E+00 -0.00000000000E+00 -0.74505805969E-08  0.93827000000E+00  0.93827000000E+00 0.  1.
     999902    2    1    2    0    0 -0.18162801117E-01  0.11649401583E-01  0.11346343059E-01  0.10195510049E+01  0.10192594940E+01 0.  0.
     999903    2    3    3    0    0  0.49132807579E-01 -0.90661433076E-01 -0.71403949439E-01  0.12722605469E+00  0.21317053488E-01 0.  0.
         14    1    1    2    0    0  0.18162801117E-01 -0.11649401583E-01 -0.11346343059E-01  0.24378995108E-01  0.00000000000E+00 0.  1.
     999901    1    3    3    0    0 -0.67295608696E-01  0.10231083466E+00  0.82750292498E-01  0.89232495020E+00  0.88000000000E+00 0. -1.
        -11    1    4    4    0    0  0.41132064619E-01 -0.54823242617E-01 -0.44908460442E-01  0.81941842859E-01  0.51100000000E-03 0. -1.
         11    1    4    4    0    0  0.80007429597E-02 -0.35838190459E-01 -0.26495488996E-01  0.45284211834E-01  0.51100000000E-03 0.  1.
</event>
<event>
 8    1  0.1150863E+005  0.1043930E+01  0.7957747E-01            NaN
         13   -1    0    0    0    0  0.00000000000E+00  0.00000000000E+00  0.74505805969E-08  0.10566000000E+00  0.10566000000E+00 0. -1.
     999900   -1    0    0    0    0 -0.00000000000E+00 -0.00000000000E+00 -0.74505805969E-08  0.93827000000E+00  0.93827000000E+00 0.  1.
     999902    2    1    2    0    0 -0.42173627992E-02  0.44442594113E-02 -0.22905340248E-01  0.10202194074E+01  0.10199438450E+01 0.  0.
     999903    2    3    3    0    0  0.27391677280E-01  0.12619584289E+00 -0.12373873613E-01  0.13121238193E+00  0.19694711899E-01 0.  0.
         14    1    1    2    0    0  0.42173627992E-02 -0.44442594113E-02  0.22905340248E-01  0.23710592624E-01  0.00000000000E+00 0. -1.
     999901    1    3    3    0    0 -0.31609040079E-01 -0.12175158348E+00 -0.10531466635E-01  0.88900702544E+00  0.88000000000E+00 0.  1.
        -11    1    4    4    0    0  0.19884783181E-01  0.10194653464E+00 -0.17437627139E-01  0.10532251654E+00  0.51100000000E-03 0.  1.
         11    1    4    4    0    0  0.75068940991E-02  0.24249308250E-01  0.50637535262E-02  0.25889865399E-01  0.51100000000E-03 0. -1.
</event>
<event>
 8    1  0.1150863E+005  0.1043930E+01  0.7957747E-01            NaN
         13   -1    0    0    0    0  0.00000000000E+00  0.00000000000E+00  0.74505805969E-08  0.10566000000E+00  0.10566000000E+00 0.  1.
     999900   -1    0    0    0    0 -0.00000000000E+00 -0.00000000000E+00 -0.74505805969E-08  0.93827000000E+00  0.93827000000E+00 0.  1.
     999902    2    1    2    0    0 -0.18223139269E-01  0.33003532214E-02  0.14236064103E-01  0.10205710476E+01  0.10203036913E+01 0.  0.
     999903    2    3    3    0    0  0.60215494835E-01 -0.28488637783E-01 -0.10761038704E+00  0.12815314273E+00  0.20142598953E-01 0.  0.
         14    1    1    2    0    0  0.18223139269E-01 -0.33003532214E-02 -0.14236064103E-01  0.23358952403E-01  0.00000000000E+00 0. -1.
     999901    1    3    3    0    0 -0.78438634104E-01  0.31788991004E-01  0.12184645114E+00  0.89241790487E+00  0.88000000000E+00 0. -1.
        -11    1    4    4    0    0  0.46422914295E-01 -0.19082063682E-01 -0.94178784578E-01  0.10671980468E+00  0.51100000000E-03 0.  1.
         11    1    4    4    0    0  0.13792580540E-01 -0.94065741001E-02 -0.13431602460E-01  0.21433338048E-01  0.51100000000E-03 0. -1.
</event>
<event>
 8    1  0.1150863E+005  0.1043930E+01  0.7957747E-01            NaN
         13   -1    0    0    0    0  0.00000000000E+00  0.00000000000E+00  0.74505805969E-08  0.10566000000E+00  0.10566000000E+00 0.  1.
     999900   -1    0    0    0    0 -0.00000000000E+00 -0.00000000000E+00 -0.74505805969E-08  0.93827000000E+00  0.93827000000E+00 0.  1.
     999902    2    1    2    0    0  0.11601214807E-02  0.87623913681E-02 -0.20779496411E-01  0.10213487499E+01  0.10210990922E+01 0.  0.
     999903    2    3    3    0    0  0.29202888525E-01 -0.18245121549E-01  0.12261233179E+00  0.12889313817E+00  0.19848526469E-01 0.  0.
         14    1    1    2    0    0 -0.11601214807E-02 -0.87623913681E-02  0.20779496411E-01  0.22581250086E-01  0.00000000000E+00 0.  1.
     999901    1    3    3    0    0 -0.28042767044E-01  0.27007512917E-01 -0.14339182820E+00  0.89245561174E+00  0.88000000000E+00 0.  1.
        -11    1    4    4    0    0  0.28438263677E-01 -0.19075026304E-01  0.90597059051E-01  0.96853909054E-01  0.51100000000E-03 0.  1.
         11    1    4    4    0    0  0.76462484774E-03  0.82990475544E-03  0.32015272736E-01  0.32039229117E-01  0.51100000000E-03 0. -1.
</event>
<event>
 8    1  0.1150863E+005  0.1043930E+01  0.7957747E-01            NaN
         13   -1    0    0    0    0  0.00000000000E+00  0.00000000000E+00  0.74505805969E-08  0.10566000000E+00  0.10566000000E+00 0.  1.
     999900   -1    0    0    0    0 -0.00000000000E+00 -0.00000000000E+00 -0.74505805969E-08  0.93827000000E+00  0.93827000000E+00 0.  1.
     999902    2    1    2    0    0 -0.47727368140E-02  0.18163854649E-01  0.14008058183E-01  0.10205007378E+01  0.10202317509E+01 0.  0.
     999903    2    3    3    0    0  0.74615368688E-01 -0.79962066612E-01 -0.63810328455E-01  0.12809563417E+00  0.19373903431E-01 0.  0.
         14    1    1    2    0    0  0.47727368140E-02 -0.18163854649E-01 -0.14008058183E-01  0.23429262183E-01  0.00000000000E+00 0. -1.
     999901    1    3    3    0    0 -0.79388105502E-01  0.98125921261E-01  0.77818386638E-01  0.89240510365E+00  0.88000000000E+00 0. -1.
        -11    1    4    4    0    0  0.36746087926E-01 -0.50105030865E-01 -0.28716979623E-01  0.68452283640E-01  0.51100000000E-03 0.  1.
         11    1    4    4    0    0  0.37869280762E-01 -0.29857035747E-01 -0.35093348832E-01  0.59643350529E-01  0.51100000000E-03 0. -1.
</event>
<event>
 8    1  0.1150863E+005  0.1043930E+01  0.7957747E-01            NaN
         13   -1    0    0    0    0  0.00000000000E+00  0.00000000000E+00  0.74505805969E-08  0.10566000000E+00  0.10566000000E+00 0. -1.
     999900   -1    0    0    0    0 -0.00000000000E+00 -0.00000000000E+00 -0.74505805969E-08  0.93827000000E+00  0.93827000000E+00 0. -1.
     999902    2    1    2    0    0 -0.17483986014E-01 -0.12013349191E-01 -0.11689847879E-01  0.10197088756E+01  0.10194211730E+01 0.  0.
     999903    2    3    3    0    0  0.92320482481E-01  0.74657215543E-01  0.41819014648E-01  0.12705440351E+00  0.17240073903E-01 0.  0.
         14    1    1    2    0    0  0.17483986014E-01  0.12013349191E-01  0.11689847879E-01  0.24221124441E-01  0.00000000000E+00 0. -1.
     999901    1    3    3    0    0 -0.10980446850E+00 -0.86670564734E-01 -0.53508862528E-01  0.89265447204E+00  0.88000000000E+00 0. -1.
        -11    1    4    4    0    0  0.46621710868E-01  0.27318296801E-01  0.15842625889E-01  0.56312726629E-01  0.51100000000E-03 0.  1.
         11    1    4    4    0    0  0.45698771613E-01  0.47338918741E-01  0.25976388760E-01  0.70741676885E-01  0.51100000000E-03 0. -1.
</event>
<event>
 8    1  0.1150863E+005  0.1043930E+01  0.7957747E-01            NaN
         13   -1    0    0    0    0  0.00000000000E+00  0.00000000000E+00  0.74505805969E-08  0.10566000000E+00  0.10566000000E+00 0. -1.
     999900   -1    0    0    0    0 -0.00000000000E+00 -0.00000000000E+00 -0.74505805969E-08  0.93827000000E+00  0.93827000000E+00 0. -1.
     999902    2    1    2    0    0  0.11502442523E-01  0.16212500064E-01 -0.11096947636E-01  0.10211639378E+01  0.10209101303E+01 0.  0.
     999903    2    3    3    0    0 -0.28106001676E-01 -0.68181422225E-01  0.10377263191E+00  0.12881524849E+00  0.19645748690E-01 0.  0.
         14    1    1    2    0    0 -0.11502442523E-01 -0.16212500064E-01  0.11096947636E-01  0.22766062223E-01  0.00000000000E+00 0. -1.
     999901    1    3    3    0    0  0.39608444199E-01  0.84393922289E-01 -0.11486957955E+00  0.89234868929E+00  0.88000000000E+00 0. -1.
        -11    1    4    4    0    0 -0.11422108640E-01 -0.51372045640E-01  0.71884021512E-01  0.89090545564E-01  0.51100000000E-03 0. -1.
         11    1    4    4    0    0 -0.16683893036E-01 -0.16809376586E-01  0.31888610401E-01  0.39724702923E-01  0.51100000000E-03 0.  1.
</event>
<event>
 8    1  0.1150863E+005  0.1043930E+01  0.7957747E-01            NaN
         13   -1    0    0    0    0  0.00000000000E+00  0.00000000000E+00  0.74505805969E-08  0.10566000000E+00  0.10566000000E+00 0.  1.
     999900   -1    0    0    0    0 -0.00000000000E+00 -0.00000000000E+00 -0.74505805969E-08  0.93827000000E+00  0.93827000000E+00 0. -1.
     999902    2    1    2    0    0 -0.72688585686E-02  0.14969538829E-01  0.15958515496E-01  0.10208735993E+01  0.10206132020E+01 0.  0.
     999903    2    3    3    0    0 -0.44049122840E-01  0.13749865269E-01 -0.12012522199E+00  0.12965361574E+00  0.15830574815E-01 0.  0.
         14    1    1    2    0    0  0.72688585686E-02 -0.14969538829E-01 -0.15958515496E-01  0.23056400727E-01  0.00000000000E+00 0. -1.
     999901    1    3    3    0    0  0.36780264272E-01  0.12196735606E-02  0.13608373748E+00  0.89121998353E+00  0.88000000000E+00 0.  1.
        -11    1    4    4    0    0 -0.25917125685E-01  0.10135159003E-01 -0.90914657968E-01  0.95079729733E-01  0.51100000000E-03 0. -1.
         11    1    4    4    0    0 -0.18131997156E-01  0.36147062656E-02 -0.29210564019E-01  0.34573886006E-01  0.51100000000E-03 0.  1.
</event>
<event>
 8    1  0.1150863E+005  0.1043930E+01  0.7957747E-01            NaN
         13   -1    0    0    0    0  0.00000000000E+00  0.00000000000E+00  0.74505805969E-08  0.10566000000E+00  0.10566000000E+00 0.  1.
     999900   -1    0    0    0    0 -0.00000000000E+00 -0.00000000000E+00 -0.74505805969E-08  0.93827000000E+00  0.93827000000E+00 0.  1.
     999902    2    1    2    0    0 -0.12647187884E-01 -0.90566823183E-02 -0.18081042817E-01  0.10200783970E+01  0.10197995083E+01 0.  0.
     999903    2    3    3    0    0  0.13744985900E-01  0.97386078514E-01 -0.83767438039E-01  0.13084203322E+00  0.20728749472E-01 0.  0.
         14    1    1    2    0    0  0.12647187884E-01  0.90566823183E-02  0.18081042817E-01  0.23851602993E-01  0.00000000000E+00 0. -1.
     999901    1    3    3    0    0 -0.26392173784E-01 -0.10644276083E+00  0.65686395223E-01  0.88923636379E+00  0.88000000000E+00 0. -1.
        -11    1    4    4    0    0  0.17507928792E-01  0.63284201500E-01 -0.48467869260E-01  0.81613805214E-01  0.51100000000E-03 0. -1.
         11    1    4    4    0    0 -0.37629428924E-02  0.34101877015E-01 -0.35299568780E-01  0.49228228002E-01  0.51100000000E-03 0.  1.
</event>
<event>
 8    1  0.1150863E+005  0.1043930E+01  0.7957747E-01            NaN
         13   -1    0    0    0    0  0.00000000000E+00  0.00000000000E+00  0.74505805969E-08  0.10566000000E+00  0.10566000000E+00 0.  1.
     999900   -1    0    0    0    0 -0.00000000000E+00 -0.00000000000E+00 -0.74505805969E-08  0.93827000000E+00  0.93827000000E+00 0. -1.
     999902    2    1    2    0    0  0.11100507757E-01 -0.23003877247E-01  0.14169753740E-01  0.10147207282E+01  0.10143002389E+01 0.  0.
     999903    2    3    3    0    0  0.52424563896E-01 -0.10823942092E+00  0.42842989348E-01  0.12917291467E+00  0.19647213738E-01 0.  0.
         14    1    1    2    0    0 -0.11100507757E-01  0.23003877247E-01 -0.14169753740E-01  0.29209271848E-01  0.00000000000E+00 0. -1.
     999901    1    3    3    0    0 -0.41324056139E-01  0.85235543672E-01 -0.28673235609E-01  0.88554781348E+00  0.88000000000E+00 0.  1.
        -11    1    4    4    0    0  0.23862405643E-01 -0.39968124693E-01  0.74739861269E-02  0.47148562906E-01  0.51100000000E-03 0.  1.
         11    1    4    4    0    0  0.28562158253E-01 -0.68271296226E-01  0.35369003221E-01  0.82024351764E-01  0.51100000000E-03 0. -1.
</event>
<event>
 7    1  0.1150863E+005  0.1043930E+01  0.7957747E-01            NaN
         13   -1    0    0    0    0  0.00000000000E+00  0.00000000000E+00  0.74505805969E-08  0.10566000000E+00  0.10566000000E+00 0. -1.
     999900   -1    0    0    0    0 -0.00000000000E+00 -0.00000000000E+00 -0.74505805969E-08  0.93827000000E+00  0.93827000000E+00 0. -1.
     999902    2    1    2    0    0  0.18726944486E-01 -0.10518308510E-01  0.86237965675E-02  0.10207847385E+01  0.10205223070E+01 0.  0.
         14    1    1    2    0    0 -0.18726944486E-01  0.10518308510E-01 -0.86237965675E-02  0.23145261522E-01  0.00000000000E+00 0. -1.
     999901    1    3    3    0    0  0.30574951392E-01 -0.29410204501E-01 -0.11611026860E+00  0.88864018717E+00  0.88000000000E+00 0. -1.
        -11    1    3    3    0    0 -0.15082801975E-01  0.68977165136E-02  0.17218558226E-01  0.23912533887E-01  0.51100000000E-03 0.  1.
         11    1    3    3    0    0  0.32347950686E-02  0.11994179478E-01  0.10751550694E+00  0.10823201742E+00  0.51100000000E-03 0. -1.
</event>
<event>
 8    1  0.1150863E+005  0.1043930E+01  0.7957747E-01            NaN
         13   -1    0    0    0    0  0.00000000000E+00  0.00000000000E+00  0.74505805969E-08  0.10566000000E+00  0.10566000000E+00 0. -1.
     999900   -1    0    0    0    0 -0.00000000000E+00 -0.00000000000E+00 -0.74505805969E-08  0.93827000000E+00  0.93827000000E+00 0. -1.
     999902    2    1    2    0    0  0.22167081441E-01  0.25645335585E-02 -0.58233864461E-02  0.10208677329E+01  0.10206072016E+01 0.  0.
     999903    2    3    3    0    0 -0.89673014456E-01  0.62961035360E-01  0.65025817608E-01  0.12891731157E+00  0.19646240639E-01 0.  0.
         14    1    1    2    0    0 -0.22167081441E-01 -0.25645335585E-02  0.58233864461E-02  0.23062267054E-01  0.00000000000E+00 0. -1.
     999901    1    3    3    0    0  0.11184009590E+00 -0.60396501801E-01 -0.70849204054E-01  0.89195042138E+00  0.88000000000E+00 0. -1.
        -11    1    4    4    0    0 -0.27767180802E-01  0.28663400294E-01  0.16960650278E-01  0.43365096851E-01  0.51100000000E-03 0.  1.
         11    1    4    4    0    0 -0.61905833654E-01  0.34297635066E-01  0.48065167330E-01  0.85552214717E-01  0.51100000000E-03 0. -1.
</event>
<event>
 8    1  0.1150863E+005  0.1043930E+01  0.7957747E-01            NaN
         13   -1    0    0    0    0  0.00000000000E+00  0.00000000000E+00  0.74505805969E-08  0.10566000000E+00  0.10566000000E+00 0.  1.
     999900   -1    0    0    0    0 -0.00000000000E+00 -0.00000000000E+00 -0.74505805969E-08  0.93827000000E+00  0.93827000000E+00 0.  1.
     999902    2    1    2    0    0  0.16686559341E-01 -0.58273342130E-02  0.15684774645E-01  0.10202992733E+01  0.10200255859E+01 0.  0.
     999903    2    3    3    0    0 -0.10280055043E+00 -0.66738104442E-01  0.37945263319E-01  0.12985959505E+00  0.20043544214E-01 0.  0.
         14    1    1    2    0    0 -0.16686559341E-01  0.58273342130E-02 -0.15684774645E-01  0.23630726657E-01  0.00000000000E+00 0.  1.
     999901    1    3    3    0    0  0.11948710977E+00  0.60910770229E-01 -0.22260488674E-01  0.89043967830E+00  0.88000000000E+00 0.  1.
        -11    1    4    4    0    0 -0.80778485515E-01 -0.57820281877E-01  0.37217720436E-01  0.10608378082E+00  0.51100000000E-03 0. -1.
         11    1    4    4    0    0 -0.22022064912E-01 -0.89178225643E-02  0.72754288253E-03  0.23775814222E-01  0.51100000000E-03 0.  1.
</event>
<event>
 7    1  0.1150863E+005  0.1043930E+01  0.7957747E-01            NaN
         13   -1    0    0    0    0  0.00000000000E+00  0.00000000000E+00  0.74505805969E-08  0.10566000000E+00  0.10566000000E+00 0.  1.
     999900   -1    0    0    0    0 -0.00000000000E+00 -0.00000000000E+00 -0.74505805969E-08  0.93827000000E+00  0.93827000000E+00 0. -1.
     999903    2    1    2    0    0 -0.70660618170E-01  0.67403061592E-03 -0.62911999371E-01  0.96585793398E-01  0.19429836440E-01 0.  0.
         14    1    1    2    0    0  0.66792253774E-02 -0.54003408861E-01 -0.23347612838E-01  0.59212255872E-01  0.00000000000E+00 0. -1.
     999901    1    1    2    0    0  0.63981392793E-01  0.53329378245E-01  0.86259612208E-01  0.88813195073E+00  0.88000000000E+00 0.  1.
        -11    1    3    3    0    0 -0.47260915661E-01 -0.59072390124E-02 -0.32559959623E-01  0.57696635202E-01  0.51100000000E-03 0.  1.
         11    1    3    3    0    0 -0.23399702509E-01  0.65812696283E-02 -0.30352039747E-01  0.38889158197E-01  0.51100000000E-03 0. -1.
</event>
<event>
 8    1  0.1150863E+005  0.1043930E+01  0.7957747E-01            NaN
         13   -1    0    0    0    0  0.00000000000E+00  0.00000000000E+00  0.74505805969E-08  0.10566000000E+00  0.10566000000E+00 0.  1.
     999900   -1    0    0    0    0 -0.00000000000E+00 -0.00000000000E+00 -0.74505805969E-08  0.93827000000E+00  0.93827000000E+00 0. -1.
     999902    2    1    2    0    0 -0.26999941751E-02 -0.15302045118E-01  0.17089480889E-01  0.10208325345E+01  0.10205711982E+01 0.  0.
     999903    2    3    3    0    0 -0.12416004099E+00 -0.19690179889E-01 -0.31558722619E-01  0.13114807003E+00  0.20011105341E-01 0.  0.
         14    1    1    2    0    0  0.26999941751E-02  0.15302045118E-01 -0.17089480889E-01  0.23097465454E-01  0.00000000000E+00 0. -1.
     999901    1    3    3    0    0  0.12146004681E+00  0.43881347706E-02  0.48648203508E-01  0.88968446452E+00  0.88000000000E+00 0.  1.
        -11    1    4    4    0    0 -0.10888141035E-01 -0.20232033585E-02  0.28619334853E-02  0.11449748963E-01  0.51100000000E-03 0.  1.
         11    1    4    4    0    0 -0.11327189995E+00 -0.17666976530E-01 -0.34420656104E-01  0.11969832107E+00  0.51100000000E-03 0. -1.
</event>
<event>
 7    1  0.1150863E+005  0.1043930E+01  0.7957747E-01            NaN
         13   -1    0    0    0    0  0.00000000000E+00  0.00000000000E+00  0.74505805969E-08  0.10566000000E+00  0.10566000000E+00 0.  1.
     999900   -1    0    0    0    0 -0.00000000000E+00 -0.00000000000E+00 -0.74505805969E-08  0.93827000000E+00  0.93827000000E+00 0. -1.
     999903    2    1    2    0    0 -0.41648257784E-01  0.44738149273E-02  0.89026679603E-01  0.10040264005E+00  0.20008699381E-01 0.  0.
         14    1    1    2    0    0  0.32445936155E-01  0.14536426462E-01 -0.51364187360E-01  0.62468601796E-01  0.00000000000E+00 0. -1.
     999901    1    1    2    0    0  0.92023216300E-02 -0.19010241389E-01 -0.37662492244E-01  0.88105875816E+00  0.88000000000E+00 0. -1.
        -11    1    3    3    0    0 -0.60299111532E-02 -0.54150976594E-02  0.26996579957E-01  0.28191480301E-01  0.51100000000E-03 0.  1.
         11    1    3    3    0    0 -0.35618346631E-01  0.98889125867E-02  0.62030099646E-01  0.72211159747E-01  0.51100000000E-03 0. -1.
</event>
<event>
 8    1  0.1150863E+005  0.1043930E+01  0.7957747E-01            NaN
         13   -1    0    0    0    0  0.00000000000E+00  0.00000000000E+00  0.74505805969E-08  0.10566000000E+00  0.10566000000E+00 0. -1.
     999900   -1    0    0    0    0 -0.00000000000E+00 -0.00000000000E+00 -0.74505805969E-08  0.93827000000E+00  0.93827000000E+00 0.  1.
     999902    2    1    2    0    0  0.16356666846E-01  0.15815804259E-01 -0.74237645128E-02  0.10199969163E+01  0.10197160962E+01 0.  0.
     999903    2    3    3    0    0  0.11710053127E+00  0.60171129650E-01  0.19727908089E-02  0.13308935837E+00  0.19385204157E-01 0.  0.
         14    1    1    2    0    0 -0.16356666846E-01 -0.15815804259E-01  0.74237645128E-02  0.23933083676E-01  0.00000000000E+00 0. -1.
     999901    1    3    3    0    0 -0.10074386442E+00 -0.44355325391E-01 -0.93965553217E-02  0.88690755796E+00  0.88000000000E+00 0.  1.
        -11    1    4    4    0    0  0.53905727190E-01  0.30374572337E-01 -0.84371902978E-02  0.62449094226E-01  0.51100000000E-03 0.  1.
         11    1    4    4    0    0  0.63194804079E-01  0.29796557313E-01  0.10409981107E-01  0.70640264141E-01  0.51100000000E-03 0. -1.
</event>
<event>
 7    1  0.1150863E+005  0.1043930E+01  0.7957747E-01            NaN
         13   -1    0    0    0    0  0.00000000000E+00  0.00000000000E+00  0.74505805969E-08  0.10566000000E+00  0.10566000000E+00 0. -1.
     999900   -1    0    0    0    0 -0.00000000000E+00 -0.00000000000E+00 -0.74505805969E-08  0.93827000000E+00  0.93827000000E+00 0.  1.
     999902    2    1    2    0    0  0.57669363471E-02 -0.23855805919E-01 -0.60073539369E-02  0.10186625242E+01  0.10183491017E+01 0.  0.
         14    1    1    2    0    0 -0.57669363471E-02  0.23855805919E-01  0.60073539369E-02  0.25267475778E-01  0.00000000000E+00 0.  1.
     999901    1    3    3    0    0  0.32770782847E-01  0.40832685391E-01  0.97401722475E-01  0.88692069992E+00  0.88000000000E+00 0. -1.
        -11    1    3    3    0    0 -0.25873785724E-01 -0.48966446675E-01 -0.45360749676E-01  0.71589275872E-01  0.51100000000E-03 0.  1.
         11    1    3    3    0    0 -0.11300607755E-02 -0.15722044635E-01 -0.58048326736E-01  0.60152548431E-01  0.51100000000E-03 0. -1.
</event>
<event>
 8    1  0.1150863E+005  0.1043930E+01  0.7957747E-01            NaN
         13   -1    0    0    0    0  0.00000000000E+00  0.00000000000E+00  0.74505805969E-08  0.10566000000E+00  0.10566000000E+00 0.  1.
     999900   -1    0    0    0    0 -0.00000000000E+00 -0.00000000000E+00 -0.74505805969E-08  0.93827000000E+00  0.93827000000E+00 0. -1.
     999902    2    1    2    0    0  0.86255094765E-02 -0.20325007853E-01 -0.23672312081E-01  0.10115589679E+01  0.10110408804E+01 0.  0.
     999903    2    3    3    0    0 -0.29814721696E-01  0.11362616091E+00  0.91255139133E-02  0.11998941687E+00  0.22679574157E-01 0.  0.
         14    1    1    2    0    0 -0.86255094765E-02  0.20325007853E-01  0.23672312081E-01  0.32371032069E-01  0.00000000000E+00 0.  1.
     999901    1    3    3    0    0  0.38440231172E-01 -0.13395116876E+00 -0.32797825994E-01  0.89156955106E+00  0.88000000000E+00 0. -1.
        -11    1    4    4    0    0 -0.36431840108E-02  0.54037539145E-01  0.89959688943E-02  0.54904617328E-01  0.51100000000E-03 0.  1.
         11    1    4    4    0    0 -0.26171537685E-01  0.59588621766E-01  0.12954501902E-03  0.65084799544E-01  0.51100000000E-03 0. -1.
</event>
<event>
 8    1  0.1150863E+005  0.1043930E+01  0.7957747E-01            NaN
         13   -1    0    0    0    0  0.00000000000E+00  0.00000000000E+00  0.74505805969E-08  0.10566000000E+00  0.10566000000E+00 0.  1.
     999900   -1    0    0    0    0 -0.00000000000E+00 -0.00000000000E+00 -0.74505805969E-08  0.93827000000E+00  0.93827000000E+00 0. -1.
     999902    2    1    2    0    0  0.99081849441E-02  0.75985895873E-03 -0.20919911556E-01  0.10207698572E+01  0.10205070843E+01 0.  0.
     999903    2    3    3    0    0 -0.79177943060E-02  0.12546067523E+00 -0.33470652244E-01  0.13171104014E+00  0.20601966835E-01 0.  0.
         14    1    1    2    0    0 -0.99081849441E-02 -0.75985895873E-03  0.20919911556E-01  0.23160142789E-01  0.00000000000E+00 0.  1.
     999901    1    3    3    0    0  0.17825979250E-01 -0.12470081627E+00  0.12550740688E-01  0.88905881707E+00  0.88000000000E+00 0. -1.
        -11    1    4    4    0    0 -0.11538439591E-01  0.49002845409E-01 -0.18991227997E-01  0.53808385110E-01  0.51100000000E-03 0. -1.
         11    1    4    4    0    0  0.36206452849E-02  0.76457829823E-01 -0.14479424247E-01  0.77902655032E-01  0.51100000000E-03 0.  1.
</event>
<event>
 8    1  0.1150863E+005  0.1043930E+01  0.7957747E-01            NaN
         13   -1    0    0    0    0  0.00000000000E+00  0.00000000000E+00  0.74505805969E-08  0.10566000000E+00  0.10566000000E+00 0.  1.
     999900   -1    0    0    0    0 -0.00000000000E+00 -0.00000000000E+00 -0.74505805969E-08  0.93827000000E+00  0.93827000000E+00 0. -1.
     999902    2    1    2    0    0  0.76679289312E-02 -0.21927927227E-01 -0.77489330733E-02  0.10194416948E+01  0.10191475320E+01 0.  0.
     999903    2    3    3    0    0 -0.76359966573E-01  0.78065671850E-01  0.61426783224E-01  0.12711625710E+00  0.21452261103E-01 0.  0.
         14    1    1    2    0    0 -0.76679289312E-02  0.21927927227E-01  0.77489330733E-02  0.24488305175E-01  0.00000000000E+00 0.  1.
     999901    1    3    3    0    0  0.84027895504E-01 -0.99993599077E-01 -0.69175716298E-01  0.89232543772E+00  0.88000000000E+00 0. -1.
        -11    1    4    4    0    0 -0.59316893699E-01  0.68451447456E-01  0.57086188933E-01  0.10706628146E+00  0.51100000000E-03 0.  1.
         11    1    4    4    0    0 -0.17043072874E-01  0.96142243938E-02  0.43405942919E-02  0.20049975648E-01  0.51100000000E-03 0. -1.
</event>
<event>
 8    1  0.1150863E+005  0.1043930E+01  0.7957747E-01            NaN
         13   -1    0    0    0    0  0.00000000000E+00  0.00000000000E+00  0.74505805969E-08  0.10566000000E+00  0.10566000000E+00 0.  1.
     999900   -1    0    0    0    0 -0.00000000000E+00 -0.00000000000E+00 -0.74505805969E-08  0.93827000000E+00  0.93827000000E+00 0. -1.
     999902    2    1    2    0    0 -0.16599183885E-01 -0.15827016594E-01 -0.23394625083E-02  0.10208757066E+01  0.10206153574E+01 0.  0.
     999903    2    3    3    0    0  0.12278986546E+00 -0.30153782598E-01 -0.19056432037E-01  0.12963274287E+00  0.21328355742E-01 0.  0.
         14    1    1    2    0    0  0.16599183885E-01  0.15827016594E-01  0.23394625083E-02  0.23054293412E-01  0.00000000000E+00 0.  1.
     999901    1    3    3    0    0 -0.13938904934E+00  0.14326766004E-01  0.16716969529E-01  0.89124296371E+00  0.88000000000E+00 0. -1.
        -11    1    4    4    0    0  0.81311088750E-01 -0.11994534282E-01 -0.18955601525E-01  0.84350091621E-01  0.51100000000E-03 0.  1.
         11    1    4    4    0    0  0.41478776708E-01 -0.18159248316E-01 -0.10083051221E-03  0.45282651252E-01  0.51100000000E-03 0. -1.
</event>
<event>
 8    1  0.1150863E+005  0.1043930E+01  0.7957747E-01            NaN
         13   -1    0    0    0    0  0.00000000000E+00  0.00000000000E+00  0.74505805969E-08  0.10566000000E+00  0.10566000000E+00 0. -1.
     999900   -1    0    0    0    0 -0.00000000000E+00 -0.00000000000E+00 -0.74505805969E-08  0.93827000000E+00  0.93827000000E+00 0. -1.
     999902    2    1    2    0    0 -0.13889200654E-01  0.15017762388E-01  0.83457435823E-02  0.10218371388E+01  0.10215982790E+01 0.  0.
     999903    2    3    3    0    0 -0.34375727739E-01  0.96669196012E-01 -0.83329843950E-01  0.13307897831E+00  0.15476674742E-01 0.  0.
         14    1    1    2    0    0  0.13889200654E-01 -0.15017762388E-01 -0.83457435823E-02  0.22092861243E-01  0.00000000000E+00 0. -1.
     999901    1    3    3    0    0  0.20486527085E-01 -0.81651433624E-01  0.91675587533E-01  0.88875816044E+00  0.88000000000E+00 0.  1.
        -11    1    4    4    0    0 -0.17909981646E-01  0.46103357844E-01 -0.49913523930E-01  0.70270250029E-01  0.51100000000E-03 0. -1.
         11    1    4    4    0    0 -0.16465746093E-01  0.50565838168E-01 -0.33416320021E-01  0.62808728285E-01  0.51100000000E-03 0.  1.
</event>
<event>
 8    1  0.1150863E+005  0.1043930E+01  0.7957747E-01            NaN
         13   -1    0    0    0    0  0.00000000000E+00  0.00000000000E+00  0.74505805969E-08  0.10566000000E+00  0.10566000000E+00 0.  1.
     999900   -1    0    0    0    0 -0.00000000000E+00 -0.00000000000E+00 -0.74505805969E-08  0.93827000000E+00  0.93827000000E+00 0. -1.
     999902    2    1    2    0    0 -0.13102463802E-01  0.20334418781E-01  0.20085176029E-02  0.10196566136E+01  0.10193676532E+01 0.  0.
     999903    2    3    3    0    0  0.67042240230E-01  0.24320799749E-02  0.10871321613E+00  0.12941532045E+00  0.20716776265E-01 0.  0.
         14    1    1    2    0    0  0.13102463802E-01 -0.20334418781E-01 -0.20085176029E-02  0.24273386410E-01  0.00000000000E+00 0. -1.
     999901    1    3    3    0    0 -0.80144704032E-01  0.17902338806E-01 -0.10670469853E+00  0.89024129314E+00  0.88000000000E+00 0.  1.
        -11    1    4    4    0    0  0.49510816794E-01  0.10939943908E-01  0.79550813932E-01  0.94337672595E-01  0.51100000000E-03 0. -1.
         11    1    4    4    0    0  0.17531423436E-01 -0.85078639326E-02  0.29162402197E-01  0.35077647858E-01  0.51100000000E-03 0.  1.
</event>
<event>
 8    1  0.1150863E+005  0.1043930E+01  0.7957747E-01            NaN
         13   -1    0    0    0    0  0.00000000000E+00  0.00000000000E+00  0.74505805969E-08  0.10566000000E+00  0.10566000000E+00 0.  1.
     999900   -1    0    0    0    0 -0.00000000000E+00 -0.00000000000E+00 -0.74505805969E-08  0.93827000000E+00  0.93827000000E+00 0. -1.
     999902    2    1    2    0    0  0.13072222154E-02  0.13760404216E-01  0.17624855911E-01  0.10215314934E+01  0.10212859045E+01 0.  0.
     999903    2    3    3    0    0 -0.47897019752E-01 -0.11751194703E+00 -0.18099942103E-01  0.12971887356E+00  0.19904674255E-01 0.  0.
         14    1    1    2    0    0 -0.13072222154E-02 -0.13760404216E-01 -0.17624855911E-01  0.22398506646E-01  0.00000000000E+00 0. -1.
     999901    1    3    3    0    0  0.49204241968E-01  0.13127235125E+00  0.35724798014E-01  0.89181261979E+00  0.88000000000E+00 0. -1.
        -11    1    4    4    0    0 -0.90714469691E-02 -0.78799761591E-02 -0.86839591960E-04  0.12027212333E-01  0.51100000000E-03 0. -1.
         11    1    4    4    0    0 -0.38825572783E-01 -0.10963197087E+00 -0.18013102511E-01  0.11769166123E+00  0.51100000000E-03 0.  1.
</event>
<event>
 8    1  0.1150863E+005  0.1043930E+01  0.7957747E-01            NaN
         13   -1    0    0    0    0  0.00000000000E+00  0.00000000000E+00  0.74505805969E-08  0.10566000000E+00  0.10566000000E+00 0.  1.
     999900   -1    0    0    0    0 -0.00000000000E+00 -0.00000000000E+00 -0.74505805969E-08  0.93827000000E+00  0.93827000000E+00 0. -1.
     999902    2    1    2    0    0  0.53801332669E-02 -0.16371780301E-01  0.14973069273E-01  0.10211007681E+01  0.10208455343E+01 0.  0.
     999903    2    3    3    0    0 -0.11933969965E+00  0.13196249055E-01 -0.44496649504E-01  0.12982867021E+00  0.21434245751E-01 0.  0.
         14    1    1    2    0    0 -0.53801332669E-02  0.16371780301E-01 -0.14973069273E-01  0.22829231868E-01  0.00000000000E+00 0. -1.
     999901    1    3    3    0    0  0.12471983291E+00 -0.29568029356E-01  0.59469718777E-01  0.89127209792E+00  0.88000000000E+00 0.  1.
        -11    1    4    4    0    0 -0.49419091345E-01  0.11347279667E-01 -0.94041969980E-02  0.51572350997E-01  0.51100000000E-03 0. -1.
         11    1    4    4    0    0 -0.69920608301E-01  0.18489693884E-02 -0.35092452506E-01  0.78256319214E-01  0.51100000000E-03 0.  1.
</event>
<event>
 8    1  0.1150863E+005  0.1043930E+01  0.7957747E-01            NaN
         13   -1    0    0    0    0  0.00000000000E+00  0.00000000000E+00  0.74505805969E-08  0.10566000000E+00  0.10566000000E+00 0.  1.
     999900   -1    0    0    0    0 -0.00000000000E+00 -0.00000000000E+00 -0.74505805969E-08  0.93827000000E+00  0.93827000000E+00 0. -1.
     999902    2    1    2    0    0  0.17363431659E-02  0.20860004486E-01  0.97833566682E-02  0.10208244002E+01  0.10205628777E+01 0.  0.
     999903    2    3    3    0    0  0.12696818953E+00  0.22119240384E-01 -0.16905516806E-01  0.13155678188E+00  0.20278274372E-01 0.  0.
         14    1    1    2    0    0 -0.17363431659E-02 -0.20860004486E-01 -0.97833566682E-02  0.23105599807E-01  0.00000000000E+00 0. -1.
     999901    1    3    3    0    0 -0.12523184636E+00 -0.12592358978E-02  0.26688873475E-01  0.88926761832E+00  0.88000000000E+00 0. -1.
        -11    1    4    4    0    0  0.95589087004E-01  0.81347158884E-02 -0.94600013646E-02  0.96401244306E-01  0.51100000000E-03 0. -1.
         11    1    4    4    0    0  0.31379102526E-01  0.13984524495E-01 -0.74455154417E-02  0.35155537571E-01  0.51100000000E-03 0.  1.
</event>
<event>
 8    1  0.1150863E+005  0.1043930E+01  0.7957747E-01            NaN
         13   -1    0    0    0    0  0.00000000000E+00  0.00000000000E+00  0.74505805969E-08  0.10566000000E+00  0.10566000000E+00 0. -1.
     999900   -1    0    0    0    0 -0.00000000000E+00 -0.00000000000E+00 -0.74505805969E-08  0.93827000000E+00  0.93827000000E+00 0. -1.
     999902    2    1    2    0    0  0.31065234975E-01 -0.68051258826E-02  0.10490058986E-01  0.10104426905E+01  0.10098876328E+01 0.  0.
     999903    2    3    3    0    0  0.12319419029E+00  0.94944235127E-02 -0.63119180700E-02  0.12532364415E+00  0.19980562394E-01 0.  0.
         14    1    1    2    0    0 -0.31065234975E-01  0.68051258826E-02 -0.10490058986E-01  0.33487309534E-01  0.00000000000E+00 0.  1.
     999901    1    3    3    0    0 -0.92128955318E-01 -0.16299549395E-01  0.16801977056E-01  0.88511904632E+00  0.88000000000E+00 0.  1.
        -11    1    4    4    0    0  0.58641095844E-01  0.82744497136E-02  0.62272398709E-02  0.59550686623E-01  0.51100000000E-03 0. -1.
         11    1    4    4    0    0  0.64553094448E-01  0.12199737991E-02 -0.12539157941E-01  0.65772957527E-01  0.51100000000E-03 0.  1.
</event>
<event>
 8    1  0.1150863E+005  0.1043930E+01  0.7957747E-01            NaN
         13   -1    0    0    0    0  0.00000000000E+00  0.00000000000E+00  0.74505805969E-08  0.10566000000E+00  0.10566000000E+00 0.  1.
     999900   -1    0    0    0    0 -0.00000000000E+00 -0.00000000000E+00 -0.74505805969E-08  0.93827000000E+00  0.93827000000E+00 0.  1.
     999902    2    1    2    0    0  0.15875340133E-01  0.10103353864E-01  0.14400825822E-01  0.10202342627E+01  0.10199590495E+01 0.  0.
     999903    2    3    3    0    0  0.86127451009E-01 -0.86248663518E-01 -0.42345894739E-01  0.13038075751E+00  0.18686822949E-01 0.  0.
         14    1    1    2    0    0 -0.15875340133E-01 -0.10103353864E-01 -0.14400825822E-01  0.23695737338E-01  0.00000000000E+00 0. -1.
     999901    1    3    3    0    0 -0.70252110875E-01  0.96352017382E-01  0.56746720560E-01  0.88985350515E+00  0.88000000000E+00 0. -1.
        -11    1    4    4    0    0  0.82427264133E-02 -0.17727636503E-01 -0.59007460758E-02  0.20427715486E-01  0.51100000000E-03 0.  1.
         11    1    4    4    0    0  0.77884724595E-01 -0.68521027014E-01 -0.36445148663E-01  0.10995304202E+00  0.51100000000E-03 0. -1.
</event>
<event>
 8    1  0.1150863E+005  0.1043930E+01  0.7957747E-01            NaN
         13   -1    0    0    0    0  0.00000000000E+00  0.00000000000E+00  0.74505805969E-08  0.10566000000E+00  0.10566000000E+00 0. -1.
     999900   -1    0    0    0    0 -0.00000000000E+00 -0.00000000000E+00 -0.74505805969E-08  0.93827000000E+00  0.93827000000E+00 0. -1.
     999902    2    1    2    0    0  0.67898472313E-02  0.20953138028E-01 -0.26204382611E-02  0.10217488658E+01  0.10215080724E+01 0.  0.
     999903    2    3    3    0    0 -0.65297069975E-01 -0.34091983304E-01 -0.10602671174E+00  0.13106410313E+00  0.22586829244E-01 0.  0.
         14    1    1    2    0    0 -0.67898472313E-02 -0.20953138028E-01  0.26204382611E-02  0.22181134221E-01  0.00000000000E+00 0. -1.
     999901    1    3    3    0    0  0.72086917206E-01  0.55045121332E-01  0.10340627348E+00  0.89068476265E+00  0.88000000000E+00 0.  1.
        -11    1    4    4    0    0 -0.24199866754E-01 -0.40215518506E-02 -0.47645683925E-01  0.53592711705E-01  0.51100000000E-03 0.  1.
         11    1    4    4    0    0 -0.41097203221E-01 -0.30070431454E-01 -0.58381027813E-01  0.77471391429E-01  0.51100000000E-03 0. -1.
</event>
<event>
 8    1  0.1150863E+005  0.1043930E+01  0.7957747E-01            NaN
         13   -1    0    0    0    0  0.00000000000E+00  0.00000000000E+00  0.74505805969E-08  0.10566000000E+00  0.10566000000E+00 0.  1.
     999900   -1    0    0    0    0 -0.00000000000E+00 -0.00000000000E+00 -0.74505805969E-08  0.93827000000E+00  0.93827000000E+00 0.  1.
     999902    2    1    2    0    0 -0.17845259342E-01  0.14135025438E-01 -0.96615042117E-02  0.10191995150E+01  0.10188994330E+01 0.  0.
     999903    2    3    3    0    0  0.48078697712E-01 -0.11378749800E+00  0.21247594209E-01  0.12697448033E+00  0.20295381751E-01 0.  0.
         14    1    1    2    0    0  0.17845259342E-01 -0.14135025438E-01  0.96615042117E-02  0.24730485008E-01  0.00000000000E+00 0.  1.
     999901    1    3    3    0    0 -0.65923957054E-01  0.12792252344E+00 -0.30909098421E-01  0.89222503466E+00  0.88000000000E+00 0. -1.
        -11    1    4    4    0    0  0.48598644504E-01 -0.10852948232E+00  0.16893354866E-01  0.12010879793E+00  0.51100000000E-03 0. -1.
         11    1    4    4    0    0 -0.51994679135E-03 -0.52580156749E-02  0.43542393435E-02  0.68656823960E-02  0.51100000000E-03 0.  1.
</event>
<event>
 8    1  0.1150863E+005  0.1043930E+01  0.7957747E-01            NaN
         13   -1    0    0    0    0  0.00000000000E+00  0.00000000000E+00  0.74505805969E-08  0.10566000000E+00  0.10566000000E+00 0.  1.
     999900   -1    0    0    0    0 -0.00000000000E+00 -0.00000000000E+00 -0.74505805969E-08  0.93827000000E+00  0.93827000000E+00 0.  1.
     999902    2    1    2    0    0 -0.28670181951E-02 -0.13268747540E-01  0.19197886186E-01  0.10204174866E+01  0.10201465623E+01 0.  0.
     999903    2    3    3    0    0 -0.22927480934E-01  0.11081940878E+00  0.61592740589E-01  0.13047500730E+00  0.20577927292E-01 0.  0.
         14    1    1    2    0    0  0.28670181951E-02  0.13268747540E-01 -0.19197886186E-01  0.23512513447E-01  0.00000000000E+00 0. -1.
     999901    1    3    3    0    0  0.20060462739E-01 -0.12408815632E+00 -0.42394854403E-01  0.88994247926E+00  0.88000000000E+00 0. -1.
        -11    1    4    4    0    0 -0.34946870961E-02  0.41257171529E-01  0.12914569332E-01  0.43375272478E-01  0.51100000000E-03 0.  1.
         11    1    4    4    0    0 -0.19432793838E-01  0.69562237250E-01  0.48678171257E-01  0.87099734819E-01  0.51100000000E-03 0. -1.
</event>
<event>
 8    1  0.1150863E+005  0.1043930E+01  0.7957747E-01            NaN
         13   -1    0    0    0    0  0.00000000000E+00  0.00000000000E+00  0.74505805969E-08  0.10566000000E+00  0.10566000000E+00 0. -1.
     999900   -1    0    0    0    0 -0.00000000000E+00 -0.00000000000E+00 -0.74505805969E-08  0.93827000000E+00  0.93827000000E+00 0. -1.
     999902    2    1    2    0    0 -0.20779806445E-01  0.53390166849E-02  0.94997129883E-02  0.10204661981E+01  0.10201964082E+01 0.  0.
     999903    2    3    3    0    0 -0.94778129960E-01  0.59641627639E-01  0.70121879518E-01  0.13361808675E+00  0.19917265223E-01 0.  0.
         14    1    1    2    0    0  0.20779806445E-01 -0.53390166849E-02 -0.94997129883E-02  0.23463801949E-01  0.00000000000E+00 0.  1.
     999901    1    3    3    0    0  0.73998323515E-01 -0.54302610955E-01 -0.60622166530E-01  0.88684811130E+00  0.88000000000E+00 0. -1.
        -11    1    4    4    0    0 -0.63824996222E-01  0.49543975910E-01  0.54809393529E-01  0.97634862789E-01  0.51100000000E-03 0. -1.
         11    1    4    4    0    0 -0.30953133738E-01  0.10097651729E-01  0.15312485989E-01  0.35983223963E-01  0.51100000000E-03 0.  1.
</event>
<event>
 8    1  0.1150863E+005  0.1043930E+01  0.7957747E-01            NaN
         13   -1    0    0    0    0  0.00000000000E+00  0.00000000000E+00  0.74505805969E-08  0.10566000000E+00  0.10566000000E+00 0.  1.
     999900   -1    0    0    0    0 -0.00000000000E+00 -0.00000000000E+00 -0.74505805969E-08  0.93827000000E+00  0.93827000000E+00 0.  1.
     999902    2    1    2    0    0 -0.15015935917E-01  0.14235181927E-01  0.11731330181E-01  0.10201446506E+01  0.10198673274E+01 0.  0.
     999903    2    3    3    0    0 -0.47744476546E-01  0.10554279970E+00 -0.60096572811E-01  0.13190623328E+00  0.19205173949E-01 0.  0.
         14    1    1    2    0    0  0.15015935917E-01 -0.14235181927E-01 -0.11731330181E-01  0.23785349351E-01  0.00000000000E+00 0. -1.
     999901    1    3    3    0    0  0.32728540629E-01 -0.91307617773E-01  0.71827902992E-01  0.88823841737E+00  0.88000000000E+00 0. -1.
        -11    1    4    4    0    0 -0.38388647888E-01  0.77445180094E-01 -0.35651032138E-01  0.93502413979E-01  0.51100000000E-03 0.  1.
         11    1    4    4    0    0 -0.93558286576E-02  0.28097619606E-01 -0.24445540673E-01  0.38403819304E-01  0.51100000000E-03 0. -1.
</event>
<event>
 8    1  0.1150863E+005  0.1043930E+01  0.7957747E-01            NaN
         13   -1    0    0    0    0  0.00000000000E+00  0.00000000000E+00  0.74505805969E-08  0.10566000000E+00  0.10566000000E+00 0.  1.
     999900   -1    0    0    0    0 -0.00000000000E+00 -0.00000000000E+00 -0.74505805969E-08  0.93827000000E+00  0.93827000000E+00 0.  1.
     999902    2    1    2    0    0  0.43733336956E-02  0.16390596823E-02  0.23148616182E-01  0.10203149413E+01  0.10200416210E+01 0.  0.
     999903    2    3    3    0    0 -0.10847001571E+00  0.26331644145E-01  0.66815785506E-01  0.13169231789E+00  0.20479687684E-01 0.  0.
         14    1    1    2    0    0 -0.43733336956E-02 -0.16390596823E-02 -0.23148616182E-01  0.23615058657E-01  0.00000000000E+00 0. -1.
     999901    1    3    3    0    0  0.11284334940E+00 -0.24692584463E-01 -0.43667169325E-01  0.88862262345E+00  0.88000000000E+00 0.  1.
        -11    1    4    4    0    0 -0.97845111282E-01  0.16976306948E-01  0.57908284822E-01  0.11495865070E+00  0.51100000000E-03 0.  1.
         11    1    4    4    0    0 -0.10624904427E-01  0.93553371970E-02  0.89075006841E-02  0.16733667189E-01  0.51100000000E-03 0. -1.
</event>
<event>
 8    1  0.1150863E+005  0.1043930E+01  0.7957747E-01            NaN
         13   -1    0    0    0    0  0.00000000000E+00  0.00000000000E+00  0.74505805969E-08  0.10566000000E+00  0.10566000000E+00 0.  1.
     999900   -1    0    0    0    0 -0.00000000000E+00 -0.00000000000E+00 -0.74505805969E-08  0.93827000000E+00  0.93827000000E+00 0. -1.
     999902    2    1    2    0    0  0.10969206753E-01 -0.37313614700E-02 -0.20465089785E-01  0.10204126350E+01  0.10201415977E+01 0.  0.
     999903    2    3    3    0    0 -0.90941586281E-01 -0.89604365813E-01  0.11465698063E-01  0.12980634838E+00  0.20467324184E-01 0.  0.
         14    1    1    2    0    0 -0.10969206753E-01  0.37313614700E-02  0.20465089785E-01  0.23517364969E-01  0.00000000000E+00 0.  1.
     999901    1    3    3    0    0  0.10191079303E+00  0.85873004343E-01 -0.31930787848E-01  0.89060628665E+00  0.88000000000E+00 0. -1.
        -11    1    4    4    0    0 -0.28620524327E-01 -0.42214106580E-01  0.46811199431E-02  0.51218543635E-01  0.51100000000E-03 0.  1.
         11    1    4    4    0    0 -0.62321061954E-01 -0.47390259233E-01  0.67845781203E-02  0.78587804744E-01  0.51100000000E-03 0. -1.
</event>
<event>
 8    1  0.1150863E+005  0.1043930E+01  0.7957747E-01            NaN
         13   -1    0    0    0    0  0.00000000000E+00  0.00000000000E+00  0.74505805969E-08  0.10566000000E+00  0.10566000000E+00 0.  1.
     999900   -1    0    0    0    0 -0.00000000000E+00 -0.00000000000E+00 -0.74505805969E-08  0.93827000000E+00  0.93827000000E+00 0. -1.
     999902    2    1    2    0    0 -0.10010135269E-01 -0.21682711129E-01 -0.55335483840E-02  0.10194154548E+01  0.10191206536E+01 0.  0.
     999903    2    3    3    0    0 -0.47965294301E-01  0.11645269756E+00 -0.92213235161E-02  0.12782385268E+00  0.19799097976E-01 0.  0.
         14    1    1    2    0    0  0.10010135269E-01  0.21682711129E-01  0.55335483840E-02  0.24514545228E-01  0.00000000000E+00 0.  1.
     999901    1    3    3    0    0  0.37955159032E-01 -0.13813540869E+00  0.36877751321E-02  0.89159160209E+00  0.88000000000E+00 0. -1.
        -11    1    4    4    0    0 -0.11443886200E-01  0.19486230497E-01  0.52367724819E-02  0.23202599367E-01  0.51100000000E-03 0.  1.
         11    1    4    4    0    0 -0.36521408101E-01  0.96966467064E-01 -0.14458095998E-01  0.10462125332E+00  0.51100000000E-03 0. -1.
</event>
<event>
 8    1  0.1150863E+005  0.1043930E+01  0.7957747E-01            NaN
         13   -1    0    0    0    0  0.00000000000E+00  0.00000000000E+00  0.74505805969E-08  0.10566000000E+00  0.10566000000E+00 0. -1.
     999900   -1    0    0    0    0 -0.00000000000E+00 -0.00000000000E+00 -0.74505805969E-08  0.93827000000E+00  0.93827000000E+00 0. -1.
     999902    2    1    2    0    0 -0.79579132769E-02 -0.15926678092E-01  0.18320841611E-01  0.10183831666E+01  0.10180626864E+01 0.  0.
     999903    2    3    3    0    0  0.67596172042E-01  0.42874171975E-01 -0.95059922525E-01  0.12595885192E+00  0.20537926123E-01 0.  0.
         14    1    1    2    0    0  0.79579132769E-02  0.15926678092E-01 -0.18320841611E-01  0.25546833387E-01  0.00000000000E+00 0. -1.
     999901    1    3    3    0    0 -0.75554085319E-01 -0.58800850068E-01  0.11338076414E+00  0.89242431469E+00  0.88000000000E+00 0.  1.
        -11    1    4    4    0    0  0.29437348137E-01  0.14912901134E-01 -0.54147926393E-01  0.63413020266E-01  0.51100000000E-03 0.  1.
         11    1    4    4    0    0  0.38158823906E-01  0.27961270842E-01 -0.40911996131E-01  0.62545831655E-01  0.51100000000E-03 0. -1.
</event>
<event>
 8    1  0.1150863E+005  0.1043930E+01  0.7957747E-01            NaN
         13   -1    0    0    0    0  0.00000000000E+00  0.00000000000E+00  0.74505805969E-08  0.10566000000E+00  0.10566000000E+00 0.  1.
     999900   -1    0    0    0    0 -0.00000000000E+00 -0.00000000000E+00 -0.74505805969E-08  0.93827000000E+00  0.93827000000E+00 0. -1.
     999902    2    1    2    0    0  0.92342384130E-02  0.21331640428E-01  0.81452598773E-02  0.10192996265E+01  0.10190019986E+01 0.  0.
     999903    2    3    3    0    0 -0.81631889467E-01 -0.20741580522E-01  0.95892106088E-01  0.12928484111E+00  0.20622695999E-01 0.  0.
         14    1    1    2    0    0 -0.92342384130E-02 -0.21331640428E-01 -0.81452598773E-02  0.24630373543E-01  0.00000000000E+00 0. -1.
     999901    1    3    3    0    0  0.90866127880E-01  0.42073220950E-01 -0.87746846210E-01  0.89001478535E+00  0.88000000000E+00 0. -1.
        -11    1    4    4    0    0 -0.14459426731E-01 -0.14285150987E-02  0.29475716657E-01  0.32866315130E-01  0.51100000000E-03 0.  1.
         11    1    4    4    0    0 -0.67172462736E-01 -0.19313065423E-01  0.66416389431E-01  0.96418525980E-01  0.51100000000E-03 0. -1.
</event>
<event>
 8    1  0.1150863E+005  0.1043930E+01  0.7957747E-01            NaN
         13   -1    0    0    0    0  0.00000000000E+00  0.00000000000E+00  0.74505805969E-08  0.10566000000E+00  0.10566000000E+00 0. -1.
     999900   -1    0    0    0    0 -0.00000000000E+00 -0.00000000000E+00 -0.74505805969E-08  0.93827000000E+00  0.93827000000E+00 0.  1.
     999902    2    1    2    0    0 -0.19817720975E-01  0.57593452079E-02  0.94521669381E-02  0.10212307581E+01  0.10209784551E+01 0.  0.
     999903    2    3    3    0    0  0.62402036993E-01 -0.11123292812E+00  0.11068856793E-01  0.12968721219E+00  0.20723776050E-01 0.  0.
         14    1    1    2    0    0  0.19817720975E-01 -0.57593452079E-02 -0.94521669381E-02  0.22699241875E-01  0.00000000000E+00 0.  1.
     999901    1    3    3    0    0 -0.82219757968E-01  0.11699227333E+00 -0.16166898552E-02  0.89154354594E+00  0.88000000000E+00 0.  1.
        -11    1    4    4    0    0  0.34994790367E-01 -0.62519879640E-01 -0.41088224825E-02  0.71767083305E-01  0.51100000000E-03 0.  1.
         11    1    4    4    0    0  0.27407246626E-01 -0.48713048485E-01  0.15177679276E-01  0.57920128881E-01  0.51100000000E-03 0. -1.
</event>
<event>
 8    1  0.1150863E+005  0.1043930E+01  0.7957747E-01            NaN
         13   -1    0    0    0    0  0.00000000000E+00  0.00000000000E+00  0.74505805969E-08  0.10566000000E+00  0.10566000000E+00 0. -1.
     999900   -1    0    0    0    0 -0.00000000000E+00 -0.00000000000E+00 -0.74505805969E-08  0.93827000000E+00  0.93827000000E+00 0. -1.
     999902    2    1    2    0    0 -0.14551941890E-01 -0.17141173702E-01 -0.15644992054E-02  0.10213905567E+01  0.10211418328E+01 0.  0.
     999903    2    3    3    0    0 -0.11795613302E+00 -0.33358597580E-01 -0.49953664466E-01  0.13386763137E+00  0.19968194401E-01 0.  0.
         14    1    1    2    0    0  0.14551941890E-01  0.17141173702E-01  0.15644992054E-02  0.22539443348E-01  0.00000000000E+00 0.  1.
     999901    1    3    3    0    0  0.10340419113E+00  0.16217423878E-01  0.48389165260E-01  0.88752292528E+00  0.88000000000E+00 0. -1.
        -11    1    4    4    0    0 -0.31861863050E-01 -0.88392347220E-02 -0.42036142524E-02  0.33335294828E-01  0.51100000000E-03 0. -1.
         11    1    4    4    0    0 -0.86094269966E-01 -0.24519362858E-01 -0.45750050213E-01  0.10053233655E+00  0.51100000000E-03 0.  1.
</event>
<event>
 8    1  0.1150863E+005  0.1043930E+01  0.7957747E-01            NaN
         13   -1    0    0    0    0  0.00000000000E+00  0.00000000000E+00  0.74505805969E-08  0.10566000000E+00  0.10566000000E+00 0.  1.
     999900   -1    0    0    0    0 -0.00000000000E+00 -0.00000000000E+00 -0.74505805969E-08  0.93827000000E+00  0.93827000000E+00 0.  1.
     999902    2    1    2    0    0  0.69765678525E-02 -0.18479975516E-01  0.12909625320E-01  0.10203325336E+01  0.10200596251E+01 0.  0.
     999903    2    3    3    0    0 -0.10815334968E+00  0.51175891164E-01  0.45698167934E-01  0.12950037984E+00  0.19128694162E-01 0.  0.
         14    1    1    2    0    0 -0.69765678525E-02  0.18479975516E-01 -0.12909625320E-01  0.23597466389E-01  0.00000000000E+00 0. -1.
     999901    1    3    3    0    0  0.11512991754E+00 -0.69655866680E-01 -0.32788542614E-01  0.89083215378E+00  0.88000000000E+00 0. -1.
        -11    1    4    4    0    0 -0.42412801094E-01  0.20377735965E-01  0.81199263178E-02  0.47752404590E-01  0.51100000000E-03 0.  1.
         11    1    4    4    0    0 -0.65740548591E-01  0.30798155200E-01  0.37578241617E-01  0.81747975245E-01  0.51100000000E-03 0. -1.
</event>
<event>
 8    1  0.1150863E+005  0.1043930E+01  0.7957747E-01            NaN
         13   -1    0    0    0    0  0.00000000000E+00  0.00000000000E+00  0.74505805969E-08  0.10566000000E+00  0.10566000000E+00 0.  1.
     999900   -1    0    0    0    0 -0.00000000000E+00 -0.00000000000E+00 -0.74505805969E-08  0.93827000000E+00  0.93827000000E+00 0.  1.
     999902    2    1    2    0    0  0.99381122282E-02 -0.19857358483E-01 -0.11429410466E-01  0.10189557696E+01  0.10186496690E+01 0.  0.
     999903    2    3    3    0    0  0.12464463076E+00 -0.30701854007E-01  0.15218209568E-01  0.13104514114E+00  0.21502262599E-01 0.  0.
         14    1    1    2    0    0 -0.99381122282E-02  0.19857358483E-01  0.11429410466E-01  0.24974230402E-01  0.00000000000E+00 0.  1.
     999901    1    3    3    0    0 -0.11470651853E+00  0.10844495525E-01 -0.26647620034E-01  0.88791062846E+00  0.88000000000E+00 0.  1.
        -11    1    4    4    0    0  0.83454566969E-01 -0.29931843012E-01  0.14494444567E-01  0.89838354941E-01  0.51100000000E-03 0. -1.
         11    1    4    4    0    0  0.41190063791E-01 -0.77001099584E-03  0.72376500031E-03  0.41206786198E-01  0.51100000000E-03 0.  1.
</event>
<event>
 8    1  0.1150863E+005  0.1043930E+01  0.7957747E-01            NaN
         13   -1    0    0    0    0  0.00000000000E+00  0.00000000000E+00  0.74505805969E-08  0.10566000000E+00  0.10566000000E+00 0. -1.
     999900   -1    0    0    0    0 -0.00000000000E+00 -0.00000000000E+00 -0.74505805969E-08  0.93827000000E+00  0.93827000000E+00 0.  1.
     999902    2    1    2    0    0 -0.21542493056E-01 -0.93568337350E-02  0.14703342556E-02  0.10203972308E+01  0.10201258341E+01 0.  0.
     999903    2    3    3    0    0  0.11271864889E+00 -0.48335333714E-01  0.34476387597E-01  0.12875000386E+00  0.18604942877E-01 0.  0.
         14    1    1    2    0    0  0.21542493056E-01  0.93568337350E-02 -0.14703342556E-02  0.23532769226E-01  0.00000000000E+00 0.  1.
     999901    1    3    3    0    0 -0.13426114195E+00  0.38978499979E-01 -0.33006053341E-01  0.89164722691E+00  0.88000000000E+00 0. -1.
        -11    1    4    4    0    0  0.39459159113E-01 -0.16641871260E-01  0.29586135859E-02  0.42930078410E-01  0.51100000000E-03 0. -1.
         11    1    4    4    0    0  0.73259489782E-01 -0.31693462453E-01  0.31517774011E-01  0.85819925454E-01  0.51100000000E-03 0.  1.
</event>
<event>
 8    1  0.1150863E+005  0.1043930E+01  0.7957747E-01            NaN
         13   -1    0    0    0    0  0.00000000000E+00  0.00000000000E+00  0.74505805969E-08  0.10566000000E+00  0.10566000000E+00 0. -1.
     999900   -1    0    0    0    0 -0.00000000000E+00 -0.00000000000E+00 -0.74505805969E-08  0.93827000000E+00  0.93827000000E+00 0. -1.
     999902    2    1    2    0    0  0.15854623869E-01 -0.25584231727E-03  0.17474636165E-01  0.10203334438E+01  0.10200605566E+01 0.  0.
     999903    2    3    3    0    0 -0.93448182384E-01 -0.71120683650E-01  0.52274575045E-01  0.13006384145E+00  0.19830714160E-01 0.  0.
         14    1    1    2    0    0 -0.15854623869E-01  0.25584231727E-03 -0.17474636165E-01  0.23596556156E-01  0.00000000000E+00 0.  1.
     999901    1    3    3    0    0  0.10930280625E+00  0.70864841333E-01 -0.34799938880E-01  0.89026960239E+00  0.88000000000E+00 0. -1.
        -11    1    4    4    0    0 -0.18551541260E-01 -0.24996051814E-01  0.14035179309E-01  0.34149812132E-01  0.51100000000E-03 0.  1.
         11    1    4    4    0    0 -0.74896641124E-01 -0.46124631835E-01  0.38239395736E-01  0.95914029322E-01  0.51100000000E-03 0. -1.
</event>
<event>
 8    1  0.1150863E+005  0.1043930E+01  0.7957747E-01            NaN
         13   -1    0    0    0    0  0.00000000000E+00  0.00000000000E+00  0.74505805969E-08  0.10566000000E+00  0.10566000000E+00 0.  1.
     999900   -1    0    0    0    0 -0.00000000000E+00 -0.00000000000E+00 -0.74505805969E-08  0.93827000000E+00  0.93827000000E+00 0. -1.
     999902    2    1    2    0    0  0.21210537824E-01 -0.99316252360E-02  0.76275906869E-04  0.10205092845E+01  0.10202404961E+01 0.  0.
     999903    2    3    3    0    0 -0.12400265295E+00 -0.26822610908E-01  0.63154595102E-02  0.12842683118E+00  0.18906494751E-01 0.  0.
         14    1    1    2    0    0 -0.21210537824E-01  0.99316252360E-02 -0.76275906869E-04  0.23420715460E-01  0.00000000000E+00 0. -1.
     999901    1    3    3    0    0  0.14521319078E+00  0.16890985672E-01 -0.62391836033E-02  0.89208245336E+00  0.88000000000E+00 0.  1.
        -11    1    4    4    0    0 -0.28948975661E-01 -0.14402904756E-01  0.34433166041E-02  0.32520830363E-01  0.51100000000E-03 0.  1.
         11    1    4    4    0    0 -0.95053677293E-01 -0.12419706152E-01  0.28721429061E-02  0.95906000822E-01  0.51100000000E-03 0. -1.
</event>
<event>
 8    1  0.1150863E+005  0.1043930E+01  0.7957747E-01            NaN
         13   -1    0    0    0    0  0.00000000000E+00  0.00000000000E+00  0.74505805969E-08  0.10566000000E+00  0.10566000000E+00 0.  1.
     999900   -1    0    0    0    0 -0.00000000000E+00 -0.00000000000E+00 -0.74505805969E-08  0.93827000000E+00  0.93827000000E+00 0. -1.
     999902    2    1    2    0    0 -0.19147442556E-01 -0.15116390712E-01 -0.19163256612E-02  0.10194595662E+01  0.10191658379E+01 0.  0.
     999903    2    3    3    0    0 -0.41957397881E-01 -0.97657106284E-01  0.75291434022E-01  0.13193812878E+00  0.21012761459E-01 0.  0.
         14    1    1    2    0    0  0.19147442556E-01  0.15116390712E-01  0.19163256612E-02  0.24470433764E-01  0.00000000000E+00 0. -1.
     999901    1    3    3    0    0  0.22809955325E-01  0.82540715572E-01 -0.77207759683E-01  0.88752143746E+00  0.88000000000E+00 0. -1.
        -11    1    4    4    0    0 -0.26757613087E-01 -0.82861386559E-01  0.62138827215E-01  0.10697417543E+00  0.51100000000E-03 0.  1.
         11    1    4    4    0    0 -0.15199784794E-01 -0.14795719725E-01  0.13152606807E-01  0.24963953348E-01  0.51100000000E-03 0. -1.
</event>
<event>
 8    1  0.1150863E+005  0.1043930E+01  0.7957747E-01            NaN
         13   -1    0    0    0    0  0.00000000000E+00  0.00000000000E+00  0.74505805969E-08  0.10566000000E+00  0.10566000000E+00 0. -1.
     999900   -1    0    0    0    0 -0.00000000000E+00 -0.00000000000E+00 -0.74505805969E-08  0.93827000000E+00  0.93827000000E+00 0.  1.
     999902    2    1    2    0    0  0.32526239991E-02  0.27103892464E-02  0.23715127436E-01  0.10198398974E+01  0.10195553361E+01 0.  0.
     999903    2    3    3    0    0 -0.76970199483E-01  0.99639689901E-01  0.28067285621E-01  0.13087986907E+00  0.22119859708E-01 0.  0.
         14    1    1    2    0    0 -0.32526239991E-02 -0.27103892464E-02 -0.23715127436E-01  0.24090102574E-01  0.00000000000E+00 0.  1.
     999901    1    3    3    0    0  0.80222823483E-01 -0.96929300655E-01 -0.43521581854E-02  0.88896002836E+00  0.88000000000E+00 0.  1.
        -11    1    4    4    0    0 -0.35169035724E-01  0.58680948639E-01  0.22817889066E-01  0.72119567312E-01  0.51100000000E-03 0. -1.
         11    1    4    4    0    0 -0.41801163760E-01  0.40958741263E-01  0.52493965553E-02  0.58760301758E-01  0.51100000000E-03 0.  1.
</event>
<event>
 8    1  0.1150863E+005  0.1043930E+01  0.7957747E-01            NaN
         13   -1    0    0    0    0  0.00000000000E+00  0.00000000000E+00  0.74505805969E-08  0.10566000000E+00  0.10566000000E+00 0. -1.
     999900   -1    0    0    0    0 -0.00000000000E+00 -0.00000000000E+00 -0.74505805969E-08  0.93827000000E+00  0.93827000000E+00 0. -1.
     999902    2    1    2    0    0  0.40974111450E-02  0.23695463413E-01 -0.38727786784E-02  0.10195730261E+01  0.10192820480E+01 0.  0.
     999903    2    3    3    0    0  0.43145450228E-01  0.23972515802E-01  0.11882935538E+00  0.13020210243E+00  0.19898753430E-01 0.  0.
         14    1    1    2    0    0 -0.40974111450E-02 -0.23695463413E-01  0.38727786784E-02  0.24356973932E-01  0.00000000000E+00 0. -1.
     999901    1    3    3    0    0 -0.39048039083E-01 -0.27705238958E-03 -0.12270213406E+00  0.88937092364E+00  0.88000000000E+00 0. -1.
        -11    1    4    4    0    0  0.99195509787E-02  0.10112032868E-01  0.56210977617E-01  0.57970559994E-01  0.51100000000E-03 0. -1.
         11    1    4    4    0    0  0.33225899249E-01  0.13860482935E-01  0.62618377760E-01  0.72231542434E-01  0.51100000000E-03 0.  1.
</event>
<event>
 8    1  0.1150863E+005  0.1043930E+01  0.7957747E-01            NaN
         13   -1    0    0    0    0  0.00000000000E+00  0.00000000000E+00  0.74505805969E-08  0.10566000000E+00  0.10566000000E+00 0. -1.
     999900   -1    0    0    0    0 -0.00000000000E+00 -0.00000000000E+00 -0.74505805969E-08  0.93827000000E+00  0.93827000000E+00 0. -1.
     999902    2    1    2    0    0 -0.76773604645E-02 -0.20792158344E-01 -0.87381456080E-02  0.10201054139E+01  0.10198271641E+01 0.  0.
     999903    2    3    3    0    0 -0.11827408930E+00 -0.51235564623E-01 -0.24120263985E-01  0.13252722190E+00  0.19179002276E-01 0.  0.
         14    1    1    2    0    0  0.76773604645E-02  0.20792158344E-01  0.87381456080E-02  0.23824586061E-01  0.00000000000E+00 0.  1.
     999901    1    3    3    0    0  0.11059672884E+00  0.30443406278E-01  0.15382118377E-01  0.88757819204E+00  0.88000000000E+00 0.  1.
        -11    1    4    4    0    0 -0.54783036148E-01 -0.19006215406E-01 -0.22213914535E-02  0.58031137975E-01  0.51100000000E-03 0.  1.
         11    1    4    4    0    0 -0.63491053151E-01 -0.32229349217E-01 -0.21898872531E-01  0.74496083926E-01  0.51100000000E-03 0. -1.
</event>
<event>
 8    1  0.1150863E+005  0.1043930E+01  0.7957747E-01            NaN
         13   -1    0    0    0    0  0.00000000000E+00  0.00000000000E+00  0.74505805969E-08  0.10566000000E+00  0.10566000000E+00 0. -1.
     999900   -1    0    0    0    0 -0.00000000000E+00 -0.00000000000E+00 -0.74505805969E-08  0.93827000000E+00  0.93827000000E+00 0. -1.
     999902    2    1    2    0    0 -0.20948695313E-01 -0.12097287719E-01 -0.40489805621E-02  0.10194027407E+01  0.10191076299E+01 0.  0.
     999903    2    3    3    0    0 -0.16332201107E-01  0.22403843415E-01  0.12486585616E+00  0.12932933069E+00  0.19129055078E-01 0.  0.
         14    1    1    2    0    0  0.20948695313E-01  0.12097287719E-01  0.40489805621E-02  0.24527259306E-01  0.00000000000E+00 0. -1.
     999901    1    3    3    0    0 -0.46164942061E-02 -0.34501131134E-01 -0.12891483673E+00  0.89007341000E+00  0.88000000000E+00 0. -1.
        -11    1    4    4    0    0 -0.11068767459E-01  0.25285278861E-01  0.10520721069E+00  0.10876893510E+00  0.51100000000E-03 0. -1.
         11    1    4    4    0    0 -0.52634336482E-02 -0.28814354461E-02  0.19658645474E-01  0.20560395591E-01  0.51100000000E-03 0.  1.
</event>
<event>
 8    1  0.1150863E+005  0.1043930E+01  0.7957747E-01            NaN
         13   -1    0    0    0    0  0.00000000000E+00  0.00000000000E+00  0.74505805969E-08  0.10566000000E+00  0.10566000000E+00 0.  1.
     999900   -1    0    0    0    0 -0.00000000000E+00 -0.00000000000E+00 -0.74505805969E-08  0.93827000000E+00  0.93827000000E+00 0.  1.
     999902    2    1    2    0    0  0.17010556591E-01 -0.14652979255E-01 -0.91430159715E-02  0.10196882266E+01  0.10194000274E+01 0.  0.
     999903    2    3    3    0    0  0.22832900925E-01 -0.87619111262E-01 -0.94928119638E-01  0.13249205882E+00  0.18556608762E-01 0.  0.
         14    1    1    2    0    0 -0.17010556591E-01  0.14652979255E-01  0.91430159715E-02  0.24241773402E-01  0.00000000000E+00 0. -1.
     999901    1    3    3    0    0 -0.58223443338E-02  0.72966132007E-01  0.85785103666E-01  0.88719616778E+00  0.88000000000E+00 0. -1.
        -11    1    4    4    0    0  0.98561956470E-02 -0.64044528157E-01 -0.59285162697E-01  0.87828456758E-01  0.51100000000E-03 0. -1.
         11    1    4    4    0    0  0.12976705278E-01 -0.23574583105E-01 -0.35642956941E-01  0.44663602060E-01  0.51100000000E-03 0.  1.
</event>
<event>
 8    1  0.1150863E+005  0.1043930E+01  0.7957747E-01            NaN
         13   -1    0    0    0    0  0.00000000000E+00  0.00000000000E+00  0.74505805969E-08  0.10566000000E+00  0.10566000000E+00 0.  1.
     999900   -1    0    0    0    0 -0.00000000000E+00 -0.00000000000E+00 -0.74505805969E-08  0.93827000000E+00  0.93827000000E+00 0.  1.
     999902    2    1    2    0    0  0.13408104195E-01  0.13176968102E-01 -0.13640429868E-01  0.10207034834E+01  0.10204391848E+01 0.  0.
     999903    2    3    3    0    0 -0.77002196334E-02 -0.12584801958E+00 -0.21857255396E-01  0.12950147220E+00  0.19896589503E-01 0.  0.
         14    1    1    2    0    0 -0.13408104195E-01 -0.13176968102E-01  0.13640429868E-01  0.23226516601E-01  0.00000000000E+00 0.  1.
     999901    1    3    3    0    0  0.21108323829E-01  0.13902498769E+00  0.82168255281E-02  0.89120201119E+00  0.88000000000E+00 0.  1.
        -11    1    4    4    0    0  0.49282300020E-03 -0.70872165963E-01 -0.34955037123E-02  0.70961866168E-01  0.51100000000E-03 0. -1.
         11    1    4    4    0    0 -0.81930426336E-02 -0.54975853621E-01 -0.18361751683E-01  0.58539606036E-01  0.51100000000E-03 0.  1.
</event>
<event>
 8    1  0.1150863E+005  0.1043930E+01  0.7957747E-01            NaN
         13   -1    0    0    0    0  0.00000000000E+00  0.00000000000E+00  0.74505805969E-08  0.10566000000E+00  0.10566000000E+00 0. -1.
     999900   -1    0    0    0    0 -0.00000000000E+00 -0.00000000000E+00 -0.74505805969E-08  0.93827000000E+00  0.93827000000E+00 0. -1.
     999902    2    1    2    0    0  0.12838556705E-01  0.86533962472E-02 -0.18199649039E-01  0.10200357114E+01  0.10197558117E+01 0.  0.
     999903    2    3    3    0    0 -0.49269763054E-01  0.45680455049E-01  0.10706298411E+00  0.12822902056E+00  0.21586700137E-01 0.  0.
         14    1    1    2    0    0 -0.12838556705E-01 -0.86533962472E-02  0.18199649039E-01  0.23894288649E-01  0.00000000000E+00 0.  1.
     999901    1    3    3    0    0  0.62108319760E-01 -0.37027058802E-01 -0.12526263315E+00  0.89180669079E+00  0.88000000000E+00 0. -1.
        -11    1    4    4    0    0 -0.18561876694E-01  0.12297069074E-01  0.54042565376E-01  0.58451870523E-01  0.51100000000E-03 0.  1.
         11    1    4    4    0    0 -0.30707886361E-01  0.33383385974E-01  0.53020418737E-01  0.69777150042E-01  0.51100000000E-03 0. -1.
</event>
<event>
 8    1  0.1150863E+005  0.1043930E+01  0.7957747E-01            NaN
         13   -1    0    0    0    0  0.00000000000E+00  0.00000000000E+00  0.74505805969E-08  0.10566000000E+00  0.10566000000E+00 0.  1.
     999900   -1    0    0    0    0 -0.00000000000E+00 -0.00000000000E+00 -0.74505805969E-08  0.93827000000E+00  0.93827000000E+00 0.  1.
     999902    2    1    2    0    0 -0.64041108149E-02  0.18733207825E-01 -0.13019530855E-01  0.10202349817E+01  0.10199597854E+01 0.  0.
     999903    2    3    3    0    0 -0.22953366639E-01 -0.93484094083E-01  0.81685178499E-01  0.12791464529E+00  0.20580456906E-01 0.  0.
         14    1    1    2    0    0  0.64041108149E-02 -0.18733207825E-01  0.13019530855E-01  0.23695018346E-01  0.00000000000E+00 0.  1.
     999901    1    3    3    0    0  0.16549255824E-01  0.11221730191E+00 -0.94704709354E-01  0.89232033636E+00  0.88000000000E+00 0.  1.
        -11    1    4    4    0    0 -0.15668587686E-01 -0.87721723809E-01  0.73152084774E-01  0.11529134441E+00  0.51100000000E-03 0.  1.
         11    1    4    4    0    0 -0.72847789530E-02 -0.57623702747E-02  0.85330937250E-02  0.12623300880E-01  0.51100000000E-03 0. -1.
</event>
<event>
 8    1  0.1150863E+005  0.1043930E+01  0.7957747E-01            NaN
         13   -1    0    0    0    0  0.00000000000E+00  0.00000000000E+00  0.74505805969E-08  0.10566000000E+00  0.10566000000E+00 0.  1.
     999900   -1    0    0    0    0 -0.00000000000E+00 -0.00000000000E+00 -0.74505805969E-08  0.93827000000E+00  0.93827000000E+00 0.  1.
     999902    2    1    2    0    0 -0.40885697110E-02  0.15269647774E-01 -0.16904385159E-01  0.10207861718E+01  0.10205237733E+01 0.  0.
     999903    2    3    3    0    0  0.18032748203E-01  0.10512160709E+00 -0.78254104662E-01  0.13381012063E+00  0.20142273965E-01 0.  0.
         14    1    1    2    0    0  0.40885697110E-02 -0.15269647774E-01  0.16904385159E-01  0.23143828185E-01  0.00000000000E+00 0.  1.
     999901    1    3    3    0    0 -0.22121317914E-01 -0.89851959317E-01  0.61349719503E-01  0.88697605119E+00  0.88000000000E+00 0. -1.
        -11    1    4    4    0    0  0.69703493746E-03  0.58496979520E-01 -0.47173726155E-01  0.75153203730E-01  0.51100000000E-03 0. -1.
         11    1    4    4    0    0  0.17335713266E-01  0.46624627572E-01 -0.31080378507E-01  0.58656916896E-01  0.51100000000E-03 0.  1.
</event>
<event>
 8    1  0.1150863E+005  0.1043930E+01  0.7957747E-01            NaN
         13   -1    0    0    0    0  0.00000000000E+00  0.00000000000E+00  0.74505805969E-08  0.10566000000E+00  0.10566000000E+00 0. -1.
     999900   -1    0    0    0    0 -0.00000000000E+00 -0.00000000000E+00 -0.74505805969E-08  0.93827000000E+00  0.93827000000E+00 0. -1.
     999902    2    1    2    0    0 -0.11142809855E-01  0.19452063882E-01 -0.69412311087E-02  0.10204624545E+01  0.10201925776E+01 0.  0.
     999903    2    3    3    0    0 -0.35421466255E-01 -0.12173404651E+00 -0.11188076420E-01  0.12886781199E+00  0.20196077896E-01 0.  0.
         14    1    1    2    0    0  0.11142809855E-01 -0.19452063882E-01  0.69412311087E-02  0.23467545463E-01  0.00000000000E+00 0. -1.
     999901    1    3    3    0    0  0.24278656400E-01  0.14118611039E+00  0.42468453117E-02  0.89159464255E+00  0.88000000000E+00 0. -1.
        -11    1    4    4    0    0 -0.31758868851E-01 -0.77120532887E-01 -0.37677373535E-02  0.83490474362E-01  0.51100000000E-03 0.  1.
         11    1    4    4    0    0 -0.36625974037E-02 -0.44613513621E-01 -0.74203390668E-02  0.45377337628E-01  0.51100000000E-03 0. -1.
</event>
<event>
 8    1  0.1150863E+005  0.1043930E+01  0.7957747E-01            NaN
         13   -1    0    0    0    0  0.00000000000E+00  0.00000000000E+00  0.74505805969E-08  0.10566000000E+00  0.10566000000E+00 0.  1.
     999900   -1    0    0    0    0 -0.00000000000E+00 -0.00000000000E+00 -0.74505805969E-08  0.93827000000E+00  0.93827000000E+00 0.  1.
     999902    2    1    2    0    0  0.28693773223E-02 -0.23052160604E-01 -0.16699655540E-02  0.10206399974E+01  0.10203742353E+01 0.  0.
     999903    2    3    3    0    0  0.42713094049E-01  0.11657764544E+00  0.25849066559E-01  0.12831645654E+00  0.19549500210E-01 0.  0.
         14    1    1    2    0    0 -0.28693773223E-02  0.23052160604E-01  0.16699655540E-02  0.23290002569E-01  0.00000000000E+00 0.  1.
     999901    1    3    3    0    0 -0.39843716727E-01 -0.13962980604E+00 -0.27519032113E-01  0.89232354089E+00  0.88000000000E+00 0.  1.
        -11    1    4    4    0    0  0.23275470969E-01  0.88232631674E-01  0.20540801118E-01  0.93535717630E-01  0.51100000000E-03 0. -1.
         11    1    4    4    0    0  0.19437623080E-01  0.28345013763E-01  0.53082654405E-02  0.34780738911E-01  0.51100000000E-03 0.  1.
</event>
<event>
 8    1  0.1150863E+005  0.1043930E+01  0.7957747E-01            NaN
         13   -1    0    0    0    0  0.00000000000E+00  0.00000000000E+00  0.74505805969E-08  0.10566000000E+00  0.10566000000E+00 0. -1.
     999900   -1    0    0    0    0 -0.00000000000E+00 -0.00000000000E+00 -0.74505805969E-08  0.93827000000E+00  0.93827000000E+00 0. -1.
     999902    2    1    2    0    0 -0.14694845842E-01  0.41117552520E-02 -0.18279049212E-01  0.10201188962E+01  0.10198409649E+01 0.  0.
     999903    2    3    3    0    0 -0.11032586347E+00  0.15983694555E-01  0.65970213103E-01  0.13085843226E+00  0.18563017941E-01 0.  0.
         14    1    1    2    0    0  0.14694845842E-01 -0.41117552520E-02  0.18279049212E-01  0.23811103832E-01  0.00000000000E+00 0. -1.
     999901    1    3    3    0    0  0.95631017623E-01 -0.11871939303E-01 -0.84249262315E-01  0.88926046391E+00  0.88000000000E+00 0.  1.
        -11    1    4    4    0    0 -0.69188093871E-01  0.14681547725E-01  0.50400908828E-01  0.86850750767E-01  0.51100000000E-03 0. -1.
         11    1    4    4    0    0 -0.41137769595E-01  0.13021468301E-02  0.15569304275E-01  0.44007681491E-01  0.51100000000E-03 0.  1.
</event>
<event>
 8    1  0.1150863E+005  0.1043930E+01  0.7957747E-01            NaN
         13   -1    0    0    0    0  0.00000000000E+00  0.00000000000E+00  0.74505805969E-08  0.10566000000E+00  0.10566000000E+00 0.  1.
     999900   -1    0    0    0    0 -0.00000000000E+00 -0.00000000000E+00 -0.74505805969E-08  0.93827000000E+00  0.93827000000E+00 0.  1.
     999902    2    1    2    0    0 -0.95952095199E-02  0.16115959524E-01 -0.14514620360E-01  0.10202136259E+01  0.10199379275E+01 0.  0.
     999903    2    3    3    0    0 -0.97795080728E-01 -0.81044960029E-01  0.15005362632E-01  0.12999405130E+00  0.23262181877E-01 0.  0.
         14    1    1    2    0    0  0.95952095199E-02 -0.16115959524E-01  0.14514620360E-01  0.23716374118E-01  0.00000000000E+00 0.  1.
     999901    1    3    3    0    0  0.88199871208E-01  0.97160919552E-01 -0.29519982992E-01  0.89021957458E+00  0.88000000000E+00 0.  1.
        -11    1    4    4    0    0 -0.11308859866E-01 -0.11078978705E-01 -0.57093817253E-02  0.16837227839E-01  0.51100000000E-03 0. -1.
         11    1    4    4    0    0 -0.86486220862E-01 -0.69965981324E-01  0.20714744357E-01  0.11315682346E+00  0.51100000000E-03 0.  1.
</event>
<event>
 8    1  0.1150863E+005  0.1043930E+01  0.7957747E-01            NaN
         13   -1    0    0    0    0  0.00000000000E+00  0.00000000000E+00  0.74505805969E-08  0.10566000000E+00  0.10566000000E+00 0.  1.
     999900   -1    0    0    0    0 -0.00000000000E+00 -0.00000000000E+00 -0.74505805969E-08  0.93827000000E+00  0.93827000000E+00 0. -1.
     999902    2    1    2    0    0 -0.15290573293E-01 -0.18948180689E-01  0.11260445854E-02  0.10195557685E+01  0.10192643730E+01 0.  0.
     999903    2    3    3    0    0 -0.89427900868E-01 -0.68114466063E-01 -0.67212657086E-01  0.13243466908E+00  0.19607915764E-01 0.  0.
         14    1    1    2    0    0  0.15290573293E-01  0.18948180689E-01 -0.11260445854E-02  0.24374231464E-01  0.00000000000E+00 0.  1.
     999901    1    3    3    0    0  0.74137327574E-01  0.49166285375E-01  0.68338701672E-01  0.88712109946E+00  0.88000000000E+00 0.  1.
        -11    1    4    4    0    0 -0.24903685961E-01 -0.30437991820E-01 -0.25228495780E-01  0.46726898472E-01  0.51100000000E-03 0. -1.
         11    1    4    4    0    0 -0.64524214906E-01 -0.37676474243E-01 -0.41984161306E-01  0.85707770606E-01  0.51100000000E-03 0.  1.
</event>
<event>
 8    1  0.1150863E+005  0.1043930E+01  0.7957747E-01            NaN
         13   -1    0    0    0    0  0.00000000000E+00  0.00000000000E+00  0.74505805969E-08  0.10566000000E+00  0.10566000000E+00 0. -1.
     999900   -1    0    0    0    0 -0.00000000000E+00 -0.00000000000E+00 -0.74505805969E-08  0.93827000000E+00  0.93827000000E+00 0. -1.
     999902    2    1    2    0    0 -0.88338786902E-02  0.18869809425E-01  0.34218075027E-02  0.10228156474E+01  0.10225976885E+01 0.  0.
     999903    2    3    3    0    0 -0.15545627152E-01  0.13313793057E+00 -0.12727362707E-02  0.13538999425E+00  0.19011985798E-01 0.  0.
         14    1    1    2    0    0  0.88338786902E-02 -0.18869809425E-01 -0.34218075027E-02  0.21114352632E-01  0.00000000000E+00 0.  1.
     999901    1    3    3    0    0  0.67117484622E-02 -0.11426812115E+00  0.46945437733E-02  0.88742565312E+00  0.88000000000E+00 0. -1.
        -11    1    4    4    0    0  0.19570058247E-02  0.54087048146E-02 -0.28871042352E-02  0.64560399188E-02  0.51100000000E-03 0.  1.
         11    1    4    4    0    0 -0.17502632977E-01  0.12772922576E+00  0.16143679645E-02  0.12893395433E+00  0.51100000000E-03 0. -1.
</event>
<event>
 8    1  0.1150863E+005  0.1043930E+01  0.7957747E-01            NaN
         13   -1    0    0    0    0  0.00000000000E+00  0.00000000000E+00  0.74505805969E-08  0.10566000000E+00  0.10566000000E+00 0. -1.
     999900   -1    0    0    0    0 -0.00000000000E+00 -0.00000000000E+00 -0.74505805969E-08  0.93827000000E+00  0.93827000000E+00 0.  1.
     999902    2    1    2    0    0  0.23126417347E-01  0.82422418982E-03 -0.49967565268E-02  0.10202555813E+01  0.10199808690E+01 0.  0.
     999903    2    3    3    0    0 -0.85205430850E-01 -0.53334093109E-01  0.76998587547E-01  0.12818375173E+00  0.19944943966E-01 0.  0.
         14    1    1    2    0    0 -0.23126417347E-01 -0.82422418982E-03  0.49967565268E-02  0.23674418696E-01  0.00000000000E+00 0. -1.
     999901    1    3    3    0    0  0.10833184820E+00  0.54158317298E-01 -0.81995344074E-01  0.89207182957E+00  0.88000000000E+00 0.  1.
        -11    1    4    4    0    0 -0.32237101572E-01 -0.29434209033E-01  0.40570292714E-01  0.59597090123E-01  0.51100000000E-03 0.  1.
         11    1    4    4    0    0 -0.52968329278E-01 -0.23899884076E-01  0.36428294833E-01  0.68586661610E-01  0.51100000000E-03 0. -1.
</event>
<event>
 8    1  0.1150863E+005  0.1043930E+01  0.7957747E-01            NaN
         13   -1    0    0    0    0  0.00000000000E+00  0.00000000000E+00  0.74505805969E-08  0.10566000000E+00  0.10566000000E+00 0. -1.
     999900   -1    0    0    0    0 -0.00000000000E+00 -0.00000000000E+00 -0.74505805969E-08  0.93827000000E+00  0.93827000000E+00 0. -1.
     999902    2    1    2    0    0  0.24366561364E-01 -0.69509419217E-02 -0.66048736641E-02  0.10177447129E+01  0.10174077999E+01 0.  0.
     999903    2    3    3    0    0  0.84845180954E-01  0.67850261516E-01 -0.69018506830E-01  0.13030550646E+00  0.20337355015E-01 0.  0.
         14    1    1    2    0    0 -0.24366561364E-01  0.69509419217E-02  0.66048736641E-02  0.26185287136E-01  0.00000000000E+00 0.  1.
     999901    1    3    3    0    0 -0.60478619591E-01 -0.74801203438E-01  0.62413633165E-01  0.88743920641E+00  0.88000000000E+00 0. -1.
        -11    1    4    4    0    0  0.38960354031E-01  0.37425402238E-01 -0.44680884757E-01  0.70108576526E-01  0.51100000000E-03 0.  1.
         11    1    4    4    0    0  0.45884826924E-01  0.30424859279E-01 -0.24337622072E-01  0.60196929931E-01  0.51100000000E-03 0. -1.
</event>
<event>
 8    1  0.1150863E+005  0.1043930E+01  0.7957747E-01            NaN
         13   -1    0    0    0    0  0.00000000000E+00  0.00000000000E+00  0.74505805969E-08  0.10566000000E+00  0.10566000000E+00 0.  1.
     999900   -1    0    0    0    0 -0.00000000000E+00 -0.00000000000E+00 -0.74505805969E-08  0.93827000000E+00  0.93827000000E+00 0. -1.
     999902    2    1    2    0    0 -0.22291055607E-01 -0.79199690388E-02  0.33550485330E-02  0.10200370425E+01  0.10197571743E+01 0.  0.
     999903    2    3    3    0    0 -0.58559658100E-02 -0.75075864247E-01 -0.10431829919E+00  0.13078253656E+00  0.23475233654E-01 0.  0.
         14    1    1    2    0    0  0.22291055607E-01  0.79199690388E-02 -0.33550485330E-02  0.23892957546E-01  0.00000000000E+00 0.  1.
     999901    1    3    3    0    0 -0.16435089797E-01  0.67155895208E-01  0.10767334773E+00  0.88925450589E+00  0.88000000000E+00 0.  1.
        -11    1    4    4    0    0 -0.98248896471E-02 -0.33690309537E-01 -0.32701142248E-01  0.47970733146E-01  0.51100000000E-03 0.  1.
         11    1    4    4    0    0  0.39689238372E-02 -0.41385554710E-01 -0.71617156945E-01  0.82811803416E-01  0.51100000000E-03 0. -1.
</event>
<event>
 8    1  0.1150863E+005  0.1043930E+01  0.7957747E-01            NaN
         13   -1    0    0    0    0  0.00000000000E+00  0.00000000000E+00  0.74505805969E-08  0.10566000000E+00  0.10566000000E+00 0. -1.
     999900   -1    0    0    0    0 -0.00000000000E+00 -0.00000000000E+00 -0.74505805969E-08  0.93827000000E+00  0.93827000000E+00 0.  1.
     999902    2    1    2    0    0 -0.72206678179E-02  0.24386299111E-01 -0.57758731748E-02  0.10178495411E+01  0.10175153551E+01 0.  0.
     999903    2    3    3    0    0 -0.11236063436E+00  0.46383888017E-01  0.42006650500E-01  0.13003116095E+00  0.19161599869E-01 0.  0.
         14    1    1    2    0    0  0.72206678179E-02 -0.24386299111E-01  0.57758731748E-02  0.26080458949E-01  0.00000000000E+00 0. -1.
     999901    1    3    3    0    0  0.10513996654E+00 -0.21997588907E-01 -0.47782523675E-01  0.88781838010E+00  0.88000000000E+00 0.  1.
        -11    1    4    4    0    0 -0.75038926534E-01  0.33965666411E-01  0.37273525012E-01  0.90410639738E-01  0.51100000000E-03 0.  1.
         11    1    4    4    0    0 -0.37321707826E-01  0.12418221607E-01  0.47331254877E-02  0.39620521208E-01  0.51100000000E-03 0. -1.
</event>
<event>
 8    1  0.1150863E+005  0.1043930E+01  0.7957747E-01            NaN
         13   -1    0    0    0    0  0.00000000000E+00  0.00000000000E+00  0.74505805969E-08  0.10566000000E+00  0.10566000000E+00 0. -1.
     999900   -1    0    0    0    0 -0.00000000000E+00 -0.00000000000E+00 -0.74505805969E-08  0.93827000000E+00  0.93827000000E+00 0.  1.
     999902    2    1    2    0    0 -0.16890821280E-01  0.94701097459E-02  0.14322901644E-01  0.10198441466E+01  0.10195596868E+01 0.  0.
     999903    2    3    3    0    0 -0.61464764393E-01  0.45170818561E-01 -0.10375837647E+00  0.13012252427E+00  0.18648070228E-01 0.  0.
         14    1    1    2    0    0  0.16890821280E-01 -0.94701097459E-02 -0.14322901644E-01  0.24085853392E-01  0.00000000000E+00 0.  1.
     999901    1    3    3    0    0  0.44573943113E-01 -0.35700708815E-01  0.11808127811E+00  0.88972162234E+00  0.88000000000E+00 0. -1.
        -11    1    4    4    0    0 -0.36932777495E-01  0.33899959429E-01 -0.78528436529E-01  0.93167664818E-01  0.51100000000E-03 0. -1.
         11    1    4    4    0    0 -0.24531986897E-01  0.11270859131E-01 -0.25229939942E-01  0.36954859453E-01  0.51100000000E-03 0.  1.
</event>
<event>
 8    1  0.1150863E+005  0.1043930E+01  0.7957747E-01            NaN
         13   -1    0    0    0    0  0.00000000000E+00  0.00000000000E+00  0.74505805969E-08  0.10566000000E+00  0.10566000000E+00 0. -1.
     999900   -1    0    0    0    0 -0.00000000000E+00 -0.00000000000E+00 -0.74505805969E-08  0.93827000000E+00  0.93827000000E+00 0.  1.
     999902    2    1    2    0    0 -0.19648520446E-01 -0.12030973216E-01  0.93856723296E-03  0.10208716050E+01  0.10206111621E+01 0.  0.
     999903    2    3    3    0    0  0.30890118830E-01  0.11992547371E+00  0.29434455919E-01  0.12914369042E+00  0.21803368881E-01 0.  0.
         14    1    1    2    0    0  0.19648520446E-01  0.12030973216E-01 -0.93856723296E-03  0.23058395016E-01  0.00000000000E+00 0. -1.
     999901    1    3    3    0    0 -0.50538639277E-01 -0.13195644692E+00 -0.28495888686E-01  0.89172791457E+00  0.88000000000E+00 0.  1.
        -11    1    4    4    0    0 -0.29902133682E-02  0.11090378526E-01  0.34637439033E-03  0.11502998220E-01  0.51100000000E-03 0.  1.
         11    1    4    4    0    0  0.33880332199E-01  0.10883509518E+00  0.29088081529E-01  0.11764069220E+00  0.51100000000E-03 0. -1.
</event>
<event>
 8    1  0.1150863E+005  0.1043930E+01  0.7957747E-01            NaN
         13   -1    0    0    0    0  0.00000000000E+00  0.00000000000E+00  0.74505805969E-08  0.10566000000E+00  0.10566000000E+00 0. -1.
     999900   -1    0    0    0    0 -0.00000000000E+00 -0.00000000000E+00 -0.74505805969E-08  0.93827000000E+00  0.93827000000E+00 0.  1.
     999902    2    1    2    0    0  0.12482069909E-01 -0.16278935841E-01  0.11021926668E-01  0.10206429072E+01  0.10203772123E+01 0.  0.
     999903    2    3    3    0    0 -0.90590366461E-02 -0.65406328306E-01 -0.11219554345E+00  0.13044064658E+00  0.81773089281E-02 0.  0.
         14    1    1    2    0    0 -0.12482069909E-01  0.16278935841E-01 -0.11021926668E-01  0.23287092751E-01  0.00000000000E+00 0.  1.
     999901    1    3    3    0    0  0.21541106555E-01  0.49127392465E-01  0.12321747012E+00  0.89020226067E+00  0.88000000000E+00 0. -1.
        -11    1    4    4    0    0  0.86011885363E-03 -0.21325129978E-01 -0.35841759602E-01  0.41718027582E-01  0.51100000000E-03 0. -1.
         11    1    4    4    0    0 -0.99191554998E-02 -0.44081198327E-01 -0.76353783851E-01  0.88722618994E-01  0.51100000000E-03 0.  1.
</event>
<event>
 8    1  0.1150863E+005  0.1043930E+01  0.7957747E-01            NaN
         13   -1    0    0    0    0  0.00000000000E+00  0.00000000000E+00  0.74505805969E-08  0.10566000000E+00  0.10566000000E+00 0.  1.
     999900   -1    0    0    0    0 -0.00000000000E+00 -0.00000000000E+00 -0.74505805969E-08  0.93827000000E+00  0.93827000000E+00 0.  1.
     999902    2    1    2    0    0 -0.80123237184E-02 -0.21950267583E-01  0.54273288329E-03  0.10205568073E+01  0.10202891212E+01 0.  0.
     999903    2    3    3    0    0 -0.34565265626E-01  0.97213676715E-01  0.74912658787E-01  0.12902105915E+00  0.19729944972E-01 0.  0.
         14    1    1    2    0    0  0.80123237184E-02  0.21950267583E-01 -0.54273288329E-03  0.23373192707E-01  0.00000000000E+00 0. -1.
     999901    1    3    3    0    0  0.26552941907E-01 -0.11916394430E+00 -0.74369925903E-01  0.89153574815E+00  0.88000000000E+00 0. -1.
        -11    1    4    4    0    0 -0.15106077520E-01  0.53153064379E-01  0.51192183858E-01  0.75328232690E-01  0.51100000000E-03 0.  1.
         11    1    4    4    0    0 -0.19459188105E-01  0.44060612336E-01  0.23720474928E-01  0.53692826457E-01  0.51100000000E-03 0. -1.
</event>
<event>
 8    1  0.1150863E+005  0.1043930E+01  0.7957747E-01            NaN
         13   -1    0    0    0    0  0.00000000000E+00  0.00000000000E+00  0.74505805969E-08  0.10566000000E+00  0.10566000000E+00 0. -1.
     999900   -1    0    0    0    0 -0.00000000000E+00 -0.00000000000E+00 -0.74505805969E-08  0.93827000000E+00  0.93827000000E+00 0.  1.
     999902    2    1    2    0    0  0.18333577732E-01  0.43973077578E-02  0.14899233967E-01  0.10198999446E+01  0.10196168170E+01 0.  0.
     999903    2    3    3    0    0  0.96926490288E-01  0.77326293136E-01  0.44917352498E-01  0.13288440348E+00  0.16327767856E-01 0.  0.
         14    1    1    2    0    0 -0.18333577732E-01 -0.43973077578E-02 -0.14899233967E-01  0.24030055363E-01  0.00000000000E+00 0.  1.
     999901    1    3    3    0    0 -0.78592912556E-01 -0.72928985378E-01 -0.30018118532E-01  0.88701554116E+00  0.88000000000E+00 0.  1.
        -11    1    4    4    0    0  0.30444716714E-01  0.27373655879E-01  0.72033282896E-02  0.41573391387E-01  0.51100000000E-03 0. -1.
         11    1    4    4    0    0  0.66481773574E-01  0.49952637257E-01  0.37714024209E-01  0.91311012093E-01  0.51100000000E-03 0.  1.
</event>
<event>
 8    1  0.1150863E+005  0.1043930E+01  0.7957747E-01            NaN
         13   -1    0    0    0    0  0.00000000000E+00  0.00000000000E+00  0.74505805969E-08  0.10566000000E+00  0.10566000000E+00 0. -1.
     999900   -1    0    0    0    0 -0.00000000000E+00 -0.00000000000E+00 -0.74505805969E-08  0.93827000000E+00  0.93827000000E+00 0. -1.
     999902    2    1    2    0    0  0.34868576640E-02 -0.18164726755E-01 -0.14862539860E-01  0.10202021563E+01  0.10199261881E+01 0.  0.
     999903    2    3    3    0    0 -0.31353923056E-01 -0.92026169487E-01 -0.89027629977E-01  0.13331442199E+00  0.19872892315E-01 0.  0.
         14    1    1    2    0    0 -0.34868576640E-02  0.18164726755E-01  0.14862539860E-01  0.23727843677E-01  0.00000000000E+00 0. -1.
     999901    1    3    3    0    0  0.34840780720E-01  0.73861442732E-01  0.74165090117E-01  0.88688773434E+00  0.88000000000E+00 0.  1.
        -11    1    4    4    0    0 -0.27204162657E-01 -0.81451438118E-01 -0.68507464393E-01  0.10985416258E+00  0.51100000000E-03 0.  1.
         11    1    4    4    0    0 -0.41497603997E-02 -0.10574731368E-01 -0.20520165584E-01  0.23460259408E-01  0.51100000000E-03 0. -1.
</event>
<event>
 8    1  0.1150863E+005  0.1043930E+01  0.7957747E-01            NaN
         13   -1    0    0    0    0  0.00000000000E+00  0.00000000000E+00  0.74505805969E-08  0.10566000000E+00  0.10566000000E+00 0. -1.
     999900   -1    0    0    0    0 -0.00000000000E+00 -0.00000000000E+00 -0.74505805969E-08  0.93827000000E+00  0.93827000000E+00 0.  1.
     999902    2    1    2    0    0 -0.10100987611E-01 -0.38035898790E-03 -0.22213359941E-01  0.10195249189E+01  0.10192327763E+01 0.  0.
     999903    2    3    3    0    0  0.64697043939E-01 -0.86014754497E-01  0.65950906105E-01  0.12784059526E+00  0.20234878165E-01 0.  0.
         14    1    1    2    0    0  0.10100987611E-01  0.38035898790E-03  0.22213359941E-01  0.24405081101E-01  0.00000000000E+00 0. -1.
     999901    1    3    3    0    0 -0.74798031550E-01  0.85634395509E-01 -0.88164266046E-01  0.89168432364E+00  0.88000000000E+00 0.  1.
        -11    1    4    4    0    0  0.61779487507E-01 -0.85530882576E-01  0.66597247534E-01  0.12477055522E+00  0.51100000000E-03 0.  1.
         11    1    4    4    0    0  0.29175564319E-02 -0.48387192111E-03 -0.64634142899E-03  0.30700400343E-02  0.51100000000E-03 0. -1.
</event>
<event>
 8    1  0.1150863E+005  0.1043930E+01  0.7957747E-01            NaN
         13   -1    0    0    0    0  0.00000000000E+00  0.00000000000E+00  0.74505805969E-08  0.10566000000E+00  0.10566000000E+00 0.  1.
     999900   -1    0    0    0    0 -0.00000000000E+00 -0.00000000000E+00 -0.74505805969E-08  0.93827000000E+00  0.93827000000E+00 0. -1.
     999902    2    1    2    0    0  0.12768079808E-01  0.42831334818E-02 -0.19295334020E-01  0.10203996152E+01  0.10201282741E+01 0.  0.
     999903    2    3    3    0    0  0.10449304316E+00 -0.18367370899E-01  0.73346215423E-01  0.13050694136E+00  0.19905728902E-01 0.  0.
         14    1    1    2    0    0 -0.12768079808E-01 -0.42831334818E-02  0.19295334020E-01  0.23530384811E-01  0.00000000000E+00 0.  1.
     999901    1    3    3    0    0 -0.91724963355E-01  0.22650504380E-01 -0.92641549443E-01  0.88989267383E+00  0.88000000000E+00 0. -1.
        -11    1    4    4    0    0  0.27089205242E-01 -0.13269797213E-01  0.16996422380E-01  0.34627331018E-01  0.51100000000E-03 0.  1.
         11    1    4    4    0    0  0.77403837921E-01 -0.50975736861E-02  0.56349793043E-01  0.95879610342E-01  0.51100000000E-03 0. -1.
</event>
<event>
 7    1  0.1150863E+005  0.1043930E+01  0.7957747E-01            NaN
         13   -1    0    0    0    0  0.00000000000E+00  0.00000000000E+00  0.74505805969E-08  0.10566000000E+00  0.10566000000E+00 0.  1.
     999900   -1    0    0    0    0 -0.00000000000E+00 -0.00000000000E+00 -0.74505805969E-08  0.93827000000E+00  0.93827000000E+00 0. -1.
     999903    2    1    2    0    0  0.92439352320E-01 -0.65805560005E-02  0.24239163010E-01  0.97202198677E-01  0.16504327599E-01 0.  0.
         14    1    1    2    0    0 -0.53950710387E-02 -0.18781084628E-01  0.55155040209E-01  0.58514223841E-01  0.00000000000E+00 0.  1.
     999901    1    1    2    0    0 -0.87044281281E-01  0.25361640628E-01 -0.79394203219E-01  0.88821357748E+00  0.88000000000E+00 0. -1.
        -11    1    3    3    0    0  0.13354128912E-01 -0.66713487584E-02  0.21665622339E-02  0.15092871370E-01  0.51100000000E-03 0.  1.
         11    1    3    3    0    0  0.79085223408E-01  0.90792757951E-04  0.22072600776E-01  0.82109327307E-01  0.51100000000E-03 0. -1.
</event>
<event>
 8    1  0.1150863E+005  0.1043930E+01  0.7957747E-01            NaN
         13   -1    0    0    0    0  0.00000000000E+00  0.00000000000E+00  0.74505805969E-08  0.10566000000E+00  0.10566000000E+00 0. -1.
     999900   -1    0    0    0    0 -0.00000000000E+00 -0.00000000000E+00 -0.74505805969E-08  0.93827000000E+00  0.93827000000E+00 0.  1.
     999902    2    1    2    0    0  0.18735024678E-01  0.71751184997E-02  0.13285092996E-01  0.10198680555E+01  0.10195841670E+01 0.  0.
     999903    2    3    3    0    0  0.71532119298E-01  0.47523868763E-01  0.10055462277E+00  0.13305830950E+00  0.14762092452E-01 0.  0.
         14    1    1    2    0    0 -0.18735024678E-01 -0.71751184997E-02 -0.13285092996E-01  0.24061944458E-01  0.00000000000E+00 0.  1.
     999901    1    3    3    0    0 -0.52797094619E-01 -0.40348750263E-01 -0.87269529772E-01  0.88680974604E+00  0.88000000000E+00 0.  1.
        -11    1    4    4    0    0  0.15453528815E-01  0.47490329882E-02  0.24245390761E-01  0.29145582192E-01  0.51100000000E-03 0.  1.
         11    1    4    4    0    0  0.56078590483E-01  0.42774835775E-01  0.76309232007E-01  0.10391272731E+00  0.51100000000E-03 0. -1.
</event>
<event>
 8    1  0.1150863E+005  0.1043930E+01  0.7957747E-01            NaN
         13   -1    0    0    0    0  0.00000000000E+00  0.00000000000E+00  0.74505805969E-08  0.10566000000E+00  0.10566000000E+00 0. -1.
     999900   -1    0    0    0    0 -0.00000000000E+00 -0.00000000000E+00 -0.74505805969E-08  0.93827000000E+00  0.93827000000E+00 0.  1.
     999902    2    1    2    0    0  0.15921509851E-01  0.15910495261E-02  0.19077462700E-01  0.10190306928E+01  0.10187264488E+01 0.  0.
     999903    2    3    3    0    0  0.87851971017E-01 -0.46486562906E-01 -0.80061545177E-01  0.12924757828E+00  0.20398924771E-01 0.  0.
         14    1    1    2    0    0 -0.15921509851E-01 -0.15910495261E-02 -0.19077462700E-01  0.24899307171E-01  0.00000000000E+00 0.  1.
     999901    1    3    3    0    0 -0.71930461166E-01  0.48077612432E-01  0.99139007877E-01  0.88978311455E+00  0.88000000000E+00 0. -1.
        -11    1    4    4    0    0  0.58726113886E-01 -0.20696050928E-01 -0.44472242704E-01  0.76518785068E-01  0.51100000000E-03 0. -1.
         11    1    4    4    0    0  0.29125857131E-01 -0.25790511977E-01 -0.35589302474E-01  0.52728793209E-01  0.51100000000E-03 0.  1.
</event>
<event>
 8    1  0.1150863E+005  0.1043930E+01  0.7957747E-01            NaN
         13   -1    0    0    0    0  0.00000000000E+00  0.00000000000E+00  0.74505805969E-08  0.10566000000E+00  0.10566000000E+00 0. -1.
     999900   -1    0    0    0    0 -0.00000000000E+00 -0.00000000000E+00 -0.74505805969E-08  0.93827000000E+00  0.93827000000E+00 0. -1.
     999902    2    1    2    0    0 -0.30786882196E-01 -0.25665456789E-04  0.52801431718E-02  0.10126936000E+01  0.10122117440E+01 0.  0.
     999903    2    3    3    0    0  0.35782643741E-01  0.38782261055E-01  0.10947507538E+00  0.12320265521E+00  0.20239583868E-01 0.  0.
         14    1    1    2    0    0  0.30786882196E-01  0.25665456789E-04 -0.52801431718E-02  0.31236400016E-01  0.00000000000E+00 0. -1.
     999901    1    3    3    0    0 -0.66569525937E-01 -0.38807926511E-01 -0.10419493221E+00  0.88949094478E+00  0.88000000000E+00 0.  1.
        -11    1    4    4    0    0  0.56454674412E-02  0.98172136092E-02  0.93263509206E-02  0.14679609265E-01  0.51100000000E-03 0.  1.
         11    1    4    4    0    0  0.30137176299E-01  0.28965047445E-01  0.10014872446E+00  0.10852304594E+00  0.51100000000E-03 0. -1.
</event>
<event>
 8    1  0.1150863E+005  0.1043930E+01  0.7957747E-01            NaN
         13   -1    0    0    0    0  0.00000000000E+00  0.00000000000E+00  0.74505805969E-08  0.10566000000E+00  0.10566000000E+00 0. -1.
     999900   -1    0    0    0    0 -0.00000000000E+00 -0.00000000000E+00 -0.74505805969E-08  0.93827000000E+00  0.93827000000E+00 0. -1.
     999902    2    1    2    0    0  0.13946068104E-01 -0.23051158169E-03  0.19333336561E-01  0.10200904561E+01  0.10198118526E+01 0.  0.
     999903    2    3    3    0    0  0.40390337308E-01  0.88833182618E-01 -0.82610521645E-01  0.12934683909E+00  0.19580419172E-01 0.  0.
         14    1    1    2    0    0 -0.13946068104E-01  0.23051158169E-03 -0.19333336561E-01  0.23839543908E-01  0.00000000000E+00 0.  1.
     999901    1    3    3    0    0 -0.26444269204E-01 -0.89063694200E-01  0.10194385821E+00  0.89074361700E+00  0.88000000000E+00 0.  1.
        -11    1    4    4    0    0  0.41724898698E-01  0.79374071108E-01 -0.71532672545E-01  0.11471004619E+00  0.51100000000E-03 0.  1.
         11    1    4    4    0    0 -0.13345613894E-02  0.94591115109E-02 -0.11077849100E-01  0.14636792899E-01  0.51100000000E-03 0. -1.
</event>
<event>
 8    1  0.1150863E+005  0.1043930E+01  0.7957747E-01            NaN
         13   -1    0    0    0    0  0.00000000000E+00  0.00000000000E+00  0.74505805969E-08  0.10566000000E+00  0.10566000000E+00 0.  1.
     999900   -1    0    0    0    0 -0.00000000000E+00 -0.00000000000E+00 -0.74505805969E-08  0.93827000000E+00  0.93827000000E+00 0.  1.
     999902    2    1    2    0    0  0.17879037024E-02 -0.12271231088E-01 -0.20448447106E-01  0.10200151782E+01  0.10197347915E+01 0.  0.
     999903    2    3    3    0    0 -0.93998131792E-01  0.36754169658E-01 -0.81325421902E-01  0.13137325900E+00  0.21414741802E-01 0.  0.
         14    1    1    2    0    0 -0.17879037024E-02  0.12271231088E-01  0.20448447106E-01  0.23914821787E-01  0.00000000000E+00 0.  1.
     999901    1    3    3    0    0  0.95786035494E-01 -0.49025400745E-01  0.60876974796E-01  0.88864191921E+00  0.88000000000E+00 0. -1.
        -11    1    4    4    0    0 -0.11873816434E-01  0.22409293570E-02 -0.19471160992E-01  0.22921529453E-01  0.51100000000E-03 0. -1.
         11    1    4    4    0    0 -0.82124315358E-01  0.34513240301E-01 -0.61854260910E-01  0.10845172955E+00  0.51100000000E-03 0.  1.
</event>
<event>
 8    1  0.1150863E+005  0.1043930E+01  0.7957747E-01            NaN
         13   -1    0    0    0    0  0.00000000000E+00  0.00000000000E+00  0.74505805969E-08  0.10566000000E+00  0.10566000000E+00 0. -1.
     999900   -1    0    0    0    0 -0.00000000000E+00 -0.00000000000E+00 -0.74505805969E-08  0.93827000000E+00  0.93827000000E+00 0. -1.
     999902    2    1    2    0    0  0.15065248548E-01 -0.19026177406E-01  0.25789194651E-02  0.10195249193E+01  0.10192327767E+01 0.  0.
     999903    2    3    3    0    0 -0.73256431433E-01 -0.89326812014E-01 -0.57239385975E-01  0.13029990384E+00  0.18866201056E-01 0.  0.
         14    1    1    2    0    0 -0.15065248548E-01  0.19026177406E-01 -0.25789194651E-02  0.24405080743E-01  0.00000000000E+00 0. -1.
     999901    1    3    3    0    0  0.88321679981E-01  0.70300634609E-01  0.59818305441E-01  0.88922501542E+00  0.88000000000E+00 0.  1.
        -11    1    4    4    0    0 -0.58816809959E-01 -0.60566968979E-01 -0.46402834475E-01  0.96339291223E-01  0.51100000000E-03 0. -1.
         11    1    4    4    0    0 -0.14439621474E-01 -0.28759843036E-01 -0.10836551501E-01  0.33960612615E-01  0.51100000000E-03 0.  1.
</event>
<event>
 8    1  0.1150863E+005  0.1043930E+01  0.7957747E-01            NaN
         13   -1    0    0    0    0  0.00000000000E+00  0.00000000000E+00  0.74505805969E-08  0.10566000000E+00  0.10566000000E+00 0. -1.
     999900   -1    0    0    0    0 -0.00000000000E+00 -0.00000000000E+00 -0.74505805969E-08  0.93827000000E+00  0.93827000000E+00 0. -1.
     999902    2    1    2    0    0  0.12534107615E-01 -0.20414569923E-02 -0.20042185075E-01  0.10202032096E+01  0.10199272662E+01 0.  0.
     999903    2    3    3    0    0 -0.11803214280E+00 -0.44280827687E-01  0.16719617361E-01  0.12880927855E+00  0.20491612962E-01 0.  0.
         14    1    1    2    0    0 -0.12534107615E-01  0.20414569923E-02  0.20042185075E-01  0.23726790406E-01  0.00000000000E+00 0. -1.
     999901    1    3    3    0    0  0.13056625041E+00  0.42239370694E-01 -0.36761802436E-01  0.89139393104E+00  0.88000000000E+00 0.  1.
        -11    1    4    4    0    0 -0.31911427941E-01 -0.15033213779E-01  0.13579161686E-01  0.37802003953E-01  0.51100000000E-03 0. -1.
         11    1    4    4    0    0 -0.86120714857E-01 -0.29247613908E-01  0.31404556748E-02  0.91007274597E-01  0.51100000000E-03 0.  1.
</event>
<event>
 8    1  0.1150863E+005  0.1043930E+01  0.7957747E-01            NaN
         13   -1    0    0    0    0  0.00000000000E+00  0.00000000000E+00  0.74505805969E-08  0.10566000000E+00  0.10566000000E+00 0.  1.
     999900   -1    0    0    0    0 -0.00000000000E+00 -0.00000000000E+00 -0.74505805969E-08  0.93827000000E+00  0.93827000000E+00 0. -1.
     999902    2    1    2    0    0 -0.49872127170E-02  0.22806852997E-01 -0.60386780522E-02  0.10198158866E+01  0.10195307509E+01 0.  0.
     999903    2    3    3    0    0  0.94762154683E-01 -0.82649493984E-01 -0.13578810656E-01  0.12789221773E+00  0.19006063293E-01 0.  0.
         14    1    1    2    0    0  0.49872127170E-02 -0.22806852997E-01  0.60386780522E-02  0.24114113439E-01  0.00000000000E+00 0.  1.
     999901    1    3    3    0    0 -0.99749367400E-01  0.10545634698E+00  0.75401326035E-02  0.89192366883E+00  0.88000000000E+00 0. -1.
        -11    1    4    4    0    0  0.23297551583E-01 -0.27291047111E-01 -0.10698251291E-01  0.37447174311E-01  0.51100000000E-03 0. -1.
         11    1    4    4    0    0  0.71464603100E-01 -0.55358446873E-01 -0.28805593650E-02  0.90445043422E-01  0.51100000000E-03 0.  1.
</event>
<event>
 8    1  0.1150863E+005  0.1043930E+01  0.7957747E-01            NaN
         13   -1    0    0    0    0  0.00000000000E+00  0.00000000000E+00  0.74505805969E-08  0.10566000000E+00  0.10566000000E+00 0.  1.
     999900   -1    0    0    0    0 -0.00000000000E+00 -0.00000000000E+00 -0.74505805969E-08  0.93827000000E+00  0.93827000000E+00 0. -1.
     999902    2    1    2    0    0 -0.12741096661E-01 -0.26812585288E-01  0.39980307732E-02  0.10139761267E+01  0.10135335964E+01 0.  0.
     999903    2    3    3    0    0 -0.11938641109E+00 -0.34626663165E-01  0.17466474191E-01  0.12740087224E+00  0.21766570054E-01 0.  0.
         14    1    1    2    0    0  0.12741096661E-01  0.26812585288E-01 -0.39980307732E-02  0.29953873272E-01  0.00000000000E+00 0. -1.
     999901    1    3    3    0    0  0.10664531443E+00  0.78140778772E-02 -0.13468443417E-01  0.88657525449E+00  0.88000000000E+00 0. -1.
        -11    1    4    4    0    0 -0.12602166809E-01 -0.30929222129E-02 -0.48133322621E-02  0.13849551060E-01  0.51100000000E-03 0. -1.
         11    1    4    4    0    0 -0.10678424428E+00 -0.31533740952E-01  0.22279806453E-01  0.11355132118E+00  0.51100000000E-03 0.  1.
</event>
<event>
 8    1  0.1150863E+005  0.1043930E+01  0.7957747E-01            NaN
         13   -1    0    0    0    0  0.00000000000E+00  0.00000000000E+00  0.74505805969E-08  0.10566000000E+00  0.10566000000E+00 0.  1.
     999900   -1    0    0    0    0 -0.00000000000E+00 -0.00000000000E+00 -0.74505805969E-08  0.93827000000E+00  0.93827000000E+00 0.  1.
     999902    2    1    2    0    0 -0.63786571139E-02  0.66700405815E-02  0.21245238212E-01  0.10207667348E+01  0.10205038903E+01 0.  0.
     999903    2    3    3    0    0 -0.88753654012E-01 -0.54175994259E-01  0.80189578447E-01  0.13286904063E+00  0.20287040498E-01 0.  0.
         14    1    1    2    0    0  0.63786571139E-02 -0.66700405815E-02 -0.21245238212E-01  0.23163265197E-01  0.00000000000E+00 0. -1.
     999901    1    3    3    0    0  0.82374996898E-01  0.60846034841E-01 -0.58944340236E-01  0.88789769417E+00  0.88000000000E+00 0.  1.
        -11    1    4    4    0    0 -0.51787733710E-01 -0.34070385711E-01  0.59694111490E-01  0.86060493914E-01  0.51100000000E-03 0.  1.
         11    1    4    4    0    0 -0.36965920302E-01 -0.20105608548E-01  0.20495466958E-01  0.46808546716E-01  0.51100000000E-03 0. -1.
</event>
<event>
 8    1  0.1150863E+005  0.1043930E+01  0.7957747E-01            NaN
         13   -1    0    0    0    0  0.00000000000E+00  0.00000000000E+00  0.74505805969E-08  0.10566000000E+00  0.10566000000E+00 0. -1.
     999900   -1    0    0    0    0 -0.00000000000E+00 -0.00000000000E+00 -0.74505805969E-08  0.93827000000E+00  0.93827000000E+00 0.  1.
     999902    2    1    2    0    0 -0.70049357254E-02  0.18223283134E-01  0.13381894511E-01  0.10202607737E+01  0.10199861833E+01 0.  0.
     999903    2    3    3    0    0  0.89033430370E-01  0.11156782443E-02 -0.90779136406E-01  0.12876452679E+00  0.20279430230E-01 0.  0.
         14    1    1    2    0    0  0.70049357254E-02 -0.18223283134E-01 -0.13381894511E-01  0.23669226295E-01  0.00000000000E+00 0. -1.
     999901    1    3    3    0    0 -0.96038366096E-01  0.17107604890E-01  0.10416103092E+00  0.89149624692E+00  0.88000000000E+00 0. -1.
        -11    1    4    4    0    0  0.34574777380E-01  0.71883397784E-02 -0.25653464762E-01  0.43651447112E-01  0.51100000000E-03 0.  1.
         11    1    4    4    0    0  0.54458652990E-01 -0.60726615341E-02 -0.65125671644E-01  0.85113079675E-01  0.51100000000E-03 0. -1.
</event>
<event>
 8    1  0.1150863E+005  0.1043930E+01  0.7957747E-01            NaN
         13   -1    0    0    0    0  0.00000000000E+00  0.00000000000E+00  0.74505805969E-08  0.10566000000E+00  0.10566000000E+00 0. -1.
     999900   -1    0    0    0    0 -0.00000000000E+00 -0.00000000000E+00 -0.74505805969E-08  0.93827000000E+00  0.93827000000E+00 0. -1.
     999902    2    1    2    0    0  0.77246808655E-02 -0.97981220671E-02 -0.15663836991E-01  0.10239042746E+01  0.10237084222E+01 0.  0.
     999903    2    3    3    0    0  0.13082334511E+00 -0.10058619167E-01  0.21711136261E-01  0.13455044304E+00  0.20408940174E-01 0.  0.
         14    1    1    2    0    0 -0.77246808655E-02  0.97981220671E-02  0.15663836991E-01  0.20025725450E-01  0.00000000000E+00 0. -1.
     999901    1    3    3    0    0 -0.12309866424E+00  0.26049709951E-03 -0.37374973252E-01  0.88935383151E+00  0.88000000000E+00 0. -1.
        -11    1    4    4    0    0  0.89384106714E-01 -0.19415366308E-03  0.77512211978E-02  0.89721228144E-01  0.51100000000E-03 0.  1.
         11    1    4    4    0    0  0.41439238396E-01 -0.98644655036E-02  0.13959915063E-01  0.44829214895E-01  0.51100000000E-03 0. -1.
</event>
<event>
 8    1  0.1150863E+005  0.1043930E+01  0.7957747E-01            NaN
         13   -1    0    0    0    0  0.00000000000E+00  0.00000000000E+00  0.74505805969E-08  0.10566000000E+00  0.10566000000E+00 0. -1.
     999900   -1    0    0    0    0 -0.00000000000E+00 -0.00000000000E+00 -0.74505805969E-08  0.93827000000E+00  0.93827000000E+00 0. -1.
     999902    2    1    2    0    0  0.17176517454E-01  0.11598002801E-01 -0.12294708519E-01  0.10198321520E+01  0.10195474055E+01 0.  0.
     999903    2    3    3    0    0  0.10577994613E+00 -0.71966334416E-01  0.19159571635E-01  0.13088730682E+00  0.19895919374E-01 0.  0.
         14    1    1    2    0    0 -0.17176517454E-01 -0.11598002801E-01  0.12294708519E-01  0.24097848003E-01  0.00000000000E+00 0. -1.
     999901    1    3    3    0    0 -0.88603428679E-01  0.83564337217E-01 -0.31454280154E-01  0.88894484518E+00  0.88000000000E+00 0. -1.
        -11    1    4    4    0    0  0.58089726082E-01 -0.29729203463E-01  0.15514079190E-01  0.67075998606E-01  0.51100000000E-03 0.  1.
         11    1    4    4    0    0  0.47690220051E-01 -0.42237130953E-01  0.36454924451E-02  0.63811308213E-01  0.51100000000E-03 0. -1.
</event>
<event>
 8    1  0.1150863E+005  0.1043930E+01  0.7957747E-01            NaN
         13   -1    0    0    0    0  0.00000000000E+00  0.00000000000E+00  0.74505805969E-08  0.10566000000E+00  0.10566000000E+00 0. -1.
     999900   -1    0    0    0    0 -0.00000000000E+00 -0.00000000000E+00 -0.74505805969E-08  0.93827000000E+00  0.93827000000E+00 0.  1.
     999902    2    1    2    0    0 -0.13024688127E-01  0.19504444146E-01 -0.27071993280E-02  0.10203207906E+01  0.10200476072E+01 0.  0.
     999903    2    3    3    0    0 -0.36628609699E-03  0.70406216806E-01  0.10895349965E+00  0.13171551413E+00  0.22824154884E-01 0.  0.
         14    1    1    2    0    0  0.13024688127E-01 -0.19504444146E-01  0.27071993280E-02  0.23609209441E-01  0.00000000000E+00 0. -1.
     999901    1    3    3    0    0 -0.12658402030E-01 -0.50901772660E-01 -0.11166069898E+00  0.88860527643E+00  0.88000000000E+00 0.  1.
        -11    1    4    4    0    0 -0.62325787408E-02  0.58049683010E-02  0.18839074408E-01  0.20681260607E-01  0.51100000000E-03 0. -1.
         11    1    4    4    0    0  0.58662926438E-02  0.64601248505E-01  0.90114425241E-01  0.11103425352E+00  0.51100000000E-03 0.  1.
</event>
<event>
 8    1  0.1150863E+005  0.1043930E+01  0.7957747E-01            NaN
         13   -1    0    0    0    0  0.00000000000E+00  0.00000000000E+00  0.74505805969E-08  0.10566000000E+00  0.10566000000E+00 0. -1.
     999900   -1    0    0    0    0 -0.00000000000E+00 -0.00000000000E+00 -0.74505805969E-08  0.93827000000E+00  0.93827000000E+00 0.  1.
     999902    2    1    2    0    0  0.60326857046E-02 -0.77849949106E-03  0.24040482732E-01  0.10191319322E+01  0.10188301875E+01 0.  0.
     999903    2    3    3    0    0 -0.10230293074E+00  0.74623822452E-01 -0.11281651432E-01  0.12858728471E+00  0.19308278438E-01 0.  0.
         14    1    1    2    0    0 -0.60326857046E-02  0.77849949106E-03 -0.24040482732E-01  0.24798067833E-01  0.00000000000E+00 0.  1.
     999901    1    3    3    0    0  0.10833561644E+00 -0.75402321943E-01  0.35322134163E-01  0.89054464745E+00  0.88000000000E+00 0.  1.
        -11    1    4    4    0    0 -0.73905934713E-01  0.51019987212E-01 -0.16438034830E-01  0.91299487353E-01  0.51100000000E-03 0.  1.
         11    1    4    4    0    0 -0.28396996026E-01  0.23603835240E-01  0.51563833983E-02  0.37287797362E-01  0.51100000000E-03 0. -1.
</event>
<event>
 8    1  0.1150863E+005  0.1043930E+01  0.7957747E-01            NaN
         13   -1    0    0    0    0  0.00000000000E+00  0.00000000000E+00  0.74505805969E-08  0.10566000000E+00  0.10566000000E+00 0.  1.
     999900   -1    0    0    0    0 -0.00000000000E+00 -0.00000000000E+00 -0.74505805969E-08  0.93827000000E+00  0.93827000000E+00 0. -1.
     999902    2    1    2    0    0 -0.19243557272E-01  0.86445551338E-02 -0.11392908547E-01  0.10199541539E+01  0.10196723174E+01 0.  0.
     999903    2    3    3    0    0  0.39063735553E-01 -0.90474364459E-01  0.79130029040E-01  0.12786744130E+00  0.19414813624E-01 0.  0.
         14    1    1    2    0    0  0.19243557272E-01 -0.86445551338E-02  0.11392908547E-01  0.23975846076E-01  0.00000000000E+00 0. -1.
     999901    1    3    3    0    0 -0.58307292825E-01  0.99118919593E-01 -0.90522937586E-01  0.89208671263E+00  0.88000000000E+00 0. -1.
        -11    1    4    4    0    0  0.26895004859E-01 -0.39755682440E-01  0.33165980702E-01  0.58344656735E-01  0.51100000000E-03 0. -1.
         11    1    4    4    0    0  0.12168730694E-01 -0.50718682019E-01  0.45964048337E-01  0.69522784560E-01  0.51100000000E-03 0.  1.
</event>
<event>
 8    1  0.1150863E+005  0.1043930E+01  0.7957747E-01            NaN
         13   -1    0    0    0    0  0.00000000000E+00  0.00000000000E+00  0.74505805969E-08  0.10566000000E+00  0.10566000000E+00 0. -1.
     999900   -1    0    0    0    0 -0.00000000000E+00 -0.00000000000E+00 -0.74505805969E-08  0.93827000000E+00  0.93827000000E+00 0.  1.
     999902    2    1    2    0    0 -0.92526990347E-02  0.20332632122E-01  0.87909291857E-02  0.10199235674E+01  0.10196410028E+01 0.  0.
     999903    2    3    3    0    0 -0.61162248770E-01  0.10511855896E+00  0.50831540520E-01  0.13332858226E+00  0.20048272345E-01 0.  0.
         14    1    1    2    0    0  0.92526990347E-02 -0.20332632122E-01 -0.87909291857E-02  0.24006432563E-01  0.00000000000E+00 0.  1.
     999901    1    3    3    0    0  0.51909549736E-01 -0.84785926833E-01 -0.42040611334E-01  0.88659498518E+00  0.88000000000E+00 0.  1.
        -11    1    4    4    0    0 -0.89423948192E-02  0.33007140664E-01  0.15256178258E-01  0.37449297136E-01  0.51100000000E-03 0. -1.
         11    1    4    4    0    0 -0.52219853951E-01  0.72111418291E-01  0.35575362262E-01  0.95879285123E-01  0.51100000000E-03 0.  1.
</event>
<event>
 8    1  0.1150863E+005  0.1043930E+01  0.7957747E-01            NaN
         13   -1    0    0    0    0  0.00000000000E+00  0.00000000000E+00  0.74505805969E-08  0.10566000000E+00  0.10566000000E+00 0.  1.
     999900   -1    0    0    0    0 -0.00000000000E+00 -0.00000000000E+00 -0.74505805969E-08  0.93827000000E+00  0.93827000000E+00 0. -1.
     999902    2    1    2    0    0  0.17775087182E-01  0.11865391821E-02  0.14931309855E-01  0.10206855251E+01  0.10204208130E+01 0.  0.
     999903    2    3    3    0    0 -0.41530864332E-01  0.52813356433E-01  0.11121844960E+00  0.13194836630E+00  0.22951351316E-01 0.  0.
         14    1    1    2    0    0 -0.17775087182E-01 -0.11865391821E-02 -0.14931309855E-01  0.23244474903E-01  0.00000000000E+00 0. -1.
     999901    1    3    3    0    0  0.59305951513E-01 -0.51626817251E-01 -0.96287139749E-01  0.88873715880E+00  0.88000000000E+00 0. -1.
        -11    1    4    4    0    0 -0.25052228969E-01  0.36929176292E-01  0.52383293955E-01  0.68816050776E-01  0.51100000000E-03 0.  1.
         11    1    4    4    0    0 -0.16478635363E-01  0.15884180141E-01  0.58835155649E-01  0.63132315524E-01  0.51100000000E-03 0. -1.
</event>
<event>
 8    1  0.1150863E+005  0.1043930E+01  0.7957747E-01            NaN
         13   -1    0    0    0    0  0.00000000000E+00  0.00000000000E+00  0.74505805969E-08  0.10566000000E+00  0.10566000000E+00 0. -1.
     999900   -1    0    0    0    0 -0.00000000000E+00 -0.00000000000E+00 -0.74505805969E-08  0.93827000000E+00  0.93827000000E+00 0.  1.
     999902    2    1    2    0    0  0.19367942740E-01  0.11833845581E-01  0.30625006303E-02  0.10210272487E+01  0.10207703496E+01 0.  0.
     999903    2    3    3    0    0 -0.69812948303E-02  0.12148856679E+00 -0.48304034265E-01  0.13234453754E+00  0.19328387179E-01 0.  0.
         14    1    1    2    0    0 -0.19367942740E-01 -0.11833845581E-01 -0.30625006303E-02  0.22902751305E-01  0.00000000000E+00 0. -1.
     999901    1    3    3    0    0  0.26349237570E-01 -0.10965472121E+00  0.51366534896E-01  0.88868271116E+00  0.88000000000E+00 0. -1.
        -11    1    4    4    0    0 -0.12373218778E-01  0.10754202190E+00 -0.42320187904E-01  0.11623098745E+00  0.51100000000E-03 0.  1.
         11    1    4    4    0    0  0.53919239478E-02  0.13946544888E-01 -0.59838463610E-02  0.16113550089E-01  0.51100000000E-03 0. -1.
</event>
<event>
 8    1  0.1150863E+005  0.1043930E+01  0.7957747E-01            NaN
         13   -1    0    0    0    0  0.00000000000E+00  0.00000000000E+00  0.74505805969E-08  0.10566000000E+00  0.10566000000E+00 0.  1.
     999900   -1    0    0    0    0 -0.00000000000E+00 -0.00000000000E+00 -0.74505805969E-08  0.93827000000E+00  0.93827000000E+00 0. -1.
     999902    2    1    2    0    0 -0.61372281673E-02  0.20425472031E-01  0.10057786244E-01  0.10203498274E+01  0.10200773234E+01 0.  0.
     999903    2    3    3    0    0 -0.24969111647E-02  0.11396863582E+00  0.66642779938E-01  0.13357734420E+00  0.20163388833E-01 0.  0.
         14    1    1    2    0    0  0.61372281673E-02 -0.20425472031E-01 -0.10057786244E-01  0.23580172633E-01  0.00000000000E+00 0. -1.
     999901    1    3    3    0    0 -0.36403170026E-02 -0.93543163785E-01 -0.56584993694E-01  0.88677248317E+00  0.88000000000E+00 0. -1.
        -11    1    4    4    0    0 -0.11191548460E-01  0.64405718620E-01  0.35343779343E-01  0.74315484302E-01  0.51100000000E-03 0.  1.
         11    1    4    4    0    0  0.86946372953E-02  0.49562917196E-01  0.31299000595E-01  0.59261859893E-01  0.51100000000E-03 0. -1.
</event>
<event>
 8    1  0.1150863E+005  0.1043930E+01  0.7957747E-01            NaN
         13   -1    0    0    0    0  0.00000000000E+00  0.00000000000E+00  0.74505805969E-08  0.10566000000E+00  0.10566000000E+00 0.  1.
     999900   -1    0    0    0    0 -0.00000000000E+00 -0.00000000000E+00 -0.74505805969E-08  0.93827000000E+00  0.93827000000E+00 0.  1.
     999902    2    1    2    0    0  0.47771755225E-02  0.25582094373E-02 -0.22726270752E-01  0.10205665836E+01  0.10202991240E+01 0.  0.
     999903    2    3    3    0    0 -0.21858321822E-01  0.12496720449E-01  0.12396823993E+00  0.12797064864E+00  0.19349629110E-01 0.  0.
         14    1    1    2    0    0 -0.47771755225E-02 -0.25582094373E-02  0.22726270752E-01  0.23363416356E-01  0.00000000000E+00 0.  1.
     999901    1    3    3    0    0  0.26635497344E-01 -0.99385110119E-02 -0.14669451068E+00  0.89259593500E+00  0.88000000000E+00 0.  1.
        -11    1    4    4    0    0 -0.96536164244E-02  0.34317306995E-02  0.16483354316E-01  0.19414715455E-01  0.51100000000E-03 0.  1.
         11    1    4    4    0    0 -0.12204705397E-01  0.90649897497E-02  0.10748488562E+00  0.10855593319E+00  0.51100000000E-03 0. -1.
</event>
<event>
 8    1  0.1150863E+005  0.1043930E+01  0.7957747E-01            NaN
         13   -1    0    0    0    0  0.00000000000E+00  0.00000000000E+00  0.74505805969E-08  0.10566000000E+00  0.10566000000E+00 0. -1.
     999900   -1    0    0    0    0 -0.00000000000E+00 -0.00000000000E+00 -0.74505805969E-08  0.93827000000E+00  0.93827000000E+00 0. -1.
     999902    2    1    2    0    0 -0.38135652965E-02  0.22493468713E-02 -0.24341399434E-01  0.10191892125E+01  0.10188888773E+01 0.  0.
     999903    2    3    3    0    0  0.96360589750E-01  0.76875055644E-01  0.30137728061E-01  0.12869955330E+00  0.21451222072E-01 0.  0.
         14    1    1    2    0    0  0.38135652965E-02 -0.22493468713E-02  0.24341399434E-01  0.24740787539E-01  0.00000000000E+00 0. -1.
     999901    1    3    3    0    0 -0.10017415505E+00 -0.74625708773E-01 -0.54479127495E-01  0.89048965917E+00  0.88000000000E+00 0. -1.
        -11    1    4    4    0    0  0.66340455295E-01  0.39810540162E-01  0.20426211367E-01  0.80021411813E-01  0.51100000000E-03 0. -1.
         11    1    4    4    0    0  0.30020134455E-01  0.37064515482E-01  0.97115166937E-02  0.48678141482E-01  0.51100000000E-03 0.  1.
</event>
<event>
 8    1  0.1150863E+005  0.1043930E+01  0.7957747E-01            NaN
         13   -1    0    0    0    0  0.00000000000E+00  0.00000000000E+00  0.74505805969E-08  0.10566000000E+00  0.10566000000E+00 0.  1.
     999900   -1    0    0    0    0 -0.00000000000E+00 -0.00000000000E+00 -0.74505805969E-08  0.93827000000E+00  0.93827000000E+00 0. -1.
     999902    2    1    2    0    0 -0.20541213367E-01  0.72711816089E-02  0.77590898964E-02  0.10207996086E+01  0.10205375182E+01 0.  0.
     999903    2    3    3    0    0 -0.87806012757E-01  0.94455460238E-01  0.28785908562E-01  0.13368756454E+00  0.20297944137E-01 0.  0.
         14    1    1    2    0    0  0.20541213367E-01 -0.72711816089E-02 -0.77590898964E-02  0.23130391362E-01  0.00000000000E+00 0. -1.
     999901    1    3    3    0    0  0.67264799391E-01 -0.87184278629E-01 -0.21026818666E-01  0.88711204410E+00  0.88000000000E+00 0.  1.
        -11    1    4    4    0    0 -0.26673994999E-01  0.39095579856E-01  0.36694083273E-02  0.47473066595E-01  0.51100000000E-03 0. -1.
         11    1    4    4    0    0 -0.61132017758E-01  0.55359880382E-01  0.25116500235E-01  0.86214497946E-01  0.51100000000E-03 0.  1.
</event>
<event>
 8    1  0.1150863E+005  0.1043930E+01  0.7957747E-01            NaN
         13   -1    0    0    0    0  0.00000000000E+00  0.00000000000E+00  0.74505805969E-08  0.10566000000E+00  0.10566000000E+00 0.  1.
     999900   -1    0    0    0    0 -0.00000000000E+00 -0.00000000000E+00 -0.74505805969E-08  0.93827000000E+00  0.93827000000E+00 0. -1.
     999902    2    1    2    0    0  0.19623857595E-02 -0.23957214887E-01 -0.13612010267E-02  0.10198540375E+01  0.10195698141E+01 0.  0.
     999903    2    3    3    0    0  0.43072433830E-01  0.47369772182E-01 -0.11045238752E+00  0.12930450932E+00  0.20513321284E-01 0.  0.
         14    1    1    2    0    0 -0.19623857595E-02  0.23957214887E-01  0.13612010267E-02  0.24075962520E-01  0.00000000000E+00 0.  1.
     999901    1    3    3    0    0 -0.41110048070E-01 -0.71326987069E-01  0.10909118649E+00  0.89054952816E+00  0.88000000000E+00 0.  1.
        -11    1    4    4    0    0  0.30716606087E-01  0.43822427602E-01 -0.80050123504E-01  0.96292255371E-01  0.51100000000E-03 0.  1.
         11    1    4    4    0    0  0.12355827742E-01  0.35473445794E-02 -0.30402264012E-01  0.33012253949E-01  0.51100000000E-03 0. -1.
</event>
<event>
 8    1  0.1150863E+005  0.1043930E+01  0.7957747E-01            NaN
         13   -1    0    0    0    0  0.00000000000E+00  0.00000000000E+00  0.74505805969E-08  0.10566000000E+00  0.10566000000E+00 0. -1.
     999900   -1    0    0    0    0 -0.00000000000E+00 -0.00000000000E+00 -0.74505805969E-08  0.93827000000E+00  0.93827000000E+00 0. -1.
     999902    2    1    2    0    0  0.16181371119E-01  0.13698518293E-02  0.25037067897E-01  0.10140876135E+01  0.10136484202E+01 0.  0.
     999903    2    3    3    0    0 -0.37911613138E-01  0.96254412786E-01  0.69166815603E-01  0.12623820873E+00  0.21209303874E-01 0.  0.
         14    1    1    2    0    0 -0.16181371119E-01 -0.13698518293E-02 -0.25037067897E-01  0.29842386537E-01  0.00000000000E+00 0.  1.
     999901    1    3    3    0    0  0.54092984257E-01 -0.94884560957E-01 -0.44129747706E-01  0.88784940473E+00  0.88000000000E+00 0. -1.
        -11    1    4    4    0    0 -0.22588092070E-01  0.53854692465E-01  0.26389632219E-01  0.64087624496E-01  0.51100000000E-03 0. -1.
         11    1    4    4    0    0 -0.15323521067E-01  0.42399720322E-01  0.42777183384E-01  0.62150584233E-01  0.51100000000E-03 0.  1.
</event>
<event>
 8    1  0.1150863E+005  0.1043930E+01  0.7957747E-01            NaN
         13   -1    0    0    0    0  0.00000000000E+00  0.00000000000E+00  0.74505805969E-08  0.10566000000E+00  0.10566000000E+00 0.  1.
     999900   -1    0    0    0    0 -0.00000000000E+00 -0.00000000000E+00 -0.74505805969E-08  0.93827000000E+00  0.93827000000E+00 0.  1.
     999902    2    1    2    0    0  0.36410241276E-02  0.19924376565E-03 -0.22913266088E-01  0.10207283941E+01  0.10204646686E+01 0.  0.
     999903    2    3    3    0    0  0.11939825274E+00  0.43605334098E-01  0.24869006186E-01  0.13080313306E+00  0.18265383385E-01 0.  0.
         14    1    1    2    0    0 -0.36410241276E-02 -0.19924376565E-03  0.22913266088E-01  0.23201605927E-01  0.00000000000E+00 0.  1.
     999901    1    3    3    0    0 -0.11575722861E+00 -0.43406090333E-01 -0.47782272274E-01  0.88992526102E+00  0.88000000000E+00 0.  1.
        -11    1    4    4    0    0  0.91928759830E-01  0.36512488701E-01  0.26427862690E-01  0.10238531029E+00  0.51100000000E-03 0.  1.
         11    1    4    4    0    0  0.27469492907E-01  0.70928453971E-02 -0.15588565041E-02  0.28417822770E-01  0.51100000000E-03 0. -1.
</event>
<event>
 8    1  0.1150863E+005  0.1043930E+01  0.7957747E-01            NaN
         13   -1    0    0    0    0  0.00000000000E+00  0.00000000000E+00  0.74505805969E-08  0.10566000000E+00  0.10566000000E+00 0. -1.
     999900   -1    0    0    0    0 -0.00000000000E+00 -0.00000000000E+00 -0.74505805969E-08  0.93827000000E+00  0.93827000000E+00 0. -1.
     999902    2    1    2    0    0 -0.20604668397E-01  0.11006675433E-01 -0.34747042446E-02  0.10203127852E+01  0.10200394144E+01 0.  0.
     999903    2    3    3    0    0 -0.34087027534E-01 -0.11281233380E+00  0.50697501255E-01  0.12989291298E+00  0.20331849512E-01 0.  0.
         14    1    1    2    0    0  0.20604668397E-01 -0.11006675433E-01  0.34747042446E-02  0.23617214768E-01  0.00000000000E+00 0. -1.
     999901    1    3    3    0    0  0.13482359137E-01  0.12381900923E+00 -0.54172205500E-01  0.89041987225E+00  0.88000000000E+00 0.  1.
        -11    1    4    4    0    0 -0.33145552202E-01 -0.78246683413E-01  0.34721762164E-01  0.91798872459E-01  0.51100000000E-03 0. -1.
         11    1    4    4    0    0 -0.94147533175E-03 -0.34565650388E-01  0.15975739091E-01  0.38094040519E-01  0.51100000000E-03 0.  1.
</event>
<event>
 8    1  0.1150863E+005  0.1043930E+01  0.7957747E-01            NaN
         13   -1    0    0    0    0  0.00000000000E+00  0.00000000000E+00  0.74505805969E-08  0.10566000000E+00  0.10566000000E+00 0.  1.
     999900   -1    0    0    0    0 -0.00000000000E+00 -0.00000000000E+00 -0.74505805969E-08  0.93827000000E+00  0.93827000000E+00 0.  1.
     999902    2    1    2    0    0  0.11512764180E-01 -0.13976778939E-01  0.15081365896E-01  0.10203643113E+01  0.10200921458E+01 0.  0.
     999903    2    3    3    0    0 -0.56036744694E-01 -0.28392599363E-01  0.11323885088E+00  0.13221700147E+00  0.26684109001E-01 0.  0.
         14    1    1    2    0    0 -0.11512764180E-01  0.13976778939E-01 -0.15081365896E-01  0.23565688742E-01  0.00000000000E+00 0. -1.
     999901    1    3    3    0    0  0.67549508874E-01  0.14415820424E-01 -0.98157484988E-01  0.88814730979E+00  0.88000000000E+00 0.  1.
        -11    1    4    4    0    0 -0.23629843678E-01 -0.14777071582E-02  0.24993701590E-01  0.34431081465E-01  0.51100000000E-03 0.  1.
         11    1    4    4    0    0 -0.32406901016E-01 -0.26914892205E-01  0.88245149295E-01  0.97785920003E-01  0.51100000000E-03 0. -1.
</event>
<event>
 8    1  0.1150863E+005  0.1043930E+01  0.7957747E-01            NaN
         13   -1    0    0    0    0  0.00000000000E+00  0.00000000000E+00  0.74505805969E-08  0.10566000000E+00  0.10566000000E+00 0. -1.
     999900   -1    0    0    0    0 -0.00000000000E+00 -0.00000000000E+00 -0.74505805969E-08  0.93827000000E+00  0.93827000000E+00 0. -1.
     999902    2    1    2    0    0 -0.19951616976E-01  0.11559529378E-01  0.48689675596E-02  0.10203631465E+01  0.10200909538E+01 0.  0.
     999903    2    3    3    0    0  0.30165265675E-01  0.71109296591E-01  0.10433943548E+00  0.13134557034E+00  0.19961606605E-01 0.  0.
         14    1    1    2    0    0  0.19951616976E-01 -0.11559529378E-01 -0.48689675596E-02  0.23566853513E-01  0.00000000000E+00 0. -1.
     999901    1    3    3    0    0 -0.50116882651E-01 -0.59549767212E-01 -0.99470467919E-01  0.88901757614E+00  0.88000000000E+00 0. -1.
        -11    1    4    4    0    0  0.15789534910E-01  0.28656516577E-01  0.59733177138E-01  0.68108875538E-01  0.51100000000E-03 0.  1.
         11    1    4    4    0    0  0.14375730765E-01  0.42452780014E-01  0.44606258340E-01  0.63236694807E-01  0.51100000000E-03 0. -1.
</event>
<event>
 8    1  0.1150863E+005  0.1043930E+01  0.7957747E-01            NaN
         13   -1    0    0    0    0  0.00000000000E+00  0.00000000000E+00  0.74505805969E-08  0.10566000000E+00  0.10566000000E+00 0.  1.
     999900   -1    0    0    0    0 -0.00000000000E+00 -0.00000000000E+00 -0.74505805969E-08  0.93827000000E+00  0.93827000000E+00 0. -1.
     999902    2    1    2    0    0 -0.66749295676E-02 -0.15781407336E-01  0.16148366327E-01  0.10203847831E+01  0.10201130959E+01 0.  0.
     999903    2    3    3    0    0 -0.11942669005E+00  0.34499406988E-01 -0.28252303841E-01  0.13065867961E+00  0.28645322596E-01 0.  0.
         14    1    1    2    0    0  0.66749295676E-02  0.15781407336E-01 -0.16148366327E-01  0.23545216866E-01  0.00000000000E+00 0. -1.
     999901    1    3    3    0    0  0.11275176048E+00 -0.50280814323E-01  0.44400670168E-01  0.88972610352E+00  0.88000000000E+00 0.  1.
        -11    1    4    4    0    0 -0.69547894537E-01  0.10201407746E-01 -0.26571956490E-01  0.75148575151E-01  0.51100000000E-03 0.  1.
         11    1    4    4    0    0 -0.49878795512E-01  0.24297999242E-01 -0.16803473514E-02  0.55510104459E-01  0.51100000000E-03 0. -1.
</event>
<event>
 8    1  0.1150863E+005  0.1043930E+01  0.7957747E-01            NaN
         13   -1    0    0    0    0  0.00000000000E+00  0.00000000000E+00  0.74505805969E-08  0.10566000000E+00  0.10566000000E+00 0. -1.
     999900   -1    0    0    0    0 -0.00000000000E+00 -0.00000000000E+00 -0.74505805969E-08  0.93827000000E+00  0.93827000000E+00 0. -1.
     999902    2    1    2    0    0  0.19415341195E-01  0.33033057386E-02 -0.13522371509E-01  0.10200402149E+01  0.10197604219E+01 0.  0.
     999903    2    3    3    0    0 -0.65715458499E-01 -0.63385848431E-01  0.86973411408E-01  0.12774312380E+00  0.20436343101E-01 0.  0.
         14    1    1    2    0    0 -0.19415341195E-01 -0.33033057386E-02  0.13522371509E-01  0.23889785134E-01  0.00000000000E+00 0.  1.
     999901    1    3    3    0    0  0.85130799694E-01  0.66689154169E-01 -0.10049578292E+00  0.89229709107E+00  0.88000000000E+00 0. -1.
        -11    1    4    4    0    0 -0.20834320286E-01 -0.32276322428E-01  0.42698773831E-01  0.57439327111E-01  0.51100000000E-03 0.  1.
         11    1    4    4    0    0 -0.44881138213E-01 -0.31109526003E-01  0.44274637576E-01  0.70303796689E-01  0.51100000000E-03 0. -1.
</event>
<event>
 8    1  0.1150863E+005  0.1043930E+01  0.7957747E-01            NaN
         13   -1    0    0    0    0  0.00000000000E+00  0.00000000000E+00  0.74505805969E-08  0.10566000000E+00  0.10566000000E+00 0. -1.
     999900   -1    0    0    0    0 -0.00000000000E+00 -0.00000000000E+00 -0.74505805969E-08  0.93827000000E+00  0.93827000000E+00 0. -1.
     999902    2    1    2    0    0 -0.16782278586E-01 -0.89663115663E-02 -0.93675201022E-02  0.10227217457E+01  0.10225018235E+01 0.  0.
     999903    2    3    3    0    0 -0.55470733522E-01  0.14145405870E-01 -0.12012484319E+00  0.13463496354E+00  0.20481715552E-01 0.  0.
         14    1    1    2    0    0  0.16782278586E-01  0.89663115663E-02  0.93675201022E-02  0.21208254301E-01  0.00000000000E+00 0. -1.
     999901    1    3    3    0    0  0.38688454936E-01 -0.23111717437E-01  0.11075732309E+00  0.88808678216E+00  0.88000000000E+00 0.  1.
        -11    1    4    4    0    0 -0.14778984612E-01  0.34254816039E-02 -0.14740909072E-01  0.21159107534E-01  0.51100000000E-03 0. -1.
         11    1    4    4    0    0 -0.40691748910E-01  0.10719924267E-01 -0.10538393412E+00  0.11347585601E+00  0.51100000000E-03 0.  1.
</event>
<event>
 8    1  0.1150863E+005  0.1043930E+01  0.7957747E-01            NaN
         13   -1    0    0    0    0  0.00000000000E+00  0.00000000000E+00  0.74505805969E-08  0.10566000000E+00  0.10566000000E+00 0. -1.
     999900   -1    0    0    0    0 -0.00000000000E+00 -0.00000000000E+00 -0.74505805969E-08  0.93827000000E+00  0.93827000000E+00 0. -1.
     999902    2    1    2    0    0  0.27229851494E-02 -0.25464346117E-01 -0.11533861633E-01  0.10158430362E+01  0.10154546748E+01 0.  0.
     999903    2    3    3    0    0  0.96374736867E-01 -0.91571107554E-02  0.78748808740E-01  0.12613098329E+00  0.18322322017E-01 0.  0.
         14    1    1    2    0    0 -0.27229851494E-02  0.25464346117E-01  0.11533861633E-01  0.28086963800E-01  0.00000000000E+00 0.  1.
     999901    1    3    3    0    0 -0.93651751718E-01 -0.16307235362E-01 -0.90282670373E-01  0.88971205291E+00  0.88000000000E+00 0. -1.
        -11    1    4    4    0    0  0.40096839590E-01  0.39193545543E-02  0.26448220066E-01  0.48196341675E-01  0.51100000000E-03 0. -1.
         11    1    4    4    0    0  0.56277897277E-01 -0.13076465310E-01  0.52300588674E-01  0.77934641614E-01  0.51100000000E-03 0.  1.
</event>
<event>
 8    1  0.1150863E+005  0.1043930E+01  0.7957747E-01            NaN
         13   -1    0    0    0    0  0.00000000000E+00  0.00000000000E+00  0.74505805969E-08  0.10566000000E+00  0.10566000000E+00 0.  1.
     999900   -1    0    0    0    0 -0.00000000000E+00 -0.00000000000E+00 -0.74505805969E-08  0.93827000000E+00  0.93827000000E+00 0.  1.
     999902    2    1    2    0    0  0.32214308923E-03  0.16826564761E-01  0.18121989565E-01  0.10191985713E+01  0.10188984661E+01 0.  0.
     999903    2    3    3    0    0 -0.45955146818E-01 -0.97028118849E-01 -0.64387951765E-01  0.12683521095E+00  0.20372310583E-01 0.  0.
         14    1    1    2    0    0 -0.32214308923E-03 -0.16826564761E-01 -0.18121989565E-01  0.24731428661E-01  0.00000000000E+00 0. -1.
     999901    1    3    3    0    0  0.46277289907E-01  0.11385468361E+00  0.82509941330E-01  0.89236336039E+00  0.88000000000E+00 0. -1.
        -11    1    4    4    0    0 -0.22774421280E-01 -0.29773820674E-01 -0.28903886975E-01  0.47337622093E-01  0.51100000000E-03 0. -1.
         11    1    4    4    0    0 -0.23180725537E-01 -0.67254298175E-01 -0.35484064790E-01  0.79497588859E-01  0.51100000000E-03 0.  1.
</event>
<event>
 8    1  0.1150863E+005  0.1043930E+01  0.7957747E-01            NaN
         13   -1    0    0    0    0  0.00000000000E+00  0.00000000000E+00  0.74505805969E-08  0.10566000000E+00  0.10566000000E+00 0. -1.
     999900   -1    0    0    0    0 -0.00000000000E+00 -0.00000000000E+00 -0.74505805969E-08  0.93827000000E+00  0.93827000000E+00 0.  1.
     999902    2    1    2    0    0  0.15506617193E-01  0.32991657424E-01  0.58096740524E-02  0.10070158164E+01  0.10063390073E+01 0.  0.
     999903    2    3    3    0    0 -0.73242313628E-01 -0.66168534733E-01  0.56744950691E-01  0.11555436530E+00  0.19751213066E-01 0.  0.
         14    1    1    2    0    0 -0.15506617193E-01 -0.32991657424E-01 -0.58096740524E-02  0.36914183574E-01  0.00000000000E+00 0. -1.
     999901    1    3    3    0    0  0.88748930820E-01  0.99160192157E-01 -0.50935276638E-01  0.89146145112E+00  0.88000000000E+00 0.  1.
        -11    1    4    4    0    0 -0.52743399857E-01 -0.53651197669E-01  0.50876661808E-01  0.90824077631E-01  0.51100000000E-03 0. -1.
         11    1    4    4    0    0 -0.20498913771E-01 -0.12517337065E-01  0.58682888823E-02  0.24730287673E-01  0.51100000000E-03 0.  1.
</event>
<event>
 8    1  0.1150863E+005  0.1043930E+01  0.7957747E-01            NaN
         13   -1    0    0    0    0  0.00000000000E+00  0.00000000000E+00  0.74505805969E-08  0.10566000000E+00  0.10566000000E+00 0. -1.
     999900   -1    0    0    0    0 -0.00000000000E+00 -0.00000000000E+00 -0.74505805969E-08  0.93827000000E+00  0.93827000000E+00 0. -1.
     999902    2    1    2    0    0  0.78960653322E-02  0.24114959189E-01 -0.10634689472E-03  0.10185550042E+01  0.10182388748E+01 0.  0.
     999903    2    3    3    0    0  0.46221483024E-01 -0.36637815329E-01  0.11234483631E+00  0.12849601406E+00  0.20275807693E-01 0.  0.
         14    1    1    2    0    0 -0.78960653322E-02 -0.24114959189E-01  0.10634689472E-03  0.25374995844E-01  0.00000000000E+00 0. -1.
     999901    1    3    3    0    0 -0.38325417692E-01  0.60752774519E-01 -0.11245118321E+00  0.89005899010E+00  0.88000000000E+00 0. -1.
        -11    1    4    4    0    0  0.31938846082E-01 -0.19793832151E-01  0.51404516196E-01  0.63675514027E-01  0.51100000000E-03 0.  1.
         11    1    4    4    0    0  0.14282636942E-01 -0.16843983179E-01  0.60940320115E-01  0.64820500029E-01  0.51100000000E-03 0. -1.
</event>
<event>
 8    1  0.1150863E+005  0.1043930E+01  0.7957747E-01            NaN
         13   -1    0    0    0    0  0.00000000000E+00  0.00000000000E+00  0.74505805969E-08  0.10566000000E+00  0.10566000000E+00 0. -1.
     999900   -1    0    0    0    0 -0.00000000000E+00 -0.00000000000E+00 -0.74505805969E-08  0.93827000000E+00  0.93827000000E+00 0.  1.
     999902    2    1    2    0    0 -0.10478590374E-01 -0.11674032361E-01  0.12354358691E-01  0.10239621742E+01  0.10237674639E+01 0.  0.
     999903    2    3    3    0    0 -0.96649234115E-01  0.16204185807E-01  0.91561685060E-01  0.13577504560E+00  0.21158231121E-01 0.  0.
         14    1    1    2    0    0  0.10478590374E-01  0.11674032361E-01 -0.12354358691E-01  0.19967825782E-01  0.00000000000E+00 0.  1.
     999901    1    3    3    0    0  0.86170643741E-01 -0.27878218168E-01 -0.79207326369E-01  0.88818712862E+00  0.88000000000E+00 0.  1.
        -11    1    4    4    0    0 -0.27399583272E-01  0.14286129631E-01  0.30674027054E-01  0.43542941104E-01  0.51100000000E-03 0. -1.
         11    1    4    4    0    0 -0.69249650843E-01  0.19180561764E-02  0.60887658006E-01  0.92232104496E-01  0.51100000000E-03 0.  1.
</event>
<event>
 8    1  0.1150863E+005  0.1043930E+01  0.7957747E-01            NaN
         13   -1    0    0    0    0  0.00000000000E+00  0.00000000000E+00  0.74505805969E-08  0.10566000000E+00  0.10566000000E+00 0. -1.
     999900   -1    0    0    0    0 -0.00000000000E+00 -0.00000000000E+00 -0.74505805969E-08  0.93827000000E+00  0.93827000000E+00 0. -1.
     999902    2    1    2    0    0  0.64290603380E-02  0.16170778700E-02  0.23002303186E-01  0.10199914597E+01  0.10197105100E+01 0.  0.
     999903    2    3    3    0    0 -0.10535424855E+00 -0.71119071882E-01 -0.11797829819E-01  0.12926304722E+00  0.20305332182E-01 0.  0.
         14    1    1    2    0    0 -0.64290603380E-02 -0.16170778700E-02 -0.23002303186E-01  0.23938540255E-01  0.00000000000E+00 0.  1.
     999901    1    3    3    0    0  0.11178330889E+00  0.72736149752E-01  0.34800133006E-01  0.89072841253E+00  0.88000000000E+00 0. -1.
        -11    1    4    4    0    0 -0.76495400552E-01 -0.60477211782E-01 -0.43552930486E-02  0.97612853401E-01  0.51100000000E-03 0. -1.
         11    1    4    4    0    0 -0.28858847996E-01 -0.10641860100E-01 -0.74425367709E-02  0.31650193817E-01  0.51100000000E-03 0.  1.
</event>
<event>
 8    1  0.1150863E+005  0.1043930E+01  0.7957747E-01            NaN
         13   -1    0    0    0    0  0.00000000000E+00  0.00000000000E+00  0.74505805969E-08  0.10566000000E+00  0.10566000000E+00 0.  1.
     999900   -1    0    0    0    0 -0.00000000000E+00 -0.00000000000E+00 -0.74505805969E-08  0.93827000000E+00  0.93827000000E+00 0.  1.
     999902    2    1    2    0    0  0.92886540207E-02  0.55386320305E-02 -0.21672891687E-01  0.10197087331E+01  0.10194210271E+01 0.  0.
     999903    2    3    3    0    0  0.94840424428E-01 -0.21065091866E-01  0.82691577250E-01  0.12902427382E+00  0.19259337638E-01 0.  0.
         14    1    1    2    0    0 -0.92886540207E-02 -0.55386320305E-02  0.21672891687E-01  0.24221266944E-01  0.00000000000E+00 0.  1.
     999901    1    3    3    0    0 -0.85551770407E-01  0.26603723897E-01 -0.10436446894E+00  0.89068445923E+00  0.88000000000E+00 0.  1.
        -11    1    4    4    0    0  0.27597515788E-01  0.15880530990E-02  0.28785544327E-01  0.39912572875E-01  0.51100000000E-03 0.  1.
         11    1    4    4    0    0  0.67242908640E-01 -0.22653144965E-01  0.53906032922E-01  0.89111700947E-01  0.51100000000E-03 0. -1.
</event>
<event>
 8    1  0.1150863E+005  0.1043930E+01  0.7957747E-01            NaN
         13   -1    0    0    0    0  0.00000000000E+00  0.00000000000E+00  0.74505805969E-08  0.10566000000E+00  0.10566000000E+00 0.  1.
     999900   -1    0    0    0    0 -0.00000000000E+00 -0.00000000000E+00 -0.74505805969E-08  0.93827000000E+00  0.93827000000E+00 0. -1.
     999902    2    1    2    0    0 -0.97348937924E-02 -0.16116043008E-01  0.17129286065E-01  0.10184759740E+01  0.10181578474E+01 0.  0.
     999903    2    3    3    0    0 -0.12467515721E+00  0.29100864090E-01  0.57934725109E-02  0.12977786241E+00  0.20444415658E-01 0.  0.
         14    1    1    2    0    0  0.97348937924E-02  0.16116043008E-01 -0.17129286065E-01  0.25454026017E-01  0.00000000000E+00 0. -1.
     999901    1    3    3    0    0  0.11494026342E+00 -0.45216907097E-01  0.11335813554E-01  0.88869811157E+00  0.88000000000E+00 0. -1.
        -11    1    4    4    0    0 -0.24001758381E-01  0.13985107820E-01 -0.40009500884E-03  0.27786486700E-01  0.51100000000E-03 0.  1.
         11    1    4    4    0    0 -0.10067339883E+00  0.15115756270E-01  0.61935675197E-02  0.10199137571E+00  0.51100000000E-03 0. -1.
</event>
<event>
 8    1  0.1150863E+005  0.1043930E+01  0.7957747E-01            NaN
         13   -1    0    0    0    0  0.00000000000E+00  0.00000000000E+00  0.74505805969E-08  0.10566000000E+00  0.10566000000E+00 0. -1.
     999900   -1    0    0    0    0 -0.00000000000E+00 -0.00000000000E+00 -0.74505805969E-08  0.93827000000E+00  0.93827000000E+00 0.  1.
     999902    2    1    2    0    0 -0.49415438530E-02  0.12373748976E-01  0.17386284906E-01  0.10220254018E+01  0.10217906393E+01 0.  0.
     999903    2    3    3    0    0  0.35850264285E-01  0.85139720522E-01 -0.91350080026E-01  0.13141748847E+00  0.19791556173E-01 0.  0.
         14    1    1    2    0    0  0.49415438530E-02 -0.12373748976E-01 -0.17386284906E-01  0.21904598198E-01  0.00000000000E+00 0.  1.
     999901    1    3    3    0    0 -0.40791808138E-01 -0.72765971546E-01  0.10873636493E+00  0.89060791333E+00  0.88000000000E+00 0.  1.
        -11    1    4    4    0    0  0.25091439088E-01  0.36885542411E-01 -0.49536789058E-01  0.66665419414E-01  0.51100000000E-03 0. -1.
         11    1    4    4    0    0  0.10758825198E-01  0.48254178111E-01 -0.41813290968E-01  0.64752069058E-01  0.51100000000E-03 0.  1.
</event>
<event>
 8    1  0.1150863E+005  0.1043930E+01  0.7957747E-01            NaN
         13   -1    0    0    0    0  0.00000000000E+00  0.00000000000E+00  0.74505805969E-08  0.10566000000E+00  0.10566000000E+00 0.  1.
     999900   -1    0    0    0    0 -0.00000000000E+00 -0.00000000000E+00 -0.74505805969E-08  0.93827000000E+00  0.93827000000E+00 0. -1.
     999902    2    1    2    0    0  0.15615054222E-01  0.15600409272E-02  0.18919555200E-01  0.10193492511E+01  0.10190528360E+01 0.  0.
     999903    2    3    3    0    0 -0.71455620154E-01  0.59617569827E-01  0.88636628272E-01  0.13041030538E+00  0.22141264494E-01 0.  0.
         14    1    1    2    0    0 -0.15615054222E-01 -0.15600409272E-02 -0.18919555200E-01  0.24580748871E-01  0.00000000000E+00 0. -1.
     999901    1    3    3    0    0  0.87070674376E-01 -0.58057528900E-01 -0.69717073072E-01  0.88893894575E+00  0.88000000000E+00 0. -1.
        -11    1    4    4    0    0 -0.24210445144E-01  0.77678169653E-02  0.25950285766E-01  0.36334048589E-01  0.51100000000E-03 0.  1.
         11    1    4    4    0    0 -0.47245175010E-01  0.51849752862E-01  0.62686342506E-01  0.94076256788E-01  0.51100000000E-03 0. -1.
</event>
<event>
 8    1  0.1150863E+005  0.1043930E+01  0.7957747E-01            NaN
         13   -1    0    0    0    0  0.00000000000E+00  0.00000000000E+00  0.74505805969E-08  0.10566000000E+00  0.10566000000E+00 0. -1.
     999900   -1    0    0    0    0 -0.00000000000E+00 -0.00000000000E+00 -0.74505805969E-08  0.93827000000E+00  0.93827000000E+00 0. -1.
     999902    2    1    2    0    0  0.63000390340E-02  0.25598933342E-01 -0.24396678361E-01  0.10080107323E+01  0.10073705587E+01 0.  0.
     999903    2    3    3    0    0 -0.11110215228E+00 -0.33516539251E-01 -0.20749314928E-02  0.11796793890E+00  0.21096981352E-01 0.  0.
         14    1    1    2    0    0 -0.63000390340E-02 -0.25598933342E-01  0.24396678361E-01  0.35919267742E-01  0.00000000000E+00 0. -1.
     999901    1    3    3    0    0  0.11740219132E+00  0.59115472593E-01 -0.22321746868E-01  0.89004279336E+00  0.88000000000E+00 0. -1.
        -11    1    4    4    0    0 -0.32704575236E-01 -0.93395666917E-02  0.89871751090E-02  0.35183052522E-01  0.51100000000E-03 0. -1.
         11    1    4    4    0    0 -0.78397577048E-01 -0.24176972559E-01 -0.11062106602E-01  0.82784886378E-01  0.51100000000E-03 0.  1.
</event>
<event>
 8    1  0.1150863E+005  0.1043930E+01  0.7957747E-01            NaN
         13   -1    0    0    0    0  0.00000000000E+00  0.00000000000E+00  0.74505805969E-08  0.10566000000E+00  0.10566000000E+00 0.  1.
     999900   -1    0    0    0    0 -0.00000000000E+00 -0.00000000000E+00 -0.74505805969E-08  0.93827000000E+00  0.93827000000E+00 0. -1.
     999902    2    1    2    0    0  0.22599981962E-01  0.62178072875E-02  0.83340692351E-02  0.10190527610E+01  0.10187490626E+01 0.  0.
     999903    2    3    3    0    0  0.11056546823E+00 -0.33366579207E-01  0.61156881287E-01  0.13220717130E+00  0.20013011783E-01 0.  0.
         14    1    1    2    0    0 -0.22599981962E-01 -0.62178072875E-02 -0.83340692351E-02  0.24877239038E-01  0.00000000000E+00 0.  1.
     999901    1    3    3    0    0 -0.87965486272E-01  0.39584386494E-01 -0.52822812052E-01  0.88684558966E+00  0.88000000000E+00 0.  1.
        -11    1    4    4    0    0  0.37932561829E-01 -0.23286746098E-02  0.16149324108E-01  0.41296050204E-01  0.51100000000E-03 0.  1.
         11    1    4    4    0    0  0.72632906405E-01 -0.31037904597E-01  0.45007557180E-01  0.90911121096E-01  0.51100000000E-03 0. -1.
</event>
<event>
 8    1  0.1150863E+005  0.1043930E+01  0.7957747E-01            NaN
         13   -1    0    0    0    0  0.00000000000E+00  0.00000000000E+00  0.74505805969E-08  0.10566000000E+00  0.10566000000E+00 0. -1.
     999900   -1    0    0    0    0 -0.00000000000E+00 -0.00000000000E+00 -0.74505805969E-08  0.93827000000E+00  0.93827000000E+00 0. -1.
     999902    2    1    2    0    0  0.22343692986E-01  0.98192188942E-02 -0.48615582408E-02  0.10190444133E+01  0.10187405086E+01 0.  0.
     999903    2    3    3    0    0 -0.22590424378E-01 -0.40042891823E-02 -0.12594772397E+00  0.12950969010E+00  0.19584918951E-01 0.  0.
         14    1    1    2    0    0 -0.22343692986E-01 -0.98192188942E-02  0.48615582408E-02  0.24885586681E-01  0.00000000000E+00 0. -1.
     999901    1    3    3    0    0  0.44934117364E-01  0.13823508076E-01  0.12108616573E+00  0.88953472322E+00  0.88000000000E+00 0.  1.
        -11    1    4    4    0    0 -0.16469815068E-01  0.60305280717E-02 -0.89710815075E-01  0.91410686135E-01  0.51100000000E-03 0. -1.
         11    1    4    4    0    0 -0.61206093108E-02 -0.10034817254E-01 -0.36236908899E-01  0.38099003966E-01  0.51100000000E-03 0.  1.
</event>
<event>
 8    1  0.1150863E+005  0.1043930E+01  0.7957747E-01            NaN
         13   -1    0    0    0    0  0.00000000000E+00  0.00000000000E+00  0.74505805969E-08  0.10566000000E+00  0.10566000000E+00 0.  1.
     999900   -1    0    0    0    0 -0.00000000000E+00 -0.00000000000E+00 -0.74505805969E-08  0.93827000000E+00  0.93827000000E+00 0.  1.
     999902    2    1    2    0    0 -0.11573693620E-01  0.14742016627E-01  0.14026136242E-01  0.10205203880E+01  0.10202518573E+01 0.  0.
     999903    2    3    3    0    0 -0.39163384742E-01  0.12550502927E+00  0.49249287037E-02  0.13310139559E+00  0.20160444193E-01 0.  0.
         14    1    1    2    0    0  0.11573693620E-01 -0.14742016627E-01 -0.14026136242E-01  0.23409612046E-01  0.00000000000E+00 0. -1.
     999901    1    3    3    0    0  0.27589691122E-01 -0.11076301264E+00  0.91012075388E-02  0.88741899236E+00  0.88000000000E+00 0.  1.
        -11    1    4    4    0    0 -0.16667565337E-01  0.75288561566E-01  0.10361155985E-01  0.77806104589E-01  0.51100000000E-03 0.  1.
         11    1    4    4    0    0 -0.22495819406E-01  0.50216467702E-01 -0.54362272812E-02  0.55295291004E-01  0.51100000000E-03 0. -1.
</event>
<event>
 8    1  0.1150863E+005  0.1043930E+01  0.7957747E-01            NaN
         13   -1    0    0    0    0  0.00000000000E+00  0.00000000000E+00  0.74505805969E-08  0.10566000000E+00  0.10566000000E+00 0.  1.
     999900   -1    0    0    0    0 -0.00000000000E+00 -0.00000000000E+00 -0.74505805969E-08  0.93827000000E+00  0.93827000000E+00 0. -1.
     999902    2    1    2    0    0  0.36103629688E-02  0.18279816176E-01 -0.15989597906E-01  0.10193769220E+01  0.10190811819E+01 0.  0.
     999903    2    3    3    0    0  0.11916091286E+00  0.40421675799E-01 -0.32067150683E-01  0.13140131462E+00  0.20118854400E-01 0.  0.
         14    1    1    2    0    0 -0.36103629688E-02 -0.18279816176E-01  0.15989597906E-01  0.24553078043E-01  0.00000000000E+00 0.  1.
     999901    1    3    3    0    0 -0.11555054989E+00 -0.22141859623E-01  0.16077552777E-01  0.88797560734E+00  0.88000000000E+00 0. -1.
        -11    1    4    4    0    0  0.63609872901E-01  0.11745897080E-01 -0.20193484751E-01  0.67765920463E-01  0.51100000000E-03 0.  1.
         11    1    4    4    0    0  0.55551039958E-01  0.28675778719E-01 -0.11873665931E-01  0.63635394154E-01  0.51100000000E-03 0. -1.
</event>
<event>
 8    1  0.1150863E+005  0.1043930E+01  0.7957747E-01            NaN
         13   -1    0    0    0    0  0.00000000000E+00  0.00000000000E+00  0.74505805969E-08  0.10566000000E+00  0.10566000000E+00 0.  1.
     999900   -1    0    0    0    0 -0.00000000000E+00 -0.00000000000E+00 -0.74505805969E-08  0.93827000000E+00  0.93827000000E+00 0.  1.
     999902    2    1    2    0    0 -0.22257373054E-02  0.15160396263E-01 -0.19218654793E-01  0.10193505734E+01  0.10190541905E+01 0.  0.
     999903    2    3    3    0    0  0.91653880475E-02  0.12382836624E+00 -0.41519894583E-01  0.13231290183E+00  0.19113705053E-01 0.  0.
         14    1    1    2    0    0  0.22257373054E-02 -0.15160396263E-01  0.19218654793E-01  0.24579426630E-01  0.00000000000E+00 0.  1.
     999901    1    3    3    0    0 -0.11391125353E-01 -0.10866796998E+00  0.22301239790E-01  0.88703767154E+00  0.88000000000E+00 0.  1.
        -11    1    4    4    0    0  0.51099968729E-02  0.78005696436E-01 -0.16324907545E-01  0.79860907031E-01  0.51100000000E-03 0. -1.
         11    1    4    4    0    0  0.40553911746E-02  0.45822669804E-01 -0.25194987038E-01  0.52451994799E-01  0.51100000000E-03 0.  1.
</event>
<event>
 8    1  0.1150863E+005  0.1043930E+01  0.7957747E-01            NaN
         13   -1    0    0    0    0  0.00000000000E+00  0.00000000000E+00  0.74505805969E-08  0.10566000000E+00  0.10566000000E+00 0. -1.
     999900   -1    0    0    0    0 -0.00000000000E+00 -0.00000000000E+00 -0.74505805969E-08  0.93827000000E+00  0.93827000000E+00 0. -1.
     999902    2    1    2    0    0 -0.11437875705E-01 -0.18826635996E-01  0.10780810976E-01  0.10194046436E+01  0.10191095791E+01 0.  0.
     999903    2    3    3    0    0  0.12946202763E-01  0.11183610618E+00 -0.55196137059E-01  0.12698081311E+00  0.20064758654E-01 0.  0.
         14    1    1    2    0    0  0.11437875705E-01  0.18826635996E-01 -0.10780810976E-01  0.24525356447E-01  0.00000000000E+00 0.  1.
     999901    1    3    3    0    0 -0.24384078468E-01 -0.13066274217E+00  0.65976948035E-01  0.89242383045E+00  0.88000000000E+00 0. -1.
        -11    1    4    4    0    0 -0.53436117336E-02  0.21128749387E-01 -0.11523505503E-01  0.24658275226E-01  0.51100000000E-03 0.  1.
         11    1    4    4    0    0  0.18289814496E-01  0.90707356792E-01 -0.43672631556E-01  0.10232253788E+00  0.51100000000E-03 0. -1.
</event>
<event>
 8    1  0.1150863E+005  0.1043930E+01  0.7957747E-01            NaN
         13   -1    0    0    0    0  0.00000000000E+00  0.00000000000E+00  0.74505805969E-08  0.10566000000E+00  0.10566000000E+00 0. -1.
     999900   -1    0    0    0    0 -0.00000000000E+00 -0.00000000000E+00 -0.74505805969E-08  0.93827000000E+00  0.93827000000E+00 0. -1.
     999902    2    1    2    0    0  0.17390926203E-01 -0.46417234468E-02 -0.16756012631E-01  0.10193382561E+01  0.10190415725E+01 0.  0.
     999903    2    3    3    0    0  0.12428375751E+00  0.80711373008E-02 -0.40216817555E-01  0.13246842143E+00  0.20466915354E-01 0.  0.
         14    1    1    2    0    0 -0.17390926203E-01  0.46417234468E-02  0.16756012631E-01  0.24591743940E-01  0.00000000000E+00 0. -1.
     999901    1    3    3    0    0 -0.10689283130E+00 -0.12712860748E-01  0.23460804924E-01  0.88686983463E+00  0.88000000000E+00 0. -1.
        -11    1    4    4    0    0  0.35472111409E-01  0.10322283265E-02 -0.21295983413E-01  0.41389808089E-01  0.51100000000E-03 0.  1.
         11    1    4    4    0    0  0.88811646097E-01  0.70389089743E-02 -0.18920834142E-01  0.91078613339E-01  0.51100000000E-03 0. -1.
</event>
<event>
 8    1  0.1150863E+005  0.1043930E+01  0.7957747E-01            NaN
         13   -1    0    0    0    0  0.00000000000E+00  0.00000000000E+00  0.74505805969E-08  0.10566000000E+00  0.10566000000E+00 0.  1.
     999900   -1    0    0    0    0 -0.00000000000E+00 -0.00000000000E+00 -0.74505805969E-08  0.93827000000E+00  0.93827000000E+00 0.  1.
     999902    2    1    2    0    0 -0.15164452185E-01 -0.97043214262E-02 -0.17039388535E-01  0.10191413892E+01  0.10188398775E+01 0.  0.
     999903    2    3    3    0    0 -0.39269577300E-01  0.90170340910E-02  0.11977426161E+00  0.12804682570E+00  0.20656941238E-01 0.  0.
         14    1    1    2    0    0  0.15164452185E-01  0.97043214262E-02  0.17039388535E-01  0.24788610813E-01  0.00000000000E+00 0.  1.
     999901    1    3    3    0    0  0.24105125114E-01 -0.18721355517E-01 -0.13681365015E+00  0.89109456349E+00  0.88000000000E+00 0.  1.
        -11    1    4    4    0    0 -0.36732632464E-01  0.10358532397E-02  0.93402783225E-01  0.10037280665E+00  0.51100000000E-03 0. -1.
         11    1    4    4    0    0 -0.25369448353E-02  0.79811808513E-02  0.26371478390E-01  0.27674019049E-01  0.51100000000E-03 0.  1.
</event>
<event>
 8    1  0.1150863E+005  0.1043930E+01  0.7957747E-01            NaN
         13   -1    0    0    0    0  0.00000000000E+00  0.00000000000E+00  0.74505805969E-08  0.10566000000E+00  0.10566000000E+00 0. -1.
     999900   -1    0    0    0    0 -0.00000000000E+00 -0.00000000000E+00 -0.74505805969E-08  0.93827000000E+00  0.93827000000E+00 0. -1.
     999902    2    1    2    0    0 -0.23739055960E-01  0.47460357377E-02  0.24558219336E-02  0.10195969218E+01  0.10193065212E+01 0.  0.
     999903    2    3    3    0    0  0.73194277699E-01 -0.95951718118E-01  0.37310942484E-01  0.12788453082E+00  0.19955257360E-01 0.  0.
         14    1    1    2    0    0  0.23739055960E-01 -0.47460357377E-02 -0.24558219336E-02  0.24333078196E-01  0.00000000000E+00 0. -1.
     999901    1    3    3    0    0 -0.96933333660E-01  0.10069775386E+00 -0.34855120551E-01  0.89171239098E+00  0.88000000000E+00 0. -1.
        -11    1    4    4    0    0  0.36179529325E-01 -0.34646021936E-01  0.21667545261E-01  0.54580663396E-01  0.51100000000E-03 0.  1.
         11    1    4    4    0    0  0.37014748375E-01 -0.61305696183E-01  0.15643397223E-01  0.73303867424E-01  0.51100000000E-03 0. -1.
</event>
<event>
 8    1  0.1150863E+005  0.1043930E+01  0.7957747E-01            NaN
         13   -1    0    0    0    0  0.00000000000E+00  0.00000000000E+00  0.74505805969E-08  0.10566000000E+00  0.10566000000E+00 0. -1.
     999900   -1    0    0    0    0 -0.00000000000E+00 -0.00000000000E+00 -0.74505805969E-08  0.93827000000E+00  0.93827000000E+00 0.  1.
     999902    2    1    2    0    0  0.66921465598E-03 -0.17842533340E-01 -0.15793755528E-01  0.10200920773E+01  0.10198135122E+01 0.  0.
     999903    2    3    3    0    0 -0.67216251992E-01 -0.10297550831E+00  0.42689756513E-01  0.13145470404E+00  0.18328776785E-01 0.  0.
         14    1    1    2    0    0 -0.66921465598E-03  0.17842533340E-01  0.15793755528E-01  0.23837922685E-01  0.00000000000E+00 0. -1.
     999901    1    3    3    0    0  0.67885466648E-01  0.85132974969E-01 -0.58483512041E-01  0.88863737328E+00  0.88000000000E+00 0.  1.
        -11    1    4    4    0    0 -0.32352766502E-01 -0.64724281526E-01  0.21106400502E-01  0.75376888915E-01  0.51100000000E-03 0.  1.
         11    1    4    4    0    0 -0.34863485490E-01 -0.38251226783E-01  0.21583356011E-01  0.56077815120E-01  0.51100000000E-03 0. -1.
</event>
<event>
 8    1  0.1150863E+005  0.1043930E+01  0.7957747E-01            NaN
         13   -1    0    0    0    0  0.00000000000E+00  0.00000000000E+00  0.74505805969E-08  0.10566000000E+00  0.10566000000E+00 0. -1.
     999900   -1    0    0    0    0 -0.00000000000E+00 -0.00000000000E+00 -0.74505805969E-08  0.93827000000E+00  0.93827000000E+00 0. -1.
     999902    2    1    2    0    0 -0.28831111249E-03  0.19032887244E-01  0.16140244905E-01  0.10189732088E+01  0.10186675409E+01 0.  0.
     999903    2    3    3    0    0 -0.63394131113E-01 -0.64339585770E-01 -0.87137699734E-01  0.12678508538E+00  0.17974454156E-01 0.  0.
         14    1    1    2    0    0  0.28831111249E-03 -0.19032887244E-01 -0.16140244905E-01  0.24956791175E-01  0.00000000000E+00 0.  1.
     999901    1    3    3    0    0  0.63105820000E-01  0.83372473014E-01  0.10327794464E+00  0.89218812345E+00  0.88000000000E+00 0. -1.
        -11    1    4    4    0    0 -0.37095393760E-01 -0.25156427136E-01 -0.45054034981E-01  0.63553451941E-01  0.51100000000E-03 0. -1.
         11    1    4    4    0    0 -0.26298737353E-01 -0.39183158634E-01 -0.42083664753E-01  0.63231633435E-01  0.51100000000E-03 0.  1.
</event>
<event>
 8    1  0.1150863E+005  0.1043930E+01  0.7957747E-01            NaN
         13   -1    0    0    0    0  0.00000000000E+00  0.00000000000E+00  0.74505805969E-08  0.10566000000E+00  0.10566000000E+00 0. -1.
     999900   -1    0    0    0    0 -0.00000000000E+00 -0.00000000000E+00 -0.74505805969E-08  0.93827000000E+00  0.93827000000E+00 0. -1.
     999902    2    1    2    0    0 -0.99645555549E-02 -0.19379883823E-01  0.10954163605E-01  0.10195401258E+01  0.10192483515E+01 0.  0.
     999903    2    3    3    0    0 -0.29818306631E-01 -0.40328675002E-01  0.12080948488E+00  0.13224016810E+00  0.19416410169E-01 0.  0.
         14    1    1    2    0    0  0.99645555549E-02  0.19379883823E-01 -0.10954163605E-01  0.24389874224E-01  0.00000000000E+00 0.  1.
     999901    1    3    3    0    0  0.19853751076E-01  0.20948791179E-01 -0.10985532127E+00  0.88729995768E+00  0.88000000000E+00 0. -1.
        -11    1    4    4    0    0 -0.47874536713E-02 -0.14761538930E-02  0.29200405881E-01  0.29631462461E-01  0.51100000000E-03 0. -1.
         11    1    4    4    0    0 -0.25030852959E-01 -0.38852521109E-01  0.91609078998E-01  0.10260870564E+00  0.51100000000E-03 0.  1.
</event>
<event>
 8    1  0.1150863E+005  0.1043930E+01  0.7957747E-01            NaN
         13   -1    0    0    0    0  0.00000000000E+00  0.00000000000E+00  0.74505805969E-08  0.10566000000E+00  0.10566000000E+00 0. -1.
     999900   -1    0    0    0    0 -0.00000000000E+00 -0.00000000000E+00 -0.74505805969E-08  0.93827000000E+00  0.93827000000E+00 0.  1.
     999902    2    1    2    0    0 -0.18398457118E-01  0.16794442236E-01 -0.97440107046E-02  0.10171811260E+01  0.10168293568E+01 0.  0.
     999903    2    3    3    0    0 -0.15816022220E-01  0.12119607707E+00  0.38892444081E-01  0.12967232322E+00  0.19069702338E-01 0.  0.
         14    1    1    2    0    0  0.18398457118E-01 -0.16794442236E-01  0.97440107046E-02  0.26748873975E-01  0.00000000000E+00 0. -1.
     999901    1    3    3    0    0 -0.25824348982E-02 -0.10440163483E+00 -0.48636454785E-01  0.88750880281E+00  0.88000000000E+00 0.  1.
        -11    1    4    4    0    0 -0.87302572714E-02  0.43695299894E-01  0.51917304713E-02  0.44863256805E-01  0.51100000000E-03 0.  1.
         11    1    4    4    0    0 -0.70857649482E-02  0.77500777172E-01  0.33700713609E-01  0.84809066413E-01  0.51100000000E-03 0. -1.
</event>
<event>
 8    1  0.1150863E+005  0.1043930E+01  0.7957747E-01            NaN
         13   -1    0    0    0    0  0.00000000000E+00  0.00000000000E+00  0.74505805969E-08  0.10566000000E+00  0.10566000000E+00 0.  1.
     999900   -1    0    0    0    0 -0.00000000000E+00 -0.00000000000E+00 -0.74505805969E-08  0.93827000000E+00  0.93827000000E+00 0. -1.
     999902    2    1    2    0    0  0.13845581807E-01  0.39857882903E-02  0.19045097479E-01  0.10200489954E+01  0.10197694105E+01 0.  0.
     999903    2    3    3    0    0 -0.91067172338E-01 -0.19617505284E-01 -0.85771608518E-01  0.12732824211E+00  0.13328016383E-01 0.  0.
         14    1    1    2    0    0 -0.13845581807E-01 -0.39857882903E-02 -0.19045097479E-01  0.23881004624E-01  0.00000000000E+00 0. -1.
     999901    1    3    3    0    0  0.10491275415E+00  0.23603293574E-01  0.10481670600E+00  0.89272075326E+00  0.88000000000E+00 0.  1.
        -11    1    4    4    0    0 -0.19896531925E-01 -0.50804627043E-02 -0.26776454362E-01  0.33747929020E-01  0.51100000000E-03 0.  1.
         11    1    4    4    0    0 -0.71170640413E-01 -0.14537042580E-01 -0.58995154156E-01  0.93580313093E-01  0.51100000000E-03 0. -1.
</event>
<event>
 8    1  0.1150863E+005  0.1043930E+01  0.7957747E-01            NaN
         13   -1    0    0    0    0  0.00000000000E+00  0.00000000000E+00  0.74505805969E-08  0.10566000000E+00  0.10566000000E+00 0.  1.
     999900   -1    0    0    0    0 -0.00000000000E+00 -0.00000000000E+00 -0.74505805969E-08  0.93827000000E+00  0.93827000000E+00 0. -1.
     999902    2    1    2    0    0 -0.90830475506E-02 -0.61738325746E-02 -0.20576149110E-01  0.10206062809E+01  0.10203397398E+01 0.  0.
     999903    2    3    3    0    0 -0.38430366632E-01  0.80195326100E-01 -0.96372977394E-01  0.13265016942E+00  0.20003331384E-01 0.  0.
         14    1    1    2    0    0  0.90830475506E-02  0.61738325746E-02  0.20576149110E-01  0.23323719121E-01  0.00000000000E+00 0.  1.
     999901    1    3    3    0    0  0.29347319081E-01 -0.86369158675E-01  0.75796828284E-01  0.88795611146E+00  0.88000000000E+00 0.  1.
        -11    1    4    4    0    0 -0.23574240660E-01  0.26794281040E-01 -0.36198885262E-01  0.50835998410E-01  0.51100000000E-03 0. -1.
         11    1    4    4    0    0 -0.14856125971E-01  0.53401045060E-01 -0.60174092132E-01  0.81814171005E-01  0.51100000000E-03 0.  1.
</event>
<event>
 8    1  0.1150863E+005  0.1043930E+01  0.7957747E-01            NaN
         13   -1    0    0    0    0  0.00000000000E+00  0.00000000000E+00  0.74505805969E-08  0.10566000000E+00  0.10566000000E+00 0.  1.
     999900   -1    0    0    0    0 -0.00000000000E+00 -0.00000000000E+00 -0.74505805969E-08  0.93827000000E+00  0.93827000000E+00 0. -1.
     999902    2    1    2    0    0  0.29019242373E-02 -0.35190137030E-01  0.16366924234E-02  0.10085825012E+01  0.10079629041E+01 0.  0.
     999903    2    3    3    0    0  0.32298506279E-02  0.10833793228E-01 -0.11741252080E+00  0.11937441260E+00  0.18350676600E-01 0.  0.
         14    1    1    2    0    0 -0.29019242373E-02  0.35190137030E-01 -0.16366924234E-02  0.35347498788E-01  0.00000000000E+00 0. -1.
     999901    1    3    3    0    0 -0.32792639069E-03 -0.46023930257E-01  0.11904921322E+00  0.88920808862E+00  0.88000000000E+00 0.  1.
        -11    1    4    4    0    0  0.45042224436E-02  0.15454025335E-01 -0.10073748859E+00  0.10201675180E+00  0.51100000000E-03 0. -1.
         11    1    4    4    0    0 -0.12743718157E-02 -0.46202321075E-02 -0.16675032207E-01  0.17357660797E-01  0.51100000000E-03 0.  1.
</event>
<event>
 8    1  0.1150863E+005  0.1043930E+01  0.7957747E-01            NaN
         13   -1    0    0    0    0  0.00000000000E+00  0.00000000000E+00  0.74505805969E-08  0.10566000000E+00  0.10566000000E+00 0.  1.
     999900   -1    0    0    0    0 -0.00000000000E+00 -0.00000000000E+00 -0.74505805969E-08  0.93827000000E+00  0.93827000000E+00 0.  1.
     999902    2    1    2    0    0 -0.11076194985E-01  0.16680915478E-02  0.21033625276E-01  0.10200998087E+01  0.10198214264E+01 0.  0.
     999903    2    3    3    0    0  0.26341311179E-01 -0.84770034697E-01 -0.90164143756E-01  0.12811518817E+00  0.20102367116E-01 0.  0.
         14    1    1    2    0    0  0.11076194985E-01 -0.16680915478E-02 -0.21033625276E-01  0.23830191292E-01  0.00000000000E+00 0. -1.
     999901    1    3    3    0    0 -0.37417506164E-01  0.86438126245E-01  0.11119776903E+00  0.89198462054E+00  0.88000000000E+00 0. -1.
        -11    1    4    4    0    0  0.26063107625E-01 -0.56362675000E-01 -0.67926853315E-01  0.92034532837E-01  0.51100000000E-03 0.  1.
         11    1    4    4    0    0  0.27820355349E-03 -0.28407359697E-01 -0.22237290441E-01  0.36080655334E-01  0.51100000000E-03 0. -1.
</event>
<event>
 8    1  0.1150863E+005  0.1043930E+01  0.7957747E-01            NaN
         13   -1    0    0    0    0  0.00000000000E+00  0.00000000000E+00  0.74505805969E-08  0.10566000000E+00  0.10566000000E+00 0.  1.
     999900   -1    0    0    0    0 -0.00000000000E+00 -0.00000000000E+00 -0.74505805969E-08  0.93827000000E+00  0.93827000000E+00 0. -1.
     999902    2    1    2    0    0  0.19276129275E-01  0.13006575283E-01 -0.11047553861E-03  0.10206759172E+01  0.10204109837E+01 0.  0.
     999903    2    3    3    0    0 -0.12387331882E+00  0.25109799939E-01  0.15382583513E-01  0.12889215005E+00  0.20036499177E-01 0.  0.
         14    1    1    2    0    0 -0.19276129275E-01 -0.13006575283E-01  0.11047553861E-03  0.23254082765E-01  0.00000000000E+00 0.  1.
     999901    1    3    3    0    0  0.14314944810E+00 -0.12103224656E-01 -0.15493059052E-01  0.89178376719E+00  0.88000000000E+00 0. -1.
        -11    1    4    4    0    0 -0.11021550662E+00  0.17225685953E-01  0.91564698880E-02  0.11192981827E+00  0.51100000000E-03 0. -1.
         11    1    4    4    0    0 -0.13657812207E-01  0.78841139855E-02  0.62261136251E-02  0.16962331782E-01  0.51100000000E-03 0.  1.
</event>
<event>
 8    1  0.1150863E+005  0.1043930E+01  0.7957747E-01            NaN
         13   -1    0    0    0    0  0.00000000000E+00  0.00000000000E+00  0.74505805969E-08  0.10566000000E+00  0.10566000000E+00 0.  1.
     999900   -1    0    0    0    0 -0.00000000000E+00 -0.00000000000E+00 -0.74505805969E-08  0.93827000000E+00  0.93827000000E+00 0.  1.
     999902    2    1    2    0    0  0.17825590353E-01  0.61929790161E-02 -0.13908499112E-01  0.10204874957E+01  0.10202182011E+01 0.  0.
     999903    2    3    3    0    0 -0.12306483753E-01 -0.78116416725E-01  0.99456148956E-01  0.12870974338E+00  0.20519463207E-01 0.  0.
         14    1    1    2    0    0 -0.17825590353E-01 -0.61929790161E-02  0.13908499112E-01  0.23442504305E-01  0.00000000000E+00 0.  1.
     999901    1    3    3    0    0  0.30132074107E-01  0.84309395741E-01 -0.11336464807E+00  0.89177775232E+00  0.88000000000E+00 0.  1.
        -11    1    4    4    0    0 -0.99464881286E-02 -0.60278677981E-01  0.61434652583E-01  0.86642537499E-01  0.51100000000E-03 0.  1.
         11    1    4    4    0    0 -0.23599956247E-02 -0.17837738744E-01  0.38021496372E-01  0.42067205876E-01  0.51100000000E-03 0. -1.
</event>
<event>
 8    1  0.1150863E+005  0.1043930E+01  0.7957747E-01            NaN
         13   -1    0    0    0    0  0.00000000000E+00  0.00000000000E+00  0.74505805969E-08  0.10566000000E+00  0.10566000000E+00 0. -1.
     999900   -1    0    0    0    0 -0.00000000000E+00 -0.00000000000E+00 -0.74505805969E-08  0.93827000000E+00  0.93827000000E+00 0.  1.
     999902    2    1    2    0    0 -0.17572432331E-01 -0.14152363912E-01  0.46673368360E-02  0.10208895179E+01  0.10206294842E+01 0.  0.
     999903    2    3    3    0    0  0.14783510726E-01  0.28214469014E-01 -0.12429847794E+00  0.12989342533E+00  0.20188657127E-01 0.  0.
         14    1    1    2    0    0  0.17572432331E-01  0.14152363912E-01 -0.46673368360E-02  0.23040482102E-01  0.00000000000E+00 0.  1.
     999901    1    3    3    0    0 -0.32355943058E-01 -0.42366832926E-01  0.12896581477E+00  0.89099609256E+00  0.88000000000E+00 0. -1.
        -11    1    4    4    0    0  0.38081228907E-02  0.22130300378E-01 -0.54054159137E-01  0.58535162388E-01  0.51100000000E-03 0.  1.
         11    1    4    4    0    0  0.10975387836E-01  0.60841686363E-02 -0.70244318800E-01  0.71358262947E-01  0.51100000000E-03 0. -1.
</event>
<event>
 8    1  0.1150863E+005  0.1043930E+01  0.7957747E-01            NaN
         13   -1    0    0    0    0  0.00000000000E+00  0.00000000000E+00  0.74505805969E-08  0.10566000000E+00  0.10566000000E+00 0. -1.
     999900   -1    0    0    0    0 -0.00000000000E+00 -0.00000000000E+00 -0.74505805969E-08  0.93827000000E+00  0.93827000000E+00 0. -1.
     999902    2    1    2    0    0 -0.70801912142E-02  0.18355982109E-01 -0.13248982665E-01  0.10202106676E+01  0.10199348997E+01 0.  0.
     999903    2    3    3    0    0  0.12183408202E+00  0.23089858867E-01 -0.36280079844E-01  0.13050749753E+00  0.18419489538E-01 0.  0.
         14    1    1    2    0    0  0.70801912142E-02 -0.18355982109E-01  0.13248982665E-01  0.23719332378E-01  0.00000000000E+00 0. -1.
     999901    1    3    3    0    0 -0.12891427323E+00 -0.47338767582E-02  0.23031097179E-01  0.88970317009E+00  0.88000000000E+00 0.  1.
        -11    1    4    4    0    0  0.10060285600E+00  0.21204492107E-01 -0.36739700704E-01  0.10918164612E+00  0.51100000000E-03 0. -1.
         11    1    4    4    0    0  0.21231226019E-01  0.18853667601E-02  0.45962086051E-03  0.21325851412E-01  0.51100000000E-03 0.  1.
</event>
<event>
 8    1  0.1150863E+005  0.1043930E+01  0.7957747E-01            NaN
         13   -1    0    0    0    0  0.00000000000E+00  0.00000000000E+00  0.74505805969E-08  0.10566000000E+00  0.10566000000E+00 0.  1.
     999900   -1    0    0    0    0 -0.00000000000E+00 -0.00000000000E+00 -0.74505805969E-08  0.93827000000E+00  0.93827000000E+00 0. -1.
     999902    2    1    2    0    0  0.15486247617E-01 -0.15042882287E-01 -0.81184243891E-02  0.10208644199E+01  0.10206038128E+01 0.  0.
     999903    2    3    3    0    0  0.10928605730E+00 -0.72274405190E-01  0.17331839789E-01  0.13366570060E+00  0.19977359211E-01 0.  0.
         14    1    1    2    0    0 -0.15486247617E-01  0.15042882287E-01  0.81184243891E-02  0.23065580143E-01  0.00000000000E+00 0. -1.
     999901    1    3    3    0    0 -0.93799809678E-01  0.57231522903E-01 -0.25450264178E-01  0.88719871926E+00  0.88000000000E+00 0. -1.
        -11    1    4    4    0    0  0.38544913284E-01 -0.37223813895E-01  0.69641034618E-02  0.54037787880E-01  0.51100000000E-03 0.  1.
         11    1    4    4    0    0  0.70741144012E-01 -0.35050591295E-01  0.10367736327E-01  0.79627912717E-01  0.51100000000E-03 0. -1.
</event>
<event>
 8    1  0.1150863E+005  0.1043930E+01  0.7957747E-01            NaN
         13   -1    0    0    0    0  0.00000000000E+00  0.00000000000E+00  0.74505805969E-08  0.10566000000E+00  0.10566000000E+00 0.  1.
     999900   -1    0    0    0    0 -0.00000000000E+00 -0.00000000000E+00 -0.74505805969E-08  0.93827000000E+00  0.93827000000E+00 0.  1.
     999902    2    1    2    0    0  0.17001680064E-01  0.16853531087E-01  0.14628367705E-01  0.10158749153E+01  0.10154874474E+01 0.  0.
     999903    2    3    3    0    0  0.24107242973E-01 -0.11233117815E+00 -0.43877318246E-01  0.12449278995E+00  0.19333466952E-01 0.  0.
         14    1    1    2    0    0 -0.17001680064E-01 -0.16853531087E-01 -0.14628367705E-01  0.28055084687E-01  0.00000000000E+00 0. -1.
     999901    1    3    3    0    0 -0.71055629089E-02  0.12918470924E+00  0.58505685951E-01  0.89138212536E+00  0.88000000000E+00 0. -1.
        -11    1    4    4    0    0  0.64001168861E-02 -0.62582362869E-01 -0.16642593900E-01  0.65074962091E-01  0.51100000000E-03 0.  1.
         11    1    4    4    0    0  0.17707126087E-01 -0.49748815284E-01 -0.27234724346E-01  0.59417827861E-01  0.51100000000E-03 0. -1.
</event>
<event>
 7    1  0.1150863E+005  0.1043930E+01  0.7957747E-01            NaN
         13   -1    0    0    0    0  0.00000000000E+00  0.00000000000E+00  0.74505805969E-08  0.10566000000E+00  0.10566000000E+00 0. -1.
     999900   -1    0    0    0    0 -0.00000000000E+00 -0.00000000000E+00 -0.74505805969E-08  0.93827000000E+00  0.93827000000E+00 0.  1.
     999902    2    1    2    0    0 -0.16213599741E-01  0.78648380335E-02  0.16685200144E-01  0.10193712460E+01  0.10190753676E+01 0.  0.
         14    1    1    2    0    0  0.16213599741E-01 -0.78648380335E-02 -0.16685200144E-01  0.24558753993E-01  0.00000000000E+00 0.  1.
     999901    1    3    3    0    0 -0.13495528252E+00 -0.13369470449E-01  0.40238964951E-01  0.89129728224E+00  0.88000000000E+00 0.  1.
        -11    1    3    3    0    0  0.32268623955E-01 -0.72719581685E-02 -0.15889813005E-01  0.36700037410E-01  0.51100000000E-03 0.  1.
         11    1    3    3    0    0  0.86473058823E-01  0.28506266651E-01 -0.76639518018E-02  0.91373926362E-01  0.51100000000E-03 0. -1.
</event>
<event>
 7    1  0.1150863E+005  0.1043930E+01  0.7957747E-01            NaN
         13   -1    0    0    0    0  0.00000000000E+00  0.00000000000E+00  0.74505805969E-08  0.10566000000E+00  0.10566000000E+00 0.  1.
     999900   -1    0    0    0    0 -0.00000000000E+00 -0.00000000000E+00 -0.74505805969E-08  0.93827000000E+00  0.93827000000E+00 0. -1.
     999903    2    1    2    0    0  0.86349926889E-02 -0.79029314871E-01 -0.62435286184E-01  0.10304945557E+00  0.20020729896E-01 0.  0.
         14    1    1    2    0    0  0.32678447765E-01  0.29362846273E-02  0.45970093906E-01  0.56477891687E-01  0.00000000000E+00 0.  1.
     999901    1    1    2    0    0 -0.41313440454E-01  0.76093030243E-01  0.16465192279E-01  0.88440265274E+00  0.88000000000E+00 0.  1.
        -11    1    3    3    0    0  0.37068132891E-02 -0.27609326895E-01 -0.34421091235E-01  0.44284173687E-01  0.51100000000E-03 0.  1.
         11    1    3    3    0    0  0.49281793999E-02 -0.51419987976E-01 -0.28014194950E-01  0.58765281888E-01  0.51100000000E-03 0. -1.
</event>
<event>
 8    1  0.1150863E+005  0.1043930E+01  0.7957747E-01            NaN
         13   -1    0    0    0    0  0.00000000000E+00  0.00000000000E+00  0.74505805969E-08  0.10566000000E+00  0.10566000000E+00 0. -1.
     999900   -1    0    0    0    0 -0.00000000000E+00 -0.00000000000E+00 -0.74505805969E-08  0.93827000000E+00  0.93827000000E+00 0.  1.
     999902    2    1    2    0    0 -0.17981152554E-02 -0.18755074250E-01 -0.15821861256E-01  0.10193268026E+01  0.10190298392E+01 0.  0.
     999903    2    3    3    0    0 -0.11730841589E+00  0.17409099577E-01  0.46195690549E-01  0.12887935679E+00  0.20285600672E-01 0.  0.
         14    1    1    2    0    0  0.17981152554E-02  0.18755074250E-01  0.15821861256E-01  0.24603197398E-01  0.00000000000E+00 0.  1.
     999901    1    3    3    0    0  0.11551030063E+00 -0.36164173827E-01 -0.62017551805E-01  0.89044744581E+00  0.88000000000E+00 0.  1.
        -11    1    4    4    0    0 -0.56476444531E-01  0.72161978267E-02  0.32971855252E-01  0.65795643151E-01  0.51100000000E-03 0. -1.
         11    1    4    4    0    0 -0.60831971359E-01  0.10192901750E-01  0.13223835297E-01  0.63083713639E-01  0.51100000000E-03 0.  1.
</event>
<event>
 8    1  0.1150863E+005  0.1043930E+01  0.7957747E-01            NaN
         13   -1    0    0    0    0  0.00000000000E+00  0.00000000000E+00  0.74505805969E-08  0.10566000000E+00  0.10566000000E+00 0.  1.
     999900   -1    0    0    0    0 -0.00000000000E+00 -0.00000000000E+00 -0.74505805969E-08  0.93827000000E+00  0.93827000000E+00 0. -1.
     999902    2    1    2    0    0  0.30393276718E-03 -0.22819057747E-01 -0.54832607937E-02  0.10204594244E+01  0.10201894769E+01 0.  0.
     999903    2    3    3    0    0 -0.32082374406E-01  0.57321501262E-01  0.10929371527E+00  0.12880638853E+00  0.18191653981E-01 0.  0.
         14    1    1    2    0    0 -0.30393276718E-03  0.22819057747E-01  0.54832607937E-02  0.23470575632E-01  0.00000000000E+00 0.  1.
     999901    1    3    3    0    0  0.32386307173E-01 -0.80140559008E-01 -0.11477697606E+00  0.89165303584E+00  0.88000000000E+00 0. -1.
        -11    1    4    4    0    0 -0.18751396210E-01  0.16297851898E-01  0.35597008559E-01  0.43412474885E-01  0.51100000000E-03 0. -1.
         11    1    4    4    0    0 -0.13330978196E-01  0.41023649364E-01  0.73696706706E-01  0.85393913642E-01  0.51100000000E-03 0.  1.
</event>
<event>
 8    1  0.1150863E+005  0.1043930E+01  0.7957747E-01            NaN
         13   -1    0    0    0    0  0.00000000000E+00  0.00000000000E+00  0.74505805969E-08  0.10566000000E+00  0.10566000000E+00 0. -1.
     999900   -1    0    0    0    0 -0.00000000000E+00 -0.00000000000E+00 -0.74505805969E-08  0.93827000000E+00  0.93827000000E+00 0.  1.
     999902    2    1    2    0    0  0.19526019448E-01  0.90120806444E-02  0.10082154674E-01  0.10201785184E+01  0.10199019936E+01 0.  0.
     999903    2    3    3    0    0 -0.11476321627E+00 -0.51458484540E-01 -0.75843756429E-02  0.12776471624E+00  0.21159596419E-01 0.  0.
         14    1    1    2    0    0 -0.19526019448E-01 -0.90120806444E-02 -0.10082154674E-01  0.23751481552E-01  0.00000000000E+00 0.  1.
     999901    1    3    3    0    0  0.13428923572E+00  0.60470565185E-01  0.17666530317E-01  0.89241380221E+00  0.88000000000E+00 0. -1.
        -11    1    4    4    0    0 -0.56363434199E-01 -0.36754870232E-01 -0.52483564675E-02  0.67494915120E-01  0.51100000000E-03 0. -1.
         11    1    4    4    0    0 -0.58399782074E-01 -0.14703614308E-01 -0.23360191754E-02  0.60269801116E-01  0.51100000000E-03 0.  1.
</event>
<event>
 8    1  0.1150863E+005  0.1043930E+01  0.7957747E-01            NaN
         13   -1    0    0    0    0  0.00000000000E+00  0.00000000000E+00  0.74505805969E-08  0.10566000000E+00  0.10566000000E+00 0.  1.
     999900   -1    0    0    0    0 -0.00000000000E+00 -0.00000000000E+00 -0.74505805969E-08  0.93827000000E+00  0.93827000000E+00 0. -1.
     999902    2    1    2    0    0 -0.24677493149E-02 -0.16539181918E-01  0.17742326209E-01  0.10195491783E+01  0.10192576233E+01 0.  0.
     999903    2    3    3    0    0 -0.37989776650E-01 -0.97998598598E-01  0.80073197077E-01  0.13287979890E+00  0.14084587589E-01 0.  0.
         14    1    1    2    0    0  0.24677493149E-02  0.16539181918E-01 -0.17742326209E-01  0.24380821653E-01  0.00000000000E+00 0. -1.
     999901    1    3    3    0    0  0.35522027335E-01  0.81459416680E-01 -0.62330870868E-01  0.88666937945E+00  0.88000000000E+00 0. -1.
        -11    1    4    4    0    0 -0.10622020406E-01 -0.18753473220E-01  0.10740404107E-01  0.24086043193E-01  0.51100000000E-03 0.  1.
         11    1    4    4    0    0 -0.27367756244E-01 -0.79245125378E-01  0.69332792970E-01  0.10879375570E+00  0.51100000000E-03 0. -1.
</event>
<event>
 8    1  0.1150863E+005  0.1043930E+01  0.7957747E-01            NaN
         13   -1    0    0    0    0  0.00000000000E+00  0.00000000000E+00  0.74505805969E-08  0.10566000000E+00  0.10566000000E+00 0.  1.
     999900   -1    0    0    0    0 -0.00000000000E+00 -0.00000000000E+00 -0.74505805969E-08  0.93827000000E+00  0.93827000000E+00 0.  1.
     999902    2    1    2    0    0  0.11742465069E-01 -0.11643436220E-01 -0.15272645976E-01  0.10214198066E+01  0.10211717350E+01 0.  0.
     999903    2    3    3    0    0  0.31219638146E-01  0.36570000025E-01 -0.12268676716E+00  0.13336480313E+00  0.20545003540E-01 0.  0.
         14    1    1    2    0    0 -0.11742465069E-01  0.11643436220E-01  0.15272645976E-01  0.22510193424E-01  0.00000000000E+00 0.  1.
     999901    1    3    3    0    0 -0.19477173076E-01 -0.48213436245E-01  0.10741412119E+00  0.88805500344E+00  0.88000000000E+00 0. -1.
        -11    1    4    4    0    0  0.27598499628E-01  0.27644796163E-01 -0.73458364207E-01  0.83200386595E-01  0.51100000000E-03 0.  1.
         11    1    4    4    0    0  0.36211385171E-02  0.89252038621E-02 -0.49228402956E-01  0.50164416540E-01  0.51100000000E-03 0. -1.
</event>
<event>
 8    1  0.1150863E+005  0.1043930E+01  0.7957747E-01            NaN
         13   -1    0    0    0    0  0.00000000000E+00  0.00000000000E+00  0.74505805969E-08  0.10566000000E+00  0.10566000000E+00 0. -1.
     999900   -1    0    0    0    0 -0.00000000000E+00 -0.00000000000E+00 -0.74505805969E-08  0.93827000000E+00  0.93827000000E+00 0.  1.
     999902    2    1    2    0    0  0.20013760492E-02 -0.22555004920E-02  0.23644752401E-01  0.10200937439E+01  0.10198152182E+01 0.  0.
     999903    2    3    3    0    0 -0.83691104275E-01 -0.87863318890E-01 -0.40538463290E-01  0.12948081736E+00  0.19943703683E-01 0.  0.
         14    1    1    2    0    0 -0.20013760492E-02  0.22555004920E-02 -0.23644752401E-01  0.23836256096E-01  0.00000000000E+00 0.  1.
     999901    1    3    3    0    0  0.85692480325E-01  0.85607818398E-01  0.64183215691E-01  0.89061292655E+00  0.88000000000E+00 0. -1.
        -11    1    4    4    0    0 -0.35094170346E-01 -0.42281662251E-01 -0.28028198845E-01  0.61686147606E-01  0.51100000000E-03 0.  1.
         11    1    4    4    0    0 -0.48596933930E-01 -0.45581656639E-01 -0.12510264445E-01  0.67794669752E-01  0.51100000000E-03 0. -1.
</event>
<event>
 8    1  0.1150863E+005  0.1043930E+01  0.7957747E-01            NaN
         13   -1    0    0    0    0  0.00000000000E+00  0.00000000000E+00  0.74505805969E-08  0.10566000000E+00  0.10566000000E+00 0.  1.
     999900   -1    0    0    0    0 -0.00000000000E+00 -0.00000000000E+00 -0.74505805969E-08  0.93827000000E+00  0.93827000000E+00 0.  1.
     999902    2    1    2    0    0 -0.15526750914E-01 -0.17762178348E-01  0.30419976476E-02  0.10201428454E+01  0.10198654795E+01 0.  0.
     999903    2    3    3    0    0 -0.24444855166E-01 -0.12522549642E+00  0.32313379514E-01  0.13307762171E+00  0.19660188331E-01 0.  0.
         14    1    1    2    0    0  0.15526750914E-01  0.17762178348E-01 -0.30419976476E-02  0.23787154586E-01  0.00000000000E+00 0. -1.
     999901    1    3    3    0    0  0.89181042521E-02  0.10746331807E+00 -0.29271381867E-01  0.88706522371E+00  0.88000000000E+00 0.  1.
        -11    1    4    4    0    0 -0.15761419354E-01 -0.11294816408E+00  0.28911798501E-01  0.11765144845E+00  0.51100000000E-03 0. -1.
         11    1    4    4    0    0 -0.86834358117E-02 -0.12277332346E-01  0.34015810134E-02  0.15426173259E-01  0.51100000000E-03 0.  1.
</event>
<event>
 8    1  0.1150863E+005  0.1043930E+01  0.7957747E-01            NaN
         13   -1    0    0    0    0  0.00000000000E+00  0.00000000000E+00  0.74505805969E-08  0.10566000000E+00  0.10566000000E+00 0.  1.
     999900   -1    0    0    0    0 -0.00000000000E+00 -0.00000000000E+00 -0.74505805969E-08  0.93827000000E+00  0.93827000000E+00 0.  1.
     999902    2    1    2    0    0 -0.19212850260E-01 -0.56479514042E-02  0.10643666472E-01  0.10212513623E+01  0.10209995223E+01 0.  0.
     999903    2    3    3    0    0  0.70242399858E-01 -0.30631622955E-01  0.10489732188E+00  0.13135801077E+00  0.19472744840E-01 0.  0.
         14    1    1    2    0    0  0.19212850260E-01  0.56479514042E-02 -0.10643666472E-01  0.22678637661E-01  0.00000000000E+00 0. -1.
     999901    1    3    3    0    0 -0.89455250118E-01  0.24983671551E-01 -0.94253655410E-01  0.88989335157E+00  0.88000000000E+00 0.  1.
        -11    1    4    4    0    0  0.46809991612E-01 -0.26655592560E-01  0.60580641253E-01  0.81067694830E-01  0.51100000000E-03 0. -1.
         11    1    4    4    0    0  0.23432408246E-01 -0.39760303946E-02  0.44316680629E-01  0.50290315935E-01  0.51100000000E-03 0.  1.
</event>
<event>
 8    1  0.1150863E+005  0.1043930E+01  0.7957747E-01            NaN
         13   -1    0    0    0    0  0.00000000000E+00  0.00000000000E+00  0.74505805969E-08  0.10566000000E+00  0.10566000000E+00 0.  1.
     999900   -1    0    0    0    0 -0.00000000000E+00 -0.00000000000E+00 -0.74505805969E-08  0.93827000000E+00  0.93827000000E+00 0. -1.
     999902    2    1    2    0    0  0.14308943544E-01 -0.82207840183E-02 -0.15296588593E-02  0.10273569191E+01  0.10272232338E+01 0.  0.
     999903    2    3    3    0    0  0.70176807163E-01  0.11078696858E+00 -0.34286317404E-01  0.13698785961E+00  0.19788518134E-01 0.  0.
         14    1    1    2    0    0 -0.14308943544E-01  0.82207840183E-02  0.15296588593E-02  0.16573080928E-01  0.00000000000E+00 0.  1.
     999901    1    3    3    0    0 -0.55867863619E-01 -0.11900775260E+00  0.32756658545E-01  0.89036905946E+00  0.88000000000E+00 0.  1.
        -11    1    4    4    0    0  0.25758293996E-01  0.25553768510E-01 -0.58526653958E-02  0.36755946565E-01  0.51100000000E-03 0.  1.
         11    1    4    4    0    0  0.44418513167E-01  0.85233200067E-01 -0.28433652008E-01  0.10023191305E+00  0.51100000000E-03 0. -1.
</event>
<event>
 8    1  0.1150863E+005  0.1043930E+01  0.7957747E-01            NaN
         13   -1    0    0    0    0  0.00000000000E+00  0.00000000000E+00  0.74505805969E-08  0.10566000000E+00  0.10566000000E+00 0. -1.
     999900   -1    0    0    0    0 -0.00000000000E+00 -0.00000000000E+00 -0.74505805969E-08  0.93827000000E+00  0.93827000000E+00 0. -1.
     999902    2    1    2    0    0  0.13858489914E-01 -0.11684320179E-01  0.15547468661E-01  0.10200489434E+01  0.10197693573E+01 0.  0.
     999903    2    3    3    0    0 -0.10252108562E+00 -0.75178736571E-01 -0.12817232496E-01  0.12966683289E+00  0.22063333238E-01 0.  0.
         14    1    1    2    0    0 -0.13858489914E-01  0.11684320179E-01 -0.15547468661E-01  0.23881056562E-01  0.00000000000E+00 0.  1.
     999901    1    3    3    0    0  0.11637957553E+00  0.63494416393E-01  0.28364701158E-01  0.89038211055E+00  0.88000000000E+00 0.  1.
        -11    1    4    4    0    0 -0.35923410917E-01 -0.24165950214E-01 -0.14782153004E-01  0.45752134049E-01  0.51100000000E-03 0. -1.
         11    1    4    4    0    0 -0.66597674703E-01 -0.51012786357E-01  0.19649205077E-02  0.83914698840E-01  0.51100000000E-03 0.  1.
</event>
<event>
 8    1  0.1150863E+005  0.1043930E+01  0.7957747E-01            NaN
         13   -1    0    0    0    0  0.00000000000E+00  0.00000000000E+00  0.74505805969E-08  0.10566000000E+00  0.10566000000E+00 0.  1.
     999900   -1    0    0    0    0 -0.00000000000E+00 -0.00000000000E+00 -0.74505805969E-08  0.93827000000E+00  0.93827000000E+00 0. -1.
     999902    2    1    2    0    0 -0.20762668832E-01 -0.48053935435E-02 -0.22300400841E-02  0.10225021372E+01  0.10222775882E+01 0.  0.
     999903    2    3    3    0    0  0.84889857797E-01 -0.33650176971E-01  0.91406668102E-01  0.13078339736E+00  0.20260693093E-01 0.  0.
         14    1    1    2    0    0  0.20762668832E-01  0.48053935435E-02  0.22300400841E-02  0.21427862771E-01  0.00000000000E+00 0. -1.
     999901    1    3    3    0    0 -0.10565252663E+00  0.28844783427E-01 -0.93636708186E-01  0.89171873987E+00  0.88000000000E+00 0. -1.
        -11    1    4    4    0    0  0.43294239216E-01 -0.17788223819E-01  0.32676631626E-01  0.57086210518E-01  0.51100000000E-03 0. -1.
         11    1    4    4    0    0  0.41595618581E-01 -0.15861953152E-01  0.58730036476E-01  0.73697186842E-01  0.51100000000E-03 0.  1.
</event>
<event>
 8    1  0.1150863E+005  0.1043930E+01  0.7957747E-01            NaN
         13   -1    0    0    0    0  0.00000000000E+00  0.00000000000E+00  0.74505805969E-08  0.10566000000E+00  0.10566000000E+00 0. -1.
     999900   -1    0    0    0    0 -0.00000000000E+00 -0.00000000000E+00 -0.74505805969E-08  0.93827000000E+00  0.93827000000E+00 0. -1.
     999902    2    1    2    0    0  0.19647152316E-01 -0.11591980433E-01 -0.74567035276E-03  0.10211058762E+01  0.10208507578E+01 0.  0.
     999903    2    3    3    0    0  0.36143738529E-01  0.11362450642E+00 -0.49864995928E-01  0.13073291270E+00  0.19689549252E-01 0.  0.
         14    1    1    2    0    0 -0.19647152316E-01  0.11591980433E-01  0.74567035276E-03  0.22824123834E-01  0.00000000000E+00 0.  1.
     999901    1    3    3    0    0 -0.16496586213E-01 -0.12521648685E+00  0.49119325575E-01  0.89037296347E+00  0.88000000000E+00 0. -1.
        -11    1    4    4    0    0  0.25429929940E-01  0.74564204091E-01 -0.22796961841E-01  0.82015025810E-01  0.51100000000E-03 0. -1.
         11    1    4    4    0    0  0.10713808589E-01  0.39060302325E-01 -0.27068034087E-01  0.48717886885E-01  0.51100000000E-03 0.  1.
</event>
<event>
 8    1  0.1150863E+005  0.1043930E+01  0.7957747E-01            NaN
         13   -1    0    0    0    0  0.00000000000E+00  0.00000000000E+00  0.74505805969E-08  0.10566000000E+00  0.10566000000E+00 0.  1.
     999900   -1    0    0    0    0 -0.00000000000E+00 -0.00000000000E+00 -0.74505805969E-08  0.93827000000E+00  0.93827000000E+00 0. -1.
     999902    2    1    2    0    0 -0.45849008684E-02 -0.11549607812E-01  0.18683366903E-01  0.10214915741E+01  0.10212450994E+01 0.  0.
     999903    2    3    3    0    0 -0.94618769114E-01  0.47879661276E-01  0.77583098515E-01  0.13294944579E+00  0.20279164878E-01 0.  0.
         14    1    1    2    0    0  0.45849008684E-02  0.11549607812E-01 -0.18683366903E-01  0.22438425868E-01  0.00000000000E+00 0. -1.
     999901    1    3    3    0    0  0.90033868245E-01 -0.59429269089E-01 -0.58899731612E-01  0.88854212834E+00  0.88000000000E+00 0. -1.
        -11    1    4    4    0    0 -0.57398752294E-01  0.18159659127E-01  0.40099969145E-01  0.72337117934E-01  0.51100000000E-03 0.  1.
         11    1    4    4    0    0 -0.37220016820E-01  0.29720002149E-01  0.37483129369E-01  0.60612327856E-01  0.51100000000E-03 0. -1.
</event>
<event>
 8    1  0.1150863E+005  0.1043930E+01  0.7957747E-01            NaN
         13   -1    0    0    0    0  0.00000000000E+00  0.00000000000E+00  0.74505805969E-08  0.10566000000E+00  0.10566000000E+00 0.  1.
     999900   -1    0    0    0    0 -0.00000000000E+00 -0.00000000000E+00 -0.74505805969E-08  0.93827000000E+00  0.93827000000E+00 0.  1.
     999902    2    1    2    0    0  0.55833543502E-02  0.16083426354E-01  0.15260130039E-01  0.10210668852E+01  0.10208108846E+01 0.  0.
     999903    2    3    3    0    0  0.26708987984E-01 -0.96348027735E-01 -0.78307830672E-01  0.12874290395E+00  0.21125967070E-01 0.  0.
         14    1    1    2    0    0 -0.55833543502E-02 -0.16083426354E-01 -0.15260130039E-01  0.22863114790E-01  0.00000000000E+00 0. -1.
     999901    1    3    3    0    0 -0.21125633634E-01  0.11243145409E+00  0.93567960710E-01  0.89232398126E+00  0.88000000000E+00 0. -1.
        -11    1    4    4    0    0  0.13755817100E-01 -0.19645085744E-01 -0.23523741713E-01  0.33597313035E-01  0.51100000000E-03 0.  1.
         11    1    4    4    0    0  0.12953170885E-01 -0.76702941991E-01 -0.54784088959E-01  0.95145590913E-01  0.51100000000E-03 0. -1.
</event>
<event>
 8    1  0.1150863E+005  0.1043930E+01  0.7957747E-01            NaN
         13   -1    0    0    0    0  0.00000000000E+00  0.00000000000E+00  0.74505805969E-08  0.10566000000E+00  0.10566000000E+00 0.  1.
     999900   -1    0    0    0    0 -0.00000000000E+00 -0.00000000000E+00 -0.74505805969E-08  0.93827000000E+00  0.93827000000E+00 0.  1.
     999902    2    1    2    0    0 -0.47719827355E-02 -0.12633190490E-01  0.32070764794E-03  0.10304217738E+01  0.10303332275E+01 0.  0.
     999903    2    3    3    0    0  0.25537437478E-01 -0.93298551473E-01 -0.99702741540E-01  0.14057333065E+00  0.21527754185E-01 0.  0.
         14    1    1    2    0    0  0.47719827355E-02  0.12633190490E-01 -0.32070764794E-03  0.13508226182E-01  0.00000000000E+00 0. -1.
     999901    1    3    3    0    0 -0.30309420214E-01  0.80665360983E-01  0.10002344919E+00  0.88984844317E+00  0.88000000000E+00 0. -1.
        -11    1    4    4    0    0  0.92276425378E-02 -0.49933502428E-01 -0.66017017019E-01  0.83288724979E-01  0.51100000000E-03 0.  1.
         11    1    4    4    0    0  0.16309794940E-01 -0.43365049045E-01 -0.33685724521E-01  0.57284605674E-01  0.51100000000E-03 0. -1.
</event>
<event>
 8    1  0.1150863E+005  0.1043930E+01  0.7957747E-01            NaN
         13   -1    0    0    0    0  0.00000000000E+00  0.00000000000E+00  0.74505805969E-08  0.10566000000E+00  0.10566000000E+00 0.  1.
     999900   -1    0    0    0    0 -0.00000000000E+00 -0.00000000000E+00 -0.74505805969E-08  0.93827000000E+00  0.93827000000E+00 0. -1.
     999902    2    1    2    0    0  0.71740315989E-02 -0.11361136514E-01  0.19769459365E-01  0.10200265761E+01  0.10197464598E+01 0.  0.
     999903    2    3    3    0    0  0.97812785501E-01 -0.54724860829E-01 -0.63631756551E-01  0.13039094328E+00  0.19764772919E-01 0.  0.
         14    1    1    2    0    0 -0.71740315989E-02  0.11361136514E-01 -0.19769459365E-01  0.23903423936E-01  0.00000000000E+00 0. -1.
     999901    1    3    3    0    0 -0.90638753903E-01  0.43363724314E-01  0.83401215916E-01  0.88963563278E+00  0.88000000000E+00 0.  1.
        -11    1    4    4    0    0  0.19345397076E-01 -0.66174671897E-02 -0.19719802324E-01  0.28410684341E-01  0.51100000000E-03 0. -1.
         11    1    4    4    0    0  0.78467388426E-01 -0.48107393639E-01 -0.43911954226E-01  0.10198025894E+00  0.51100000000E-03 0.  1.
</event>
<event>
 8    1  0.1150863E+005  0.1043930E+01  0.7957747E-01            NaN
         13   -1    0    0    0    0  0.00000000000E+00  0.00000000000E+00  0.74505805969E-08  0.10566000000E+00  0.10566000000E+00 0.  1.
     999900   -1    0    0    0    0 -0.00000000000E+00 -0.00000000000E+00 -0.74505805969E-08  0.93827000000E+00  0.93827000000E+00 0.  1.
     999902    2    1    2    0    0  0.13820031430E-01 -0.17831732064E-01  0.66456260718E-02  0.10204113206E+01  0.10201402525E+01 0.  0.
     999903    2    3    3    0    0  0.72959363751E-02 -0.43867983075E-01 -0.12140650823E+00  0.13073845973E+00  0.19374570615E-01 0.  0.
         14    1    1    2    0    0 -0.13820031430E-01  0.17831732064E-01 -0.66456260718E-02  0.23518679448E-01  0.00000000000E+00 0. -1.
     999901    1    3    3    0    0  0.65240950549E-02  0.26036251012E-01  0.12805213430E+00  0.88967286082E+00  0.88000000000E+00 0. -1.
        -11    1    4    4    0    0  0.46509885875E-02 -0.14388161318E-01 -0.68133406243E-01  0.69793073067E-01  0.51100000000E-03 0. -1.
         11    1    4    4    0    0  0.26449477876E-02 -0.29479821758E-01 -0.53273101983E-01  0.60945386663E-01  0.51100000000E-03 0.  1.
</event>
<event>
 8    1  0.1150863E+005  0.1043930E+01  0.7957747E-01            NaN
         13   -1    0    0    0    0  0.00000000000E+00  0.00000000000E+00  0.74505805969E-08  0.10566000000E+00  0.10566000000E+00 0.  1.
     999900   -1    0    0    0    0 -0.00000000000E+00 -0.00000000000E+00 -0.74505805969E-08  0.93827000000E+00  0.93827000000E+00 0. -1.
     999902    2    1    2    0    0  0.12994474001E-01  0.11288088774E-01  0.16193170937E-01  0.10202974782E+01  0.10200237487E+01 0.  0.
     999903    2    3    3    0    0  0.10296293598E+00  0.74747203343E-01 -0.26732595558E-01  0.13239883261E+00  0.25026158690E-01 0.  0.
         14    1    1    2    0    0 -0.12994474001E-01 -0.11288088774E-01 -0.16193170937E-01  0.23632521823E-01  0.00000000000E+00 0. -1.
     999901    1    3    3    0    0 -0.89968461974E-01 -0.63459114569E-01  0.42925766494E-01  0.88789864557E+00  0.88000000000E+00 0.  1.
        -11    1    4    4    0    0  0.28379209984E-01  0.26504926175E-01 -0.19005075462E-01  0.43235918924E-01  0.51100000000E-03 0.  1.
         11    1    4    4    0    0  0.74583725991E-01  0.48242277168E-01 -0.77275200961E-02  0.89162913686E-01  0.51100000000E-03 0. -1.
</event>
<event>
 8    1  0.1150863E+005  0.1043930E+01  0.7957747E-01            NaN
         13   -1    0    0    0    0  0.00000000000E+00  0.00000000000E+00  0.74505805969E-08  0.10566000000E+00  0.10566000000E+00 0.  1.
     999900   -1    0    0    0    0 -0.00000000000E+00 -0.00000000000E+00 -0.74505805969E-08  0.93827000000E+00  0.93827000000E+00 0. -1.
     999902    2    1    2    0    0  0.14653847293E-01 -0.17473539708E-01 -0.39320015325E-02  0.10207886849E+01  0.10205263439E+01 0.  0.
     999903    2    3    3    0    0 -0.21086803136E-01  0.12179168466E+00 -0.30246397309E-01  0.12873227171E+00  0.19475253816E-01 0.  0.
         14    1    1    2    0    0 -0.14653847293E-01  0.17473539708E-01  0.39320015325E-02  0.23141315142E-01  0.00000000000E+00 0. -1.
     999901    1    3    3    0    0  0.35740650429E-01 -0.13926522437E+00  0.26314395777E-01  0.89205641315E+00  0.88000000000E+00 0. -1.
        -11    1    4    4    0    0 -0.31794310338E-03  0.11324191913E-01  0.25859981256E-02  0.11631290453E-01  0.51100000000E-03 0.  1.
         11    1    4    4    0    0 -0.20768860033E-01  0.11046749275E+00 -0.32832395435E-01  0.11710098126E+00  0.51100000000E-03 0. -1.
</event>
<event>
 8    1  0.1150863E+005  0.1043930E+01  0.7957747E-01            NaN
         13   -1    0    0    0    0  0.00000000000E+00  0.00000000000E+00  0.74505805969E-08  0.10566000000E+00  0.10566000000E+00 0. -1.
     999900   -1    0    0    0    0 -0.00000000000E+00 -0.00000000000E+00 -0.74505805969E-08  0.93827000000E+00  0.93827000000E+00 0. -1.
     999902    2    1    2    0    0 -0.15813596746E-01 -0.16603503724E-01 -0.46565814075E-02  0.10205327795E+01  0.10202645363E+01 0.  0.
     999903    2    3    3    0    0 -0.41956732369E-01  0.11614021396E+00 -0.34399678141E-01  0.12969664980E+00  0.19722231746E-01 0.  0.
         14    1    1    2    0    0  0.15813596746E-01  0.16603503724E-01  0.46565814075E-02  0.23397220527E-01  0.00000000000E+00 0. -1.
     999901    1    3    3    0    0  0.26143135622E-01 -0.13274371768E+00  0.29743096733E-01  0.89083612967E+00  0.88000000000E+00 0. -1.
        -11    1    4    4    0    0 -0.14572515660E-01  0.43023417625E-01 -0.22577237204E-01  0.50728349447E-01  0.51100000000E-03 0. -1.
         11    1    4    4    0    0 -0.27384216709E-01  0.73116796330E-01 -0.11822440937E-01  0.78968300356E-01  0.51100000000E-03 0.  1.
</event>
<event>
 8    1  0.1150863E+005  0.1043930E+01  0.7957747E-01            NaN
         13   -1    0    0    0    0  0.00000000000E+00  0.00000000000E+00  0.74505805969E-08  0.10566000000E+00  0.10566000000E+00 0. -1.
     999900   -1    0    0    0    0 -0.00000000000E+00 -0.00000000000E+00 -0.74505805969E-08  0.93827000000E+00  0.93827000000E+00 0. -1.
     999902    2    1    2    0    0 -0.12676659418E-01  0.21153326590E-01  0.11074817904E-02  0.10192442260E+01  0.10189452414E+01 0.  0.
     999903    2    3    3    0    0  0.81235026200E-01 -0.71185119365E-01 -0.63877681002E-01  0.12707335414E+00  0.20020701809E-01 0.  0.
         14    1    1    2    0    0  0.12676659418E-01 -0.21153326590E-01 -0.11074817904E-02  0.24685773954E-01  0.00000000000E+00 0.  1.
     999901    1    3    3    0    0 -0.93911685618E-01  0.92338445955E-01  0.64985162793E-01  0.89217087191E+00  0.88000000000E+00 0.  1.
        -11    1    4    4    0    0  0.20564473641E-01 -0.14297261740E-01 -0.24541618293E-01  0.35069380075E-01  0.51100000000E-03 0.  1.
         11    1    4    4    0    0  0.60670552559E-01 -0.56887857624E-01 -0.39336062709E-01  0.92003974063E-01  0.51100000000E-03 0. -1.
</event>
<event>
 8    1  0.1150863E+005  0.1043930E+01  0.7957747E-01            NaN
         13   -1    0    0    0    0  0.00000000000E+00  0.00000000000E+00  0.74505805969E-08  0.10566000000E+00  0.10566000000E+00 0. -1.
     999900   -1    0    0    0    0 -0.00000000000E+00 -0.00000000000E+00 -0.74505805969E-08  0.93827000000E+00  0.93827000000E+00 0.  1.
     999902    2    1    2    0    0  0.17102978310E-01 -0.95026227668E-02 -0.14314923502E-01  0.10196868826E+01  0.10193986511E+01 0.  0.
     999903    2    3    3    0    0  0.12057493173E+00  0.47938153226E-01  0.74869122734E-02  0.13149703356E+00  0.19975867492E-01 0.  0.
         14    1    1    2    0    0 -0.17102978310E-01  0.95026227668E-02  0.14314923502E-01  0.24243117402E-01  0.00000000000E+00 0.  1.
     999901    1    3    3    0    0 -0.10347195342E+00 -0.57440775992E-01 -0.21801835775E-01  0.88818984904E+00  0.88000000000E+00 0.  1.
        -11    1    4    4    0    0  0.52136767863E-01  0.28194212496E-01 -0.37155883979E-02  0.59390427677E-01  0.51100000000E-03 0. -1.
         11    1    4    4    0    0  0.68438163872E-01  0.19743940729E-01  0.11202500671E-01  0.72106605883E-01  0.51100000000E-03 0.  1.
</event>
<event>
 8    1  0.1150863E+005  0.1043930E+01  0.7957747E-01            NaN
         13   -1    0    0    0    0  0.00000000000E+00  0.00000000000E+00  0.74505805969E-08  0.10566000000E+00  0.10566000000E+00 0.  1.
     999900   -1    0    0    0    0 -0.00000000000E+00 -0.00000000000E+00 -0.74505805969E-08  0.93827000000E+00  0.93827000000E+00 0.  1.
     999902    2    1    2    0    0  0.32740205764E-02 -0.72622839632E-03  0.20102978983E-01  0.10235492154E+01  0.10233462854E+01 0.  0.
     999903    2    3    3    0    0  0.16785114763E-01  0.11085661666E+00 -0.67013508498E-01  0.13213317144E+00  0.19935775330E-01 0.  0.
         14    1    1    2    0    0 -0.32740205764E-02  0.72622839632E-03 -0.20102978983E-01  0.20380784637E-01  0.00000000000E+00 0. -1.
     999901    1    3    3    0    0 -0.13511094187E-01 -0.11158284506E+00  0.87116487481E-01  0.89141604393E+00  0.88000000000E+00 0.  1.
        -11    1    4    4    0    0  0.11249276206E-01  0.51012110393E-01 -0.42014395773E-01  0.67039184028E-01  0.51100000000E-03 0.  1.
         11    1    4    4    0    0  0.55358385571E-02  0.59844506268E-01 -0.24999112725E-01  0.65093987410E-01  0.51100000000E-03 0. -1.
</event>
<event>
 8    1  0.1150863E+005  0.1043930E+01  0.7957747E-01            NaN
         13   -1    0    0    0    0  0.00000000000E+00  0.00000000000E+00  0.74505805969E-08  0.10566000000E+00  0.10566000000E+00 0.  1.
     999900   -1    0    0    0    0 -0.00000000000E+00 -0.00000000000E+00 -0.74505805969E-08  0.93827000000E+00  0.93827000000E+00 0. -1.
     999902    2    1    2    0    0 -0.19552525471E-01  0.67499582469E-02 -0.11501354866E-01  0.10202626311E+01  0.10199880842E+01 0.  0.
     999903    2    3    3    0    0 -0.44690036289E-01 -0.11880130605E+00  0.20912579733E-01  0.13040552030E+00  0.21384902849E-01 0.  0.
         14    1    1    2    0    0  0.19552525471E-01 -0.67499582469E-02  0.11501354866E-01  0.23667368937E-01  0.00000000000E+00 0.  1.
     999901    1    3    3    0    0  0.25137510818E-01  0.12555126430E+00 -0.32413934600E-01  0.88985711076E+00  0.88000000000E+00 0. -1.
        -11    1    4    4    0    0 -0.90389116569E-02 -0.36729014667E-01  0.15111921749E-01  0.40735165917E-01  0.51100000000E-03 0.  1.
         11    1    4    4    0    0 -0.35651124632E-01 -0.82072291388E-01  0.58006579844E-02  0.89670354384E-01  0.51100000000E-03 0. -1.
</event>
<event>
 8    1  0.1150863E+005  0.1043930E+01  0.7957747E-01            NaN
         13   -1    0    0    0    0  0.00000000000E+00  0.00000000000E+00  0.74505805969E-08  0.10566000000E+00  0.10566000000E+00 0. -1.
     999900   -1    0    0    0    0 -0.00000000000E+00 -0.00000000000E+00 -0.74505805969E-08  0.93827000000E+00  0.93827000000E+00 0. -1.
     999902    2    1    2    0    0 -0.17600985056E-01 -0.10050747538E-01  0.11487271831E-01  0.10206325835E+01  0.10203666502E+01 0.  0.
     999903    2    3    3    0    0  0.12568206089E+00  0.19009168322E-01 -0.81699627787E-02  0.12835408616E+00  0.15833326642E-01 0.  0.
         14    1    1    2    0    0  0.17600985056E-01  0.10050747538E-01 -0.11487271831E-01  0.23297416491E-01  0.00000000000E+00 0. -1.
     999901    1    3    3    0    0 -0.14328304594E+00 -0.29059915859E-01  0.19657234610E-01  0.89227849735E+00  0.88000000000E+00 0.  1.
        -11    1    4    4    0    0  0.57719714161E-01  0.11462305889E-01  0.36324311050E-02  0.58961051007E-01  0.51100000000E-03 0.  1.
         11    1    4    4    0    0  0.67962346726E-01  0.75468624328E-02 -0.11802393884E-01  0.69393035151E-01  0.51100000000E-03 0. -1.
</event>
<event>
 8    1  0.1150863E+005  0.1043930E+01  0.7957747E-01            NaN
         13   -1    0    0    0    0  0.00000000000E+00  0.00000000000E+00  0.74505805969E-08  0.10566000000E+00  0.10566000000E+00 0. -1.
     999900   -1    0    0    0    0 -0.00000000000E+00 -0.00000000000E+00 -0.74505805969E-08  0.93827000000E+00  0.93827000000E+00 0. -1.
     999902    2    1    2    0    0  0.30397073581E-02  0.20461332267E-01  0.10703463158E-01  0.10206390133E+01  0.10203732285E+01 0.  0.
     999903    2    3    3    0    0  0.10964491063E+00  0.51070331892E-01  0.50505285077E-01  0.13278442763E+00  0.21230524585E-01 0.  0.
         14    1    1    2    0    0 -0.30397073581E-02 -0.20461332267E-01 -0.10703463158E-01  0.23290986723E-01  0.00000000000E+00 0.  1.
     999901    1    3    3    0    0 -0.10660520327E+00 -0.30608999625E-01 -0.39801821919E-01  0.88785458564E+00  0.88000000000E+00 0.  1.
        -11    1    4    4    0    0  0.67531411039E-01  0.41101600586E-01  0.38112770151E-01  0.87764898549E-01  0.51100000000E-03 0.  1.
         11    1    4    4    0    0  0.42113499592E-01  0.99687313053E-02  0.12392514925E-01  0.45019529083E-01  0.51100000000E-03 0. -1.
</event>
<event>
 8    1  0.1150863E+005  0.1043930E+01  0.7957747E-01            NaN
         13   -1    0    0    0    0  0.00000000000E+00  0.00000000000E+00  0.74505805969E-08  0.10566000000E+00  0.10566000000E+00 0. -1.
     999900   -1    0    0    0    0 -0.00000000000E+00 -0.00000000000E+00 -0.74505805969E-08  0.93827000000E+00  0.93827000000E+00 0.  1.
     999902    2    1    2    0    0 -0.11923629527E-01 -0.16118447911E-01  0.11457776607E-01  0.10208376214E+01  0.10205764015E+01 0.  0.
     999903    2    3    3    0    0  0.47221098186E-01 -0.47162133730E-01 -0.10982883955E+00  0.13001089724E+00  0.19656053294E-01 0.  0.
         14    1    1    2    0    0  0.11923629527E-01  0.16118447911E-01 -0.11457776607E-01  0.23092378589E-01  0.00000000000E+00 0.  1.
     999901    1    3    3    0    0 -0.59144727713E-01  0.31043685819E-01  0.12128661616E+00  0.89082672418E+00  0.88000000000E+00 0. -1.
        -11    1    4    4    0    0  0.36097769588E-01 -0.23829239842E-01 -0.61310148745E-01  0.75033839705E-01  0.51100000000E-03 0.  1.
         11    1    4    4    0    0  0.11123328598E-01 -0.23332893888E-01 -0.48518690805E-01  0.54977057531E-01  0.51100000000E-03 0. -1.
</event>
<event>
 8    1  0.1150863E+005  0.1043930E+01  0.7957747E-01            NaN
         13   -1    0    0    0    0  0.00000000000E+00  0.00000000000E+00  0.74505805969E-08  0.10566000000E+00  0.10566000000E+00 0. -1.
     999900   -1    0    0    0    0 -0.00000000000E+00 -0.00000000000E+00 -0.74505805969E-08  0.93827000000E+00  0.93827000000E+00 0. -1.
     999902    2    1    2    0    0 -0.95539968328E-02  0.11864984556E-01  0.17645215323E-01  0.10206188366E+01  0.10203525858E+01 0.  0.
     999903    2    3    3    0    0 -0.31415551929E-01  0.12736696703E+00  0.57974041271E-02  0.13272300593E+00  0.19300394115E-01 0.  0.
         14    1    1    2    0    0  0.95539968328E-02 -0.11864984556E-01 -0.17645215323E-01  0.23311163373E-01  0.00000000000E+00 0.  1.
     999901    1    3    3    0    0  0.21861555096E-01 -0.11550198248E+00  0.11847811196E-01  0.88789583070E+00  0.88000000000E+00 0.  1.
        -11    1    4    4    0    0 -0.17372284477E-01  0.41306848586E-01 -0.39100312036E-02  0.44984458128E-01  0.51100000000E-03 0.  1.
         11    1    4    4    0    0 -0.14043267452E-01  0.86060118447E-01  0.97074353307E-02  0.87738547797E-01  0.51100000000E-03 0. -1.
</event>
<event>
 8    1  0.1150863E+005  0.1043930E+01  0.7957747E-01            NaN
         13   -1    0    0    0    0  0.00000000000E+00  0.00000000000E+00  0.74505805969E-08  0.10566000000E+00  0.10566000000E+00 0. -1.
     999900   -1    0    0    0    0 -0.00000000000E+00 -0.00000000000E+00 -0.74505805969E-08  0.93827000000E+00  0.93827000000E+00 0. -1.
     999902    2    1    2    0    0 -0.10832983388E-01  0.20245309769E-01  0.42208559013E-02  0.10205838714E+01  0.10203168120E+01 0.  0.
     999903    2    3    3    0    0  0.86882935741E-01  0.73389944846E-01  0.62971914943E-01  0.13163818124E+00  0.20698313006E-01 0.  0.
         14    1    1    2    0    0  0.10832983388E-01 -0.20245309769E-01 -0.42208559013E-02  0.23346128614E-01  0.00000000000E+00 0.  1.
     999901    1    3    3    0    0 -0.97715919129E-01 -0.53144635076E-01 -0.58751059041E-01  0.88894569014E+00  0.88000000000E+00 0. -1.
        -11    1    4    4    0    0  0.38997415458E-01  0.35252195732E-01  0.40731628672E-01  0.66504454073E-01  0.51100000000E-03 0.  1.
         11    1    4    4    0    0  0.47885520284E-01  0.38137749114E-01  0.22240286271E-01  0.65133727168E-01  0.51100000000E-03 0. -1.
</event>
<event>
 8    1  0.1150863E+005  0.1043930E+01  0.7957747E-01            NaN
         13   -1    0    0    0    0  0.00000000000E+00  0.00000000000E+00  0.74505805969E-08  0.10566000000E+00  0.10566000000E+00 0.  1.
     999900   -1    0    0    0    0 -0.00000000000E+00 -0.00000000000E+00 -0.74505805969E-08  0.93827000000E+00  0.93827000000E+00 0. -1.
     999902    2    1    2    0    0 -0.14309684299E-02 -0.26138842937E-02  0.23157189155E-01  0.10205818636E+01  0.10203147578E+01 0.  0.
     999903    2    3    3    0    0  0.14804896732E-01  0.38642942650E-01 -0.11944567661E+00  0.12800060325E+00  0.20110265685E-01 0.  0.
         14    1    1    2    0    0  0.14309684299E-02  0.26138842937E-02 -0.23157189155E-01  0.23348136357E-01  0.00000000000E+00 0. -1.
     999901    1    3    3    0    0 -0.16235865162E-01 -0.41256826944E-01  0.14260286577E+00  0.89258126040E+00  0.88000000000E+00 0.  1.
        -11    1    4    4    0    0  0.48256096213E-02  0.27198537468E-01 -0.52205639971E-01  0.59065530679E-01  0.51100000000E-03 0.  1.
         11    1    4    4    0    0  0.99792871106E-02  0.11444405182E-01 -0.67240036642E-01  0.68935072567E-01  0.51100000000E-03 0. -1.
</event>
<event>
 8    1  0.1150863E+005  0.1043930E+01  0.7957747E-01            NaN
         13   -1    0    0    0    0  0.00000000000E+00  0.00000000000E+00  0.74505805969E-08  0.10566000000E+00  0.10566000000E+00 0. -1.
     999900   -1    0    0    0    0 -0.00000000000E+00 -0.00000000000E+00 -0.74505805969E-08  0.93827000000E+00  0.93827000000E+00 0. -1.
     999902    2    1    2    0    0  0.52102663160E-02 -0.23179367862E-01  0.98903829947E-02  0.10181957884E+01  0.10178705291E+01 0.  0.
     999903    2    3    3    0    0 -0.11972129714E+00 -0.21433618788E-01 -0.35354135960E-01  0.12821937880E+00  0.19942546667E-01 0.  0.
         14    1    1    2    0    0 -0.52102663160E-02  0.23179367862E-01 -0.98903829947E-02  0.25734211574E-01  0.00000000000E+00 0. -1.
     999901    1    3    3    0    0  0.12493156346E+00 -0.17457490737E-02  0.45244518955E-01  0.88997640962E+00  0.88000000000E+00 0.  1.
        -11    1    4    4    0    0 -0.10886781791E+00 -0.21117839380E-01 -0.37639334185E-01  0.11711167967E+00  0.51100000000E-03 0.  1.
         11    1    4    4    0    0 -0.10853479237E-01 -0.31577940827E-03  0.22851982254E-02  0.11107699137E-01  0.51100000000E-03 0. -1.
</event>
<event>
 8    1  0.1150863E+005  0.1043930E+01  0.7957747E-01            NaN
         13   -1    0    0    0    0  0.00000000000E+00  0.00000000000E+00  0.74505805969E-08  0.10566000000E+00  0.10566000000E+00 0. -1.
     999900   -1    0    0    0    0 -0.00000000000E+00 -0.00000000000E+00 -0.74505805969E-08  0.93827000000E+00  0.93827000000E+00 0.  1.
     999902    2    1    2    0    0 -0.84241362060E-02 -0.17262353531E-01 -0.13760743433E-01  0.10203013526E+01  0.10200277139E+01 0.  0.
     999903    2    3    3    0    0  0.11217002715E+00 -0.20271372133E-01 -0.60911367215E-01  0.13082106174E+00  0.20270964910E-01 0.  0.
         14    1    1    2    0    0  0.84241362060E-02  0.17262353531E-01  0.13760743433E-01  0.23628647445E-01  0.00000000000E+00 0.  1.
     999901    1    3    3    0    0 -0.12059416336E+00  0.30090186013E-02  0.47150623782E-01  0.88948029082E+00  0.88000000000E+00 0.  1.
        -11    1    4    4    0    0  0.58368386087E-01 -0.11807155004E-01 -0.20432625321E-01  0.62960548776E-01  0.51100000000E-03 0. -1.
         11    1    4    4    0    0  0.53801641066E-01 -0.84642171288E-02 -0.40478741894E-01  0.67860512961E-01  0.51100000000E-03 0.  1.
</event>
<event>
 8    1  0.1150863E+005  0.1043930E+01  0.7957747E-01            NaN
         13   -1    0    0    0    0  0.00000000000E+00  0.00000000000E+00  0.74505805969E-08  0.10566000000E+00  0.10566000000E+00 0.  1.
     999900   -1    0    0    0    0 -0.00000000000E+00 -0.00000000000E+00 -0.74505805969E-08  0.93827000000E+00  0.93827000000E+00 0. -1.
     999902    2    1    2    0    0  0.97493984005E-02  0.92627147650E-02 -0.21709224830E-01  0.10183929858E+01  0.10180727549E+01 0.  0.
     999903    2    3    3    0    0  0.99712073315E-02  0.83463161510E-01 -0.99561523671E-01  0.13184533563E+00  0.20128865531E-01 0.  0.
         14    1    1    2    0    0 -0.97493984005E-02 -0.92627147650E-02  0.21709224830E-01  0.25537014248E-01  0.00000000000E+00 0. -1.
     999901    1    3    3    0    0 -0.22180893108E-03 -0.74200446745E-01  0.77852298842E-01  0.88654765012E+00  0.88000000000E+00 0.  1.
        -11    1    4    4    0    0 -0.30904808145E-02  0.22127848247E-01 -0.37247147227E-01  0.43437355321E-01  0.51100000000E-03 0.  1.
         11    1    4    4    0    0  0.13061688146E-01  0.61335313263E-01 -0.62314376444E-01  0.88407980313E-01  0.51100000000E-03 0. -1.
</event>
<event>
 7    1  0.1150863E+005  0.1043930E+01  0.7957747E-01            NaN
         13   -1    0    0    0    0  0.00000000000E+00  0.00000000000E+00  0.74505805969E-08  0.10566000000E+00  0.10566000000E+00 0.  1.
     999900   -1    0    0    0    0 -0.00000000000E+00 -0.00000000000E+00 -0.74505805969E-08  0.93827000000E+00  0.93827000000E+00 0. -1.
     999902    2    1    2    0    0 -0.15363116583E-01 -0.83692272092E-03 -0.19125108407E-01  0.10193842150E+01  0.10190886528E+01 0.  0.
         14    1    1    2    0    0  0.15363116583E-01  0.83692272092E-03  0.19125108407E-01  0.24545785022E-01  0.00000000000E+00 0.  1.
     999901    1    3    3    0    0 -0.52433655273E-01  0.11794642275E+00 -0.97668100618E-02  0.88946952585E+00  0.88000000000E+00 0.  1.
        -11    1    3    3    0    0 -0.18714842113E-03 -0.57688969514E-01 -0.87513573306E-02  0.58351517583E-01  0.51100000000E-03 0.  1.
         11    1    3    3    0    0  0.37257687111E-01 -0.61094375958E-01 -0.60694101457E-03  0.71563171541E-01  0.51100000000E-03 0. -1.
</event>
<event>
 8    1  0.1150863E+005  0.1043930E+01  0.7957747E-01            NaN
         13   -1    0    0    0    0  0.00000000000E+00  0.00000000000E+00  0.74505805969E-08  0.10566000000E+00  0.10566000000E+00 0.  1.
     999900   -1    0    0    0    0 -0.00000000000E+00 -0.00000000000E+00 -0.74505805969E-08  0.93827000000E+00  0.93827000000E+00 0.  1.
     999902    2    1    2    0    0  0.19919986325E-01 -0.37778110778E-02  0.11596883688E-01  0.10205726580E+01  0.10203053391E+01 0.  0.
     999903    2    3    3    0    0 -0.24436962229E-01 -0.43449842457E-01  0.12036273083E+00  0.13188181278E+00  0.20507843291E-01 0.  0.
         14    1    1    2    0    0 -0.19919986325E-01  0.37778110778E-02 -0.11596883688E-01  0.23357341951E-01  0.00000000000E+00 0.  1.
     999901    1    3    3    0    0  0.44356948554E-01  0.39672031379E-01 -0.10876584714E+00  0.88869084527E+00  0.88000000000E+00 0.  1.
        -11    1    4    4    0    0 -0.54817386508E-03 -0.14222430196E-01  0.50520982200E-01  0.52490082670E-01  0.51100000000E-03 0. -1.
         11    1    4    4    0    0 -0.23888788364E-01 -0.29227412261E-01  0.69841748633E-01  0.79391730111E-01  0.51100000000E-03 0.  1.
</event>
<event>
 8    1  0.1150863E+005  0.1043930E+01  0.7957747E-01            NaN
         13   -1    0    0    0    0  0.00000000000E+00  0.00000000000E+00  0.74505805969E-08  0.10566000000E+00  0.10566000000E+00 0.  1.
     999900   -1    0    0    0    0 -0.00000000000E+00 -0.00000000000E+00 -0.74505805969E-08  0.93827000000E+00  0.93827000000E+00 0. -1.
     999902    2    1    2    0    0 -0.13987396375E-02 -0.16984023731E-01 -0.15892955988E-01  0.10206276485E+01  0.10203616013E+01 0.  0.
     999903    2    3    3    0    0 -0.82979608931E-01  0.53371117683E-01  0.80368350121E-01  0.12884767385E+00  0.20212858649E-01 0.  0.
         14    1    1    2    0    0  0.13987396375E-02  0.16984023731E-01  0.15892955988E-01  0.23302351485E-01  0.00000000000E+00 0.  1.
     999901    1    3    3    0    0  0.81580869293E-01 -0.70355141414E-01 -0.96261306109E-01  0.89177997466E+00  0.88000000000E+00 0. -1.
        -11    1    4    4    0    0 -0.30469227399E-01  0.17983463518E-01  0.16975240258E-01  0.39245365092E-01  0.51100000000E-03 0.  1.
         11    1    4    4    0    0 -0.52510381531E-01  0.35387654165E-01  0.63393109863E-01  0.89602308759E-01  0.51100000000E-03 0. -1.
</event>
<event>
 8    1  0.1150863E+005  0.1043930E+01  0.7957747E-01            NaN
         13   -1    0    0    0    0  0.00000000000E+00  0.00000000000E+00  0.74505805969E-08  0.10566000000E+00  0.10566000000E+00 0.  1.
     999900   -1    0    0    0    0 -0.00000000000E+00 -0.00000000000E+00 -0.74505805969E-08  0.93827000000E+00  0.93827000000E+00 0.  1.
     999902    2    1    2    0    0 -0.18206604124E-01  0.14719447552E-01 -0.45438856114E-02  0.10200806925E+01  0.10198018581E+01 0.  0.
     999903    2    3    3    0    0  0.54948287937E-01  0.85256879636E-01  0.79245244841E-01  0.13027858761E+00  0.20115956019E-01 0.  0.
         14    1    1    2    0    0  0.18206604124E-01 -0.14719447552E-01  0.45438856114E-02  0.23849307462E-01  0.00000000000E+00 0.  1.
     999901    1    3    3    0    0 -0.73154892061E-01 -0.70537432084E-01 -0.83789130453E-01  0.88980210493E+00  0.88000000000E+00 0. -1.
        -11    1    4    4    0    0  0.14042859935E-01  0.36834129887E-01  0.23720652877E-01  0.46009624358E-01  0.51100000000E-03 0.  1.
         11    1    4    4    0    0  0.40905428002E-01  0.48422749749E-01  0.55524591964E-01  0.84268963249E-01  0.51100000000E-03 0. -1.
</event>
<event>
 8    1  0.1150863E+005  0.1043930E+01  0.7957747E-01            NaN
         13   -1    0    0    0    0  0.00000000000E+00  0.00000000000E+00  0.74505805969E-08  0.10566000000E+00  0.10566000000E+00 0. -1.
     999900   -1    0    0    0    0 -0.00000000000E+00 -0.00000000000E+00 -0.74505805969E-08  0.93827000000E+00  0.93827000000E+00 0. -1.
     999902    2    1    2    0    0 -0.14061520062E-01  0.19990342810E-01 -0.24290994048E-02  0.10193690416E+01  0.10190731094E+01 0.  0.
     999903    2    3    3    0    0  0.12620596524E+00  0.14800248159E-02  0.80401361939E-02  0.12800648678E+00  0.19770703866E-01 0.  0.
         14    1    1    2    0    0  0.14061520062E-01 -0.19990342810E-01  0.24290994048E-02  0.24560958369E-01  0.00000000000E+00 0.  1.
     999901    1    3    3    0    0 -0.14026748530E+00  0.18510317994E-01 -0.10469235599E-01  0.89136255486E+00  0.88000000000E+00 0.  1.
        -11    1    4    4    0    0  0.10871796426E+00 -0.38754169488E-02  0.22360644569E-02  0.10881119297E+00  0.51100000000E-03 0. -1.
         11    1    4    4    0    0  0.17488000978E-01  0.53554417647E-02  0.58040717370E-02  0.19195293810E-01  0.51100000000E-03 0.  1.
</event>
<event>
 8    1  0.1150863E+005  0.1043930E+01  0.7957747E-01            NaN
         13   -1    0    0    0    0  0.00000000000E+00  0.00000000000E+00  0.74505805969E-08  0.10566000000E+00  0.10566000000E+00 0.  1.
     999900   -1    0    0    0    0 -0.00000000000E+00 -0.00000000000E+00 -0.74505805969E-08  0.93827000000E+00  0.93827000000E+00 0. -1.
     999902    2    1    2    0    0 -0.17371824937E-01  0.30222745663E-02  0.15780267739E-01  0.10202671326E+01  0.10199926914E+01 0.  0.
     999903    2    3    3    0    0 -0.81920158976E-01 -0.95059015288E-01 -0.31624350354E-01  0.13120379137E+00  0.21614960097E-01 0.  0.
         14    1    1    2    0    0  0.17371824937E-01 -0.30222745663E-02 -0.15780267739E-01  0.23662867432E-01  0.00000000000E+00 0. -1.
     999901    1    3    3    0    0  0.64548334040E-01  0.98081289854E-01  0.47404618094E-01  0.88906334120E+00  0.88000000000E+00 0.  1.
        -11    1    4    4    0    0 -0.40473854342E-01 -0.37264717606E-01 -0.49348225463E-02  0.55239529851E-01  0.51100000000E-03 0.  1.
         11    1    4    4    0    0 -0.41446304634E-01 -0.57794297682E-01 -0.26689527808E-01  0.75964261518E-01  0.51100000000E-03 0. -1.
</event>
<event>
 8    1  0.1150863E+005  0.1043930E+01  0.7957747E-01            NaN
         13   -1    0    0    0    0  0.00000000000E+00  0.00000000000E+00  0.74505805969E-08  0.10566000000E+00  0.10566000000E+00 0. -1.
     999900   -1    0    0    0    0 -0.00000000000E+00 -0.00000000000E+00 -0.74505805969E-08  0.93827000000E+00  0.93827000000E+00 0. -1.
     999902    2    1    2    0    0  0.22757221867E-01  0.73079148970E-02  0.15111238688E-02  0.10199804643E+01  0.10196992533E+01 0.  0.
     999903    2    3    3    0    0 -0.71528965882E-01  0.63804404372E-01  0.84380992489E-01  0.12927896900E+00  0.20137153567E-01 0.  0.
         14    1    1    2    0    0 -0.22757221867E-01 -0.73079148970E-02 -0.15111238688E-02  0.23949535749E-01  0.00000000000E+00 0.  1.
     999901    1    3    3    0    0  0.94286187749E-01 -0.56496489475E-01 -0.82869868620E-01  0.89070149525E+00  0.88000000000E+00 0.  1.
        -11    1    4    4    0    0 -0.24734733056E-01  0.24356434058E-01  0.43590711100E-01  0.55726601498E-01  0.51100000000E-03 0.  1.
         11    1    4    4    0    0 -0.46794232827E-01  0.39447970315E-01  0.40790281390E-01  0.73552367498E-01  0.51100000000E-03 0. -1.
</event>
<event>
 8    1  0.1150863E+005  0.1043930E+01  0.7957747E-01            NaN
         13   -1    0    0    0    0  0.00000000000E+00  0.00000000000E+00  0.74505805969E-08  0.10566000000E+00  0.10566000000E+00 0.  1.
     999900   -1    0    0    0    0 -0.00000000000E+00 -0.00000000000E+00 -0.74505805969E-08  0.93827000000E+00  0.93827000000E+00 0. -1.
     999902    2    1    2    0    0 -0.25592739213E-02  0.21496111688E-01 -0.10328655180E-01  0.10199442997E+01  0.10196622287E+01 0.  0.
     999903    2    3    3    0    0  0.11624942050E+00  0.55513974815E-01  0.12930827101E-01  0.13100463674E+00  0.19981976635E-01 0.  0.
         14    1    1    2    0    0  0.25592739213E-02 -0.21496111688E-01  0.10328655180E-01  0.23985700292E-01  0.00000000000E+00 0.  1.
     999901    1    3    3    0    0 -0.11880869443E+00 -0.34017863128E-01 -0.23259482281E-01  0.88893966297E+00  0.88000000000E+00 0. -1.
        -11    1    4    4    0    0  0.13162830818E-01  0.11999046614E-01 -0.27019078887E-02  0.18022171402E-01  0.51100000000E-03 0.  1.
         11    1    4    4    0    0  0.10308658969E+00  0.43514928201E-01  0.15632734990E-01  0.11298246534E+00  0.51100000000E-03 0. -1.
</event>
<event>
 8    1  0.1150863E+005  0.1043930E+01  0.7957747E-01            NaN
         13   -1    0    0    0    0  0.00000000000E+00  0.00000000000E+00  0.74505805969E-08  0.10566000000E+00  0.10566000000E+00 0.  1.
     999900   -1    0    0    0    0 -0.00000000000E+00 -0.00000000000E+00 -0.74505805969E-08  0.93827000000E+00  0.93827000000E+00 0.  1.
     999902    2    1    2    0    0 -0.36883999265E-02 -0.16687311051E-01  0.16370561961E-01  0.10202642876E+01  0.10199897797E+01 0.  0.
     999903    2    3    3    0    0 -0.61627814195E-01  0.89763099805E-01  0.68420766096E-01  0.13043402882E+00  0.21822765018E-01 0.  0.
         14    1    1    2    0    0  0.36883999265E-02  0.16687311051E-01 -0.16370561961E-01  0.23665712392E-01  0.00000000000E+00 0. -1.
     999901    1    3    3    0    0  0.57939414269E-01 -0.10645041086E+00 -0.52050204135E-01  0.88983025878E+00  0.88000000000E+00 0.  1.
        -11    1    4    4    0    0 -0.17981414865E-01  0.11774708467E-01  0.16235872450E-01  0.26941412644E-01  0.51100000000E-03 0. -1.
         11    1    4    4    0    0 -0.43646399330E-01  0.77988391338E-01  0.52184893645E-01  0.10349261618E+00  0.51100000000E-03 0.  1.
</event>
<event>
 8    1  0.1150863E+005  0.1043930E+01  0.7957747E-01            NaN
         13   -1    0    0    0    0  0.00000000000E+00  0.00000000000E+00  0.74505805969E-08  0.10566000000E+00  0.10566000000E+00 0.  1.
     999900   -1    0    0    0    0 -0.00000000000E+00 -0.00000000000E+00 -0.74505805969E-08  0.93827000000E+00  0.93827000000E+00 0. -1.
     999902    2    1    2    0    0  0.19204341540E-01  0.11693748759E-01  0.66390644248E-02  0.10204858606E+01  0.10202165280E+01 0.  0.
     999903    2    3    3    0    0 -0.69374783341E-01 -0.89106895896E-01  0.58421567866E-01  0.12880853167E+00  0.20631499701E-01 0.  0.
         14    1    1    2    0    0 -0.19204341540E-01 -0.11693748759E-01 -0.66390644248E-02  0.23444139362E-01  0.00000000000E+00 0.  1.
     999901    1    3    3    0    0  0.88579124880E-01  0.10080064465E+00 -0.51782503441E-01  0.89167732896E+00  0.88000000000E+00 0.  1.
        -11    1    4    4    0    0 -0.40961047341E-01 -0.46040851193E-01  0.42315719631E-01  0.74755927034E-01  0.51100000000E-03 0. -1.
         11    1    4    4    0    0 -0.28413736000E-01 -0.43066044704E-01  0.16105848235E-01  0.54052604639E-01  0.51100000000E-03 0.  1.
</event>
<event>
 8    1  0.1150863E+005  0.1043930E+01  0.7957747E-01            NaN
         13   -1    0    0    0    0  0.00000000000E+00  0.00000000000E+00  0.74505805969E-08  0.10566000000E+00  0.10566000000E+00 0. -1.
     999900   -1    0    0    0    0 -0.00000000000E+00 -0.00000000000E+00 -0.74505805969E-08  0.93827000000E+00  0.93827000000E+00 0.  1.
     999902    2    1    2    0    0  0.85090137147E-03  0.21845182280E-01  0.84720376756E-02  0.10204840740E+01  0.10202146999E+01 0.  0.
     999903    2    3    3    0    0  0.94787749407E-01  0.28771802156E-02  0.88981710983E-01  0.13162766042E+00  0.20374015208E-01 0.  0.
         14    1    1    2    0    0 -0.85090137147E-03 -0.21845182280E-01 -0.84720376756E-02  0.23445925965E-01  0.00000000000E+00 0.  1.
     999901    1    3    3    0    0 -0.93936848035E-01  0.18968002064E-01 -0.80509673307E-01  0.88885641361E+00  0.88000000000E+00 0.  1.
        -11    1    4    4    0    0  0.56518651436E-01  0.10320561153E-01  0.59785274616E-01  0.82918104926E-01  0.51100000000E-03 0. -1.
         11    1    4    4    0    0  0.38269097971E-01 -0.74433809369E-02  0.29196436367E-01  0.48709555498E-01  0.51100000000E-03 0.  1.
</event>
<event>
 7    1  0.1234015E+005  0.1043930E+01  0.7957747E-01            NaN
         13   -1    0    0    0    0  0.00000000000E+00  0.00000000000E+00  0.74505805969E-08  0.10566000000E+00  0.10566000000E+00 0. -1.
     999900   -1    0    0    0    0 -0.00000000000E+00 -0.00000000000E+00 -0.74505805969E-08  0.93827000000E+00  0.93827000000E+00 0.  1.
     999903    2    1    2    0    0 -0.10758135424E+00 -0.14699767632E-02  0.83115924362E-02  0.10967185050E+00  0.19568434074E-01 0.  0.
         14    1    1    2    0    0  0.22983508631E-01  0.43022688154E-01 -0.66152284899E-02  0.49223516869E-01  0.00000000000E+00 0.  1.
     999901    1    1    2    0    0  0.84597845607E-01 -0.41552711391E-01 -0.16963639462E-02  0.88503463263E+00  0.88000000000E+00 0. -1.
        -11    1    3    3    0    0 -0.50535189601E-01  0.36985869416E-02  0.12642575291E-01  0.52226245934E-01  0.51100000000E-03 0. -1.
         11    1    3    3    0    0 -0.57046164636E-01 -0.51685637048E-02 -0.43309828550E-02  0.57445604566E-01  0.51100000000E-03 0.  1.
</event>
<event>
 8    1  0.1150863E+005  0.1043930E+01  0.7957747E-01            NaN
         13   -1    0    0    0    0  0.00000000000E+00  0.00000000000E+00  0.74505805969E-08  0.10566000000E+00  0.10566000000E+00 0. -1.
     999900   -1    0    0    0    0 -0.00000000000E+00 -0.00000000000E+00 -0.74505805969E-08  0.93827000000E+00  0.93827000000E+00 0. -1.
     999902    2    1    2    0    0 -0.71370198009E-02 -0.49309163735E-02 -0.24194716590E-01  0.10182271733E+01  0.10179027170E+01 0.  0.
     999903    2    3    3    0    0  0.11679170854E+00  0.37795326517E-01  0.25325205460E-01  0.12714014940E+00  0.21318106532E-01 0.  0.
         14    1    1    2    0    0  0.71370198009E-02  0.49309163735E-02  0.24194716590E-01  0.25702826669E-01  0.00000000000E+00 0. -1.
     999901    1    3    3    0    0 -0.12392872835E+00 -0.42726242891E-01 -0.49519922050E-01  0.89108702393E+00  0.88000000000E+00 0. -1.
        -11    1    4    4    0    0  0.11627945295E-01 -0.27633854653E-03 -0.24528140071E-02  0.11898020521E-01  0.51100000000E-03 0. -1.
         11    1    4    4    0    0  0.10516376325E+00  0.38071665064E-01  0.27778019467E-01  0.11524212888E+00  0.51100000000E-03 0.  1.
</event>
<event>
 8    1  0.1150863E+005  0.1043930E+01  0.7957747E-01            NaN
         13   -1    0    0    0    0  0.00000000000E+00  0.00000000000E+00  0.74505805969E-08  0.10566000000E+00  0.10566000000E+00 0. -1.
     999900   -1    0    0    0    0 -0.00000000000E+00 -0.00000000000E+00 -0.74505805969E-08  0.93827000000E+00  0.93827000000E+00 0.  1.
     999902    2    1    2    0    0 -0.10203405935E-01  0.20760374297E-01  0.27539667493E-02  0.10206343574E+01  0.10203684650E+01 0.  0.
     999903    2    3    3    0    0 -0.77729416296E-01 -0.63317078164E-01  0.81386840610E-01  0.13057148938E+00  0.19343770820E-01 0.  0.
         14    1    1    2    0    0  0.10203405935E-01 -0.20760374297E-01 -0.27539667493E-02  0.23295642650E-01  0.00000000000E+00 0.  1.
     999901    1    3    3    0    0  0.67526010361E-01  0.84077452461E-01 -0.78632873860E-01  0.89006286797E+00  0.88000000000E+00 0.  1.
        -11    1    4    4    0    0 -0.56120513740E-01 -0.54163167041E-01  0.56148569647E-01  0.96104545786E-01  0.51100000000E-03 0. -1.
         11    1    4    4    0    0 -0.21608902556E-01 -0.91539111228E-02  0.25238270962E-01  0.34466943594E-01  0.51100000000E-03 0.  1.
</event>
<event>
 8    1  0.1150863E+005  0.1043930E+01  0.7957747E-01            NaN
         13   -1    0    0    0    0  0.00000000000E+00  0.00000000000E+00  0.74505805969E-08  0.10566000000E+00  0.10566000000E+00 0. -1.
     999900   -1    0    0    0    0 -0.00000000000E+00 -0.00000000000E+00 -0.74505805969E-08  0.93827000000E+00  0.93827000000E+00 0. -1.
     999902    2    1    2    0    0 -0.21772672544E-01 -0.71393265485E-02 -0.37464565885E-02  0.10207124379E+01  0.10204483454E+01 0.  0.
     999903    2    3    3    0    0 -0.12857726117E+00  0.28987878441E-01 -0.60664175590E-02  0.13351585465E+00  0.20427257182E-01 0.  0.
         14    1    1    2    0    0  0.21772672544E-01  0.71393265485E-02  0.37464565885E-02  0.23217562108E-01  0.00000000000E+00 0.  1.
     999901    1    3    3    0    0  0.10680458862E+00 -0.36127204990E-01  0.23199609705E-02  0.88719658324E+00  0.88000000000E+00 0.  1.
        -11    1    4    4    0    0 -0.90502591054E-01  0.13645868374E-01  0.25766208588E-02  0.91563250309E-01  0.51100000000E-03 0.  1.
         11    1    4    4    0    0 -0.38074670114E-01  0.15342010067E-01 -0.86430384178E-02  0.41952604345E-01  0.51100000000E-03 0. -1.
</event>
<event>
 8    1  0.1150863E+005  0.1043930E+01  0.7957747E-01            NaN
         13   -1    0    0    0    0  0.00000000000E+00  0.00000000000E+00  0.74505805969E-08  0.10566000000E+00  0.10566000000E+00 0.  1.
     999900   -1    0    0    0    0 -0.00000000000E+00 -0.00000000000E+00 -0.74505805969E-08  0.93827000000E+00  0.93827000000E+00 0.  1.
     999902    2    1    2    0    0  0.64650997016E-02 -0.40180678320E-02  0.22731019532E-01  0.10199583160E+01  0.10196765785E+01 0.  0.
     999903    2    3    3    0    0  0.14583209371E-01  0.97633292466E-01 -0.79287401049E-01  0.12821470888E+00  0.20188853743E-01 0.  0.
         14    1    1    2    0    0 -0.64650997016E-02  0.40180678320E-02 -0.22731019532E-01  0.23971683967E-01  0.00000000000E+00 0. -1.
     999901    1    3    3    0    0 -0.81181096693E-02 -0.10165136030E+00  0.10201842058E+00  0.89174360715E+00  0.88000000000E+00 0. -1.
        -11    1    4    4    0    0 -0.41732340207E-02  0.20283137658E-01 -0.11659737717E-01  0.23770405130E-01  0.51100000000E-03 0.  1.
         11    1    4    4    0    0  0.18756443391E-01  0.77350154809E-01 -0.67627663332E-01  0.10444430375E+00  0.51100000000E-03 0. -1.
</event>
<event>
 8    1  0.1150863E+005  0.1043930E+01  0.7957747E-01            NaN
         13   -1    0    0    0    0  0.00000000000E+00  0.00000000000E+00  0.74505805969E-08  0.10566000000E+00  0.10566000000E+00 0. -1.
     999900   -1    0    0    0    0 -0.00000000000E+00 -0.00000000000E+00 -0.74505805969E-08  0.93827000000E+00  0.93827000000E+00 0. -1.
     999902    2    1    2    0    0 -0.97988753708E-02 -0.20042782999E-01  0.42301633440E-02  0.10212226137E+01  0.10209701276E+01 0.  0.
     999903    2    3    3    0    0 -0.43351343746E-02  0.16703313925E-01 -0.12802839646E+00  0.13056417486E+00  0.18919285718E-01 0.  0.
         14    1    1    2    0    0  0.97988753708E-02  0.20042782999E-01 -0.42301633440E-02  0.22707386261E-01  0.00000000000E+00 0.  1.
     999901    1    3    3    0    0 -0.54637409963E-02 -0.36746096924E-01  0.13225855980E+00  0.89065843888E+00  0.88000000000E+00 0.  1.
        -11    1    4    4    0    0 -0.89287325048E-02  0.84214622599E-02 -0.35791061098E-01  0.37840513557E-01  0.51100000000E-03 0. -1.
         11    1    4    4    0    0  0.45935981302E-02  0.82818516652E-02 -0.92237335357E-01  0.92723661303E-01  0.51100000000E-03 0.  1.
</event>
<event>
 8    1  0.1150863E+005  0.1043930E+01  0.7957747E-01            NaN
         13   -1    0    0    0    0  0.00000000000E+00  0.00000000000E+00  0.74505805969E-08  0.10566000000E+00  0.10566000000E+00 0.  1.
     999900   -1    0    0    0    0 -0.00000000000E+00 -0.00000000000E+00 -0.74505805969E-08  0.93827000000E+00  0.93827000000E+00 0. -1.
     999902    2    1    2    0    0 -0.15301727388E-02 -0.24312127926E-01  0.79209465793E-02  0.10183143332E+01  0.10179921015E+01 0.  0.
     999903    2    3    3    0    0  0.11079332624E+00  0.41460732683E-01  0.44369599049E-01  0.12799352475E+00  0.20482372089E-01 0.  0.
         14    1    1    2    0    0  0.15301727388E-02  0.24312127926E-01 -0.79209465793E-02  0.25615666839E-01  0.00000000000E+00 0. -1.
     999901    1    3    3    0    0 -0.11232349897E+00 -0.65772860609E-01 -0.36448652470E-01  0.89032080841E+00  0.88000000000E+00 0. -1.
        -11    1    4    4    0    0  0.17802269683E-01  0.11363792412E-01  0.12500119765E-02  0.21163181113E-01  0.51100000000E-03 0. -1.
         11    1    4    4    0    0  0.92991056552E-01  0.30096940271E-01  0.43119587073E-01  0.10683034364E+00  0.51100000000E-03 0.  1.
</event>
<event>
 8    1  0.1150863E+005  0.1043930E+01  0.7957747E-01            NaN
         13   -1    0    0    0    0  0.00000000000E+00  0.00000000000E+00  0.74505805969E-08  0.10566000000E+00  0.10566000000E+00 0.  1.
     999900   -1    0    0    0    0 -0.00000000000E+00 -0.00000000000E+00 -0.74505805969E-08  0.93827000000E+00  0.93827000000E+00 0. -1.
     999902    2    1    2    0    0  0.83719988851E-02  0.92608525866E-02 -0.20116577299E-01  0.10202544760E+01  0.10199797377E+01 0.  0.
     999903    2    3    3    0    0 -0.84714524474E-01  0.88236995516E-01 -0.42167854132E-01  0.13155396916E+00  0.23790772289E-01 0.  0.
         14    1    1    2    0    0 -0.83719988851E-02 -0.92608525866E-02  0.20116577299E-01  0.23675524032E-01  0.00000000000E+00 0.  1.
     999901    1    3    3    0    0  0.93086523359E-01 -0.78976142930E-01  0.22051276833E-01  0.88870050680E+00  0.88000000000E+00 0.  1.
        -11    1    4    4    0    0 -0.18614485552E-01  0.34904973714E-01 -0.10758746514E-01  0.40998390333E-01  0.51100000000E-03 0.  1.
         11    1    4    4    0    0 -0.66100038923E-01  0.53332021802E-01 -0.31409107618E-01  0.90555578831E-01  0.51100000000E-03 0. -1.
</event>
<event>
 8    1  0.1150863E+005  0.1043930E+01  0.7957747E-01            NaN
         13   -1    0    0    0    0  0.00000000000E+00  0.00000000000E+00  0.74505805969E-08  0.10566000000E+00  0.10566000000E+00 0. -1.
     999900   -1    0    0    0    0 -0.00000000000E+00 -0.00000000000E+00 -0.74505805969E-08  0.93827000000E+00  0.93827000000E+00 0. -1.
     999902    2    1    2    0    0 -0.45063248238E-02  0.21283395982E-01 -0.10607042450E-01  0.10197267098E+01  0.10194394359E+01 0.  0.
     999903    2    3    3    0    0 -0.61595991880E-01 -0.63997010982E-01  0.90200471333E-01  0.12804619932E+00  0.19235916964E-01 0.  0.
         14    1    1    2    0    0  0.45063248238E-02 -0.21283395982E-01  0.10607042450E-01  0.24203290221E-01  0.00000000000E+00 0. -1.
     999901    1    3    3    0    0  0.57089667057E-01  0.85280406964E-01 -0.10080751378E+00  0.89168051046E+00  0.88000000000E+00 0. -1.
        -11    1    4    4    0    0 -0.42101813395E-01 -0.36745775953E-01  0.67206387634E-01  0.87405803019E-01  0.51100000000E-03 0. -1.
         11    1    4    4    0    0 -0.19494178485E-01 -0.27251235029E-01  0.22994083699E-01  0.40640396302E-01  0.51100000000E-03 0.  1.
</event>
<event>
 8    1  0.1150863E+005  0.1043930E+01  0.7957747E-01            NaN
         13   -1    0    0    0    0  0.00000000000E+00  0.00000000000E+00  0.74505805969E-08  0.10566000000E+00  0.10566000000E+00 0.  1.
     999900   -1    0    0    0    0 -0.00000000000E+00 -0.00000000000E+00 -0.74505805969E-08  0.93827000000E+00  0.93827000000E+00 0. -1.
     999902    2    1    2    0    0 -0.27680322600E-02 -0.12446160303E-01  0.20166266631E-01  0.10200710977E+01  0.10197920362E+01 0.  0.
     999903    2    3    3    0    0  0.10767790991E+00 -0.54352387016E-01  0.51447241149E-01  0.13162698728E+00  0.11407493248E-01 0.  0.
         14    1    1    2    0    0  0.27680322600E-02  0.12446160303E-01 -0.20166266631E-01  0.23858902294E-01  0.00000000000E+00 0. -1.
     999901    1    3    3    0    0 -0.11044594217E+00  0.41906226713E-01 -0.31280974518E-01  0.88844411042E+00  0.88000000000E+00 0. -1.
        -11    1    4    4    0    0  0.30479096011E-01 -0.16288824573E-01  0.93220142189E-02  0.35797516251E-01  0.51100000000E-03 0. -1.
         11    1    4    4    0    0  0.77198813899E-01 -0.38063562443E-01  0.42125226930E-01  0.95829471031E-01  0.51100000000E-03 0.  1.
</event>
<event>
 8    1  0.1150863E+005  0.1043930E+01  0.7957747E-01            NaN
         13   -1    0    0    0    0  0.00000000000E+00  0.00000000000E+00  0.74505805969E-08  0.10566000000E+00  0.10566000000E+00 0. -1.
     999900   -1    0    0    0    0 -0.00000000000E+00 -0.00000000000E+00 -0.74505805969E-08  0.93827000000E+00  0.93827000000E+00 0. -1.
     999902    2    1    2    0    0 -0.20243814366E-01  0.84601830976E-02 -0.72672014716E-02  0.10208172560E+01  0.10205555699E+01 0.  0.
     999903    2    3    3    0    0  0.72406743863E-01  0.69590391897E-01  0.79347248538E-01  0.12962530624E+00  0.20522547726E-01 0.  0.
         14    1    1    2    0    0  0.20243814366E-01 -0.84601830976E-02  0.72672014716E-02  0.23112744003E-01  0.00000000000E+00 0.  1.
     999901    1    3    3    0    0 -0.92650558228E-01 -0.61130208799E-01 -0.86614450010E-01  0.89119194976E+00  0.88000000000E+00 0. -1.
        -11    1    4    4    0    0  0.55946870072E-01  0.60195123000E-01  0.55530841927E-01  0.99183872832E-01  0.51100000000E-03 0. -1.
         11    1    4    4    0    0  0.16459873790E-01  0.93952688972E-02  0.23816406611E-01  0.30441433404E-01  0.51100000000E-03 0.  1.
</event>
<event>
 8    1  0.1150863E+005  0.1043930E+01  0.7957747E-01            NaN
         13   -1    0    0    0    0  0.00000000000E+00  0.00000000000E+00  0.74505805969E-08  0.10566000000E+00  0.10566000000E+00 0.  1.
     999900   -1    0    0    0    0 -0.00000000000E+00 -0.00000000000E+00 -0.74505805969E-08  0.93827000000E+00  0.93827000000E+00 0. -1.
     999902    2    1    2    0    0  0.13908562290E-01  0.95002414408E-02  0.16228639878E-01  0.10205404415E+01  0.10202723761E+01 0.  0.
     999903    2    3    3    0    0 -0.43468900014E-02  0.91458962587E-01 -0.90284983170E-01  0.13014971529E+00  0.20098082334E-01 0.  0.
         14    1    1    2    0    0 -0.13908562290E-01 -0.95002414408E-02 -0.16228639878E-01  0.23389558454E-01  0.00000000000E+00 0. -1.
     999901    1    3    3    0    0  0.18255452291E-01 -0.81958721146E-01  0.10651362305E+00  0.89039072626E+00  0.88000000000E+00 0.  1.
        -11    1    4    4    0    0 -0.74913236362E-02  0.55563019154E-01 -0.42791900063E-01  0.70532098078E-01  0.51100000000E-03 0.  1.
         11    1    4    4    0    0  0.31444336348E-02  0.35895943434E-01 -0.47493083107E-01  0.59617617210E-01  0.51100000000E-03 0. -1.
</event>
<event>
 8    1  0.1150863E+005  0.1043930E+01  0.7957747E-01            NaN
         13   -1    0    0    0    0  0.00000000000E+00  0.00000000000E+00  0.74505805969E-08  0.10566000000E+00  0.10566000000E+00 0. -1.
     999900   -1    0    0    0    0 -0.00000000000E+00 -0.00000000000E+00 -0.74505805969E-08  0.93827000000E+00  0.93827000000E+00 0. -1.
     999902    2    1    2    0    0  0.17760430972E-01 -0.21145318959E-04 -0.15409396791E-01  0.10204165386E+01  0.10201455923E+01 0.  0.
     999903    2    3    3    0    0 -0.11400198459E+00  0.14975687773E-01 -0.56074025033E-01  0.12955187376E+00  0.20461378159E-01 0.  0.
         14    1    1    2    0    0 -0.17760430972E-01  0.21145318959E-04  0.15409396791E-01  0.23513461355E-01  0.00000000000E+00 0. -1.
     999901    1    3    3    0    0  0.13176241556E+00 -0.14996833092E-01  0.40664628242E-01  0.89086466489E+00  0.88000000000E+00 0. -1.
        -11    1    4    4    0    0 -0.71805753299E-01  0.49757101215E-02 -0.44652972651E-01  0.84705212269E-01  0.51100000000E-03 0.  1.
         11    1    4    4    0    0 -0.42196231289E-01  0.99999776510E-02 -0.11421052382E-01  0.44846661487E-01  0.51100000000E-03 0. -1.
</event>
<event>
 8    1  0.1150863E+005  0.1043930E+01  0.7957747E-01            NaN
         13   -1    0    0    0    0  0.00000000000E+00  0.00000000000E+00  0.74505805969E-08  0.10566000000E+00  0.10566000000E+00 0.  1.
     999900   -1    0    0    0    0 -0.00000000000E+00 -0.00000000000E+00 -0.74505805969E-08  0.93827000000E+00  0.93827000000E+00 0.  1.
     999902    2    1    2    0    0  0.20486220591E-01  0.90766719609E-02  0.42506946599E-02  0.10211234305E+01  0.10208687088E+01 0.  0.
     999903    2    3    3    0    0 -0.88394864768E-01  0.44664134255E-01  0.82163554972E-01  0.13028563828E+00  0.20370585897E-01 0.  0.
         14    1    1    2    0    0 -0.20486220591E-01 -0.90766719609E-02 -0.42506946599E-02  0.22806569516E-01  0.00000000000E+00 0. -1.
     999901    1    3    3    0    0  0.10888108536E+00 -0.35587462294E-01 -0.77912860312E-01  0.89083779221E+00  0.88000000000E+00 0.  1.
        -11    1    4    4    0    0 -0.82059731313E-01  0.38550353310E-01  0.80635367959E-01  0.12133529136E+00  0.51100000000E-03 0.  1.
         11    1    4    4    0    0 -0.63351334547E-02  0.61137809446E-02  0.15281870127E-02  0.89503469135E-02  0.51100000000E-03 0. -1.
</event>
<event>
 8    1  0.1150863E+005  0.1043930E+01  0.7957747E-01            NaN
         13   -1    0    0    0    0  0.00000000000E+00  0.00000000000E+00  0.74505805969E-08  0.10566000000E+00  0.10566000000E+00 0. -1.
     999900   -1    0    0    0    0 -0.00000000000E+00 -0.00000000000E+00 -0.74505805969E-08  0.93827000000E+00  0.93827000000E+00 0.  1.
     999902    2    1    2    0    0  0.13809157642E-01 -0.22049800522E-02  0.19496937353E-01  0.10199365564E+01  0.10196543011E+01 0.  0.
     999903    2    3    3    0    0 -0.64323256332E-01  0.76428028982E-01  0.82298471811E-01  0.13076173836E+00  0.18624415097E-01 0.  0.
         14    1    1    2    0    0 -0.13809157642E-01  0.22049800522E-02 -0.19496937353E-01  0.23993443645E-01  0.00000000000E+00 0.  1.
     999901    1    3    3    0    0  0.78132413974E-01 -0.78633009034E-01 -0.62801534458E-01  0.88917481799E+00  0.88000000000E+00 0.  1.
        -11    1    4    4    0    0 -0.16523702205E-01  0.12907208529E-01  0.25711091775E-01  0.33180568528E-01  0.51100000000E-03 0. -1.
         11    1    4    4    0    0 -0.47799554127E-01  0.63520820453E-01  0.56587380036E-01  0.97581169833E-01  0.51100000000E-03 0.  1.
</event>
<event>
 8    1  0.1150863E+005  0.1043930E+01  0.7957747E-01            NaN
         13   -1    0    0    0    0  0.00000000000E+00  0.00000000000E+00  0.74505805969E-08  0.10566000000E+00  0.10566000000E+00 0. -1.
     999900   -1    0    0    0    0 -0.00000000000E+00 -0.00000000000E+00 -0.74505805969E-08  0.93827000000E+00  0.93827000000E+00 0.  1.
     999902    2    1    2    0    0  0.15095754895E-01 -0.18728856684E-01 -0.28574656777E-02  0.10197056941E+01  0.10194179150E+01 0.  0.
     999903    2    3    3    0    0 -0.13899623826E-01 -0.68969710984E-01  0.10825311333E+00  0.13082412928E+00  0.21123344423E-01 0.  0.
         14    1    1    2    0    0 -0.15095754895E-01  0.18728856684E-01  0.28574656777E-02  0.24224305947E-01  0.00000000000E+00 0.  1.
     999901    1    3    3    0    0  0.28995378722E-01  0.50240854300E-01 -0.11111057901E+00  0.88888156477E+00  0.88000000000E+00 0.  1.
        -11    1    4    4    0    0 -0.47240261994E-02 -0.47798172606E-01  0.56504976217E-01  0.74162356936E-01  0.51100000000E-03 0.  1.
         11    1    4    4    0    0 -0.91755976270E-02 -0.21171538378E-01  0.51748137115E-01  0.56661772342E-01  0.51100000000E-03 0. -1.
</event>
<event>
 8    1  0.1150863E+005  0.1043930E+01  0.7957747E-01            NaN
         13   -1    0    0    0    0  0.00000000000E+00  0.00000000000E+00  0.74505805969E-08  0.10566000000E+00  0.10566000000E+00 0. -1.
     999900   -1    0    0    0    0 -0.00000000000E+00 -0.00000000000E+00 -0.74505805969E-08  0.93827000000E+00  0.93827000000E+00 0.  1.
     999902    2    1    2    0    0  0.31098832175E-02  0.18704186948E-01  0.15027349581E-01  0.10197362153E+01  0.10194491697E+01 0.  0.
     999903    2    3    3    0    0 -0.15283122622E-01  0.82388165970E-01  0.10100658983E+00  0.13306469686E+00  0.21965851489E-01 0.  0.
         14    1    1    2    0    0 -0.31098832175E-02 -0.18704186948E-01 -0.15027349581E-01  0.24193784707E-01  0.00000000000E+00 0.  1.
     999901    1    3    3    0    0  0.18393005839E-01 -0.63683979022E-01 -0.85979240251E-01  0.88667151843E+00  0.88000000000E+00 0.  1.
        -11    1    4    4    0    0  0.24351597473E-02  0.46024481008E-01  0.50945542765E-01  0.68701472354E-01  0.51100000000E-03 0.  1.
         11    1    4    4    0    0 -0.17718282369E-01  0.36363684962E-01  0.50061047068E-01  0.64363224505E-01  0.51100000000E-03 0. -1.
</event>
<event>
 8    1  0.1150863E+005  0.1043930E+01  0.7957747E-01            NaN
         13   -1    0    0    0    0  0.00000000000E+00  0.00000000000E+00  0.74505805969E-08  0.10566000000E+00  0.10566000000E+00 0. -1.
     999900   -1    0    0    0    0 -0.00000000000E+00 -0.00000000000E+00 -0.74505805969E-08  0.93827000000E+00  0.93827000000E+00 0. -1.
     999902    2    1    2    0    0  0.84811410596E-02 -0.27309843178E-02 -0.20739668853E-01  0.10213574084E+01  0.10211079442E+01 0.  0.
     999903    2    3    3    0    0 -0.10582572935E+00 -0.74097986226E-01 -0.12620323761E-01  0.13106238235E+00  0.18123987965E-01 0.  0.
         14    1    1    2    0    0 -0.84811410596E-02  0.27309843178E-02  0.20739668853E-01  0.22572591635E-01  0.00000000000E+00 0. -1.
     999901    1    3    3    0    0  0.11430687041E+00  0.71367001908E-01 -0.81193450914E-02  0.89029502602E+00  0.88000000000E+00 0. -1.
        -11    1    4    4    0    0 -0.69103184484E-01 -0.37644540294E-01 -0.85533216121E-02  0.79156692398E-01  0.51100000000E-03 0.  1.
         11    1    4    4    0    0 -0.36722544867E-01 -0.36453445932E-01 -0.40670021493E-02  0.51905689951E-01  0.51100000000E-03 0. -1.
</event>
<event>
 8    1  0.1150863E+005  0.1043930E+01  0.7957747E-01            NaN
         13   -1    0    0    0    0  0.00000000000E+00  0.00000000000E+00  0.74505805969E-08  0.10566000000E+00  0.10566000000E+00 0. -1.
     999900   -1    0    0    0    0 -0.00000000000E+00 -0.00000000000E+00 -0.74505805969E-08  0.93827000000E+00  0.93827000000E+00 0.  1.
     999902    2    1    2    0    0 -0.18977438790E-01  0.25152178266E-02  0.14421865233E-01  0.10199621111E+01  0.10196804638E+01 0.  0.
     999903    2    3    3    0    0  0.84356605555E-01 -0.80221400692E-01 -0.48905599073E-01  0.12781098008E+00  0.19808558208E-01 0.  0.
         14    1    1    2    0    0  0.18977438790E-01 -0.25152178266E-02 -0.14421865233E-01  0.23967888946E-01  0.00000000000E+00 0.  1.
     999901    1    3    3    0    0 -0.10333404434E+00  0.82736618518E-01  0.63327464306E-01  0.89215113098E+00  0.88000000000E+00 0. -1.
        -11    1    4    4    0    0  0.25528022816E-01 -0.17299418349E-01 -0.54131565912E-02  0.31313147548E-01  0.51100000000E-03 0. -1.
         11    1    4    4    0    0  0.58828582739E-01 -0.62921982343E-01 -0.43492442482E-01  0.96497832531E-01  0.51100000000E-03 0.  1.
</event>
<event>
 8    1  0.1150863E+005  0.1043930E+01  0.7957747E-01            NaN
         13   -1    0    0    0    0  0.00000000000E+00  0.00000000000E+00  0.74505805969E-08  0.10566000000E+00  0.10566000000E+00 0.  1.
     999900   -1    0    0    0    0 -0.00000000000E+00 -0.00000000000E+00 -0.74505805969E-08  0.93827000000E+00  0.93827000000E+00 0. -1.
     999902    2    1    2    0    0  0.14856265457E-01 -0.15146559998E-02 -0.16986659504E-01  0.10213125420E+01  0.10210620740E+01 0.  0.
     999903    2    3    3    0    0 -0.15247753606E-01  0.10106196097E+00  0.78004481511E-01  0.12976807804E+00  0.17579561944E-01 0.  0.
         14    1    1    2    0    0 -0.14856265457E-01  0.15146559998E-02  0.16986659504E-01  0.22617458019E-01  0.00000000000E+00 0.  1.
     999901    1    3    3    0    0  0.30104019063E-01 -0.10257661697E+00 -0.94991141016E-01  0.89154446394E+00  0.88000000000E+00 0. -1.
        -11    1    4    4    0    0 -0.20159539914E-02  0.38879699313E-01  0.20302527204E-01  0.43910691420E-01  0.51100000000E-03 0. -1.
         11    1    4    4    0    0 -0.13231799614E-01  0.62182261653E-01  0.57701954307E-01  0.85857386620E-01  0.51100000000E-03 0.  1.
</event>
<event>
 8    1  0.1150863E+005  0.1043930E+01  0.7957747E-01            NaN
         13   -1    0    0    0    0  0.00000000000E+00  0.00000000000E+00  0.74505805969E-08  0.10566000000E+00  0.10566000000E+00 0. -1.
     999900   -1    0    0    0    0 -0.00000000000E+00 -0.00000000000E+00 -0.74505805969E-08  0.93827000000E+00  0.93827000000E+00 0.  1.
     999902    2    1    2    0    0  0.17467733484E-01 -0.15372142398E-02 -0.15238591661E-01  0.10206985683E+01  0.10204341566E+01 0.  0.
     999903    2    3    3    0    0 -0.42454570812E-01 -0.96000894781E-01  0.72647266194E-01  0.12927386962E+00  0.20384938062E-01 0.  0.
         14    1    1    2    0    0 -0.17467733484E-01  0.15372142398E-02  0.15238591661E-01  0.23231431650E-01  0.00000000000E+00 0.  1.
     999901    1    3    3    0    0  0.59922304296E-01  0.94463680541E-01 -0.87885857854E-01  0.89142469873E+00  0.88000000000E+00 0.  1.
        -11    1    4    4    0    0 -0.31344874541E-01 -0.53001154718E-01  0.33673595476E-01  0.70184013242E-01  0.51100000000E-03 0. -1.
         11    1    4    4    0    0 -0.11109696271E-01 -0.42999740063E-01  0.38973670718E-01  0.59089856379E-01  0.51100000000E-03 0.  1.
</event>
<event>
 8    1  0.1150863E+005  0.1043930E+01  0.7957747E-01            NaN
         13   -1    0    0    0    0  0.00000000000E+00  0.00000000000E+00  0.74505805969E-08  0.10566000000E+00  0.10566000000E+00 0. -1.
     999900   -1    0    0    0    0 -0.00000000000E+00 -0.00000000000E+00 -0.74505805969E-08  0.93827000000E+00  0.93827000000E+00 0.  1.
     999902    2    1    2    0    0  0.76373028091E-02  0.44300451401E-02  0.22006290944E-01  0.10202185990E+01  0.10199430177E+01 0.  0.
     999903    2    3    3    0    0  0.34203346980E-01 -0.67423458158E-01  0.10729309169E+00  0.13278267515E+00  0.20090784988E-01 0.  0.
         14    1    1    2    0    0 -0.76373028091E-02 -0.44300451401E-02 -0.22006290944E-01  0.23711400955E-01  0.00000000000E+00 0.  1.
     999901    1    3    3    0    0 -0.26566044170E-01  0.71853503298E-01 -0.85286800744E-01  0.88743592390E+00  0.88000000000E+00 0.  1.
        -11    1    4    4    0    0  0.26069971977E-01 -0.39678714114E-01  0.52208360085E-01  0.70569241008E-01  0.51100000000E-03 0. -1.
         11    1    4    4    0    0  0.81333750021E-02 -0.27744744044E-01  0.55084731603E-01  0.62213434142E-01  0.51100000000E-03 0.  1.
</event>
<event>
 8    1  0.1150863E+005  0.1043930E+01  0.7957747E-01            NaN
         13   -1    0    0    0    0  0.00000000000E+00  0.00000000000E+00  0.74505805969E-08  0.10566000000E+00  0.10566000000E+00 0.  1.
     999900   -1    0    0    0    0 -0.00000000000E+00 -0.00000000000E+00 -0.74505805969E-08  0.93827000000E+00  0.93827000000E+00 0.  1.
     999902    2    1    2    0    0 -0.16509005981E-01 -0.15052568035E-01  0.66728065631E-02  0.10206136231E+01  0.10203472518E+01 0.  0.
     999903    2    3    3    0    0 -0.84198988881E-01  0.95378804225E-01 -0.21894041391E-01  0.13067368888E+00  0.20240501330E-01 0.  0.
         14    1    1    2    0    0  0.16509005981E-01  0.15052568035E-01 -0.66728065631E-02  0.23316376870E-01  0.00000000000E+00 0.  1.
     999901    1    3    3    0    0  0.67689982900E-01 -0.11043137226E+00  0.28566847954E-01  0.88993993425E+00  0.88000000000E+00 0. -1.
        -11    1    4    4    0    0 -0.30663501479E-01  0.20943142161E-01 -0.61788961901E-02  0.37647116830E-01  0.51100000000E-03 0. -1.
         11    1    4    4    0    0 -0.53535487402E-01  0.74435662064E-01 -0.15715145201E-01  0.93026572053E-01  0.51100000000E-03 0.  1.
</event>
<event>
 8    1  0.1150863E+005  0.1043930E+01  0.7957747E-01            NaN
         13   -1    0    0    0    0  0.00000000000E+00  0.00000000000E+00  0.74505805969E-08  0.10566000000E+00  0.10566000000E+00 0.  1.
     999900   -1    0    0    0    0 -0.00000000000E+00 -0.00000000000E+00 -0.74505805969E-08  0.93827000000E+00  0.93827000000E+00 0.  1.
     999902    2    1    2    0    0 -0.18992251488E-01 -0.75119824254E-02  0.11057207768E-01  0.10207050707E+01  0.10204408087E+01 0.  0.
     999903    2    3    3    0    0 -0.49190472380E-01 -0.49194884254E-01  0.11198342628E+00  0.13344214552E+00  0.20656215298E-01 0.  0.
         14    1    1    2    0    0  0.18992251488E-01  0.75119824254E-02 -0.11057207768E-01  0.23224929283E-01  0.00000000000E+00 0. -1.
     999901    1    3    3    0    0  0.30198220892E-01  0.41682901829E-01 -0.10092621851E+00  0.88726292520E+00  0.88000000000E+00 0.  1.
        -11    1    4    4    0    0 -0.27216206269E-01 -0.14350510908E-01  0.39534898825E-01  0.50099185553E-01  0.51100000000E-03 0.  1.
         11    1    4    4    0    0 -0.21974266111E-01 -0.34844373347E-01  0.72448527451E-01  0.83342959966E-01  0.51100000000E-03 0. -1.
</event>
<event>
 8    1  0.1150863E+005  0.1043930E+01  0.7957747E-01            NaN
         13   -1    0    0    0    0  0.00000000000E+00  0.00000000000E+00  0.74505805969E-08  0.10566000000E+00  0.10566000000E+00 0. -1.
     999900   -1    0    0    0    0 -0.00000000000E+00 -0.00000000000E+00 -0.74505805969E-08  0.93827000000E+00  0.93827000000E+00 0. -1.
     999902    2    1    2    0    0  0.61817775397E-02  0.11178479837E-01  0.26825527366E-01  0.10142183574E+01  0.10137830610E+01 0.  0.
     999903    2    3    3    0    0  0.94358492726E-01 -0.46517549429E-01  0.68051249414E-01  0.12697345041E+00  0.20588273556E-01 0.  0.
         14    1    1    2    0    0 -0.61817775397E-02 -0.11178479837E-01 -0.26825527366E-01  0.29711642558E-01  0.00000000000E+00 0.  1.
     999901    1    3    3    0    0 -0.88176715186E-01  0.57696029267E-01 -0.41225722048E-01  0.88724490703E+00  0.88000000000E+00 0.  1.
        -11    1    4    4    0    0  0.52682191591E-01 -0.15432100531E-01  0.39721445635E-01  0.67761474320E-01  0.51100000000E-03 0. -1.
         11    1    4    4    0    0  0.41676301135E-01 -0.31085448898E-01  0.28329803779E-01  0.59211976091E-01  0.51100000000E-03 0.  1.
</event>
<event>
 8    1  0.1150863E+005  0.1043930E+01  0.7957747E-01            NaN
         13   -1    0    0    0    0  0.00000000000E+00  0.00000000000E+00  0.74505805969E-08  0.10566000000E+00  0.10566000000E+00 0.  1.
     999900   -1    0    0    0    0 -0.00000000000E+00 -0.00000000000E+00 -0.74505805969E-08  0.93827000000E+00  0.93827000000E+00 0.  1.
     999902    2    1    2    0    0  0.20289602150E-01 -0.11894727175E-01 -0.10319413438E-02  0.10203881778E+01  0.10201165698E+01 0.  0.
     999903    2    3    3    0    0  0.79668559315E-01  0.65230304608E-02  0.10323304065E+00  0.13205476019E+00  0.19793174040E-01 0.  0.
         14    1    1    2    0    0 -0.20289602150E-01  0.11894727175E-01  0.10319413438E-02  0.23541822209E-01  0.00000000000E+00 0. -1.
     999901    1    3    3    0    0 -0.59378957165E-01 -0.18417757636E-01 -0.10426498199E+00  0.88833341760E+00  0.88000000000E+00 0.  1.
        -11    1    4    4    0    0  0.24254041927E-01 -0.54757846407E-02  0.40206985257E-01  0.47276902941E-01  0.51100000000E-03 0. -1.
         11    1    4    4    0    0  0.55414517387E-01  0.11998815101E-01  0.63026055392E-01  0.84777857253E-01  0.51100000000E-03 0.  1.
</event>
<event>
 8    1  0.1150863E+005  0.1043930E+01  0.7957747E-01            NaN
         13   -1    0    0    0    0  0.00000000000E+00  0.00000000000E+00  0.74505805969E-08  0.10566000000E+00  0.10566000000E+00 0.  1.
     999900   -1    0    0    0    0 -0.00000000000E+00 -0.00000000000E+00 -0.74505805969E-08  0.93827000000E+00  0.93827000000E+00 0.  1.
     999902    2    1    2    0    0  0.19294511137E-01 -0.13134843456E-01 -0.51054258254E-02  0.10200371633E+01  0.10197572980E+01 0.  0.
     999903    2    3    3    0    0  0.16828986912E-01 -0.90549219394E-01 -0.92597654422E-01  0.13231313272E+00  0.21214701312E-01 0.  0.
         14    1    1    2    0    0 -0.19294511137E-01  0.13134843456E-01  0.51054258254E-02  0.23892836698E-01  0.00000000000E+00 0.  1.
     999901    1    3    3    0    0  0.24655242256E-02  0.77414375939E-01  0.87492228596E-01  0.88772403058E+00  0.88000000000E+00 0. -1.
        -11    1    4    4    0    0  0.46793229019E-02 -0.21098225712E-02 -0.38752364433E-02  0.64518208743E-02  0.51100000000E-03 0. -1.
         11    1    4    4    0    0  0.12149664010E-01 -0.88439396823E-01 -0.88722417978E-01  0.12586131184E+00  0.51100000000E-03 0.  1.
</event>
<event>
 8    1  0.1150863E+005  0.1043930E+01  0.7957747E-01            NaN
         13   -1    0    0    0    0  0.00000000000E+00  0.00000000000E+00  0.74505805969E-08  0.10566000000E+00  0.10566000000E+00 0. -1.
     999900   -1    0    0    0    0 -0.00000000000E+00 -0.00000000000E+00 -0.74505805969E-08  0.93827000000E+00  0.93827000000E+00 0.  1.
     999902    2    1    2    0    0 -0.18158769937E-01  0.15199423302E-01 -0.15043597641E-02  0.10202018207E+01  0.10199258446E+01 0.  0.
     999903    2    3    3    0    0 -0.12802243504E+00  0.27731530482E-01  0.12605805705E-01  0.13316959165E+00  0.20407159153E-01 0.  0.
         14    1    1    2    0    0  0.18158769937E-01 -0.15199423302E-01  0.15043597641E-02  0.23728179295E-01  0.00000000000E+00 0. -1.
     999901    1    3    3    0    0  0.10986366510E+00 -0.12532107180E-01 -0.14110165470E-01  0.88703222906E+00  0.88000000000E+00 0.  1.
        -11    1    4    4    0    0 -0.47898388613E-01  0.16011271882E-01 -0.34156262723E-02  0.50621577246E-01  0.51100000000E-03 0. -1.
         11    1    4    4    0    0 -0.80124046429E-01  0.11720258600E-01  0.16021431978E-01  0.82548014400E-01  0.51100000000E-03 0.  1.
</event>
<event>
 8    1  0.1150863E+005  0.1043930E+01  0.7957747E-01            NaN
         13   -1    0    0    0    0  0.00000000000E+00  0.00000000000E+00  0.74505805969E-08  0.10566000000E+00  0.10566000000E+00 0.  1.
     999900   -1    0    0    0    0 -0.00000000000E+00 -0.00000000000E+00 -0.74505805969E-08  0.93827000000E+00  0.93827000000E+00 0.  1.
     999902    2    1    2    0    0  0.20656903446E-01  0.18279931006E-03 -0.12318892350E-01  0.10198780524E+01  0.10195944025E+01 0.  0.
     999903    2    3    3    0    0  0.78903597119E-01 -0.11721899359E-01 -0.10463994346E+00  0.13305361899E+00  0.19762773032E-01 0.  0.
         14    1    1    2    0    0 -0.20656903446E-01 -0.18279931006E-03  0.12318892350E-01  0.24051947620E-01  0.00000000000E+00 0.  1.
     999901    1    3    3    0    0 -0.58246693673E-01  0.11904698669E-01  0.92321051105E-01  0.88682443339E+00  0.88000000000E+00 0. -1.
        -11    1    4    4    0    0  0.17596098939E-01 -0.11012109047E-01 -0.23636602647E-01  0.31461712433E-01  0.51100000000E-03 0.  1.
         11    1    4    4    0    0  0.61307498181E-01 -0.70979031218E-03 -0.81003340808E-01  0.10159190656E+00  0.51100000000E-03 0. -1.
</event>
<event>
 8    1  0.1150863E+005  0.1043930E+01  0.7957747E-01            NaN
         13   -1    0    0    0    0  0.00000000000E+00  0.00000000000E+00  0.74505805969E-08  0.10566000000E+00  0.10566000000E+00 0.  1.
     999900   -1    0    0    0    0 -0.00000000000E+00 -0.00000000000E+00 -0.74505805969E-08  0.93827000000E+00  0.93827000000E+00 0.  1.
     999902    2    1    2    0    0  0.76738072407E-02 -0.33913552877E-02  0.22996683696E-01  0.10194507012E+01  0.10191567574E+01 0.  0.
     999903    2    3    3    0    0  0.57596010582E-01 -0.16130789688E-01  0.11664308308E+00  0.13298346115E+00  0.22393956734E-01 0.  0.
         14    1    1    2    0    0 -0.76738072407E-02  0.33913552877E-02 -0.22996683696E-01  0.24479298790E-01  0.00000000000E+00 0. -1.
     999901    1    3    3    0    0 -0.49922203341E-01  0.12739434400E-01 -0.93646399387E-01  0.88646724006E+00  0.88000000000E+00 0.  1.
        -11    1    4    4    0    0  0.34028701823E-01 -0.97510056714E-02  0.44776090010E-01  0.57080592297E-01  0.51100000000E-03 0. -1.
         11    1    4    4    0    0  0.23567308758E-01 -0.63797840164E-02  0.71866993073E-01  0.75902868856E-01  0.51100000000E-03 0.  1.
</event>
<event>
 8    1  0.1150863E+005  0.1043930E+01  0.7957747E-01            NaN
         13   -1    0    0    0    0  0.00000000000E+00  0.00000000000E+00  0.74505805969E-08  0.10566000000E+00  0.10566000000E+00 0. -1.
     999900   -1    0    0    0    0 -0.00000000000E+00 -0.00000000000E+00 -0.74505805969E-08  0.93827000000E+00  0.93827000000E+00 0. -1.
     999902    2    1    2    0    0 -0.98683850664E-03 -0.18240967796E-01 -0.15349856810E-01  0.10200694707E+01  0.10197903707E+01 0.  0.
     999903    2    3    3    0    0 -0.26329058394E-01 -0.62622936180E-02 -0.12810159296E+00  0.13243290610E+00  0.19900272880E-01 0.  0.
         14    1    1    2    0    0  0.98683850664E-03  0.18240967796E-01  0.15349856810E-01  0.23860529341E-01  0.00000000000E+00 0. -1.
     999901    1    3    3    0    0  0.25342219887E-01 -0.11978674178E-01  0.11275173615E+00  0.88763656456E+00  0.88000000000E+00 0.  1.
        -11    1    4    4    0    0 -0.23490783541E-01  0.31838004904E-02 -0.89392277705E-01  0.92483479234E-01  0.51100000000E-03 0.  1.
         11    1    4    4    0    0 -0.28382748530E-02 -0.94460941084E-02 -0.38709315256E-01  0.39949426862E-01  0.51100000000E-03 0. -1.
</event>
<event>
 8    1  0.1150863E+005  0.1043930E+01  0.7957747E-01            NaN
         13   -1    0    0    0    0  0.00000000000E+00  0.00000000000E+00  0.74505805969E-08  0.10566000000E+00  0.10566000000E+00 0.  1.
     999900   -1    0    0    0    0 -0.00000000000E+00 -0.00000000000E+00 -0.74505805969E-08  0.93827000000E+00  0.93827000000E+00 0. -1.
     999902    2    1    2    0    0 -0.18403377814E-01 -0.75346289793E-02  0.12880314506E-01  0.10202370168E+01  0.10199618685E+01 0.  0.
     999903    2    3    3    0    0  0.40159157240E-01 -0.11591529293E+00  0.44853094390E-01  0.13108112642E+00  0.11015833197E-01 0.  0.
         14    1    1    2    0    0  0.18403377814E-01  0.75346289793E-02 -0.12880314506E-01  0.23692983151E-01  0.00000000000E+00 0. -1.
     999901    1    3    3    0    0 -0.58562535054E-01  0.10838066395E+00 -0.31972779884E-01  0.88915589043E+00  0.88000000000E+00 0. -1.
        -11    1    4    4    0    0  0.58331198782E-02 -0.27158103153E-01  0.68924990752E-02  0.28624386786E-01  0.51100000000E-03 0.  1.
         11    1    4    4    0    0  0.34326037361E-01 -0.88757189781E-01  0.37960595315E-01  0.10245673963E+00  0.51100000000E-03 0. -1.
</event>
<event>
 8    1  0.1150863E+005  0.1043930E+01  0.7957747E-01            NaN
         13   -1    0    0    0    0  0.00000000000E+00  0.00000000000E+00  0.74505805969E-08  0.10566000000E+00  0.10566000000E+00 0.  1.
     999900   -1    0    0    0    0 -0.00000000000E+00 -0.00000000000E+00 -0.74505805969E-08  0.93827000000E+00  0.93827000000E+00 0. -1.
     999902    2    1    2    0    0 -0.20990422230E-01 -0.12617168792E-01  0.23533873054E-02  0.10193265611E+01  0.10190295918E+01 0.  0.
     999903    2    3    3    0    0  0.83317841536E-02 -0.96402544520E-01 -0.85286773174E-01  0.13052929586E+00  0.20029832314E-01 0.  0.
         14    1    1    2    0    0  0.20990422230E-01  0.12617168792E-01 -0.23533873054E-02  0.24603438896E-01  0.00000000000E+00 0.  1.
     999901    1    3    3    0    0 -0.29322206383E-01  0.83785375728E-01  0.87640160479E-01  0.88879726524E+00  0.88000000000E+00 0.  1.
        -11    1    4    4    0    0 -0.11213553979E-02 -0.21484603574E-01 -0.94346541595E-02  0.23497222150E-01  0.51100000000E-03 0.  1.
         11    1    4    4    0    0  0.94531395515E-02 -0.74917940947E-01 -0.75852119014E-01  0.10703207371E+00  0.51100000000E-03 0. -1.
</event>
<event>
 8    1  0.1150863E+005  0.1043930E+01  0.7957747E-01            NaN
         13   -1    0    0    0    0  0.00000000000E+00  0.00000000000E+00  0.74505805969E-08  0.10566000000E+00  0.10566000000E+00 0.  1.
     999900   -1    0    0    0    0 -0.00000000000E+00 -0.00000000000E+00 -0.74505805969E-08  0.93827000000E+00  0.93827000000E+00 0. -1.
     999902    2    1    2    0    0  0.22351473936E-01 -0.63305212720E-02 -0.41930358867E-02  0.10203239534E+01  0.10200508440E+01 0.  0.
     999903    2    3    3    0    0 -0.32920459850E-01  0.43555894556E-02  0.12332658332E+00  0.12935233043E+00  0.20490275715E-01 0.  0.
         14    1    1    2    0    0 -0.22351473936E-01  0.63305212720E-02  0.41930358867E-02  0.23606046612E-01  0.00000000000E+00 0. -1.
     999901    1    3    3    0    0  0.55271933786E-01 -0.10686110728E-01 -0.12751961921E+00  0.89097162295E+00  0.88000000000E+00 0. -1.
        -11    1    4    4    0    0 -0.32628711400E-01 -0.70669663139E-03  0.92105877316E-01  0.97718401465E-01  0.51100000000E-03 0.  1.
         11    1    4    4    0    0 -0.29174845079E-03  0.50622860870E-02  0.31220706004E-01  0.31633928969E-01  0.51100000000E-03 0. -1.
</event>
<event>
 8    1  0.1150863E+005  0.1043930E+01  0.7957747E-01            NaN
         13   -1    0    0    0    0  0.00000000000E+00  0.00000000000E+00  0.74505805969E-08  0.10566000000E+00  0.10566000000E+00 0. -1.
     999900   -1    0    0    0    0 -0.00000000000E+00 -0.00000000000E+00 -0.74505805969E-08  0.93827000000E+00  0.93827000000E+00 0.  1.
     999902    2    1    2    0    0 -0.22410766634E-01  0.32331763826E-02  0.73962861776E-02  0.10201098207E+01  0.10198316750E+01 0.  0.
     999903    2    3    3    0    0  0.20934841620E-01  0.55878021860E-01  0.11498920126E+00  0.13093798308E+00  0.19016258468E-01 0.  0.
         14    1    1    2    0    0  0.22410766634E-01 -0.32331763826E-02 -0.73962861776E-02  0.23820179258E-01  0.00000000000E+00 0. -1.
     999901    1    3    3    0    0 -0.43345608254E-01 -0.52644845478E-01 -0.10759291508E+00  0.88917183766E+00  0.88000000000E+00 0.  1.
        -11    1    4    4    0    0  0.20404442620E-01  0.50895708949E-01  0.11284710869E+00  0.12546491752E+00  0.51100000000E-03 0.  1.
         11    1    4    4    0    0  0.53039900079E-03  0.49823129115E-02  0.21420925726E-02  0.54730655613E-02  0.51100000000E-03 0. -1.
</event>
<event>
 8    1  0.1150863E+005  0.1043930E+01  0.7957747E-01            NaN
         13   -1    0    0    0    0  0.00000000000E+00  0.00000000000E+00  0.74505805969E-08  0.10566000000E+00  0.10566000000E+00 0. -1.
     999900   -1    0    0    0    0 -0.00000000000E+00 -0.00000000000E+00 -0.74505805969E-08  0.93827000000E+00  0.93827000000E+00 0. -1.
     999902    2    1    2    0    0 -0.34969973918E-02  0.37759100804E-02 -0.23718657885E-01  0.10196594166E+01  0.10193705237E+01 0.  0.
     999903    2    3    3    0    0  0.50789459435E-01  0.11157935778E+00 -0.43680652844E-01  0.13119608927E+00  0.16579871367E-01 0.  0.
         14    1    1    2    0    0  0.34969973918E-02 -0.37759100804E-02  0.23718657885E-01  0.24270583421E-01  0.00000000000E+00 0. -1.
     999901    1    3    3    0    0 -0.54286456826E-01 -0.10780344770E+00  0.19961994958E-01  0.88846332731E+00  0.88000000000E+00 0.  1.
        -11    1    4    4    0    0  0.30539188708E-01  0.58918187519E-01 -0.15607339078E-01  0.68175105585E-01  0.51100000000E-03 0. -1.
         11    1    4    4    0    0  0.20250270727E-01  0.52661170262E-01 -0.28073313766E-01  0.63020983685E-01  0.51100000000E-03 0.  1.
</event>
<event>
 8    1  0.1150863E+005  0.1043930E+01  0.7957747E-01            NaN
         13   -1    0    0    0    0  0.00000000000E+00  0.00000000000E+00  0.74505805969E-08  0.10566000000E+00  0.10566000000E+00 0.  1.
     999900   -1    0    0    0    0 -0.00000000000E+00 -0.00000000000E+00 -0.74505805969E-08  0.93827000000E+00  0.93827000000E+00 0. -1.
     999902    2    1    2    0    0  0.25019027084E-02 -0.64740943727E-02  0.32125731222E-01  0.10110630558E+01  0.10105287066E+01 0.  0.
     999903    2    3    3    0    0  0.26152127952E-01 -0.47753157453E-01 -0.10515712938E+00  0.11914945122E+00  0.13201212945E-01 0.  0.
         14    1    1    2    0    0 -0.25019027084E-02  0.64740943727E-02 -0.32125731222E-01  0.32866944209E-01  0.00000000000E+00 0. -1.
     999901    1    3    3    0    0 -0.23650225243E-01  0.41279063080E-01  0.13728286060E+00  0.89191360457E+00  0.88000000000E+00 0.  1.
        -11    1    4    4    0    0  0.15400757479E-01 -0.38712909576E-01 -0.83707859141E-01  0.93504756572E-01  0.51100000000E-03 0. -1.
         11    1    4    4    0    0  0.10751370472E-01 -0.90402478771E-02 -0.21449270241E-01  0.25644694648E-01  0.51100000000E-03 0.  1.
</event>
<event>
 8    1  0.1150863E+005  0.1043930E+01  0.7957747E-01            NaN
         13   -1    0    0    0    0  0.00000000000E+00  0.00000000000E+00  0.74505805969E-08  0.10566000000E+00  0.10566000000E+00 0. -1.
     999900   -1    0    0    0    0 -0.00000000000E+00 -0.00000000000E+00 -0.74505805969E-08  0.93827000000E+00  0.93827000000E+00 0. -1.
     999902    2    1    2    0    0  0.77639163177E-02 -0.17253071679E-01  0.12999400352E-01  0.10209750160E+01  0.10207169304E+01 0.  0.
     999903    2    3    3    0    0 -0.95565290451E-01 -0.64044800307E-01 -0.58862837116E-01  0.13078932080E+00  0.20163126170E-01 0.  0.
         14    1    1    2    0    0 -0.77639163177E-02  0.17253071679E-01 -0.12999400352E-01  0.22954983957E-01  0.00000000000E+00 0.  1.
     999901    1    3    3    0    0  0.10332920677E+00  0.46791728628E-01  0.71862237469E-01  0.89018569524E+00  0.88000000000E+00 0.  1.
        -11    1    4    4    0    0 -0.41631395552E-01 -0.24192800471E-01 -0.14153510158E-01  0.50190115173E-01  0.51100000000E-03 0.  1.
         11    1    4    4    0    0 -0.53933894899E-01 -0.39851999836E-01 -0.44709326959E-01  0.80599205629E-01  0.51100000000E-03 0. -1.
</event>
<event>
 8    1  0.1150863E+005  0.1043930E+01  0.7957747E-01            NaN
         13   -1    0    0    0    0  0.00000000000E+00  0.00000000000E+00  0.74505805969E-08  0.10566000000E+00  0.10566000000E+00 0.  1.
     999900   -1    0    0    0    0 -0.00000000000E+00 -0.00000000000E+00 -0.74505805969E-08  0.93827000000E+00  0.93827000000E+00 0. -1.
     999902    2    1    2    0    0 -0.10504083379E-01  0.11533893304E-01  0.17376697228E-01  0.10205779965E+01  0.10203108011E+01 0.  0.
     999903    2    3    3    0    0  0.50363524514E-02  0.12041574254E+00  0.52626930032E-01  0.13303118579E+00  0.20059579484E-01 0.  0.
         14    1    1    2    0    0  0.10504083379E-01 -0.11533893304E-01 -0.17376697228E-01  0.23352003532E-01  0.00000000000E+00 0. -1.
     999901    1    3    3    0    0 -0.15540435831E-01 -0.10888184924E+00 -0.35250232804E-01  0.88754681068E+00  0.88000000000E+00 0. -1.
        -11    1    4    4    0    0  0.79111202651E-02  0.45560728062E-01  0.28535832906E-01  0.54340782530E-01  0.51100000000E-03 0.  1.
         11    1    4    4    0    0 -0.28747678137E-02  0.74855014480E-01  0.24091097127E-01  0.78690403256E-01  0.51100000000E-03 0. -1.
</event>
<event>
 8    1  0.1150863E+005  0.1043930E+01  0.7957747E-01            NaN
         13   -1    0    0    0    0  0.00000000000E+00  0.00000000000E+00  0.74505805969E-08  0.10566000000E+00  0.10566000000E+00 0. -1.
     999900   -1    0    0    0    0 -0.00000000000E+00 -0.00000000000E+00 -0.74505805969E-08  0.93827000000E+00  0.93827000000E+00 0.  1.
     999902    2    1    2    0    0  0.19251654613E-01 -0.14148371574E-01  0.37591272963E-03  0.10200355669E+01  0.10197556638E+01 0.  0.
     999903    2    3    3    0    0 -0.70203900013E-01  0.69292750868E-01 -0.79095753132E-01  0.12802633888E+00  0.20112990430E-01 0.  0.
         14    1    1    2    0    0 -0.19251654613E-01  0.14148371574E-01 -0.37591272963E-03  0.23894433116E-01  0.00000000000E+00 0.  1.
     999901    1    3    3    0    0  0.89455554626E-01 -0.83441122442E-01  0.79471665861E-01  0.89200922800E+00  0.88000000000E+00 0.  1.
        -11    1    4    4    0    0 -0.62285274935E-01  0.66621223284E-01 -0.66383794539E-01  0.11280475240E+00  0.51100000000E-03 0. -1.
         11    1    4    4    0    0 -0.79186250774E-02  0.26715275844E-02 -0.12711958593E-01  0.15221586482E-01  0.51100000000E-03 0.  1.
</event>
<event>
 8    1  0.1150863E+005  0.1043930E+01  0.7957747E-01            NaN
         13   -1    0    0    0    0  0.00000000000E+00  0.00000000000E+00  0.74505805969E-08  0.10566000000E+00  0.10566000000E+00 0. -1.
     999900   -1    0    0    0    0 -0.00000000000E+00 -0.00000000000E+00 -0.74505805969E-08  0.93827000000E+00  0.93827000000E+00 0.  1.
     999902    2    1    2    0    0  0.19644852413E-01 -0.11283182213E-01 -0.32185809029E-02  0.10210479177E+01  0.10207914873E+01 0.  0.
     999903    2    3    3    0    0 -0.16548937791E-01  0.35254167497E-02 -0.12886955774E+00  0.13126285768E+00  0.18337911252E-01 0.  0.
         14    1    1    2    0    0 -0.19644852413E-01  0.11283182213E-01  0.32185809029E-02  0.22882082296E-01  0.00000000000E+00 0. -1.
     999901    1    3    3    0    0  0.36193790204E-01 -0.14808598963E-01  0.12565097684E+00  0.88978506002E+00  0.88000000000E+00 0. -1.
        -11    1    4    4    0    0 -0.11085157331E-01 -0.69096393948E-02 -0.62198867619E-01  0.63557722455E-01  0.51100000000E-03 0. -1.
         11    1    4    4    0    0 -0.54637804603E-02  0.10435056145E-01 -0.66670690125E-01  0.67705135229E-01  0.51100000000E-03 0.  1.
</event>
<event>
 8    1  0.1150863E+005  0.1043930E+01  0.7957747E-01            NaN
         13   -1    0    0    0    0  0.00000000000E+00  0.00000000000E+00  0.74505805969E-08  0.10566000000E+00  0.10566000000E+00 0.  1.
     999900   -1    0    0    0    0 -0.00000000000E+00 -0.00000000000E+00 -0.74505805969E-08  0.93827000000E+00  0.93827000000E+00 0. -1.
     999902    2    1    2    0    0  0.22242798518E-01  0.37379909221E-02  0.80616933709E-02  0.10199778485E+01  0.10196965754E+01 0.  0.
     999903    2    3    3    0    0 -0.88716686123E-01 -0.88813787266E-01  0.16940874433E-01  0.12815013041E+00  0.19414517559E-01 0.  0.
         14    1    1    2    0    0 -0.22242798518E-01 -0.37379909221E-02 -0.80616933709E-02  0.23952151512E-01  0.00000000000E+00 0.  1.
     999901    1    3    3    0    0  0.11095948464E+00  0.92551778188E-01 -0.88791810622E-02  0.89182771808E+00  0.88000000000E+00 0.  1.
        -11    1    4    4    0    0 -0.50696916937E-01 -0.39522641805E-01  0.14218878515E-01  0.65838091022E-01  0.51100000000E-03 0.  1.
         11    1    4    4    0    0 -0.38019769186E-01 -0.49291145461E-01  0.27219959183E-02  0.62312039387E-01  0.51100000000E-03 0. -1.
</event>
<event>
 8    1  0.1150863E+005  0.1043930E+01  0.7957747E-01            NaN
         13   -1    0    0    0    0  0.00000000000E+00  0.00000000000E+00  0.74505805969E-08  0.10566000000E+00  0.10566000000E+00 0.  1.
     999900   -1    0    0    0    0 -0.00000000000E+00 -0.00000000000E+00 -0.74505805969E-08  0.93827000000E+00  0.93827000000E+00 0. -1.
     999902    2    1    2    0    0 -0.17035367363E-01  0.12817207051E-01 -0.73296257531E-02  0.10213865320E+01  0.10211377183E+01 0.  0.
     999903    2    3    3    0    0  0.88048500396E-01  0.14205115199E-01  0.91882889624E-01  0.12959750491E+00  0.19968078359E-01 0.  0.
         14    1    1    2    0    0  0.17035367363E-01 -0.12817207051E-01  0.73296257531E-02  0.22543468044E-01  0.00000000000E+00 0. -1.
     999901    1    3    3    0    0 -0.10508386776E+00 -0.13879081482E-02 -0.99212515377E-01  0.89178902705E+00  0.88000000000E+00 0. -1.
        -11    1    4    4    0    0  0.78882761313E-01  0.14747265707E-01  0.72527897127E-01  0.10816898290E+00  0.51100000000E-03 0.  1.
         11    1    4    4    0    0  0.91657390830E-02 -0.54215050802E-03  0.19354992497E-01  0.21428522013E-01  0.51100000000E-03 0. -1.
</event>
<event>
 8    1  0.1150863E+005  0.1043930E+01  0.7957747E-01            NaN
         13   -1    0    0    0    0  0.00000000000E+00  0.00000000000E+00  0.74505805969E-08  0.10566000000E+00  0.10566000000E+00 0. -1.
     999900   -1    0    0    0    0 -0.00000000000E+00 -0.00000000000E+00 -0.74505805969E-08  0.93827000000E+00  0.93827000000E+00 0. -1.
     999902    2    1    2    0    0  0.18332340469E-01  0.13303255955E-01  0.57474908824E-02  0.10205615388E+01  0.10202939623E+01 0.  0.
     999903    2    3    3    0    0  0.80066811955E-01 -0.27246099328E-01  0.10002002318E+00  0.13244966213E+00  0.19643412564E-01 0.  0.
         14    1    1    2    0    0 -0.18332340469E-01 -0.13303255955E-01 -0.57474908824E-02  0.23368461171E-01  0.00000000000E+00 0.  1.
     999901    1    3    3    0    0 -0.61734471486E-01  0.40549355283E-01 -0.94272532296E-01  0.88811187670E+00  0.88000000000E+00 0. -1.
        -11    1    4    4    0    0  0.33350678115E-01 -0.10497421592E-01  0.27086142747E-01  0.44231028032E-01  0.51100000000E-03 0. -1.
         11    1    4    4    0    0  0.46716133840E-01 -0.16748677736E-01  0.72933880432E-01  0.88218634101E-01  0.51100000000E-03 0.  1.
</event>
<event>
 8    1  0.1150863E+005  0.1043930E+01  0.7957747E-01            NaN
         13   -1    0    0    0    0  0.00000000000E+00  0.00000000000E+00  0.74505805969E-08  0.10566000000E+00  0.10566000000E+00 0.  1.
     999900   -1    0    0    0    0 -0.00000000000E+00 -0.00000000000E+00 -0.74505805969E-08  0.93827000000E+00  0.93827000000E+00 0.  1.
     999902    2    1    2    0    0  0.43530411823E-02 -0.16537798517E-01  0.70702458215E-02  0.10254249703E+01  0.10252579839E+01 0.  0.
     999903    2    3    3    0    0 -0.11500588606E-01  0.11272917311E+00 -0.67090532368E-01  0.13275419756E+00  0.16804982216E-01 0.  0.
         14    1    1    2    0    0 -0.43530411823E-02  0.16537798517E-01 -0.70702458215E-02  0.18505029676E-01  0.00000000000E+00 0. -1.
     999901    1    3    3    0    0  0.15853629789E-01 -0.12926697163E+00  0.74160778189E-01  0.89267077277E+00  0.88000000000E+00 0. -1.
        -11    1    4    4    0    0 -0.18533625434E-03  0.77311782621E-01 -0.43356728327E-01  0.88640922230E-01  0.51100000000E-03 0.  1.
         11    1    4    4    0    0 -0.11315252352E-01  0.35417390489E-01 -0.23733804041E-01  0.44113275327E-01  0.51100000000E-03 0. -1.
</event>
<event>
 8    1  0.1150863E+005  0.1043930E+01  0.7957747E-01            NaN
         13   -1    0    0    0    0  0.00000000000E+00  0.00000000000E+00  0.74505805969E-08  0.10566000000E+00  0.10566000000E+00 0. -1.
     999900   -1    0    0    0    0 -0.00000000000E+00 -0.00000000000E+00 -0.74505805969E-08  0.93827000000E+00  0.93827000000E+00 0.  1.
     999902    2    1    2    0    0  0.22602552503E-01  0.24162010853E-02  0.64022300296E-02  0.10203142858E+01  0.10200409501E+01 0.  0.
     999903    2    3    3    0    0  0.67175087079E-01  0.11215462812E+00 -0.37059521334E-02  0.13232137562E+00  0.20101229616E-01 0.  0.
         14    1    1    2    0    0 -0.22602552503E-01 -0.24162010853E-02 -0.64022300296E-02  0.23615714190E-01  0.00000000000E+00 0. -1.
     999901    1    3    3    0    0 -0.44572534576E-01 -0.10973842703E+00  0.10108182163E-01  0.88799291019E+00  0.88000000000E+00 0. -1.
        -11    1    4    4    0    0  0.49849080502E-01  0.87844919275E-01 -0.10956420602E-01  0.10159707153E+00  0.51100000000E-03 0.  1.
         11    1    4    4    0    0  0.17326006577E-01  0.24309708841E-01  0.72504684687E-02  0.30724304091E-01  0.51100000000E-03 0. -1.
</event>
<event>
 8    1  0.1150863E+005  0.1043930E+01  0.7957747E-01            NaN
         13   -1    0    0    0    0  0.00000000000E+00  0.00000000000E+00  0.74505805969E-08  0.10566000000E+00  0.10566000000E+00 0.  1.
     999900   -1    0    0    0    0 -0.00000000000E+00 -0.00000000000E+00 -0.74505805969E-08  0.93827000000E+00  0.93827000000E+00 0. -1.
     999902    2    1    2    0    0  0.21103213533E-01  0.54784929553E-02  0.18093105026E-01  0.10155976871E+01  0.10152024143E+01 0.  0.
     999903    2    3    3    0    0 -0.19775825426E-01  0.34569289441E-01  0.11856025984E+00  0.12846127171E+00  0.29319687437E-01 0.  0.
         14    1    1    2    0    0 -0.21103213533E-01 -0.54784929553E-02 -0.18093105026E-01  0.28332312930E-01  0.00000000000E+00 0. -1.
     999901    1    3    3    0    0  0.40879038959E-01 -0.29090796486E-01 -0.10046715481E+00  0.88713641536E+00  0.88000000000E+00 0. -1.
        -11    1    4    4    0    0 -0.29507176681E-02  0.31339648765E-01  0.64952335969E-01  0.72179965284E-01  0.51100000000E-03 0. -1.
         11    1    4    4    0    0 -0.16825107758E-01  0.32296406762E-02  0.53607923871E-01  0.56281306424E-01  0.51100000000E-03 0.  1.
</event>
<event>
 8    1  0.1150863E+005  0.1043930E+01  0.7957747E-01            NaN
         13   -1    0    0    0    0  0.00000000000E+00  0.00000000000E+00  0.74505805969E-08  0.10566000000E+00  0.10566000000E+00 0. -1.
     999900   -1    0    0    0    0 -0.00000000000E+00 -0.00000000000E+00 -0.74505805969E-08  0.93827000000E+00  0.93827000000E+00 0. -1.
     999902    2    1    2    0    0  0.22494134143E-01  0.19835903228E-01 -0.48443834268E-02  0.10135504480E+01  0.10130950565E+01 0.  0.
     999903    2    3    3    0    0  0.59763040126E-01  0.10062511294E+00 -0.47422971252E-01  0.12803997157E+00  0.21172193988E-01 0.  0.
         14    1    1    2    0    0 -0.22494134143E-01 -0.19835903228E-01  0.48443834268E-02  0.30379551980E-01  0.00000000000E+00 0. -1.
     999901    1    3    3    0    0 -0.37268905983E-01 -0.80789209712E-01  0.42578587825E-01  0.88551047645E+00  0.88000000000E+00 0. -1.
        -11    1    4    4    0    0  0.37719822021E-01  0.67983985583E-01 -0.41731386609E-01  0.88240450013E-01  0.51100000000E-03 0.  1.
         11    1    4    4    0    0  0.22043218105E-01  0.32641127357E-01 -0.56915846424E-02  0.39799521559E-01  0.51100000000E-03 0. -1.
</event>
<event>
 8    1  0.1150863E+005  0.1043930E+01  0.7957747E-01            NaN
         13   -1    0    0    0    0  0.00000000000E+00  0.00000000000E+00  0.74505805969E-08  0.10566000000E+00  0.10566000000E+00 0.  1.
     999900   -1    0    0    0    0 -0.00000000000E+00 -0.00000000000E+00 -0.74505805969E-08  0.93827000000E+00  0.93827000000E+00 0. -1.
     999902    2    1    2    0    0  0.10336238710E-01  0.15752625708E-01 -0.18041827943E-01  0.10178437852E+01  0.10175094498E+01 0.  0.
     999903    2    3    3    0    0  0.12705498456E+00  0.18044478061E-01  0.24403172195E-02  0.12989782035E+00  0.19972888930E-01 0.  0.
         14    1    1    2    0    0 -0.10336238710E-01 -0.15752625708E-01  0.18041827943E-01  0.26086214806E-01  0.00000000000E+00 0.  1.
     999901    1    3    3    0    0 -0.11671874585E+00 -0.22918523530E-02 -0.20482145162E-01  0.88794596485E+00  0.88000000000E+00 0.  1.
        -11    1    4    4    0    0  0.39587644352E-01  0.71290496503E-02 -0.83728281060E-02  0.41089783472E-01  0.51100000000E-03 0.  1.
         11    1    4    4    0    0  0.87467340209E-01  0.10915428411E-01  0.10813145326E-01  0.88808036874E-01  0.51100000000E-03 0. -1.
</event>
<event>
 8    1  0.1150863E+005  0.1043930E+01  0.7957747E-01            NaN
         13   -1    0    0    0    0  0.00000000000E+00  0.00000000000E+00  0.74505805969E-08  0.10566000000E+00  0.10566000000E+00 0. -1.
     999900   -1    0    0    0    0 -0.00000000000E+00 -0.00000000000E+00 -0.74505805969E-08  0.93827000000E+00  0.93827000000E+00 0. -1.
     999902    2    1    2    0    0 -0.73148818694E-02 -0.17359203514E-03 -0.22466557626E-01  0.10203019691E+01  0.10200283449E+01 0.  0.
     999903    2    3    3    0    0 -0.26702368366E-02  0.12718036877E+00 -0.24500544086E-01  0.13111990614E+00  0.20252821022E-01 0.  0.
         14    1    1    2    0    0  0.73148818694E-02  0.17359203514E-03  0.22466557626E-01  0.23628030864E-01  0.00000000000E+00 0. -1.
     999901    1    3    3    0    0 -0.46446450329E-02 -0.12735396081E+00  0.20339864606E-02  0.88918206300E+00  0.88000000000E+00 0. -1.
        -11    1    4    4    0    0  0.51461808568E-02  0.42180733034E-01 -0.69301367520E-03  0.42502221185E-01  0.51100000000E-03 0.  1.
         11    1    4    4    0    0 -0.78164176933E-02  0.84999635736E-01 -0.23807530411E-01  0.88617684951E-01  0.51100000000E-03 0. -1.
</event>
<event>
 8    1  0.1150863E+005  0.1043930E+01  0.7957747E-01            NaN
         13   -1    0    0    0    0  0.00000000000E+00  0.00000000000E+00  0.74505805969E-08  0.10566000000E+00  0.10566000000E+00 0.  1.
     999900   -1    0    0    0    0 -0.00000000000E+00 -0.00000000000E+00 -0.74505805969E-08  0.93827000000E+00  0.93827000000E+00 0.  1.
     999902    2    1    2    0    0 -0.13265362051E-01 -0.18188078210E-01  0.84112214626E-02  0.10198982571E+01  0.10196150892E+01 0.  0.
     999903    2    3    3    0    0 -0.71370207357E-01 -0.76283738192E-01  0.79990524928E-01  0.13317683782E+00  0.20607543362E-01 0.  0.
         14    1    1    2    0    0  0.13265362051E-01  0.18188078210E-01 -0.84112214626E-02  0.24031742879E-01  0.00000000000E+00 0. -1.
     999901    1    3    3    0    0  0.58104845306E-01  0.58095659982E-01 -0.71579303466E-01  0.88672141930E+00  0.88000000000E+00 0.  1.
        -11    1    4    4    0    0 -0.52790851300E-01 -0.45396273510E-01  0.60256170944E-01  0.92080198128E-01  0.51100000000E-03 0. -1.
         11    1    4    4    0    0 -0.18579356057E-01 -0.30887464682E-01  0.19734353985E-01  0.41096639694E-01  0.51100000000E-03 0.  1.
</event>
<event>
 8    1  0.1150863E+005  0.1043930E+01  0.7957747E-01            NaN
         13   -1    0    0    0    0  0.00000000000E+00  0.00000000000E+00  0.74505805969E-08  0.10566000000E+00  0.10566000000E+00 0. -1.
     999900   -1    0    0    0    0 -0.00000000000E+00 -0.00000000000E+00 -0.74505805969E-08  0.93827000000E+00  0.93827000000E+00 0.  1.
     999902    2    1    2    0    0 -0.16144562575E-01  0.14732373345E-01 -0.79024323148E-02  0.10206891273E+01  0.10204244982E+01 0.  0.
     999903    2    3    3    0    0 -0.48637341277E-01 -0.44381543962E-01 -0.11239780639E+00  0.13194308989E+00  0.20985701795E-01 0.  0.
         14    1    1    2    0    0  0.16144562575E-01 -0.14732373345E-01  0.79024323148E-02  0.23240872652E-01  0.00000000000E+00 0. -1.
     999901    1    3    3    0    0  0.32492778702E-01  0.59113917307E-01  0.10449537407E+00  0.88874603745E+00  0.88000000000E+00 0. -1.
        -11    1    4    4    0    0 -0.37539999789E-02 -0.14928437186E-01 -0.23814196311E-01  0.28360673822E-01  0.51100000000E-03 0.  1.
         11    1    4    4    0    0 -0.44883341298E-01 -0.29453106776E-01 -0.88583610074E-01  0.10358241607E+00  0.51100000000E-03 0. -1.
</event>
<event>
 8    1  0.1150863E+005  0.1043930E+01  0.7957747E-01            NaN
         13   -1    0    0    0    0  0.00000000000E+00  0.00000000000E+00  0.74505805969E-08  0.10566000000E+00  0.10566000000E+00 0.  1.
     999900   -1    0    0    0    0 -0.00000000000E+00 -0.00000000000E+00 -0.74505805969E-08  0.93827000000E+00  0.93827000000E+00 0.  1.
     999902    2    1    2    0    0 -0.99074710804E-02 -0.86487220184E-02  0.19262234615E-01  0.10206063627E+01  0.10203398235E+01 0.  0.
     999903    2    3    3    0    0  0.10982949783E-01  0.12745307844E+00 -0.10591020148E-02  0.12966693348E+00  0.21153712449E-01 0.  0.
         14    1    1    2    0    0  0.99074710804E-02  0.86487220184E-02 -0.19262234615E-01  0.23323637326E-01  0.00000000000E+00 0. -1.
     999901    1    3    3    0    0 -0.20890420864E-01 -0.13610180046E+00  0.20321336630E-01  0.89093942920E+00  0.88000000000E+00 0. -1.
        -11    1    4    4    0    0  0.12219114103E-01  0.37493924465E-01  0.34223287044E-02  0.39586292779E-01  0.51100000000E-03 0.  1.
         11    1    4    4    0    0 -0.12361643200E-02  0.89959153977E-01 -0.44814307192E-02  0.90080640699E-01  0.51100000000E-03 0. -1.
</event>
<event>
 8    1  0.1150863E+005  0.1043930E+01  0.7957747E-01            NaN
         13   -1    0    0    0    0  0.00000000000E+00  0.00000000000E+00  0.74505805969E-08  0.10566000000E+00  0.10566000000E+00 0.  1.
     999900   -1    0    0    0    0 -0.00000000000E+00 -0.00000000000E+00 -0.74505805969E-08  0.93827000000E+00  0.93827000000E+00 0.  1.
     999902    2    1    2    0    0  0.91889855486E-02  0.14101955826E-01 -0.16534705598E-01  0.10203355281E+01  0.10200626897E+01 0.  0.
     999903    2    3    3    0    0  0.12428864896E+00  0.40400917780E-01  0.17395086353E-02  0.13226260611E+00  0.20260026371E-01 0.  0.
         14    1    1    2    0    0 -0.91889855486E-02 -0.14101955826E-01  0.16534705598E-01  0.23594471869E-01  0.00000000000E+00 0.  1.
     999901    1    3    3    0    0 -0.11509966341E+00 -0.26298961954E-01 -0.18274214234E-01  0.88807292202E+00  0.88000000000E+00 0. -1.
        -11    1    4    4    0    0  0.35090771985E-01  0.17380432437E-01  0.78371876376E-02  0.39939007765E-01  0.51100000000E-03 0. -1.
         11    1    4    4    0    0  0.89197876972E-01  0.23020485343E-01 -0.60976790023E-02  0.92323598348E-01  0.51100000000E-03 0.  1.
</event>
<event>
 8    1  0.1150863E+005  0.1043930E+01  0.7957747E-01            NaN
         13   -1    0    0    0    0  0.00000000000E+00  0.00000000000E+00  0.74505805969E-08  0.10566000000E+00  0.10566000000E+00 0.  1.
     999900   -1    0    0    0    0 -0.00000000000E+00 -0.00000000000E+00 -0.74505805969E-08  0.93827000000E+00  0.93827000000E+00 0. -1.
     999902    2    1    2    0    0 -0.27276878117E-02 -0.22586068688E-01  0.56017299231E-02  0.10205003146E+01  0.10202313179E+01 0.  0.
     999903    2    3    3    0    0 -0.94734138406E-01 -0.65191730599E-01  0.63387628433E-01  0.13279561176E+00  0.19803139838E-01 0.  0.
         14    1    1    2    0    0  0.27276878117E-02  0.22586068688E-01 -0.56017299231E-02  0.23429685395E-01  0.00000000000E+00 0. -1.
     999901    1    3    3    0    0  0.92006450595E-01  0.42605661910E-01 -0.57785898510E-01  0.88770470284E+00  0.88000000000E+00 0. -1.
        -11    1    4    4    0    0 -0.17386729954E-01 -0.15810208011E-01  0.50131874358E-02  0.24034438314E-01  0.51100000000E-03 0.  1.
         11    1    4    4    0    0 -0.77347408453E-01 -0.49381522588E-01  0.58374440997E-01  0.10876117345E+00  0.51100000000E-03 0. -1.
</event>
<event>
 8    1  0.1150863E+005  0.1043930E+01  0.7957747E-01            NaN
         13   -1    0    0    0    0  0.00000000000E+00  0.00000000000E+00  0.74505805969E-08  0.10566000000E+00  0.10566000000E+00 0. -1.
     999900   -1    0    0    0    0 -0.00000000000E+00 -0.00000000000E+00 -0.74505805969E-08  0.93827000000E+00  0.93827000000E+00 0. -1.
     999902    2    1    2    0    0 -0.45110187080E-02 -0.12602754804E-01  0.19894847943E-01  0.10199511824E+01  0.10196692752E+01 0.  0.
     999903    2    3    3    0    0 -0.90382579019E-02 -0.11045394398E-01  0.13134586486E+00  0.13290876491E+00  0.14467644305E-01 0.  0.
         14    1    1    2    0    0  0.45110187080E-02  0.12602754804E-01 -0.19894847943E-01  0.23978817593E-01  0.00000000000E+00 0.  1.
     999901    1    3    3    0    0  0.45272391939E-02 -0.15573604060E-02 -0.11145101691E+00  0.88704241750E+00  0.88000000000E+00 0. -1.
        -11    1    4    4    0    0 -0.12937562427E-01 -0.91487362178E-02  0.10811046492E+00  0.10926670876E+00  0.51100000000E-03 0.  1.
         11    1    4    4    0    0  0.38993045253E-02 -0.18966581807E-02  0.23235399933E-01  0.23642056152E-01  0.51100000000E-03 0. -1.
</event>
<event>
 8    1  0.1150863E+005  0.1043930E+01  0.7957747E-01            NaN
         13   -1    0    0    0    0  0.00000000000E+00  0.00000000000E+00  0.74505805969E-08  0.10566000000E+00  0.10566000000E+00 0. -1.
     999900   -1    0    0    0    0 -0.00000000000E+00 -0.00000000000E+00 -0.74505805969E-08  0.93827000000E+00  0.93827000000E+00 0. -1.
     999902    2    1    2    0    0  0.22317618259E-01  0.70567322666E-03  0.14558389805E-02  0.10215538179E+01  0.10213087238E+01 0.  0.
     999903    2    3    3    0    0  0.95338794488E-01  0.90807874281E-01 -0.13318904256E-01  0.13382143035E+00  0.19880297923E-01 0.  0.
         14    1    1    2    0    0 -0.22317618259E-01 -0.70567322666E-03 -0.14558389805E-02  0.22376182127E-01  0.00000000000E+00 0.  1.
     999901    1    3    3    0    0 -0.73021176229E-01 -0.90102201055E-01  0.14774743236E-01  0.88773238752E+00  0.88000000000E+00 0.  1.
        -11    1    4    4    0    0  0.62000291878E-01  0.71207913258E-01 -0.75936634809E-02  0.94723428726E-01  0.51100000000E-03 0.  1.
         11    1    4    4    0    0  0.33338502610E-01  0.19599961023E-01 -0.57252407748E-02  0.39098001628E-01  0.51100000000E-03 0. -1.
</event>
<event>
 8    1  0.1150863E+005  0.1043930E+01  0.7957747E-01            NaN
         13   -1    0    0    0    0  0.00000000000E+00  0.00000000000E+00  0.74505805969E-08  0.10566000000E+00  0.10566000000E+00 0.  1.
     999900   -1    0    0    0    0 -0.00000000000E+00 -0.00000000000E+00 -0.74505805969E-08  0.93827000000E+00  0.93827000000E+00 0.  1.
     999902    2    1    2    0    0  0.21312909066E-01 -0.11302952414E-01  0.87687810677E-02  0.10182611795E+01  0.10179375920E+01 0.  0.
     999903    2    3    3    0    0  0.15597267833E-01 -0.73210845481E-01  0.10524057285E+00  0.13080861038E+00  0.20789702152E-01 0.  0.
         14    1    1    2    0    0 -0.21312909066E-01  0.11302952414E-01 -0.87687810677E-02  0.25668820533E-01  0.00000000000E+00 0. -1.
     999901    1    3    3    0    0  0.57156412332E-02  0.61907893067E-01 -0.96471791778E-01  0.88745256909E+00  0.88000000000E+00 0.  1.
        -11    1    4    4    0    0  0.12320937179E-01 -0.45125526179E-01  0.48348443397E-01  0.67275193836E-01  0.51100000000E-03 0.  1.
         11    1    4    4    0    0  0.32763306546E-02 -0.28085319302E-01  0.56892129449E-01  0.63533416539E-01  0.51100000000E-03 0. -1.
</event>
<event>
 8    1  0.1150863E+005  0.1043930E+01  0.7957747E-01            NaN
         13   -1    0    0    0    0  0.00000000000E+00  0.00000000000E+00  0.74505805969E-08  0.10566000000E+00  0.10566000000E+00 0.  1.
     999900   -1    0    0    0    0 -0.00000000000E+00 -0.00000000000E+00 -0.74505805969E-08  0.93827000000E+00  0.93827000000E+00 0. -1.
     999902    2    1    2    0    0 -0.21118537467E-01  0.40936636540E-02 -0.11107737684E-01  0.10197198256E+01  0.10194323863E+01 0.  0.
     999903    2    3    3    0    0  0.12569301801E+00 -0.48998131979E-02  0.40495256268E-03  0.12743788729E+00  0.20433016993E-01 0.  0.
         14    1    1    2    0    0  0.21118537467E-01 -0.40936636540E-02  0.11107737684E-01  0.24210174376E-01  0.00000000000E+00 0. -1.
     999901    1    3    3    0    0 -0.14681155548E+00  0.89934768519E-02 -0.11512690247E-01  0.89228193834E+00  0.88000000000E+00 0.  1.
        -11    1    4    4    0    0  0.10295406911E+00 -0.38554046764E-03  0.73882868019E-02  0.10322081617E+00  0.51100000000E-03 0.  1.
         11    1    4    4    0    0  0.22738948897E-01 -0.45142727302E-02 -0.69833342392E-02  0.24217071114E-01  0.51100000000E-03 0. -1.
</event>
<event>
 8    1  0.1150863E+005  0.1043930E+01  0.7957747E-01            NaN
         13   -1    0    0    0    0  0.00000000000E+00  0.00000000000E+00  0.74505805969E-08  0.10566000000E+00  0.10566000000E+00 0. -1.
     999900   -1    0    0    0    0 -0.00000000000E+00 -0.00000000000E+00 -0.74505805969E-08  0.93827000000E+00  0.93827000000E+00 0.  1.
     999902    2    1    2    0    0  0.21633099464E-01  0.60759656589E-02 -0.63721868913E-02  0.10205737778E+01  0.10203064847E+01 0.  0.
     999903    2    3    3    0    0 -0.21791730071E-02  0.50313748242E-01  0.11851318015E+00  0.13033765144E+00  0.20157069608E-01 0.  0.
         14    1    1    2    0    0 -0.21633099464E-01 -0.60759656589E-02  0.63721868913E-02  0.23356222231E-01  0.00000000000E+00 0.  1.
     999901    1    3    3    0    0  0.23812272472E-01 -0.44237782583E-01 -0.12488536704E+00  0.89023612633E+00  0.88000000000E+00 0.  1.
        -11    1    4    4    0    0  0.18061052882E-02  0.41804722158E-01  0.75640587351E-01  0.86444527801E-01  0.51100000000E-03 0.  1.
         11    1    4    4    0    0 -0.39852782954E-02  0.85090260836E-02  0.42872592800E-01  0.43893123634E-01  0.51100000000E-03 0. -1.
</event>
<event>
 8    1  0.1150863E+005  0.1043930E+01  0.7957747E-01            NaN
         13   -1    0    0    0    0  0.00000000000E+00  0.00000000000E+00  0.74505805969E-08  0.10566000000E+00  0.10566000000E+00 0.  1.
     999900   -1    0    0    0    0 -0.00000000000E+00 -0.00000000000E+00 -0.74505805969E-08  0.93827000000E+00  0.93827000000E+00 0. -1.
     999902    2    1    2    0    0 -0.22528464702E-01 -0.24040235123E-02  0.16175222094E-02  0.10212159641E+01  0.10209633283E+01 0.  0.
     999903    2    3    3    0    0  0.50759142665E-01  0.90814278731E-01 -0.73973861257E-01  0.13005111818E+00  0.24848287769E-01 0.  0.
         14    1    1    2    0    0  0.22528464702E-01  0.24040235123E-02 -0.16175222094E-02  0.22714035947E-01  0.00000000000E+00 0. -1.
     999901    1    3    3    0    0 -0.73287607367E-01 -0.93218302243E-01  0.75591383466E-01  0.89116484587E+00  0.88000000000E+00 0. -1.
        -11    1    4    4    0    0  0.31367254887E-01  0.65085576871E-01 -0.37572595595E-01  0.81437080354E-01  0.51100000000E-03 0. -1.
         11    1    4    4    0    0  0.19391887778E-01  0.25728701860E-01 -0.36401265662E-01  0.48614037826E-01  0.51100000000E-03 0.  1.
</event>
<event>
 8    1  0.1150863E+005  0.1043930E+01  0.7957747E-01            NaN
         13   -1    0    0    0    0  0.00000000000E+00  0.00000000000E+00  0.74505805969E-08  0.10566000000E+00  0.10566000000E+00 0.  1.
     999900   -1    0    0    0    0 -0.00000000000E+00 -0.00000000000E+00 -0.74505805969E-08  0.93827000000E+00  0.93827000000E+00 0. -1.
     999902    2    1    2    0    0  0.20776571405E-01  0.67213268369E-02 -0.20213874012E-01  0.10141736081E+01  0.10137369800E+01 0.  0.
     999903    2    3    3    0    0  0.90571124184E-01  0.27592507889E-01 -0.84950590215E-01  0.12879361728E+00  0.20167251831E-01 0.  0.
         14    1    1    2    0    0 -0.20776571405E-01 -0.67213268369E-02  0.20213874012E-01  0.29756391858E-01  0.00000000000E+00 0.  1.
     999901    1    3    3    0    0 -0.69794552779E-01 -0.20871181052E-01  0.64736716203E-01  0.88537999086E+00  0.88000000000E+00 0.  1.
        -11    1    4    4    0    0  0.36657638713E-01  0.18158495142E-01 -0.46311933212E-01  0.61794576628E-01  0.51100000000E-03 0. -1.
         11    1    4    4    0    0  0.53913485471E-01  0.94340127470E-02 -0.38638657003E-01  0.66999040651E-01  0.51100000000E-03 0.  1.
</event>
<event>
 8    1  0.1150863E+005  0.1043930E+01  0.7957747E-01            NaN
         13   -1    0    0    0    0  0.00000000000E+00  0.00000000000E+00  0.74505805969E-08  0.10566000000E+00  0.10566000000E+00 0.  1.
     999900   -1    0    0    0    0 -0.00000000000E+00 -0.00000000000E+00 -0.74505805969E-08  0.93827000000E+00  0.93827000000E+00 0.  1.
     999902    2    1    2    0    0  0.22784448622E-01 -0.57975110875E-02 -0.17735089855E-02  0.10203527320E+01  0.10200802959E+01 0.  0.
     999903    2    3    3    0    0  0.93085836113E-01 -0.90318560359E-01  0.19430728632E-01  0.13325876144E+00  0.23620521898E-01 0.  0.
         14    1    1    2    0    0 -0.22784448622E-01  0.57975110875E-02  0.17735089855E-02  0.23577268034E-01  0.00000000000E+00 0.  1.
     999901    1    3    3    0    0 -0.70301387491E-01  0.84521049272E-01 -0.21204237618E-01  0.88709397053E+00  0.88000000000E+00 0.  1.
        -11    1    4    4    0    0  0.48946413264E-01 -0.49648750929E-01  0.22209651518E-01  0.73172942962E-01  0.51100000000E-03 0. -1.
         11    1    4    4    0    0  0.44139422849E-01 -0.40669809430E-01 -0.27789228859E-02  0.60085818476E-01  0.51100000000E-03 0.  1.
</event>
<event>
 8    1  0.1150863E+005  0.1043930E+01  0.7957747E-01            NaN
         13   -1    0    0    0    0  0.00000000000E+00  0.00000000000E+00  0.74505805969E-08  0.10566000000E+00  0.10566000000E+00 0. -1.
     999900   -1    0    0    0    0 -0.00000000000E+00 -0.00000000000E+00 -0.74505805969E-08  0.93827000000E+00  0.93827000000E+00 0. -1.
     999902    2    1    2    0    0 -0.17500113315E-02  0.17556489749E-01  0.11907221058E-01  0.10226444466E+01  0.10224229014E+01 0.  0.
     999903    2    3    3    0    0 -0.53851412444E-01 -0.11737176041E+00 -0.32354463733E-02  0.13070863661E+00  0.19954318000E-01 0.  0.
         14    1    1    2    0    0  0.17500113315E-02 -0.17556489749E-01 -0.11907221058E-01  0.21285553441E-01  0.00000000000E+00 0.  1.
     999901    1    3    3    0    0  0.52101401112E-01  0.13492825016E+00  0.15142667432E-01  0.89193580995E+00  0.88000000000E+00 0.  1.
        -11    1    4    4    0    0 -0.18462490241E-01 -0.63684469374E-01  0.27502330948E-03  0.66309214625E-01  0.51100000000E-03 0. -1.
         11    1    4    4    0    0 -0.35388922202E-01 -0.53687291039E-01 -0.35104696828E-02  0.64399421986E-01  0.51100000000E-03 0.  1.
</event>
<event>
 8    1  0.1150863E+005  0.1043930E+01  0.7957747E-01            NaN
         13   -1    0    0    0    0  0.00000000000E+00  0.00000000000E+00  0.74505805969E-08  0.10566000000E+00  0.10566000000E+00 0. -1.
     999900   -1    0    0    0    0 -0.00000000000E+00 -0.00000000000E+00 -0.74505805969E-08  0.93827000000E+00  0.93827000000E+00 0. -1.
     999902    2    1    2    0    0  0.96153048904E-02 -0.19993788021E-01  0.60359045312E-03  0.10217360826E+01  0.10214950086E+01 0.  0.
     999903    2    3    3    0    0  0.64131428477E-01 -0.34046390573E-01  0.10976962427E+00  0.13320543806E+00  0.20550461982E-01 0.  0.
         14    1    1    2    0    0 -0.96153048904E-02  0.19993788021E-01 -0.60359045312E-03  0.22193917388E-01  0.00000000000E+00 0.  1.
     999901    1    3    3    0    0 -0.54516123586E-01  0.14052602552E-01 -0.10916603381E+00  0.88853064455E+00  0.88000000000E+00 0. -1.
        -11    1    4    4    0    0  0.47371105576E-01 -0.16036736858E-01  0.82483962131E-01  0.96462758111E-01  0.51100000000E-03 0.  1.
         11    1    4    4    0    0  0.16760322901E-01 -0.18009653715E-01  0.27285662136E-01  0.36742679950E-01  0.51100000000E-03 0. -1.
</event>
<event>
 8    1  0.1150863E+005  0.1043930E+01  0.7957747E-01            NaN
         13   -1    0    0    0    0  0.00000000000E+00  0.00000000000E+00  0.74505805969E-08  0.10566000000E+00  0.10566000000E+00 0.  1.
     999900   -1    0    0    0    0 -0.00000000000E+00 -0.00000000000E+00 -0.74505805969E-08  0.93827000000E+00  0.93827000000E+00 0.  1.
     999902    2    1    2    0    0 -0.10298067993E-01 -0.20564140002E-01  0.60962735462E-02  0.10201371731E+01  0.10198596734E+01 0.  0.
     999903    2    3    3    0    0  0.56292243043E-01  0.83847548367E-01 -0.75881239367E-01  0.12769312291E+00  0.18663953371E-01 0.  0.
         14    1    1    2    0    0  0.10298067993E-01  0.20564140002E-01 -0.60962735462E-02  0.23792826851E-01  0.00000000000E+00 0. -1.
     999901    1    3    3    0    0 -0.66590311036E-01 -0.10441168837E+00  0.81977512913E-01  0.89244405024E+00  0.88000000000E+00 0. -1.
        -11    1    4    4    0    0  0.18463786468E-01  0.43060355005E-01 -0.30588547117E-01  0.55955570944E-01  0.51100000000E-03 0. -1.
         11    1    4    4    0    0  0.37828456575E-01  0.40787193362E-01 -0.45292692250E-01  0.71737551961E-01  0.51100000000E-03 0.  1.
</event>
<event>
 8    1  0.1150863E+005  0.1043930E+01  0.7957747E-01            NaN
         13   -1    0    0    0    0  0.00000000000E+00  0.00000000000E+00  0.74505805969E-08  0.10566000000E+00  0.10566000000E+00 0. -1.
     999900   -1    0    0    0    0 -0.00000000000E+00 -0.00000000000E+00 -0.74505805969E-08  0.93827000000E+00  0.93827000000E+00 0. -1.
     999902    2    1    2    0    0  0.12490445364E-01 -0.18943357886E-01  0.76158159656E-02  0.10199954499E+01  0.10197145950E+01 0.  0.
     999903    2    3    3    0    0 -0.90153758221E-01  0.41506566831E-03  0.91390426481E-01  0.12986693874E+00  0.19630061777E-01 0.  0.
         14    1    1    2    0    0 -0.12490445364E-01  0.18943357886E-01 -0.76158159656E-02  0.23934550052E-01  0.00000000000E+00 0.  1.
     999901    1    3    3    0    0  0.10264420358E+00 -0.19358423554E-01 -0.83774610516E-01  0.89012851120E+00  0.88000000000E+00 0. -1.
        -11    1    4    4    0    0 -0.81423090388E-01 -0.12222494254E-02  0.89042105279E-01  0.12066470559E+00  0.51100000000E-03 0. -1.
         11    1    4    4    0    0 -0.87306678322E-02  0.16373150937E-02  0.23483212028E-02  0.92022331520E-02  0.51100000000E-03 0.  1.
</event>
<event>
 8    1  0.1150863E+005  0.1043930E+01  0.7957747E-01            NaN
         13   -1    0    0    0    0  0.00000000000E+00  0.00000000000E+00  0.74505805969E-08  0.10566000000E+00  0.10566000000E+00 0. -1.
     999900   -1    0    0    0    0 -0.00000000000E+00 -0.00000000000E+00 -0.74505805969E-08  0.93827000000E+00  0.93827000000E+00 0.  1.
     999902    2    1    2    0    0 -0.41846530348E-02 -0.53496464928E-02 -0.23084420034E-01  0.10198671555E+01  0.10195832454E+01 0.  0.
     999903    2    3    3    0    0  0.61679805756E-01 -0.33571946958E-02 -0.11547742469E+00  0.13257996177E+00  0.20657721451E-01 0.  0.
         14    1    1    2    0    0  0.41846530348E-02  0.53496464928E-02  0.23084420034E-01  0.24062844531E-01  0.00000000000E+00 0. -1.
     999901    1    3    3    0    0 -0.65864458791E-01 -0.19924517970E-02  0.92393004653E-01  0.88728719370E+00  0.88000000000E+00 0. -1.
        -11    1    4    4    0    0  0.27551141221E-01 -0.81018656182E-02 -0.36764109369E-01  0.46653686540E-01  0.51100000000E-03 0. -1.
         11    1    4    4    0    0  0.34128664535E-01  0.47446709224E-02 -0.78713315318E-01  0.85926275228E-01  0.51100000000E-03 0.  1.
</event>
<event>
 8    1  0.1150863E+005  0.1043930E+01  0.7957747E-01            NaN
         13   -1    0    0    0    0  0.00000000000E+00  0.00000000000E+00  0.74505805969E-08  0.10566000000E+00  0.10566000000E+00 0.  1.
     999900   -1    0    0    0    0 -0.00000000000E+00 -0.00000000000E+00 -0.74505805969E-08  0.93827000000E+00  0.93827000000E+00 0.  1.
     999902    2    1    2    0    0  0.60195283240E-02 -0.20334576708E-01 -0.80236992003E-02  0.10212560176E+01  0.10210042820E+01 0.  0.
     999903    2    3    3    0    0 -0.11903412346E+00 -0.23045208375E-01  0.43849378313E-01  0.13089846043E+00  0.22614924047E-01 0.  0.
         14    1    1    2    0    0 -0.60195283240E-02  0.20334576708E-01  0.80236992003E-02  0.22673982446E-01  0.00000000000E+00 0.  1.
     999901    1    3    3    0    0  0.12505365178E+00  0.27106316676E-02 -0.51873077514E-01  0.89035755712E+00  0.88000000000E+00 0.  1.
        -11    1    4    4    0    0 -0.49145441410E-01 -0.20880440413E-01  0.19880965413E-01  0.56980532728E-01  0.51100000000E-03 0. -1.
         11    1    4    4    0    0 -0.69888682046E-01 -0.21647679628E-02  0.23968412900E-01  0.73917927707E-01  0.51100000000E-03 0.  1.
</event>
<event>
 8    1  0.1150863E+005  0.1043930E+01  0.7957747E-01            NaN
         13   -1    0    0    0    0  0.00000000000E+00  0.00000000000E+00  0.74505805969E-08  0.10566000000E+00  0.10566000000E+00 0. -1.
     999900   -1    0    0    0    0 -0.00000000000E+00 -0.00000000000E+00 -0.74505805969E-08  0.93827000000E+00  0.93827000000E+00 0. -1.
     999902    2    1    2    0    0 -0.89869669235E-02  0.32508653398E-01  0.21276708481E-02  0.10101349545E+01  0.10095694731E+01 0.  0.
     999903    2    3    3    0    0 -0.54715835762E-02  0.99901591667E-01  0.71876415977E-01  0.12479939463E+00  0.19960047120E-01 0.  0.
         14    1    1    2    0    0  0.89869669235E-02 -0.32508653398E-01 -0.21276708481E-02  0.33795045546E-01  0.00000000000E+00 0. -1.
     999901    1    3    3    0    0 -0.35153833473E-02 -0.67392938269E-01 -0.69748745129E-01  0.88533555983E+00  0.88000000000E+00 0. -1.
        -11    1    4    4    0    0 -0.20088344630E-02  0.29706315498E-01  0.33122154887E-01  0.44540306035E-01  0.51100000000E-03 0.  1.
         11    1    4    4    0    0 -0.34627491132E-02  0.70195276169E-01  0.38754261090E-01  0.80259088591E-01  0.51100000000E-03 0. -1.
</event>
<event>
 7    1  0.1150863E+005  0.1043930E+01  0.7957747E-01            NaN
         13   -1    0    0    0    0  0.00000000000E+00  0.00000000000E+00  0.74505805969E-08  0.10566000000E+00  0.10566000000E+00 0. -1.
     999900   -1    0    0    0    0 -0.00000000000E+00 -0.00000000000E+00 -0.74505805969E-08  0.93827000000E+00  0.93827000000E+00 0.  1.
     999902    2    1    2    0    0 -0.12187528332E-01 -0.58576769902E-02 -0.19288774970E-01  0.10203735770E+01  0.10201016280E+01 0.  0.
         14    1    1    2    0    0  0.12187528332E-01  0.58576769902E-02  0.19288774970E-01  0.23556423039E-01  0.00000000000E+00 0. -1.
     999901    1    3    3    0    0  0.31597419853E-01 -0.10551317429E+00 -0.79296598812E-01  0.89040405293E+00  0.88000000000E+00 0.  1.
        -11    1    3    3    0    0 -0.35825122276E-01  0.89556294410E-01  0.64837901191E-01  0.11622385214E+00  0.51100000000E-03 0. -1.
         11    1    3    3    0    0 -0.79598259091E-02  0.10099202891E-01 -0.48300773481E-02  0.13745671891E-01  0.51100000000E-03 0.  1.
</event>
<event>
 8    1  0.1150863E+005  0.1043930E+01  0.7957747E-01            NaN
         13   -1    0    0    0    0  0.00000000000E+00  0.00000000000E+00  0.74505805969E-08  0.10566000000E+00  0.10566000000E+00 0. -1.
     999900   -1    0    0    0    0 -0.00000000000E+00 -0.00000000000E+00 -0.74505805969E-08  0.93827000000E+00  0.93827000000E+00 0. -1.
     999902    2    1    2    0    0 -0.60971523182E-03 -0.15857188122E-02 -0.23784449101E-01  0.10200849528E+01  0.10198062192E+01 0.  0.
     999903    2    3    3    0    0  0.76826965755E-01 -0.99272151649E-01  0.25026265668E-01  0.12996048701E+00  0.22496031893E-01 0.  0.
         14    1    1    2    0    0  0.60971523182E-03  0.15857188122E-02  0.23784449101E-01  0.23845047198E-01  0.00000000000E+00 0. -1.
     999901    1    3    3    0    0 -0.77436680987E-01  0.97686432837E-01 -0.48810714769E-01  0.89012446579E+00  0.88000000000E+00 0. -1.
        -11    1    4    4    0    0  0.50406391873E-01 -0.58659236950E-01  0.49148489715E-02  0.77499208271E-01  0.51100000000E-03 0. -1.
         11    1    4    4    0    0  0.26420573882E-01 -0.40612914699E-01  0.20111416696E-01  0.52461278741E-01  0.51100000000E-03 0.  1.
</event>
<event>
 8    1  0.1150863E+005  0.1043930E+01  0.7957747E-01            NaN
         13   -1    0    0    0    0  0.00000000000E+00  0.00000000000E+00  0.74505805969E-08  0.10566000000E+00  0.10566000000E+00 0. -1.
     999900   -1    0    0    0    0 -0.00000000000E+00 -0.00000000000E+00 -0.74505805969E-08  0.93827000000E+00  0.93827000000E+00 0. -1.
     999902    2    1    2    0    0  0.78618988617E-02 -0.21405337676E-01 -0.55453209571E-02  0.10204619681E+01  0.10201920799E+01 0.  0.
     999903    2    3    3    0    0  0.12903799769E+00  0.14525850783E-01  0.17691347275E-02  0.13140167857E+00  0.20036619131E-01 0.  0.
         14    1    1    2    0    0 -0.78618988617E-02  0.21405337676E-01  0.55453209571E-02  0.23468031857E-01  0.00000000000E+00 0.  1.
     999901    1    3    3    0    0 -0.12117609882E+00 -0.35931188459E-01 -0.73144556846E-02  0.88906028957E+00  0.88000000000E+00 0.  1.
        -11    1    4    4    0    0  0.11365508920E+00  0.15145205635E-01 -0.45522168595E-02  0.11475121069E+00  0.51100000000E-03 0.  1.
         11    1    4    4    0    0  0.15382908487E-01 -0.61935485178E-03  0.63213515870E-02  0.16650467886E-01  0.51100000000E-03 0. -1.
</event>
<event>
 8    1  0.1150863E+005  0.1043930E+01  0.7957747E-01            NaN
         13   -1    0    0    0    0  0.00000000000E+00  0.00000000000E+00  0.74505805969E-08  0.10566000000E+00  0.10566000000E+00 0. -1.
     999900   -1    0    0    0    0 -0.00000000000E+00 -0.00000000000E+00 -0.74505805969E-08  0.93827000000E+00  0.93827000000E+00 0.  1.
     999902    2    1    2    0    0 -0.81659633938E-02  0.74873585267E-02 -0.20368975461E-01  0.10207429636E+01  0.10204795731E+01 0.  0.
     999903    2    3    3    0    0 -0.10017623510E+00  0.64291622258E-01  0.51131303300E-01  0.13124596847E+00  0.21033385141E-01 0.  0.
         14    1    1    2    0    0  0.81659633938E-02 -0.74873585267E-02  0.20368975461E-01  0.23187036404E-01  0.00000000000E+00 0. -1.
     999901    1    3    3    0    0  0.92010271707E-01 -0.56804263731E-01 -0.71500278762E-01  0.88949699513E+00  0.88000000000E+00 0.  1.
        -11    1    4    4    0    0 -0.39102728411E-01  0.32986364143E-01  0.13224220774E-01  0.52841884189E-01  0.51100000000E-03 0.  1.
         11    1    4    4    0    0 -0.61073506690E-01  0.31305258115E-01  0.37907082526E-01  0.78404084280E-01  0.51100000000E-03 0. -1.
</event>
<event>
 8    1  0.1150863E+005  0.1043930E+01  0.7957747E-01            NaN
         13   -1    0    0    0    0  0.00000000000E+00  0.00000000000E+00  0.74505805969E-08  0.10566000000E+00  0.10566000000E+00 0.  1.
     999900   -1    0    0    0    0 -0.00000000000E+00 -0.00000000000E+00 -0.74505805969E-08  0.93827000000E+00  0.93827000000E+00 0. -1.
     999902    2    1    2    0    0 -0.57548743290E-02  0.19048779811E-01  0.94784956403E-02  0.10218887552E+01  0.10216510224E+01 0.  0.
     999903    2    3    3    0    0  0.54230190564E-03  0.73631268754E-01  0.11067734691E+00  0.13438658058E+00  0.19708376224E-01 0.  0.
         14    1    1    2    0    0  0.57548743290E-02 -0.19048779811E-01 -0.94784956403E-02  0.22041244757E-01  0.00000000000E+00 0.  1.
     999901    1    3    3    0    0 -0.62971762346E-02 -0.54582488943E-01 -0.10119885126E+00  0.88750217466E+00  0.88000000000E+00 0. -1.
        -11    1    4    4    0    0 -0.70728636883E-02  0.28781579003E-01  0.55061555696E-01  0.62533516831E-01  0.51100000000E-03 0. -1.
         11    1    4    4    0    0  0.76151655939E-02  0.44849689751E-01  0.55615791210E-01  0.71853063752E-01  0.51100000000E-03 0.  1.
</event>
<event>
 8    1  0.1150863E+005  0.1043930E+01  0.7957747E-01            NaN
         13   -1    0    0    0    0  0.00000000000E+00  0.00000000000E+00  0.74505805969E-08  0.10566000000E+00  0.10566000000E+00 0.  1.
     999900   -1    0    0    0    0 -0.00000000000E+00 -0.00000000000E+00 -0.74505805969E-08  0.93827000000E+00  0.93827000000E+00 0.  1.
     999902    2    1    2    0    0  0.42854533111E-02 -0.94627708908E-02  0.21829469334E-01  0.10197549121E+01  0.10194683153E+01 0.  0.
     999903    2    3    3    0    0 -0.79090618497E-02 -0.12566341932E+00 -0.28636613610E-01  0.13059906389E+00  0.19550233621E-01 0.  0.
         14    1    1    2    0    0 -0.42854533111E-02  0.94627708908E-02 -0.21829469334E-01  0.24175087888E-01  0.00000000000E+00 0. -1.
     999901    1    3    3    0    0  0.12194515161E-01  0.11620064843E+00  0.50466082944E-01  0.88915584822E+00  0.88000000000E+00 0. -1.
        -11    1    4    4    0    0 -0.73481899226E-02 -0.24959279831E-01 -0.47184637558E-03  0.26027779483E-01  0.51100000000E-03 0.  1.
         11    1    4    4    0    0 -0.56087192706E-03 -0.10070413949E+00 -0.28164767235E-01  0.10457128441E+00  0.51100000000E-03 0. -1.
</event>
<event>
 8    1  0.1150863E+005  0.1043930E+01  0.7957747E-01            NaN
         13   -1    0    0    0    0  0.00000000000E+00  0.00000000000E+00  0.74505805969E-08  0.10566000000E+00  0.10566000000E+00 0.  1.
     999900   -1    0    0    0    0 -0.00000000000E+00 -0.00000000000E+00 -0.74505805969E-08  0.93827000000E+00  0.93827000000E+00 0. -1.
     999902    2    1    2    0    0  0.60736594355E-02  0.82232795229E-02 -0.20072411163E-01  0.10214041625E+01  0.10211557422E+01 0.  0.
     999903    2    3    3    0    0 -0.69830596578E-01 -0.96191878175E-01  0.47206280158E-01  0.12944541708E+00  0.19962301224E-01 0.  0.
         14    1    1    2    0    0 -0.60736594355E-02 -0.82232795229E-02  0.20072411163E-01  0.22525837497E-01  0.00000000000E+00 0.  1.
     999901    1    3    3    0    0  0.75904256014E-01  0.10441515770E+00 -0.67278691321E-01  0.89195874543E+00  0.88000000000E+00 0. -1.
        -11    1    4    4    0    0 -0.28534454978E-01 -0.37029743609E-01  0.29061431840E-01  0.55047660934E-01  0.51100000000E-03 0.  1.
         11    1    4    4    0    0 -0.41296141600E-01 -0.59162134566E-01  0.18144848317E-01  0.74397756142E-01  0.51100000000E-03 0. -1.
</event>
<event>
 8    1  0.1150863E+005  0.1043930E+01  0.7957747E-01            NaN
         13   -1    0    0    0    0  0.00000000000E+00  0.00000000000E+00  0.74505805969E-08  0.10566000000E+00  0.10566000000E+00 0. -1.
     999900   -1    0    0    0    0 -0.00000000000E+00 -0.00000000000E+00 -0.74505805969E-08  0.93827000000E+00  0.93827000000E+00 0.  1.
     999902    2    1    2    0    0  0.85709748649E-02  0.21250177551E-01  0.11474744377E-01  0.10183038139E+01  0.10179813142E+01 0.  0.
     999903    2    3    3    0    0  0.11962754126E+00  0.40251476378E-01 -0.26327570001E-01  0.13031528622E+00  0.18920964651E-01 0.  0.
         14    1    1    2    0    0 -0.85709748649E-02 -0.21250177551E-01 -0.11474744377E-01  0.25626186111E-01  0.00000000000E+00 0.  1.
     999901    1    3    3    0    0 -0.11105656639E+00 -0.19001298827E-01  0.37802314378E-01  0.88798852767E+00  0.88000000000E+00 0.  1.
        -11    1    4    4    0    0  0.18159806132E-01  0.36384000263E-02  0.24013350104E-02  0.18682720474E-01  0.51100000000E-03 0. -1.
         11    1    4    4    0    0  0.10146773512E+00  0.36613076351E-01 -0.28728905011E-01  0.11163256575E+00  0.51100000000E-03 0.  1.
</event>
<event>
 8    1  0.1150863E+005  0.1043930E+01  0.7957747E-01            NaN
         13   -1    0    0    0    0  0.00000000000E+00  0.00000000000E+00  0.74505805969E-08  0.10566000000E+00  0.10566000000E+00 0.  1.
     999900   -1    0    0    0    0 -0.00000000000E+00 -0.00000000000E+00 -0.74505805969E-08  0.93827000000E+00  0.93827000000E+00 0.  1.
     999902    2    1    2    0    0  0.20592869549E-01 -0.11661634738E-01 -0.26698785565E-03  0.10202629072E+01  0.10199883668E+01 0.  0.
     999903    2    3    3    0    0  0.12736496618E+00 -0.22528319236E-01  0.25748690051E-01  0.13336089400E+00  0.19818507299E-01 0.  0.
         14    1    1    2    0    0 -0.20592869549E-01  0.11661634738E-01  0.26698785565E-03  0.23667092841E-01  0.00000000000E+00 0.  1.
     999901    1    3    3    0    0 -0.10677209663E+00  0.10866684498E-01 -0.26015677906E-01  0.88690201316E+00  0.88000000000E+00 0.  1.
        -11    1    4    4    0    0  0.21262230233E-01  0.24260558048E-02  0.83735474424E-02  0.22985769489E-01  0.51100000000E-03 0. -1.
         11    1    4    4    0    0  0.10610273595E+00 -0.24954375041E-01  0.17375142608E-01  0.11037512451E+00  0.51100000000E-03 0.  1.
</event>
<event>
 8    1  0.1150863E+005  0.1043930E+01  0.7957747E-01            NaN
         13   -1    0    0    0    0  0.00000000000E+00  0.00000000000E+00  0.74505805969E-08  0.10566000000E+00  0.10566000000E+00 0. -1.
     999900   -1    0    0    0    0 -0.00000000000E+00 -0.00000000000E+00 -0.74505805969E-08  0.93827000000E+00  0.93827000000E+00 0. -1.
     999902    2    1    2    0    0 -0.67489193716E-02 -0.20698202661E-01 -0.56139963190E-02  0.10214471074E+01  0.10211996439E+01 0.  0.
     999903    2    3    3    0    0  0.96416598731E-01 -0.40076304237E-01  0.77102676720E-01  0.13135684064E+00  0.20187276996E-01 0.  0.
         14    1    1    2    0    0  0.67489193716E-02  0.20698202661E-01  0.56139963190E-02  0.22482892624E-01  0.00000000000E+00 0. -1.
     999901    1    3    3    0    0 -0.10316551810E+00  0.19378101577E-01 -0.82716673039E-01  0.89009026674E+00  0.88000000000E+00 0. -1.
        -11    1    4    4    0    0  0.33605346545E-01 -0.57360089772E-02  0.31906905354E-01  0.46696175921E-01  0.51100000000E-03 0.  1.
         11    1    4    4    0    0  0.62811252186E-01 -0.34340295260E-01  0.45195771366E-01  0.84660664716E-01  0.51100000000E-03 0. -1.
</event>
<event>
 8    1  0.1150863E+005  0.1043930E+01  0.7957747E-01            NaN
         13   -1    0    0    0    0  0.00000000000E+00  0.00000000000E+00  0.74505805969E-08  0.10566000000E+00  0.10566000000E+00 0.  1.
     999900   -1    0    0    0    0 -0.00000000000E+00 -0.00000000000E+00 -0.74505805969E-08  0.93827000000E+00  0.93827000000E+00 0.  1.
     999902    2    1    2    0    0  0.59206457678E-02  0.65952866002E-02 -0.21304388141E-01  0.10208555811E+01  0.10205947721E+01 0.  0.
     999903    2    3    3    0    0 -0.23157482710E-01  0.70219274644E-01 -0.10957943954E+00  0.13367688769E+00  0.19870611360E-01 0.  0.
         14    1    1    2    0    0 -0.59206457678E-02 -0.65952866002E-02  0.21304388141E-01  0.23074418860E-01  0.00000000000E+00 0.  1.
     999901    1    3    3    0    0  0.29078128478E-01 -0.63623988043E-01  0.88275051399E-01  0.88717869345E+00  0.88000000000E+00 0. -1.
        -11    1    4    4    0    0 -0.20474620893E-01  0.38288833097E-01 -0.51683693778E-01  0.67503408538E-01  0.51100000000E-03 0. -1.
         11    1    4    4    0    0 -0.26828618168E-02  0.31930441546E-01 -0.57895745762E-01  0.66173479153E-01  0.51100000000E-03 0.  1.
</event>
<event>
 8    1  0.1150863E+005  0.1043930E+01  0.7957747E-01            NaN
         13   -1    0    0    0    0  0.00000000000E+00  0.00000000000E+00  0.74505805969E-08  0.10566000000E+00  0.10566000000E+00 0. -1.
     999900   -1    0    0    0    0 -0.00000000000E+00 -0.00000000000E+00 -0.74505805969E-08  0.93827000000E+00  0.93827000000E+00 0. -1.
     999902    2    1    2    0    0 -0.12073597448E-01 -0.25753568790E-02  0.19130275550E-01  0.10211622232E+01  0.10209083771E+01 0.  0.
     999903    2    3    3    0    0 -0.64291323887E-01 -0.91882042106E-01  0.69832774214E-01  0.13365271994E+00  0.20266948578E-01 0.  0.
         14    1    1    2    0    0  0.12073597448E-01  0.25753568790E-02 -0.19130275550E-01  0.22767776812E-01  0.00000000000E+00 0.  1.
     999901    1    3    3    0    0  0.52217726439E-01  0.89306685228E-01 -0.50702498664E-01  0.88750950325E+00  0.88000000000E+00 0. -1.
        -11    1    4    4    0    0 -0.16483457461E-01 -0.37921324782E-01  0.19449214340E-01  0.45697530596E-01  0.51100000000E-03 0. -1.
         11    1    4    4    0    0 -0.47807866426E-01 -0.53960717324E-01  0.50383559874E-01  0.87955189346E-01  0.51100000000E-03 0.  1.
</event>
<event>
 8    1  0.1150863E+005  0.1043930E+01  0.7957747E-01            NaN
         13   -1    0    0    0    0  0.00000000000E+00  0.00000000000E+00  0.74505805969E-08  0.10566000000E+00  0.10566000000E+00 0.  1.
     999900   -1    0    0    0    0 -0.00000000000E+00 -0.00000000000E+00 -0.74505805969E-08  0.93827000000E+00  0.93827000000E+00 0. -1.
     999902    2    1    2    0    0  0.12924027267E-01 -0.14247197787E-01  0.13657688821E-01  0.10203387815E+01  0.10200660192E+01 0.  0.
     999903    2    3    3    0    0 -0.56011031601E-02 -0.10412308970E+00  0.79880557271E-01  0.13309229676E+00  0.21439819556E-01 0.  0.
         14    1    1    2    0    0 -0.12924027267E-01  0.14247197787E-01 -0.13657688821E-01  0.23591218482E-01  0.00000000000E+00 0. -1.
     999901    1    3    3    0    0  0.18525130427E-01  0.89875891912E-01 -0.66222868451E-01  0.88724648475E+00  0.88000000000E+00 0. -1.
        -11    1    4    4    0    0 -0.12932760347E-01 -0.70393381178E-01  0.48665053022E-01  0.86550753379E-01  0.51100000000E-03 0. -1.
         11    1    4    4    0    0  0.73316571866E-02 -0.33729708520E-01  0.31215504249E-01  0.46541543383E-01  0.51100000000E-03 0.  1.
</event>
<event>
 7    1  0.1150863E+005  0.1043930E+01  0.7957747E-01            NaN
         13   -1    0    0    0    0  0.00000000000E+00  0.00000000000E+00  0.74505805969E-08  0.10566000000E+00  0.10566000000E+00 0.  1.
     999900   -1    0    0    0    0 -0.00000000000E+00 -0.00000000000E+00 -0.74505805969E-08  0.93827000000E+00  0.93827000000E+00 0. -1.
     999903    2    1    2    0    0 -0.32159842614E-01 -0.90532529374E-01  0.31530600988E-01  0.10303471283E+00  0.19788352554E-01 0.  0.
         14    1    1    2    0    0 -0.19436999572E-01 -0.35079925732E-02 -0.50451737526E-01  0.54180077368E-01  0.00000000000E+00 0.  1.
     999901    1    1    2    0    0  0.51596842185E-01  0.94040521947E-01  0.18921136538E-01  0.88671520981E+00  0.88000000000E+00 0.  1.
        -11    1    3    3    0    0 -0.76720026044E-02 -0.43514369852E-01  0.74717215245E-02  0.44815708754E-01  0.51100000000E-03 0.  1.
         11    1    3    3    0    0 -0.24487840009E-01 -0.47018159522E-01  0.24058879464E-01  0.58219004072E-01  0.51100000000E-03 0. -1.
</event>
<event>
 8    1  0.1150863E+005  0.1043930E+01  0.7957747E-01            NaN
         13   -1    0    0    0    0  0.00000000000E+00  0.00000000000E+00  0.74505805969E-08  0.10566000000E+00  0.10566000000E+00 0. -1.
     999900   -1    0    0    0    0 -0.00000000000E+00 -0.00000000000E+00 -0.74505805969E-08  0.93827000000E+00  0.93827000000E+00 0.  1.
     999902    2    1    2    0    0 -0.18406044534E-01 -0.11753366033E-01  0.10594952617E-01  0.10196570292E+01  0.10193680788E+01 0.  0.
     999903    2    3    3    0    0  0.10319105988E+00  0.56580325849E-01  0.45927357198E-01  0.12797113832E+00  0.20434333682E-01 0.  0.
         14    1    1    2    0    0  0.18406044534E-01  0.11753366033E-01 -0.10594952617E-01  0.24272970759E-01  0.00000000000E+00 0.  1.
     999901    1    3    3    0    0 -0.12159710441E+00 -0.68333691883E-01 -0.35332404581E-01  0.89168589092E+00  0.88000000000E+00 0.  1.
        -11    1    4    4    0    0  0.34291292250E-01  0.18072273824E-01  0.25625908193E-01  0.46469862245E-01  0.51100000000E-03 0. -1.
         11    1    4    4    0    0  0.68899767627E-01  0.38508052026E-01  0.20301449005E-01  0.81501276079E-01  0.51100000000E-03 0.  1.
</event>
<event>
 8    1  0.1150863E+005  0.1043930E+01  0.7957747E-01            NaN
         13   -1    0    0    0    0  0.00000000000E+00  0.00000000000E+00  0.74505805969E-08  0.10566000000E+00  0.10566000000E+00 0. -1.
     999900   -1    0    0    0    0 -0.00000000000E+00 -0.00000000000E+00 -0.74505805969E-08  0.93827000000E+00  0.93827000000E+00 0.  1.
     999902    2    1    2    0    0  0.12097290636E-01 -0.31058360176E-02  0.19756901629E-01  0.10205563862E+01  0.10202886904E+01 0.  0.
     999903    2    3    3    0    0 -0.12164460386E+00  0.13211267647E-01  0.39351430373E-01  0.13008623639E+00  0.20048605551E-01 0.  0.
         14    1    1    2    0    0 -0.12097290636E-01  0.31058360176E-02 -0.19756901629E-01  0.23373613757E-01  0.00000000000E+00 0.  1.
     999901    1    3    3    0    0  0.13374189450E+00 -0.16317103665E-01 -0.19594528744E-01  0.89047014985E+00  0.88000000000E+00 0. -1.
        -11    1    4    4    0    0 -0.41818477117E-01  0.14160372092E-01  0.13498012663E-01  0.46170971757E-01  0.51100000000E-03 0. -1.
         11    1    4    4    0    0 -0.79826126747E-01 -0.94910444450E-03  0.25853417710E-01  0.83915264636E-01  0.51100000000E-03 0.  1.
</event>
<event>
 8    1  0.1150863E+005  0.1043930E+01  0.7957747E-01            NaN
         13   -1    0    0    0    0  0.00000000000E+00  0.00000000000E+00  0.74505805969E-08  0.10566000000E+00  0.10566000000E+00 0. -1.
     999900   -1    0    0    0    0 -0.00000000000E+00 -0.00000000000E+00 -0.74505805969E-08  0.93827000000E+00  0.93827000000E+00 0.  1.
     999902    2    1    2    0    0 -0.37654397911E-02 -0.57578848508E-02  0.23121498421E-01  0.10198066614E+01  0.10195213049E+01 0.  0.
     999903    2    3    3    0    0  0.63777149192E-02  0.68336019705E-01  0.11127871156E+00  0.13224568633E+00  0.19886756171E-01 0.  0.
         14    1    1    2    0    0  0.37654397911E-02  0.57578848508E-02 -0.23121498421E-01  0.24123338575E-01  0.00000000000E+00 0.  1.
     999901    1    3    3    0    0 -0.10143154710E-01 -0.74093904556E-01 -0.88157213135E-01  0.88756097509E+00  0.88000000000E+00 0. -1.
        -11    1    4    4    0    0 -0.53977913921E-02  0.66663387546E-02  0.15491223827E-01  0.17714834489E-01  0.51100000000E-03 0. -1.
         11    1    4    4    0    0  0.11775506311E-01  0.61669680951E-01  0.95787487729E-01  0.11453085184E+00  0.51100000000E-03 0.  1.
</event>
<event>
 8    1  0.1150863E+005  0.1043930E+01  0.7957747E-01            NaN
         13   -1    0    0    0    0  0.00000000000E+00  0.00000000000E+00  0.74505805969E-08  0.10566000000E+00  0.10566000000E+00 0. -1.
     999900   -1    0    0    0    0 -0.00000000000E+00 -0.00000000000E+00 -0.74505805969E-08  0.93827000000E+00  0.93827000000E+00 0. -1.
     999902    2    1    2    0    0  0.11785558536E-01 -0.15448802446E-01  0.13504343943E-01  0.10202671136E+01  0.10199926720E+01 0.  0.
     999903    2    3    3    0    0 -0.72968243386E-01 -0.41703961350E-01 -0.96034842568E-01  0.12904807561E+00  0.19160634032E-01 0.  0.
         14    1    1    2    0    0 -0.11785558536E-01  0.15448802446E-01 -0.13504343943E-01  0.23662886391E-01  0.00000000000E+00 0. -1.
     999901    1    3    3    0    0  0.84753801922E-01  0.26255158904E-01  0.10953918651E+00  0.89121903800E+00  0.88000000000E+00 0.  1.
        -11    1    4    4    0    0 -0.37533073361E-01 -0.32315574174E-01 -0.56135550679E-01  0.74863135796E-01  0.51100000000E-03 0.  1.
         11    1    4    4    0    0 -0.35435170025E-01 -0.93883871764E-02 -0.39899291889E-01  0.54184939815E-01  0.51100000000E-03 0. -1.
</event>
<event>
 8    1  0.1150863E+005  0.1043930E+01  0.7957747E-01            NaN
         13   -1    0    0    0    0  0.00000000000E+00  0.00000000000E+00  0.74505805969E-08  0.10566000000E+00  0.10566000000E+00 0.  1.
     999900   -1    0    0    0    0 -0.00000000000E+00 -0.00000000000E+00 -0.74505805969E-08  0.93827000000E+00  0.93827000000E+00 0.  1.
     999902    2    1    2    0    0  0.13222185113E-01 -0.20089112896E-01 -0.59167083543E-02  0.10191629640E+01  0.10188619833E+01 0.  0.
     999903    2    3    3    0    0  0.39021150326E-01  0.65037725766E-01  0.10132682918E+00  0.12820093245E+00  0.20391096686E-01 0.  0.
         14    1    1    2    0    0 -0.13222185113E-01  0.20089112896E-01  0.59167083543E-02  0.24767036033E-01  0.00000000000E+00 0. -1.
     999901    1    3    3    0    0 -0.25798965213E-01 -0.85126838662E-01 -0.10724353753E+00  0.89096203152E+00  0.88000000000E+00 0.  1.
        -11    1    4    4    0    0  0.15141820154E-01  0.29821912553E-01  0.61035279365E-01  0.69600198520E-01  0.51100000000E-03 0. -1.
         11    1    4    4    0    0  0.23879330171E-01  0.35215813213E-01  0.40291549812E-01  0.58600733928E-01  0.51100000000E-03 0.  1.
</event>
<event>
 8    1  0.1150863E+005  0.1043930E+01  0.7957747E-01            NaN
         13   -1    0    0    0    0  0.00000000000E+00  0.00000000000E+00  0.74505805969E-08  0.10566000000E+00  0.10566000000E+00 0. -1.
     999900   -1    0    0    0    0 -0.00000000000E+00 -0.00000000000E+00 -0.74505805969E-08  0.93827000000E+00  0.93827000000E+00 0.  1.
     999902    2    1    2    0    0  0.12369092950E-01 -0.67367699402E-02  0.62008142949E-02  0.10285407626E+01  0.10284256277E+01 0.  0.
     999903    2    3    3    0    0  0.17235963542E-01 -0.12152322362E+00  0.64356542558E-01  0.13916924007E+00  0.12701987730E-01 0.  0.
         14    1    1    2    0    0 -0.12369092950E-01  0.67367699402E-02 -0.62008142949E-02  0.15389237393E-01  0.00000000000E+00 0.  1.
     999901    1    3    3    0    0 -0.48668705921E-02  0.11478645368E+00 -0.58155728263E-01  0.88937152254E+00  0.88000000000E+00 0.  1.
        -11    1    4    4    0    0  0.14131082085E-02 -0.13695216267E-01  0.11958390364E-01  0.18243356174E-01  0.51100000000E-03 0.  1.
         11    1    4    4    0    0  0.15822855333E-01 -0.10782800735E+00  0.52398152194E-01  0.12092588389E+00  0.51100000000E-03 0. -1.
</event>
<event>
 8    1  0.1150863E+005  0.1043930E+01  0.7957747E-01            NaN
         13   -1    0    0    0    0  0.00000000000E+00  0.00000000000E+00  0.74505805969E-08  0.10566000000E+00  0.10566000000E+00 0. -1.
     999900   -1    0    0    0    0 -0.00000000000E+00 -0.00000000000E+00 -0.74505805969E-08  0.93827000000E+00  0.93827000000E+00 0. -1.
     999902    2    1    2    0    0 -0.90572464577E-02 -0.86987370485E-02 -0.21251281430E-01  0.10192456183E+01  0.10189466677E+01 0.  0.
     999903    2    3    3    0    0  0.42588661715E-01  0.34557329977E-01 -0.11772386877E+00  0.13141379450E+00  0.20066712353E-01 0.  0.
         14    1    1    2    0    0  0.90572464577E-02  0.86987370485E-02  0.21251281430E-01  0.24684381744E-01  0.00000000000E+00 0. -1.
     999901    1    3    3    0    0 -0.51645908173E-01 -0.43256067025E-01  0.96472587341E-01  0.88783182376E+00  0.88000000000E+00 0.  1.
        -11    1    4    4    0    0  0.32870930329E-01  0.24815153155E-01 -0.65246442454E-01  0.77159894120E-01  0.51100000000E-03 0.  1.
         11    1    4    4    0    0  0.97177313863E-02  0.97421768220E-02 -0.52477426318E-01  0.54253900380E-01  0.51100000000E-03 0. -1.
</event>
<event>
 8    1  0.1150863E+005  0.1043930E+01  0.7957747E-01            NaN
         13   -1    0    0    0    0  0.00000000000E+00  0.00000000000E+00  0.74505805969E-08  0.10566000000E+00  0.10566000000E+00 0.  1.
     999900   -1    0    0    0    0 -0.00000000000E+00 -0.00000000000E+00 -0.74505805969E-08  0.93827000000E+00  0.93827000000E+00 0.  1.
     999902    2    1    2    0    0  0.21134899474E-01  0.86058914368E-03  0.10745432415E-01  0.10202047201E+01  0.10199288122E+01 0.  0.
     999903    2    3    3    0    0  0.31443615250E-01 -0.12521910899E+00 -0.10321422929E-01  0.13090939664E+00  0.19031872268E-01 0.  0.
         14    1    1    2    0    0 -0.21134899474E-01 -0.86058914368E-03 -0.10745432415E-01  0.23725279919E-01  0.00000000000E+00 0. -1.
     999901    1    3    3    0    0 -0.10308715776E-01  0.12607969813E+00  0.21066855344E-01  0.88929532344E+00  0.88000000000E+00 0.  1.
        -11    1    4    4    0    0  0.69638714440E-02 -0.62675343528E-01 -0.92281994594E-02  0.63734723488E-01  0.51100000000E-03 0.  1.
         11    1    4    4    0    0  0.24479743806E-01 -0.62543765458E-01 -0.10932234697E-02  0.67174673152E-01  0.51100000000E-03 0. -1.
</event>
<event>
 8    1  0.1150863E+005  0.1043930E+01  0.7957747E-01            NaN
         13   -1    0    0    0    0  0.00000000000E+00  0.00000000000E+00  0.74505805969E-08  0.10566000000E+00  0.10566000000E+00 0. -1.
     999900   -1    0    0    0    0 -0.00000000000E+00 -0.00000000000E+00 -0.74505805969E-08  0.93827000000E+00  0.93827000000E+00 0.  1.
     999902    2    1    2    0    0 -0.25139981373E-01  0.34634204089E-02 -0.19482358147E-02  0.10184778966E+01  0.10181598186E+01 0.  0.
     999903    2    3    3    0    0  0.11139485446E+00  0.10708585284E-01  0.54723891916E-01  0.12611811273E+00  0.19687219546E-01 0.  0.
         14    1    1    2    0    0  0.25139981373E-01 -0.34634204089E-02  0.19482358147E-02  0.25452103394E-01  0.00000000000E+00 0. -1.
     999901    1    3    3    0    0 -0.13653483584E+00 -0.72451648755E-02 -0.56672127731E-01  0.89235978387E+00  0.88000000000E+00 0.  1.
        -11    1    4    4    0    0  0.64051189679E-01  0.13580664054E-01  0.24699573423E-01  0.69980850122E-01  0.51100000000E-03 0. -1.
         11    1    4    4    0    0  0.47343664784E-01 -0.28720787691E-02  0.30024318493E-01  0.56137262613E-01  0.51100000000E-03 0.  1.
</event>
<event>
 8    1  0.1150863E+005  0.1043930E+01  0.7957747E-01            NaN
         13   -1    0    0    0    0  0.00000000000E+00  0.00000000000E+00  0.74505805969E-08  0.10566000000E+00  0.10566000000E+00 0. -1.
     999900   -1    0    0    0    0 -0.00000000000E+00 -0.00000000000E+00 -0.74505805969E-08  0.93827000000E+00  0.93827000000E+00 0. -1.
     999902    2    1    2    0    0  0.79724326440E-03  0.10619979892E-01  0.22064271715E-01  0.10194299662E+01  0.10191355181E+01 0.  0.
     999903    2    3    3    0    0 -0.31912173763E-01 -0.10963257716E+00  0.58662350002E-01  0.12989637899E+00  0.19852182715E-01 0.  0.
         14    1    1    2    0    0 -0.79724326440E-03 -0.10619979892E-01 -0.22064271715E-01  0.24500033797E-01  0.00000000000E+00 0.  1.
     999901    1    3    3    0    0  0.32709417027E-01  0.12025255705E+00 -0.36598078287E-01  0.88953358721E+00  0.88000000000E+00 0. -1.
        -11    1    4    4    0    0 -0.13253076149E-01 -0.37345697278E-01  0.10315918126E-01  0.40951488622E-01  0.51100000000E-03 0. -1.
         11    1    4    4    0    0 -0.18659097614E-01 -0.72286879883E-01  0.48346431876E-01  0.88944890371E-01  0.51100000000E-03 0.  1.
</event>
<event>
 8    1  0.1150863E+005  0.1043930E+01  0.7957747E-01            NaN
         13   -1    0    0    0    0  0.00000000000E+00  0.00000000000E+00  0.74505805969E-08  0.10566000000E+00  0.10566000000E+00 0. -1.
     999900   -1    0    0    0    0 -0.00000000000E+00 -0.00000000000E+00 -0.74505805969E-08  0.93827000000E+00  0.93827000000E+00 0.  1.
     999902    2    1    2    0    0  0.82153607176E-02 -0.21646853387E-01  0.25249660816E-02  0.10206393610E+01  0.10203735842E+01 0.  0.
     999903    2    3    3    0    0 -0.10127583645E+00 -0.70689936455E-01  0.41424673588E-01  0.13164738490E+00  0.19004425920E-01 0.  0.
         14    1    1    2    0    0 -0.82153607176E-02  0.21646853387E-01 -0.25249660816E-02  0.23290639042E-01  0.00000000000E+00 0.  1.
     999901    1    3    3    0    0  0.10949119717E+00  0.49043083068E-01 -0.38899707507E-01  0.88899197606E+00  0.88000000000E+00 0.  1.
        -11    1    4    4    0    0 -0.17832224400E-01 -0.87538670209E-02  0.13560222289E-01  0.24057413917E-01  0.51100000000E-03 0.  1.
         11    1    4    4    0    0 -0.83443612048E-01 -0.61936069434E-01  0.27864451300E-01  0.10758997098E+00  0.51100000000E-03 0. -1.
</event>
<event>
 8    1  0.1150863E+005  0.1043930E+01  0.7957747E-01            NaN
         13   -1    0    0    0    0  0.00000000000E+00  0.00000000000E+00  0.74505805969E-08  0.10566000000E+00  0.10566000000E+00 0.  1.
     999900   -1    0    0    0    0 -0.00000000000E+00 -0.00000000000E+00 -0.74505805969E-08  0.93827000000E+00  0.93827000000E+00 0.  1.
     999902    2    1    2    0    0 -0.60606222180E-02  0.92619323609E-02  0.20508829478E-01  0.10206249229E+01  0.10203588127E+01 0.  0.
     999903    2    3    3    0    0 -0.38961022783E-01 -0.34453485785E-01 -0.11577201637E+00  0.12845568833E+00  0.19816662484E-01 0.  0.
         14    1    1    2    0    0  0.60606222180E-02 -0.92619323609E-02 -0.20508829478E-01  0.23305077114E-01  0.00000000000E+00 0. -1.
     999901    1    3    3    0    0  0.32900400565E-01  0.43715418146E-01  0.13628084585E+00  0.89216923455E+00  0.88000000000E+00 0. -1.
        -11    1    4    4    0    0 -0.32979591884E-01 -0.35075961222E-01 -0.11012464664E+00  0.12019016372E+00  0.51100000000E-03 0.  1.
         11    1    4    4    0    0 -0.59814308989E-02  0.62247543666E-03 -0.56473697263E-02  0.82655246109E-02  0.51100000000E-03 0. -1.
</event>
<event>
 8    1  0.1150863E+005  0.1043930E+01  0.7957747E-01            NaN
         13   -1    0    0    0    0  0.00000000000E+00  0.00000000000E+00  0.74505805969E-08  0.10566000000E+00  0.10566000000E+00 0.  1.
     999900   -1    0    0    0    0 -0.00000000000E+00 -0.00000000000E+00 -0.74505805969E-08  0.93827000000E+00  0.93827000000E+00 0. -1.
     999902    2    1    2    0    0  0.51504599768E-02  0.15665566683E-01  0.16670511405E-01  0.10204812651E+01  0.10202118257E+01 0.  0.
     999903    2    3    3    0    0  0.42846732022E-01 -0.11480009019E+00  0.37874999974E-01  0.12981189498E+00  0.20042687044E-01 0.  0.
         14    1    1    2    0    0 -0.51504599768E-02 -0.15665566683E-01 -0.16670511405E-01  0.23448734891E-01  0.00000000000E+00 0. -1.
     999901    1    3    3    0    0 -0.37696272045E-01  0.13046565687E+00 -0.21204488569E-01  0.89066937013E+00  0.88000000000E+00 0. -1.
        -11    1    4    4    0    0  0.17718840305E-01 -0.30781720175E-01  0.18295968814E-01  0.39955915639E-01  0.51100000000E-03 0. -1.
         11    1    4    4    0    0  0.25127891716E-01 -0.84018370011E-01  0.19579031160E-01  0.89855979342E-01  0.51100000000E-03 0.  1.
</event>
<event>
 8    1  0.1150863E+005  0.1043930E+01  0.7957747E-01            NaN
         13   -1    0    0    0    0  0.00000000000E+00  0.00000000000E+00  0.74505805969E-08  0.10566000000E+00  0.10566000000E+00 0. -1.
     999900   -1    0    0    0    0 -0.00000000000E+00 -0.00000000000E+00 -0.74505805969E-08  0.93827000000E+00  0.93827000000E+00 0. -1.
     999902    2    1    2    0    0  0.71620064933E-02  0.93485395356E-02  0.21358672229E-01  0.10195397887E+01  0.10192480063E+01 0.  0.
     999903    2    3    3    0    0 -0.57880940336E-01  0.96223398269E-01 -0.60485765989E-01  0.12910375051E+00  0.20002621851E-01 0.  0.
         14    1    1    2    0    0 -0.71620064933E-02 -0.93485395356E-02 -0.21358672229E-01  0.24390211312E-01  0.00000000000E+00 0.  1.
     999901    1    3    3    0    0  0.65042946829E-01 -0.86874858733E-01  0.81844438218E-01  0.89043603817E+00  0.88000000000E+00 0.  1.
        -11    1    4    4    0    0 -0.11922146604E-01  0.37126739257E-01 -0.24329729720E-01  0.45964434259E-01  0.51100000000E-03 0.  1.
         11    1    4    4    0    0 -0.45958793732E-01  0.59096659011E-01 -0.36156036268E-01  0.83139316254E-01  0.51100000000E-03 0. -1.
</event>
<event>
 8    1  0.1150863E+005  0.1043930E+01  0.7957747E-01            NaN
         13   -1    0    0    0    0  0.00000000000E+00  0.00000000000E+00  0.74505805969E-08  0.10566000000E+00  0.10566000000E+00 0. -1.
     999900   -1    0    0    0    0 -0.00000000000E+00 -0.00000000000E+00 -0.74505805969E-08  0.93827000000E+00  0.93827000000E+00 0.  1.
     999902    2    1    2    0    0 -0.43530030199E-02  0.23086000936E-01  0.52330845653E-03  0.10204313633E+01  0.10201607625E+01 0.  0.
     999903    2    3    3    0    0 -0.45099306740E-01  0.10368554837E+00 -0.67207026238E-01  0.13322003192E+00  0.21122313304E-01 0.  0.
         14    1    1    2    0    0  0.43530030199E-02 -0.23086000936E-01 -0.52330845653E-03  0.23498636689E-01  0.00000000000E+00 0. -1.
     999901    1    3    3    0    0  0.40746303720E-01 -0.80599547434E-01  0.67730334694E-01  0.88721133139E+00  0.88000000000E+00 0. -1.
        -11    1    4    4    0    0 -0.30415064644E-01  0.43659042995E-01 -0.32174896626E-01  0.62182580249E-01  0.51100000000E-03 0. -1.
         11    1    4    4    0    0 -0.14684242096E-01  0.60026505375E-01 -0.35032129612E-01  0.71037451669E-01  0.51100000000E-03 0.  1.
</event>
<event>
 8    1  0.1150863E+005  0.1043930E+01  0.7957747E-01            NaN
         13   -1    0    0    0    0  0.00000000000E+00  0.00000000000E+00  0.74505805969E-08  0.10566000000E+00  0.10566000000E+00 0. -1.
     999900   -1    0    0    0    0 -0.00000000000E+00 -0.00000000000E+00 -0.74505805969E-08  0.93827000000E+00  0.93827000000E+00 0. -1.
     999902    2    1    2    0    0 -0.16769832279E-01  0.15624712530E-01  0.79509468785E-02  0.10196694049E+01  0.10193807527E+01 0.  0.
     999903    2    3    3    0    0  0.19685519016E-01  0.54798966263E-02 -0.12560448105E+00  0.12878840152E+00  0.19809537612E-01 0.  0.
         14    1    1    2    0    0  0.16769832279E-01 -0.15624712530E-01 -0.79509468785E-02  0.24260595058E-01  0.00000000000E+00 0.  1.
     999901    1    3    3    0    0 -0.36455351295E-01  0.10144815904E-01  0.13355542793E+00  0.89088100342E+00  0.88000000000E+00 0.  1.
        -11    1    4    4    0    0  0.31139296082E-02  0.89714435030E-02 -0.70482983725E-01  0.71121694804E-01  0.51100000000E-03 0. -1.
         11    1    4    4    0    0  0.16571589408E-01 -0.34915468767E-02 -0.55121497325E-01  0.57666706716E-01  0.51100000000E-03 0.  1.
</event>
<event>
 8    1  0.1150863E+005  0.1043930E+01  0.7957747E-01            NaN
         13   -1    0    0    0    0  0.00000000000E+00  0.00000000000E+00  0.74505805969E-08  0.10566000000E+00  0.10566000000E+00 0.  1.
     999900   -1    0    0    0    0 -0.00000000000E+00 -0.00000000000E+00 -0.74505805969E-08  0.93827000000E+00  0.93827000000E+00 0. -1.
     999902    2    1    2    0    0 -0.37680584939E-02 -0.64145634384E-02 -0.22120889889E-01  0.10205916483E+01  0.10203247689E+01 0.  0.
     999903    2    3    3    0    0  0.86200451788E-01  0.87038471822E-02 -0.98292410025E-01  0.13260234679E+00  0.20388959296E-01 0.  0.
         14    1    1    2    0    0  0.37680584939E-02  0.64145634384E-02  0.22120889889E-01  0.23338351664E-01  0.00000000000E+00 0.  1.
     999901    1    3    3    0    0 -0.89968510282E-01 -0.15118410621E-01  0.76171520136E-01  0.88798930155E+00  0.88000000000E+00 0.  1.
        -11    1    4    4    0    0  0.68636068088E-01 -0.34653233541E-03 -0.69521245418E-01  0.97695929356E-01  0.51100000000E-03 0. -1.
         11    1    4    4    0    0  0.17564383700E-01  0.90503795177E-02 -0.28771164607E-01  0.34906417433E-01  0.51100000000E-03 0.  1.
</event>
<event>
 8    1  0.1150863E+005  0.1043930E+01  0.7957747E-01            NaN
         13   -1    0    0    0    0  0.00000000000E+00  0.00000000000E+00  0.74505805969E-08  0.10566000000E+00  0.10566000000E+00 0.  1.
     999900   -1    0    0    0    0 -0.00000000000E+00 -0.00000000000E+00 -0.74505805969E-08  0.93827000000E+00  0.93827000000E+00 0. -1.
     999902    2    1    2    0    0  0.89630755193E-02 -0.76947934929E-02 -0.20310080562E-01  0.10204343421E+01  0.10201638106E+01 0.  0.
     999903    2    3    3    0    0 -0.16432140757E-01 -0.90009195498E-01  0.89603018792E-01  0.12942285661E+00  0.18705729423E-01 0.  0.
         14    1    1    2    0    0 -0.89630755193E-02  0.76947934929E-02  0.20310080562E-01  0.23495657941E-01  0.00000000000E+00 0.  1.
     999901    1    3    3    0    0  0.25395216276E-01  0.82314402005E-01 -0.10991309935E+00  0.89101148545E+00  0.88000000000E+00 0. -1.
        -11    1    4    4    0    0 -0.61395985777E-02 -0.74585763698E-01  0.71914801117E-01  0.10379176537E+00  0.51100000000E-03 0.  1.
         11    1    4    4    0    0 -0.10292542179E-01 -0.15423431800E-01  0.17688217675E-01  0.25631091247E-01  0.51100000000E-03 0. -1.
</event>
<event>
 8    1  0.1150863E+005  0.1043930E+01  0.7957747E-01            NaN
         13   -1    0    0    0    0  0.00000000000E+00  0.00000000000E+00  0.74505805969E-08  0.10566000000E+00  0.10566000000E+00 0. -1.
     999900   -1    0    0    0    0 -0.00000000000E+00 -0.00000000000E+00 -0.74505805969E-08  0.93827000000E+00  0.93827000000E+00 0. -1.
     999902    2    1    2    0    0 -0.32508682517E-02 -0.18933807840E-01 -0.50869485771E-02  0.10240570468E+01  0.10238642004E+01 0.  0.
     999903    2    3    3    0    0  0.75907371660E-01  0.10475364363E+00  0.14898334168E-01  0.13166474285E+00  0.19452229235E-01 0.  0.
         14    1    1    2    0    0  0.32508682517E-02  0.18933807840E-01  0.50869485771E-02  0.19872953217E-01  0.00000000000E+00 0.  1.
     999901    1    3    3    0    0 -0.79158239911E-01 -0.12368745147E+00 -0.19985282745E-01  0.89239230394E+00  0.88000000000E+00 0. -1.
        -11    1    4    4    0    0  0.29963679518E-01  0.27444055612E-01  0.84225524237E-02  0.41499382995E-01  0.51100000000E-03 0. -1.
         11    1    4    4    0    0  0.45943692142E-01  0.77309588018E-01  0.64757817442E-02  0.90165359852E-01  0.51100000000E-03 0.  1.
</event>
<event>
 8    1  0.1150863E+005  0.1043930E+01  0.7957747E-01            NaN
         13   -1    0    0    0    0  0.00000000000E+00  0.00000000000E+00  0.74505805969E-08  0.10566000000E+00  0.10566000000E+00 0.  1.
     999900   -1    0    0    0    0 -0.00000000000E+00 -0.00000000000E+00 -0.74505805969E-08  0.93827000000E+00  0.93827000000E+00 0.  1.
     999902    2    1    2    0    0 -0.22829622250E-01  0.29916649935E-02  0.49652414255E-02  0.10203759062E+01  0.10201040117E+01 0.  0.
     999903    2    3    3    0    0 -0.77220810452E-01  0.10561423329E+00 -0.60290377680E-02  0.13267625709E+00  0.21194812097E-01 0.  0.
         14    1    1    2    0    0  0.22829622250E-01 -0.29916649935E-02 -0.49652414255E-02  0.23554093783E-01  0.00000000000E+00 0. -1.
     999901    1    3    3    0    0  0.54391188202E-01 -0.10262256830E+00  0.10994279193E-01  0.88769964912E+00  0.88000000000E+00 0.  1.
        -11    1    4    4    0    0 -0.37997975103E-01  0.48102576162E-01  0.74975786277E-02  0.61759037814E-01  0.51100000000E-03 0. -1.
         11    1    4    4    0    0 -0.39222835349E-01  0.57511657128E-01 -0.13526616396E-01  0.70917219281E-01  0.51100000000E-03 0.  1.
</event>
<event>
 8    1  0.1150863E+005  0.1043930E+01  0.7957747E-01            NaN
         13   -1    0    0    0    0  0.00000000000E+00  0.00000000000E+00  0.74505805969E-08  0.10566000000E+00  0.10566000000E+00 0.  1.
     999900   -1    0    0    0    0 -0.00000000000E+00 -0.00000000000E+00 -0.74505805969E-08  0.93827000000E+00  0.93827000000E+00 0.  1.
     999902    2    1    2    0    0  0.18602111065E-01 -0.85041302385E-02  0.10679355231E-01  0.10208560451E+01  0.10205952466E+01 0.  0.
     999903    2    3    3    0    0 -0.75957091044E-01  0.49573734827E-01 -0.88406502721E-01  0.12836935703E+00  0.20879349516E-01 0.  0.
         14    1    1    2    0    0 -0.18602111065E-01  0.85041302385E-02 -0.10679355231E-01  0.23073954913E-01  0.00000000000E+00 0. -1.
     999901    1    3    3    0    0  0.94559202109E-01 -0.58077865066E-01  0.99085857952E-01  0.89248668806E+00  0.88000000000E+00 0. -1.
        -11    1    4    4    0    0 -0.37971284999E-01  0.17096664812E-01 -0.29067524145E-01  0.50786774982E-01  0.51100000000E-03 0.  1.
         11    1    4    4    0    0 -0.37985806045E-01  0.32477070015E-01 -0.59338978576E-01  0.77582582047E-01  0.51100000000E-03 0. -1.
</event>
<event>
 8    1  0.1150863E+005  0.1043930E+01  0.7957747E-01            NaN
         13   -1    0    0    0    0  0.00000000000E+00  0.00000000000E+00  0.74505805969E-08  0.10566000000E+00  0.10566000000E+00 0.  1.
     999900   -1    0    0    0    0 -0.00000000000E+00 -0.00000000000E+00 -0.74505805969E-08  0.93827000000E+00  0.93827000000E+00 0.  1.
     999902    2    1    2    0    0  0.89532307790E-02  0.75914442349E-02 -0.18592724030E-01  0.10219418270E+01  0.10217052500E+01 0.  0.
     999903    2    3    3    0    0 -0.95636284406E-01  0.27227608429E-02 -0.89867215208E-01  0.13287336848E+00  0.20627732798E-01 0.  0.
         14    1    1    2    0    0 -0.89532307790E-02 -0.75914442349E-02  0.18592724030E-01  0.21988173044E-01  0.00000000000E+00 0.  1.
     999901    1    3    3    0    0  0.10458951518E+00  0.48686833920E-02  0.71274491177E-01  0.88906845848E+00  0.88000000000E+00 0. -1.
        -11    1    4    4    0    0 -0.36157645486E-01 -0.14944709035E-02 -0.21262167790E-01  0.41975584219E-01  0.51100000000E-03 0. -1.
         11    1    4    4    0    0 -0.59478638920E-01  0.42172317464E-02 -0.68605047418E-01  0.90897784261E-01  0.51100000000E-03 0.  1.
</event>
<event>
 8    1  0.1150863E+005  0.1043930E+01  0.7957747E-01            NaN
         13   -1    0    0    0    0  0.00000000000E+00  0.00000000000E+00  0.74505805969E-08  0.10566000000E+00  0.10566000000E+00 0.  1.
     999900   -1    0    0    0    0 -0.00000000000E+00 -0.00000000000E+00 -0.74505805969E-08  0.93827000000E+00  0.93827000000E+00 0. -1.
     999902    2    1    2    0    0 -0.69644798499E-02  0.22171569599E-01  0.41406098636E-03  0.10206866370E+01  0.10204219505E+01 0.  0.
     999903    2    3    3    0    0  0.11526842061E+00  0.37257292737E-01  0.38086937628E-01  0.13131174042E+00  0.33425195621E-01 0.  0.
         14    1    1    2    0    0  0.69644798499E-02 -0.22171569599E-01 -0.41406098636E-03  0.23243363022E-01  0.00000000000E+00 0. -1.
     999901    1    3    3    0    0 -0.12223290046E+00 -0.15085723137E-01 -0.37672876641E-01  0.88937489656E+00  0.88000000000E+00 0. -1.
        -11    1    4    4    0    0  0.24439124698E-01  0.53245520731E-02  0.22754938589E-01  0.33818190696E-01  0.51100000000E-03 0. -1.
         11    1    4    4    0    0  0.90829295910E-01  0.31932740663E-01  0.15331999038E-01  0.97493549722E-01  0.51100000000E-03 0.  1.
</event>
<event>
 8    1  0.1150863E+005  0.1043930E+01  0.7957747E-01            NaN
         13   -1    0    0    0    0  0.00000000000E+00  0.00000000000E+00  0.74505805969E-08  0.10566000000E+00  0.10566000000E+00 0. -1.
     999900   -1    0    0    0    0 -0.00000000000E+00 -0.00000000000E+00 -0.74505805969E-08  0.93827000000E+00  0.93827000000E+00 0. -1.
     999902    2    1    2    0    0  0.15120488832E-01  0.13807177030E-01  0.87946344384E-02  0.10216451864E+01  0.10214021118E+01 0.  0.
     999903    2    3    3    0    0  0.79723116641E-03 -0.15449740325E-01 -0.12732319233E+00  0.13058447825E+00  0.24531216869E-01 0.  0.
         14    1    1    2    0    0 -0.15120488832E-01 -0.13807177030E-01 -0.87946344384E-02  0.22284813550E-01  0.00000000000E+00 0.  1.
     999901    1    3    3    0    0  0.14323257666E-01  0.29256917355E-01  0.13611782677E+00  0.89106070819E+00  0.88000000000E+00 0.  1.
        -11    1    4    4    0    0  0.45909488451E-02 -0.18804459556E-01 -0.59520822025E-01  0.62591324368E-01  0.51100000000E-03 0. -1.
         11    1    4    4    0    0 -0.37937176787E-02  0.33547192318E-02 -0.67802370309E-01  0.67993153887E-01  0.51100000000E-03 0.  1.
</event>
<event>
 8    1  0.1150863E+005  0.1043930E+01  0.7957747E-01            NaN
         13   -1    0    0    0    0  0.00000000000E+00  0.00000000000E+00  0.74505805969E-08  0.10566000000E+00  0.10566000000E+00 0. -1.
     999900   -1    0    0    0    0 -0.00000000000E+00 -0.00000000000E+00 -0.74505805969E-08  0.93827000000E+00  0.93827000000E+00 0. -1.
     999902    2    1    2    0    0  0.95467843309E-02 -0.24048031924E-01 -0.39426572920E-02  0.10177576200E+01  0.10174210434E+01 0.  0.
     999903    2    3    3    0    0 -0.41427078151E-01 -0.25723370088E-01 -0.11767507575E+00  0.12897406677E+00  0.20223547515E-01 0.  0.
         14    1    1    2    0    0 -0.95467843309E-02  0.24048031924E-01  0.39426572920E-02  0.26172380041E-01  0.00000000000E+00 0. -1.
     999901    1    3    3    0    0  0.50973862481E-01  0.16753381638E-02  0.11373241846E+00  0.88878355319E+00  0.88000000000E+00 0.  1.
        -11    1    4    4    0    0 -0.23009103421E-01 -0.15006481825E-01 -0.89640526930E-01  0.93756591908E-01  0.51100000000E-03 0. -1.
         11    1    4    4    0    0 -0.18417974730E-01 -0.10716888262E-01 -0.28034548818E-01  0.35217474861E-01  0.51100000000E-03 0.  1.
</event>
<event>
 8    1  0.1150863E+005  0.1043930E+01  0.7957747E-01            NaN
         13   -1    0    0    0    0  0.00000000000E+00  0.00000000000E+00  0.74505805969E-08  0.10566000000E+00  0.10566000000E+00 0.  1.
     999900   -1    0    0    0    0 -0.00000000000E+00 -0.00000000000E+00 -0.74505805969E-08  0.93827000000E+00  0.93827000000E+00 0.  1.
     999902    2    1    2    0    0 -0.23437688740E-01  0.42162418912E-03  0.16257382550E-03  0.10204879555E+01  0.10202186716E+01 0.  0.
     999903    2    3    3    0    0  0.38060789855E-01 -0.11701363863E+00  0.35808675441E-01  0.12984563201E+00  0.20900037415E-01 0.  0.
         14    1    1    2    0    0  0.23437688740E-01 -0.42162418912E-03 -0.16257382550E-03  0.23442044507E-01  0.00000000000E+00 0.  1.
     999901    1    3    3    0    0 -0.61498478595E-01  0.11743526282E+00 -0.35646101616E-01  0.89064232349E+00  0.88000000000E+00 0. -1.
        -11    1    4    4    0    0  0.21484020387E-01 -0.35105378916E-01  0.13998637111E-01  0.43476128195E-01  0.51100000000E-03 0. -1.
         11    1    4    4    0    0  0.16576769468E-01 -0.81908259717E-01  0.21810038330E-01  0.86369503812E-01  0.51100000000E-03 0.  1.
</event>
<event>
 8    1  0.1150863E+005  0.1043930E+01  0.7957747E-01            NaN
         13   -1    0    0    0    0  0.00000000000E+00  0.00000000000E+00  0.74505805969E-08  0.10566000000E+00  0.10566000000E+00 0.  1.
     999900   -1    0    0    0    0 -0.00000000000E+00 -0.00000000000E+00 -0.74505805969E-08  0.93827000000E+00  0.93827000000E+00 0. -1.
     999902    2    1    2    0    0 -0.46247626742E-02 -0.20388789580E-01  0.12858647922E-01  0.10193854284E+01  0.10190898957E+01 0.  0.
     999903    2    3    3    0    0 -0.84121563484E-01 -0.77016820119E-01 -0.61181976219E-01  0.13089879976E+00  0.19576351585E-01 0.  0.
         14    1    1    2    0    0  0.46247626742E-02  0.20388789580E-01 -0.12858647922E-01  0.24544571634E-01  0.00000000000E+00 0. -1.
     999901    1    3    3    0    0  0.79496800809E-01  0.56628030539E-01  0.74040624141E-01  0.88848662860E+00  0.88000000000E+00 0.  1.
        -11    1    4    4    0    0 -0.39132586772E-01 -0.26603182189E-01 -0.32971816757E-01  0.57675735551E-01  0.51100000000E-03 0.  1.
         11    1    4    4    0    0 -0.44988976711E-01 -0.50413637930E-01 -0.28210159462E-01  0.73223064213E-01  0.51100000000E-03 0. -1.
</event>
<event>
 8    1  0.1150863E+005  0.1043930E+01  0.7957747E-01            NaN
         13   -1    0    0    0    0  0.00000000000E+00  0.00000000000E+00  0.74505805969E-08  0.10566000000E+00  0.10566000000E+00 0. -1.
     999900   -1    0    0    0    0 -0.00000000000E+00 -0.00000000000E+00 -0.74505805969E-08  0.93827000000E+00  0.93827000000E+00 0.  1.
     999902    2    1    2    0    0 -0.21479708249E-01 -0.91716095143E-02 -0.66216360014E-02  0.10196536257E+01  0.10193645933E+01 0.  0.
     999903    2    3    3    0    0 -0.81327856264E-01 -0.99350831981E-01  0.26216396475E-01  0.13241497155E+00  0.19016235834E-01 0.  0.
         14    1    1    2    0    0  0.21479708249E-01  0.91716095143E-02  0.66216360014E-02  0.24276374336E-01  0.00000000000E+00 0. -1.
     999901    1    3    3    0    0  0.59848148015E-01  0.90179222467E-01 -0.32838032476E-01  0.88723865412E+00  0.88000000000E+00 0.  1.
        -11    1    4    4    0    0 -0.55389166330E-01 -0.65157485934E-01  0.83625183582E-02  0.85928170900E-01  0.51100000000E-03 0.  1.
         11    1    4    4    0    0 -0.25938689934E-01 -0.34193346048E-01  0.17853878116E-01  0.46486800645E-01  0.51100000000E-03 0. -1.
</event>
<event>
 8    1  0.1150863E+005  0.1043930E+01  0.7957747E-01            NaN
         13   -1    0    0    0    0  0.00000000000E+00  0.00000000000E+00  0.74505805969E-08  0.10566000000E+00  0.10566000000E+00 0. -1.
     999900   -1    0    0    0    0 -0.00000000000E+00 -0.00000000000E+00 -0.74505805969E-08  0.93827000000E+00  0.93827000000E+00 0. -1.
     999902    2    1    2    0    0 -0.10749822519E-01 -0.17855340460E-01 -0.85613440899E-02  0.10213985003E+01  0.10211499537E+01 0.  0.
     999903    2    3    3    0    0 -0.16671759919E-01 -0.13093214986E+00 -0.12231974573E-01  0.13413590798E+00  0.20534000095E-01 0.  0.
         14    1    1    2    0    0  0.10749822519E-01  0.17855340460E-01  0.85613440899E-02  0.22531499723E-01  0.00000000000E+00 0.  1.
     999901    1    3    3    0    0  0.59219374002E-02  0.11307680940E+00  0.36706304835E-02  0.88726259230E+00  0.88000000000E+00 0.  1.
        -11    1    4    4    0    0 -0.12084940368E-01 -0.11677462763E+00 -0.48098434916E-02  0.11749789427E+00  0.51100000000E-03 0. -1.
         11    1    4    4    0    0 -0.45868195510E-02 -0.14157522236E-01 -0.74221310819E-02  0.16638013711E-01  0.51100000000E-03 0.  1.
</event>
<event>
 8    1  0.1150863E+005  0.1043930E+01  0.7957747E-01            NaN
         13   -1    0    0    0    0  0.00000000000E+00  0.00000000000E+00  0.74505805969E-08  0.10566000000E+00  0.10566000000E+00 0. -1.
     999900   -1    0    0    0    0 -0.00000000000E+00 -0.00000000000E+00 -0.74505805969E-08  0.93827000000E+00  0.93827000000E+00 0.  1.
     999902    2    1    2    0    0 -0.29130013068E-02  0.15583772100E-01 -0.15682727012E-01  0.10216300570E+01  0.10213866486E+01 0.  0.
     999903    2    3    3    0    0 -0.88413931064E-01 -0.93402526995E-01 -0.12615901219E-01  0.13078897817E+00  0.20138038442E-01 0.  0.
         14    1    1    2    0    0  0.29130013068E-02 -0.15583772100E-01  0.15682727012E-01  0.22299942960E-01  0.00000000000E+00 0.  1.
     999901    1    3    3    0    0  0.85500929757E-01  0.10898629909E+00 -0.30668257938E-02  0.89084107887E+00  0.88000000000E+00 0. -1.
        -11    1    4    4    0    0 -0.56297101195E-01 -0.67847222416E-01 -0.15996638240E-01  0.89603363489E-01  0.51100000000E-03 0. -1.
         11    1    4    4    0    0 -0.32116829869E-01 -0.25555304579E-01  0.33807370217E-02  0.41185614683E-01  0.51100000000E-03 0.  1.
</event>
<event>
 8    1  0.1150863E+005  0.1043930E+01  0.7957747E-01            NaN
         13   -1    0    0    0    0  0.00000000000E+00  0.00000000000E+00  0.74505805969E-08  0.10566000000E+00  0.10566000000E+00 0. -1.
     999900   -1    0    0    0    0 -0.00000000000E+00 -0.00000000000E+00 -0.74505805969E-08  0.93827000000E+00  0.93827000000E+00 0.  1.
     999902    2    1    2    0    0 -0.22759975828E-01  0.19948868027E-02  0.98499290498E-02  0.10190499442E+01  0.10187461763E+01 0.  0.
     999903    2    3    3    0    0  0.98170338744E-01 -0.15905733610E-01  0.77687371988E-01  0.12801319310E+00  0.21485857454E-01 0.  0.
         14    1    1    2    0    0  0.22759975828E-01 -0.19948868027E-02 -0.98499290498E-02  0.24880055774E-01  0.00000000000E+00 0.  1.
     999901    1    3    3    0    0 -0.12093031457E+00  0.17900620412E-01 -0.67837442938E-01  0.89103675113E+00  0.88000000000E+00 0.  1.
        -11    1    4    4    0    0  0.45118035985E-01 -0.97491474284E-02  0.49257025544E-01  0.67507027288E-01  0.51100000000E-03 0.  1.
         11    1    4    4    0    0  0.53052302758E-01 -0.61565861812E-02  0.28430346443E-01  0.60506165812E-01  0.51100000000E-03 0. -1.
</event>
<event>
 8    1  0.1150863E+005  0.1043930E+01  0.7957747E-01            NaN
         13   -1    0    0    0    0  0.00000000000E+00  0.00000000000E+00  0.74505805969E-08  0.10566000000E+00  0.10566000000E+00 0. -1.
     999900   -1    0    0    0    0 -0.00000000000E+00 -0.00000000000E+00 -0.74505805969E-08  0.93827000000E+00  0.93827000000E+00 0.  1.
     999902    2    1    2    0    0 -0.21810033296E-01 -0.85422484402E-02  0.68689655707E-02  0.10195203657E+01  0.10192281127E+01 0.  0.
     999903    2    3    3    0    0 -0.62373211605E-01 -0.78198034294E-01  0.84323296783E-01  0.13244851211E+00  0.20660103711E-01 0.  0.
         14    1    1    2    0    0  0.21810033296E-01  0.85422484402E-02 -0.68689655707E-02  0.24409634344E-01  0.00000000000E+00 0.  1.
     999901    1    3    3    0    0  0.40563178309E-01  0.69655785853E-01 -0.77454331213E-01  0.88707185355E+00  0.88000000000E+00 0.  1.
        -11    1    4    4    0    0 -0.37380932768E-01 -0.34594629790E-01  0.33462518332E-01  0.60943611634E-01  0.51100000000E-03 0. -1.
         11    1    4    4    0    0 -0.24992278837E-01 -0.43603404504E-01  0.50860778452E-01  0.71504900472E-01  0.51100000000E-03 0.  1.
</event>
<event>
 8    1  0.1150863E+005  0.1043930E+01  0.7957747E-01            NaN
         13   -1    0    0    0    0  0.00000000000E+00  0.00000000000E+00  0.74505805969E-08  0.10566000000E+00  0.10566000000E+00 0.  1.
     999900   -1    0    0    0    0 -0.00000000000E+00 -0.00000000000E+00 -0.74505805969E-08  0.93827000000E+00  0.93827000000E+00 0. -1.
     999902    2    1    2    0    0  0.22716648224E-02  0.22732969708E-01  0.61358222147E-02  0.10202742039E+01  0.10199999287E+01 0.  0.
     999903    2    3    3    0    0 -0.86863320771E-02 -0.54769120936E-01 -0.11462666929E+00  0.12858466655E+00  0.17878316037E-01 0.  0.
         14    1    1    2    0    0 -0.22716648224E-02 -0.22732969708E-01 -0.61358222147E-02  0.23655796057E-01  0.00000000000E+00 0. -1.
     999901    1    3    3    0    0  0.10957996900E-01  0.77502090645E-01  0.12076249151E+00  0.89168953740E+00  0.88000000000E+00 0.  1.
        -11    1    4    4    0    0  0.46496237921E-02 -0.22589069449E-01 -0.38833529466E-01  0.45168453502E-01  0.51100000000E-03 0.  1.
         11    1    4    4    0    0 -0.13335955869E-01 -0.32180051487E-01 -0.75793139827E-01  0.83416213043E-01  0.51100000000E-03 0. -1.
</event>
<event>
 8    1  0.1150863E+005  0.1043930E+01  0.7957747E-01            NaN
         13   -1    0    0    0    0  0.00000000000E+00  0.00000000000E+00  0.74505805969E-08  0.10566000000E+00  0.10566000000E+00 0. -1.
     999900   -1    0    0    0    0 -0.00000000000E+00 -0.00000000000E+00 -0.74505805969E-08  0.93827000000E+00  0.93827000000E+00 0.  1.
     999902    2    1    2    0    0 -0.20037292007E-01  0.65946333853E-02  0.10324039382E-01  0.10204445141E+01  0.10201742195E+01 0.  0.
     999903    2    3    3    0    0 -0.91183369936E-01 -0.62392249556E-01  0.70940472768E-01  0.13280984461E+00  0.19967583504E-01 0.  0.
         14    1    1    2    0    0  0.20037292007E-01 -0.65946333853E-02 -0.10324039382E-01  0.23485485936E-01  0.00000000000E+00 0.  1.
     999901    1    3    3    0    0  0.71146077928E-01  0.68986882942E-01 -0.60616433386E-01  0.88763466946E+00  0.88000000000E+00 0.  1.
        -11    1    4    4    0    0 -0.43025516465E-01 -0.33714328075E-01  0.46068137740E-01  0.71486959793E-01  0.51100000000E-03 0. -1.
         11    1    4    4    0    0 -0.48157853470E-01 -0.28677921482E-01  0.24872335028E-01  0.61322884816E-01  0.51100000000E-03 0.  1.
</event>
<event>
 8    1  0.1150863E+005  0.1043930E+01  0.7957747E-01            NaN
         13   -1    0    0    0    0  0.00000000000E+00  0.00000000000E+00  0.74505805969E-08  0.10566000000E+00  0.10566000000E+00 0.  1.
     999900   -1    0    0    0    0 -0.00000000000E+00 -0.00000000000E+00 -0.74505805969E-08  0.93827000000E+00  0.93827000000E+00 0. -1.
     999902    2    1    2    0    0  0.12616669738E-01  0.20034610459E-01 -0.16812181535E-02  0.10201941102E+01  0.10199179526E+01 0.  0.
     999903    2    3    3    0    0 -0.11478028799E+00 -0.42534736841E-01 -0.32733060135E-01  0.12828092776E+00  0.20020610690E-01 0.  0.
         14    1    1    2    0    0 -0.12616669738E-01 -0.20034610459E-01  0.16812181535E-02  0.23735889829E-01  0.00000000000E+00 0. -1.
     999901    1    3    3    0    0  0.12739695773E+00  0.62569347300E-01  0.31051841982E-01  0.89191318241E+00  0.88000000000E+00 0. -1.
        -11    1    4    4    0    0 -0.20141541958E-01 -0.13444952119E-01 -0.75102321594E-03  0.24233728702E-01  0.51100000000E-03 0.  1.
         11    1    4    4    0    0 -0.94638746035E-01 -0.29089784722E-01 -0.31982036919E-01  0.10404719906E+00  0.51100000000E-03 0. -1.
</event>
<event>
 8    1  0.1150863E+005  0.1043930E+01  0.7957747E-01            NaN
         13   -1    0    0    0    0  0.00000000000E+00  0.00000000000E+00  0.74505805969E-08  0.10566000000E+00  0.10566000000E+00 0. -1.
     999900   -1    0    0    0    0 -0.00000000000E+00 -0.00000000000E+00 -0.74505805969E-08  0.93827000000E+00  0.93827000000E+00 0.  1.
     999902    2    1    2    0    0 -0.46101357920E-02  0.81991347909E-02  0.18891613926E-01  0.10228261558E+01  0.10226084161E+01 0.  0.
     999903    2    3    3    0    0 -0.55060181507E-01  0.11074419675E+00 -0.45161196316E-01  0.13312763420E+00  0.19685848557E-01 0.  0.
         14    1    1    2    0    0  0.46101357920E-02 -0.81991347909E-02 -0.18891613926E-01  0.21103844201E-01  0.00000000000E+00 0.  1.
     999901    1    3    3    0    0  0.50450045715E-01 -0.10254506195E+00  0.64052810242E-01  0.88969852160E+00  0.88000000000E+00 0.  1.
        -11    1    4    4    0    0 -0.51274530926E-01  0.97311503457E-01 -0.33642035392E-01  0.11502457952E+00  0.51100000000E-03 0. -1.
         11    1    4    4    0    0 -0.37856505813E-02  0.13432693289E-01 -0.11519160924E-01  0.18103054679E-01  0.51100000000E-03 0.  1.
</event>
<event>
 8    1  0.1150863E+005  0.1043930E+01  0.7957747E-01            NaN
         13   -1    0    0    0    0  0.00000000000E+00  0.00000000000E+00  0.74505805969E-08  0.10566000000E+00  0.10566000000E+00 0. -1.
     999900   -1    0    0    0    0 -0.00000000000E+00 -0.00000000000E+00 -0.74505805969E-08  0.93827000000E+00  0.93827000000E+00 0.  1.
     999902    2    1    2    0    0  0.13057635077E-01  0.14805172595E-01 -0.13559761775E-01  0.10199808433E+01  0.10196996413E+01 0.  0.
     999903    2    3    3    0    0  0.10478233254E+00 -0.75175742168E-01 -0.56919093424E-02  0.13061483972E+00  0.19927596413E-01 0.  0.
         14    1    1    2    0    0 -0.13057635077E-01 -0.14805172595E-01  0.13559761775E-01  0.23949156745E-01  0.00000000000E+00 0.  1.
     999901    1    3    3    0    0 -0.91724697466E-01  0.89980914763E-01 -0.78678524323E-02  0.88936600354E+00  0.88000000000E+00 0. -1.
        -11    1    4    4    0    0  0.75916079834E-01 -0.59895928459E-01 -0.11686833183E-01  0.97404397304E-01  0.51100000000E-03 0.  1.
         11    1    4    4    0    0  0.28866252709E-01 -0.15279813709E-01  0.59949238404E-02  0.33210442413E-01  0.51100000000E-03 0. -1.
</event>
<event>
 8    1  0.1150863E+005  0.1043930E+01  0.7957747E-01            NaN
         13   -1    0    0    0    0  0.00000000000E+00  0.00000000000E+00  0.74505805969E-08  0.10566000000E+00  0.10566000000E+00 0. -1.
     999900   -1    0    0    0    0 -0.00000000000E+00 -0.00000000000E+00 -0.74505805969E-08  0.93827000000E+00  0.93827000000E+00 0. -1.
     999902    2    1    2    0    0 -0.98789116506E-02 -0.19744083181E-01  0.28373559998E-02  0.10216707928E+01  0.10214282826E+01 0.  0.
     999903    2    3    3    0    0 -0.99650835936E-01  0.74817092499E-01 -0.36698571365E-01  0.13118558580E+00  0.18302632287E-01 0.  0.
         14    1    1    2    0    0  0.98789116506E-02  0.19744083181E-01 -0.28373559998E-02  0.22259207199E-01  0.00000000000E+00 0.  1.
     999901    1    3    3    0    0  0.89771924285E-01 -0.94561175680E-01  0.39535927365E-01  0.89048520700E+00  0.88000000000E+00 0.  1.
        -11    1    4    4    0    0 -0.70693442983E-01  0.42415173327E-01 -0.25709779530E-01  0.86358923648E-01  0.51100000000E-03 0. -1.
         11    1    4    4    0    0 -0.28957392952E-01  0.32401919172E-01 -0.10988791835E-01  0.44826662151E-01  0.51100000000E-03 0.  1.
</event>
<event>
 8    1  0.1150863E+005  0.1043930E+01  0.7957747E-01            NaN
         13   -1    0    0    0    0  0.00000000000E+00  0.00000000000E+00  0.74505805969E-08  0.10566000000E+00  0.10566000000E+00 0.  1.
     999900   -1    0    0    0    0 -0.00000000000E+00 -0.00000000000E+00 -0.74505805969E-08  0.93827000000E+00  0.93827000000E+00 0.  1.
     999902    2    1    2    0    0 -0.19806792632E-01 -0.62771799869E-02 -0.11000669838E-01  0.10204198584E+01  0.10201489894E+01 0.  0.
     999903    2    3    3    0    0 -0.31886433849E-01  0.12493280052E+00 -0.74312450386E-02  0.13060262010E+00  0.19413182756E-01 0.  0.
         14    1    1    2    0    0  0.19806792632E-01  0.62771799869E-02  0.11000669838E-01  0.23510141638E-01  0.00000000000E+00 0.  1.
     999901    1    3    3    0    0  0.12079641218E-01 -0.13120998051E+00 -0.35694247994E-02  0.88981723826E+00  0.88000000000E+00 0. -1.
        -11    1    4    4    0    0 -0.22256038264E-01  0.65997371588E-01  0.41353745411E-02  0.69773538963E-01  0.51100000000E-03 0.  1.
         11    1    4    4    0    0 -0.96303955851E-02  0.58935428931E-01 -0.11566619580E-01  0.60829081137E-01  0.51100000000E-03 0. -1.
</event>
<event>
 8    1  0.1150863E+005  0.1043930E+01  0.7957747E-01            NaN
         13   -1    0    0    0    0  0.00000000000E+00  0.00000000000E+00  0.74505805969E-08  0.10566000000E+00  0.10566000000E+00 0.  1.
     999900   -1    0    0    0    0 -0.00000000000E+00 -0.00000000000E+00 -0.74505805969E-08  0.93827000000E+00  0.93827000000E+00 0.  1.
     999902    2    1    2    0    0  0.18054852730E-01 -0.27847447535E-02 -0.14389509845E-01  0.10206750972E+01  0.10204101448E+01 0.  0.
     999903    2    3    3    0    0 -0.76744310480E-01  0.94153957781E-01 -0.41352236587E-01  0.12988276337E+00  0.20121326788E-01 0.  0.
         14    1    1    2    0    0 -0.18054852730E-01  0.27847447535E-02  0.14389509845E-01  0.23254902795E-01  0.00000000000E+00 0.  1.
     999901    1    3    3    0    0  0.94799163209E-01 -0.96938702535E-01  0.26962726742E-01  0.89079233384E+00  0.88000000000E+00 0.  1.
        -11    1    4    4    0    0 -0.61832834595E-01  0.70666882404E-01 -0.23412745573E-01  0.96775645071E-01  0.51100000000E-03 0.  1.
         11    1    4    4    0    0 -0.14911475884E-01  0.23487075378E-01 -0.17939491015E-01  0.33107118294E-01  0.51100000000E-03 0. -1.
</event>
<event>
 8    1  0.1150863E+005  0.1043930E+01  0.7957747E-01            NaN
         13   -1    0    0    0    0  0.00000000000E+00  0.00000000000E+00  0.74505805969E-08  0.10566000000E+00  0.10566000000E+00 0.  1.
     999900   -1    0    0    0    0 -0.00000000000E+00 -0.00000000000E+00 -0.74505805969E-08  0.93827000000E+00  0.93827000000E+00 0.  1.
     999902    2    1    2    0    0 -0.14816350933E-01 -0.12141540123E-02 -0.18602769977E-01  0.10201169474E+01  0.10198389700E+01 0.  0.
     999903    2    3    3    0    0  0.66341639845E-01 -0.10932334658E+00  0.29315460642E-02  0.12953402380E+00  0.20436782362E-01 0.  0.
         14    1    1    2    0    0  0.14816350933E-01  0.12141540123E-02  0.18602769977E-01  0.23813052634E-01  0.00000000000E+00 0.  1.
     999901    1    3    3    0    0 -0.81157990777E-01  0.10810919257E+00 -0.21534316041E-01  0.89058292357E+00  0.88000000000E+00 0.  1.
        -11    1    4    4    0    0  0.25779527731E-01 -0.30367891160E-01  0.79592101200E-02  0.40625152434E-01  0.51100000000E-03 0.  1.
         11    1    4    4    0    0  0.40562112113E-01 -0.78955455423E-01 -0.50276640558E-02  0.88908871363E-01  0.51100000000E-03 0. -1.
</event>
<event>
 8    1  0.1150863E+005  0.1043930E+01  0.7957747E-01            NaN
         13   -1    0    0    0    0  0.00000000000E+00  0.00000000000E+00  0.74505805969E-08  0.10566000000E+00  0.10566000000E+00 0.  1.
     999900   -1    0    0    0    0 -0.00000000000E+00 -0.00000000000E+00 -0.74505805969E-08  0.93827000000E+00  0.93827000000E+00 0. -1.
     999902    2    1    2    0    0 -0.17815577768E-01 -0.52520349961E-02  0.10890297660E-01  0.10223991555E+01  0.10221724198E+01 0.  0.
     999903    2    3    3    0    0  0.12096474192E+00 -0.21616376370E-01  0.40158434056E-01  0.13089234529E+00  0.20502919631E-01 0.  0.
         14    1    1    2    0    0  0.17815577768E-01  0.52520349961E-02 -0.10890297660E-01  0.21530844524E-01  0.00000000000E+00 0. -1.
     999901    1    3    3    0    0 -0.13878031969E+00  0.16364341373E-01 -0.29268136396E-01  0.89150681019E+00  0.88000000000E+00 0. -1.
        -11    1    4    4    0    0  0.15499791770E-01 -0.29268104375E-02  0.12862441543E-01  0.20359599399E-01  0.51100000000E-03 0. -1.
         11    1    4    4    0    0  0.10546495015E+00 -0.18689565932E-01  0.27295992513E-01  0.11053274589E+00  0.51100000000E-03 0.  1.
</event>
<event>
 8    1  0.1150863E+005  0.1043930E+01  0.7957747E-01            NaN
         13   -1    0    0    0    0  0.00000000000E+00  0.00000000000E+00  0.74505805969E-08  0.10566000000E+00  0.10566000000E+00 0.  1.
     999900   -1    0    0    0    0 -0.00000000000E+00 -0.00000000000E+00 -0.74505805969E-08  0.93827000000E+00  0.93827000000E+00 0. -1.
     999902    2    1    2    0    0 -0.10436086713E-01  0.11625197841E-01  0.18466073877E-01  0.10197421308E+01  0.10194552273E+01 0.  0.
     999903    2    3    3    0    0  0.58185035608E-01  0.48694217556E-01 -0.10112979007E+00  0.12823433988E+00  0.21451953102E-01 0.  0.
         14    1    1    2    0    0  0.10436086713E-01 -0.11625197841E-01 -0.18466073877E-01  0.24187869173E-01  0.00000000000E+00 0. -1.
     999901    1    3    3    0    0 -0.68621122321E-01 -0.37069019716E-01  0.11959586395E+00  0.89150779095E+00  0.88000000000E+00 0.  1.
        -11    1    4    4    0    0  0.17660511167E-01  0.10584385160E-01 -0.14159841376E-01  0.24993701060E-01  0.51100000000E-03 0. -1.
         11    1    4    4    0    0  0.40524524441E-01  0.38109832396E-01 -0.86969948693E-01  0.10324063882E+00  0.51100000000E-03 0.  1.
</event>
<event>
 8    1  0.1150863E+005  0.1043930E+01  0.7957747E-01            NaN
         13   -1    0    0    0    0  0.00000000000E+00  0.00000000000E+00  0.74505805969E-08  0.10566000000E+00  0.10566000000E+00 0.  1.
     999900   -1    0    0    0    0 -0.00000000000E+00 -0.00000000000E+00 -0.74505805969E-08  0.93827000000E+00  0.93827000000E+00 0. -1.
     999902    2    1    2    0    0  0.16799470790E-01  0.74630181040E-02 -0.16827103598E-01  0.10190087185E+01  0.10187039305E+01 0.  0.
     999903    2    3    3    0    0  0.12145149471E+00 -0.44655395930E-01  0.61337449551E-02  0.13097967853E+00  0.19325718806E-01 0.  0.
         14    1    1    2    0    0 -0.16799470790E-01 -0.74630181040E-02  0.16827103598E-01  0.24921281539E-01  0.00000000000E+00 0.  1.
     999901    1    3    3    0    0 -0.10465202392E+00  0.52118414034E-01 -0.22960848553E-01  0.88802903993E+00  0.88000000000E+00 0. -1.
        -11    1    4    4    0    0  0.42611544604E-01 -0.14014778508E-01 -0.69247160728E-02  0.45391304937E-01  0.51100000000E-03 0. -1.
         11    1    4    4    0    0  0.78839950109E-01 -0.30640617422E-01  0.13058461028E-01  0.85588373594E-01  0.51100000000E-03 0.  1.
</event>
<event>
 8    1  0.1150863E+005  0.1043930E+01  0.7957747E-01            NaN
         13   -1    0    0    0    0  0.00000000000E+00  0.00000000000E+00  0.74505805969E-08  0.10566000000E+00  0.10566000000E+00 0.  1.
     999900   -1    0    0    0    0 -0.00000000000E+00 -0.00000000000E+00 -0.74505805969E-08  0.93827000000E+00  0.93827000000E+00 0.  1.
     999902    2    1    2    0    0  0.13145383100E-02  0.19995661787E-01  0.13658815415E-01  0.10196788611E+01  0.10193904365E+01 0.  0.
     999903    2    3    3    0    0  0.39939085944E-01 -0.10663469515E+00 -0.53287484553E-01  0.12726140826E+00  0.19743890902E-01 0.  0.
         14    1    1    2    0    0 -0.13145383100E-02 -0.19995661787E-01 -0.13658815415E-01  0.24251138938E-01  0.00000000000E+00 0.  1.
     999901    1    3    3    0    0 -0.38624547634E-01  0.12663035694E+00  0.66946299968E-01  0.89241745280E+00  0.88000000000E+00 0. -1.
        -11    1    4    4    0    0  0.19072999832E-01 -0.33887989526E-01 -0.26136468375E-01  0.46856709838E-01  0.51100000000E-03 0.  1.
         11    1    4    4    0    0  0.20866086112E-01 -0.72746705623E-01 -0.27151016179E-01  0.80404698427E-01  0.51100000000E-03 0. -1.
</event>
<event>
 7    1  0.1150863E+005  0.1043930E+01  0.7957747E-01            NaN
         13   -1    0    0    0    0  0.00000000000E+00  0.00000000000E+00  0.74505805969E-08  0.10566000000E+00  0.10566000000E+00 0. -1.
     999900   -1    0    0    0    0 -0.00000000000E+00 -0.00000000000E+00 -0.74505805969E-08  0.93827000000E+00  0.93827000000E+00 0.  1.
     999903    2    1    2    0    0  0.41391858203E-01  0.94212041631E-01 -0.58003302877E-01  0.11980236795E+00  0.19975722939E-01 0.  0.
         14    1    1    2    0    0 -0.15827214049E-01 -0.48287743749E-03  0.35075567689E-01  0.38484143798E-01  0.00000000000E+00 0. -1.
     999901    1    1    2    0    0 -0.25564644154E-01 -0.93729164193E-01  0.22927735188E-01  0.88564348826E+00  0.88000000000E+00 0.  1.
        -11    1    3    3    0    0  0.40904396062E-01  0.73632636331E-01 -0.46708035646E-01  0.96316335401E-01  0.51100000000E-03 0. -1.
         11    1    3    3    0    0  0.48746214070E-03  0.20579405300E-01 -0.11295267231E-01  0.23486032544E-01  0.51100000000E-03 0.  1.
</event>
<event>
 8    1  0.1150863E+005  0.1043930E+01  0.7957747E-01            NaN
         13   -1    0    0    0    0  0.00000000000E+00  0.00000000000E+00  0.74505805969E-08  0.10566000000E+00  0.10566000000E+00 0. -1.
     999900   -1    0    0    0    0 -0.00000000000E+00 -0.00000000000E+00 -0.74505805969E-08  0.93827000000E+00  0.93827000000E+00 0.  1.
     999902    2    1    2    0    0 -0.17075388237E-01  0.11375400832E-01  0.13355606853E-01  0.10194485609E+01  0.10191545650E+01 0.  0.
     999903    2    3    3    0    0 -0.47746032641E-01 -0.24811357653E-01  0.11839883786E+00  0.13193278619E+00  0.22196580035E-01 0.  0.
         14    1    1    2    0    0  0.17075388237E-01 -0.11375400832E-01 -0.13355606853E-01  0.24481439131E-01  0.00000000000E+00 0.  1.
     999901    1    3    3    0    0  0.30670644405E-01  0.36186758485E-01 -0.10504323100E+00  0.88751577468E+00  0.88000000000E+00 0.  1.
        -11    1    4    4    0    0 -0.39690759073E-01 -0.12325473802E-01  0.71156710032E-01  0.82406384242E-01  0.51100000000E-03 0. -1.
         11    1    4    4    0    0 -0.80552735677E-02 -0.12485883851E-01  0.47242127826E-01  0.49526401952E-01  0.51100000000E-03 0.  1.
</event>
<event>
 7    1  0.1150863E+005  0.1043930E+01  0.7957747E-01            NaN
         13   -1    0    0    0    0  0.00000000000E+00  0.00000000000E+00  0.74505805969E-08  0.10566000000E+00  0.10566000000E+00 0.  1.
     999900   -1    0    0    0    0 -0.00000000000E+00 -0.00000000000E+00 -0.74505805969E-08  0.93827000000E+00  0.93827000000E+00 0.  1.
     999903    2    1    2    0    0  0.10355524725E-01  0.72908728609E-01  0.44350500221E-01  0.88561829665E-01  0.21291106223E-01 0.  0.
         14    1    1    2    0    0  0.16612622155E-02 -0.30228220982E-01 -0.67467713487E-01  0.73948613909E-01  0.00000000000E+00 0. -1.
     999901    1    1    2    0    0 -0.12016786941E-01 -0.42680507626E-01  0.23117213267E-01  0.88141955643E+00  0.88000000000E+00 0. -1.
        -11    1    3    3    0    0  0.10234296142E-01  0.64640919481E-01  0.46151596395E-01  0.80083832699E-01  0.51100000000E-03 0.  1.
         11    1    3    3    0    0  0.12122858302E-03  0.82678091274E-02 -0.18010961745E-02  0.84779969666E-02  0.51100000000E-03 0. -1.
</event>
<event>
 8    1  0.1150863E+005  0.1043930E+01  0.7957747E-01            NaN
         13   -1    0    0    0    0  0.00000000000E+00  0.00000000000E+00  0.74505805969E-08  0.10566000000E+00  0.10566000000E+00 0.  1.
     999900   -1    0    0    0    0 -0.00000000000E+00 -0.00000000000E+00 -0.74505805969E-08  0.93827000000E+00  0.93827000000E+00 0.  1.
     999902    2    1    2    0    0 -0.33032670184E-01 -0.59512193161E-02  0.11208089479E-01  0.10085436244E+01  0.10079226392E+01 0.  0.
     999903    2    3    3    0    0  0.86197819053E-01  0.74898467176E-01 -0.13454579947E-01  0.11648934988E+00  0.18678825397E-01 0.  0.
         14    1    1    2    0    0  0.33032670184E-01  0.59512193161E-02 -0.11208089479E-01  0.35386375635E-01  0.00000000000E+00 0.  1.
     999901    1    3    3    0    0 -0.11923048924E+00 -0.80849686492E-01  0.24662669426E-01  0.89205427449E+00  0.88000000000E+00 0. -1.
        -11    1    4    4    0    0  0.67308568151E-01  0.47619677649E-01 -0.77129249562E-02  0.82812000208E-01  0.51100000000E-03 0. -1.
         11    1    4    4    0    0  0.18889250902E-01  0.27278789527E-01 -0.57416549909E-02  0.33677349669E-01  0.51100000000E-03 0.  1.
</event>
<event>
 8    1  0.1150863E+005  0.1043930E+01  0.7957747E-01            NaN
         13   -1    0    0    0    0  0.00000000000E+00  0.00000000000E+00  0.74505805969E-08  0.10566000000E+00  0.10566000000E+00 0.  1.
     999900   -1    0    0    0    0 -0.00000000000E+00 -0.00000000000E+00 -0.74505805969E-08  0.93827000000E+00  0.93827000000E+00 0. -1.
     999902    2    1    2    0    0 -0.21455801338E-02  0.21788700712E-01 -0.64625279343E-02  0.10211020509E+01  0.10208468461E+01 0.  0.
     999903    2    3    3    0    0 -0.18428836122E-04 -0.12532154814E+00 -0.22085202485E-01  0.12875121292E+00  0.19586421089E-01 0.  0.
         14    1    1    2    0    0  0.21455801338E-02 -0.21788700712E-01  0.64625279343E-02  0.22827949100E-01  0.00000000000E+00 0. -1.
     999901    1    3    3    0    0 -0.21271512977E-02  0.14711024885E+00  0.15622674551E-01  0.89235083798E+00  0.88000000000E+00 0. -1.
        -11    1    4    4    0    0 -0.29240473908E-03 -0.47293760604E-01  0.12269388803E-02  0.47313336308E-01  0.51100000000E-03 0. -1.
         11    1    4    4    0    0  0.27397590296E-03 -0.78027787535E-01 -0.23312141365E-01  0.81437876608E-01  0.51100000000E-03 0.  1.
</event>
<event>
 8    1  0.1150863E+005  0.1043930E+01  0.7957747E-01            NaN
         13   -1    0    0    0    0  0.00000000000E+00  0.00000000000E+00  0.74505805969E-08  0.10566000000E+00  0.10566000000E+00 0.  1.
     999900   -1    0    0    0    0 -0.00000000000E+00 -0.00000000000E+00 -0.74505805969E-08  0.93827000000E+00  0.93827000000E+00 0.  1.
     999902    2    1    2    0    0 -0.13458593527E-01 -0.25712512743E-03  0.19723368717E-01  0.10200509061E+01  0.10197713665E+01 0.  0.
     999903    2    3    3    0    0  0.30703981160E-01  0.11005806746E+00 -0.55971575367E-01  0.12884414035E+00  0.20309667193E-01 0.  0.
         14    1    1    2    0    0  0.13458593527E-01  0.25712512743E-03 -0.19723368717E-01  0.23879093924E-01  0.00000000000E+00 0. -1.
     999901    1    3    3    0    0 -0.44162574687E-01 -0.11031519259E+00  0.75694944085E-01  0.89120676573E+00  0.88000000000E+00 0. -1.
        -11    1    4    4    0    0  0.16021787844E-01  0.24898648039E-01 -0.15379779194E-01  0.33368234729E-01  0.51100000000E-03 0.  1.
         11    1    4    4    0    0  0.14682193316E-01  0.85159419419E-01 -0.40591796174E-01  0.95475905620E-01  0.51100000000E-03 0. -1.
</event>
<event>
 8    1  0.1150863E+005  0.1043930E+01  0.7957747E-01            NaN
         13   -1    0    0    0    0  0.00000000000E+00  0.00000000000E+00  0.74505805969E-08  0.10566000000E+00  0.10566000000E+00 0. -1.
     999900   -1    0    0    0    0 -0.00000000000E+00 -0.00000000000E+00 -0.74505805969E-08  0.93827000000E+00  0.93827000000E+00 0.  1.
     999902    2    1    2    0    0  0.21856600168E-01 -0.84996338139E-02  0.21751705528E-03  0.10204778773E+01  0.10202083591E+01 0.  0.
     999903    2    3    3    0    0 -0.58733652379E-01 -0.11101817944E+00  0.29121395598E-01  0.13039907449E+00  0.19523956012E-01 0.  0.
         14    1    1    2    0    0 -0.21856600168E-01  0.84996338139E-02 -0.21751705528E-03  0.23452122709E-01  0.00000000000E+00 0.  1.
     999901    1    3    3    0    0  0.80590252548E-01  0.10251854562E+00 -0.28903878543E-01  0.89007880280E+00  0.88000000000E+00 0.  1.
        -11    1    4    4    0    0 -0.25990600860E-01 -0.50953595442E-01  0.23215140597E-01  0.61733168520E-01  0.51100000000E-03 0.  1.
         11    1    4    4    0    0 -0.32743051520E-01 -0.60064583996E-01  0.59062550012E-02  0.68665905969E-01  0.51100000000E-03 0. -1.
</event>
<event>
 8    1  0.1150863E+005  0.1043930E+01  0.7957747E-01            NaN
         13   -1    0    0    0    0  0.00000000000E+00  0.00000000000E+00  0.74505805969E-08  0.10566000000E+00  0.10566000000E+00 0. -1.
     999900   -1    0    0    0    0 -0.00000000000E+00 -0.00000000000E+00 -0.74505805969E-08  0.93827000000E+00  0.93827000000E+00 0.  1.
     999902    2    1    2    0    0  0.42671540509E-02 -0.11800350101E-02 -0.33864299267E-01  0.10097775206E+01  0.10091998064E+01 0.  0.
     999903    2    3    3    0    0  0.78367938183E-01 -0.86498101145E-01 -0.30527822297E-01  0.12254517744E+00  0.21492262396E-01 0.  0.
         14    1    1    2    0    0 -0.42671540509E-02  0.11800350101E-02  0.33864299267E-01  0.34152479430E-01  0.00000000000E+00 0. -1.
     999901    1    3    3    0    0 -0.74100784132E-01  0.85318066134E-01 -0.33364769707E-02  0.88723234313E+00  0.88000000000E+00 0. -1.
        -11    1    4    4    0    0  0.57974468465E-01 -0.49187131943E-01 -0.16845971765E-01  0.77874648174E-01  0.51100000000E-03 0.  1.
         11    1    4    4    0    0  0.20393469719E-01 -0.37310969202E-01 -0.13681850531E-01  0.44670529266E-01  0.51100000000E-03 0. -1.
</event>
<event>
 8    1  0.1150863E+005  0.1043930E+01  0.7957747E-01            NaN
         13   -1    0    0    0    0  0.00000000000E+00  0.00000000000E+00  0.74505805969E-08  0.10566000000E+00  0.10566000000E+00 0.  1.
     999900   -1    0    0    0    0 -0.00000000000E+00 -0.00000000000E+00 -0.74505805969E-08  0.93827000000E+00  0.93827000000E+00 0.  1.
     999902    2    1    2    0    0 -0.11158152631E-01 -0.16134628773E-01 -0.13543201703E-01  0.10200920276E+01  0.10198134613E+01 0.  0.
     999903    2    3    3    0    0 -0.11530418884E+00  0.46668591960E-02 -0.61515812860E-01  0.13240938714E+00  0.20765717667E-01 0.  0.
         14    1    1    2    0    0  0.11158152631E-01  0.16134628773E-01  0.13543201703E-01  0.23837972400E-01  0.00000000000E+00 0.  1.
     999901    1    3    3    0    0  0.10414603621E+00 -0.20801487969E-01  0.47972611157E-01  0.88768264046E+00  0.88000000000E+00 0. -1.
        -11    1    4    4    0    0 -0.75121360234E-01 -0.59302241873E-02 -0.34806279798E-01  0.83006774162E-01  0.51100000000E-03 0. -1.
         11    1    4    4    0    0 -0.40182828609E-01  0.10597083383E-01 -0.26709533062E-01  0.49402612974E-01  0.51100000000E-03 0.  1.
</event>
<event>
 8    1  0.1150863E+005  0.1043930E+01  0.7957747E-01            NaN
         13   -1    0    0    0    0  0.00000000000E+00  0.00000000000E+00  0.74505805969E-08  0.10566000000E+00  0.10566000000E+00 0.  1.
     999900   -1    0    0    0    0 -0.00000000000E+00 -0.00000000000E+00 -0.74505805969E-08  0.93827000000E+00  0.93827000000E+00 0.  1.
     999902    2    1    2    0    0 -0.57661781783E-02  0.46999521901E-02  0.21896533108E-01  0.10208043319E+01  0.10205423497E+01 0.  0.
     999903    2    3    3    0    0 -0.95969987565E-03  0.52412947579E-01 -0.11589471204E+00  0.12879196688E+00  0.20192779816E-01 0.  0.
         14    1    1    2    0    0  0.57661781783E-02 -0.46999521901E-02 -0.21896533108E-01  0.23125668067E-01  0.00000000000E+00 0. -1.
     999901    1    3    3    0    0 -0.48064783027E-02 -0.47712995389E-01  0.13779124515E+00  0.89201236505E+00  0.88000000000E+00 0. -1.
        -11    1    4    4    0    0 -0.38543697340E-02  0.19010335745E-01 -0.23351669632E-01  0.30361334404E-01  0.51100000000E-03 0.  1.
         11    1    4    4    0    0  0.28946698584E-02  0.33402611835E-01 -0.92543042409E-01  0.98430632479E-01  0.51100000000E-03 0. -1.
</event>
<event>
 8    1  0.1150863E+005  0.1043930E+01  0.7957747E-01            NaN
         13   -1    0    0    0    0  0.00000000000E+00  0.00000000000E+00  0.74505805969E-08  0.10566000000E+00  0.10566000000E+00 0.  1.
     999900   -1    0    0    0    0 -0.00000000000E+00 -0.00000000000E+00 -0.74505805969E-08  0.93827000000E+00  0.93827000000E+00 0.  1.
     999902    2    1    2    0    0 -0.52920606436E-03  0.17123751529E-01  0.15790295038E-01  0.10206311515E+01  0.10203651851E+01 0.  0.
     999903    2    3    3    0    0  0.26923528042E-01 -0.82519655550E-01  0.95823917112E-01  0.13097512702E+00  0.20925842681E-01 0.  0.
         14    1    1    2    0    0  0.52920606436E-03 -0.17123751529E-01 -0.15790295038E-01  0.23298848530E-01  0.00000000000E+00 0. -1.
     999901    1    3    3    0    0 -0.27452734106E-01  0.99643407078E-01 -0.80033622074E-01  0.88965602445E+00  0.88000000000E+00 0. -1.
        -11    1    4    4    0    0  0.20087165510E-01 -0.48643096181E-01  0.43570066654E-01  0.68324643091E-01  0.51100000000E-03 0. -1.
         11    1    4    4    0    0  0.68363625315E-02 -0.33876559369E-01  0.52253850458E-01  0.62650483925E-01  0.51100000000E-03 0.  1.
</event>
<event>
 8    1  0.1150863E+005  0.1043930E+01  0.7957747E-01            NaN
         13   -1    0    0    0    0  0.00000000000E+00  0.00000000000E+00  0.74505805969E-08  0.10566000000E+00  0.10566000000E+00 0. -1.
     999900   -1    0    0    0    0 -0.00000000000E+00 -0.00000000000E+00 -0.74505805969E-08  0.93827000000E+00  0.93827000000E+00 0.  1.
     999902    2    1    2    0    0 -0.22348282765E-01  0.76758215566E-02  0.42683184517E-02  0.10199178672E+01  0.10196351668E+01 0.  0.
     999903    2    3    3    0    0 -0.81313010593E-01  0.47390978573E-01  0.91493687324E-01  0.13275249491E+00  0.19859998539E-01 0.  0.
         14    1    1    2    0    0  0.22348282765E-01 -0.76758215566E-02 -0.42683184517E-02  0.24012132798E-01  0.00000000000E+00 0.  1.
     999901    1    3    3    0    0  0.58964727827E-01 -0.39715157017E-01 -0.87225368872E-01  0.88716537230E+00  0.88000000000E+00 0.  1.
        -11    1    4    4    0    0 -0.24021147348E-01  0.12851190513E-01  0.14898482574E-01  0.31054702084E-01  0.51100000000E-03 0.  1.
         11    1    4    4    0    0 -0.57291863245E-01  0.34539788061E-01  0.76595204750E-01  0.10169779282E+00  0.51100000000E-03 0. -1.
</event>
<event>
 8    1  0.1157364E+005  0.1043930E+01  0.7957747E-01            NaN
         13   -1    0    0    0    0  0.00000000000E+00  0.00000000000E+00  0.74505805969E-08  0.10566000000E+00  0.10566000000E+00 0. -1.
     999900   -1    0    0    0    0 -0.00000000000E+00 -0.00000000000E+00 -0.74505805969E-08  0.93827000000E+00  0.93827000000E+00 0.  1.
     999902    2    1    2    0    0 -0.17640545713E-01  0.13046971091E-01  0.94146252706E-02  0.10200543330E+01  0.10197748745E+01 0.  0.
     999903    2    3    3    0    0 -0.63084199022E-01  0.63935198153E-01 -0.93925684593E-01  0.13138456475E+00  0.19301396319E-01 0.  0.
         14    1    1    2    0    0  0.17640545713E-01 -0.13046971091E-01 -0.94146252706E-02  0.23875667041E-01  0.00000000000E+00 0.  1.
     999901    1    3    3    0    0  0.45443653309E-01 -0.50888227062E-01  0.10334030986E+00  0.88866976821E+00  0.88000000000E+00 0. -1.
        -11    1    4    4    0    0 -0.44513121906E-01  0.32821631378E-01 -0.51292986304E-01  0.75431485953E-01  0.51100000000E-03 0. -1.
         11    1    4    4    0    0 -0.18571077116E-01  0.31113566775E-01 -0.42632698290E-01  0.55953078800E-01  0.51100000000E-03 0.  1.
</event>
<event>
 8    1  0.1150863E+005  0.1043930E+01  0.7957747E-01            NaN
         13   -1    0    0    0    0  0.00000000000E+00  0.00000000000E+00  0.74505805969E-08  0.10566000000E+00  0.10566000000E+00 0.  1.
     999900   -1    0    0    0    0 -0.00000000000E+00 -0.00000000000E+00 -0.74505805969E-08  0.93827000000E+00  0.93827000000E+00 0.  1.
     999902    2    1    2    0    0  0.51011935799E-02  0.12508125371E-01  0.21874427193E-01  0.10182207421E+01  0.10178961213E+01 0.  0.
     999903    2    3    3    0    0  0.11289449534E+00  0.48591185762E-01  0.41986194606E-01  0.13068152250E+00  0.14441238721E-01 0.  0.
         14    1    1    2    0    0 -0.51011935799E-02 -0.12508125371E-01 -0.21874427193E-01  0.25709257890E-01  0.00000000000E+00 0. -1.
     999901    1    3    3    0    0 -0.10779330176E+00 -0.36083060391E-01 -0.20111767413E-01  0.88753921961E+00  0.88000000000E+00 0.  1.
        -11    1    4    4    0    0  0.18879546078E-01  0.37773848041E-02  0.10164353651E-01  0.21777995826E-01  0.51100000000E-03 0. -1.
         11    1    4    4    0    0  0.94014949257E-01  0.44813800958E-01  0.31821840955E-01  0.10890352668E+00  0.51100000000E-03 0.  1.
</event>
<event>
 8    1  0.1150863E+005  0.1043930E+01  0.7957747E-01            NaN
         13   -1    0    0    0    0  0.00000000000E+00  0.00000000000E+00  0.74505805969E-08  0.10566000000E+00  0.10566000000E+00 0.  1.
     999900   -1    0    0    0    0 -0.00000000000E+00 -0.00000000000E+00 -0.74505805969E-08  0.93827000000E+00  0.93827000000E+00 0.  1.
     999902    2    1    2    0    0  0.11476852266E-01 -0.19146344463E-01 -0.46613178546E-02  0.10211258660E+01  0.10208711993E+01 0.  0.
     999903    2    3    3    0    0 -0.11876220542E+00  0.46047363769E-01  0.33190985695E-02  0.12911907296E+00  0.20878157037E-01 0.  0.
         14    1    1    2    0    0 -0.11476852266E-01  0.19146344463E-01  0.46613178546E-02  0.22804134019E-01  0.00000000000E+00 0.  1.
     999901    1    3    3    0    0  0.13023905769E+00 -0.65193708232E-01 -0.79804164241E-02  0.89200679302E+00  0.88000000000E+00 0. -1.
        -11    1    4    4    0    0 -0.10213753463E+00  0.35734792292E-01  0.94231271331E-02  0.10861909503E+00  0.51100000000E-03 0. -1.
         11    1    4    4    0    0 -0.16624670795E-01  0.10312571477E-01 -0.61040285635E-02  0.20499977932E-01  0.51100000000E-03 0.  1.
</event>
<event>
 8    1  0.1150863E+005  0.1043930E+01  0.7957747E-01            NaN
         13   -1    0    0    0    0  0.00000000000E+00  0.00000000000E+00  0.74505805969E-08  0.10566000000E+00  0.10566000000E+00 0. -1.
     999900   -1    0    0    0    0 -0.00000000000E+00 -0.00000000000E+00 -0.74505805969E-08  0.93827000000E+00  0.93827000000E+00 0.  1.
     999902    2    1    2    0    0 -0.13585698838E-01 -0.14108336557E-01  0.10370590079E-01  0.10217677458E+01  0.10215273666E+01 0.  0.
     999903    2    3    3    0    0 -0.10004787036E+00 -0.86127398652E-01 -0.13839508801E-01  0.13427206619E+00  0.20247236662E-01 0.  0.
         14    1    1    2    0    0  0.13585698838E-01  0.14108336557E-01 -0.10370590079E-01  0.22162254216E-01  0.00000000000E+00 0.  1.
     999901    1    3    3    0    0  0.86462171524E-01  0.72019062095E-01  0.24210098880E-01  0.88749567959E+00  0.88000000000E+00 0. -1.
        -11    1    4    4    0    0 -0.89918284118E-01 -0.68640746175E-01 -0.89745561770E-02  0.11347974988E+00  0.51100000000E-03 0.  1.
         11    1    4    4    0    0 -0.10129586245E-01 -0.17486652477E-01 -0.48649526240E-02  0.20792316306E-01  0.51100000000E-03 0. -1.
</event>
<event>
 8    1  0.1150863E+005  0.1043930E+01  0.7957747E-01            NaN
         13   -1    0    0    0    0  0.00000000000E+00  0.00000000000E+00  0.74505805969E-08  0.10566000000E+00  0.10566000000E+00 0. -1.
     999900   -1    0    0    0    0 -0.00000000000E+00 -0.00000000000E+00 -0.74505805969E-08  0.93827000000E+00  0.93827000000E+00 0. -1.
     999902    2    1    2    0    0  0.11183588223E-01  0.19863644946E-01  0.49560613051E-02  0.10206019144E+01  0.10203352724E+01 0.  0.
     999903    2    3    3    0    0  0.33949728504E-01  0.66346158363E-01  0.10836264241E+00  0.13303679437E+00  0.20048181794E-01 0.  0.
         14    1    1    2    0    0 -0.11183588223E-01 -0.19863644946E-01 -0.49560613051E-02  0.23328085642E-01  0.00000000000E+00 0.  1.
     999901    1    3    3    0    0 -0.22766140280E-01 -0.46482513417E-01 -0.10340658110E+00  0.88756511998E+00  0.88000000000E+00 0. -1.
        -11    1    4    4    0    0  0.57338049453E-02  0.84592322760E-02  0.29477103328E-01  0.31202497840E-01  0.51100000000E-03 0.  1.
         11    1    4    4    0    0  0.28215923558E-01  0.57886926087E-01  0.78885539078E-01  0.10183429653E+00  0.51100000000E-03 0. -1.
</event>
<event>
 8    1  0.1150863E+005  0.1043930E+01  0.7957747E-01            NaN
         13   -1    0    0    0    0  0.00000000000E+00  0.00000000000E+00  0.74505805969E-08  0.10566000000E+00  0.10566000000E+00 0. -1.
     999900   -1    0    0    0    0 -0.00000000000E+00 -0.00000000000E+00 -0.74505805969E-08  0.93827000000E+00  0.93827000000E+00 0. -1.
     999902    2    1    2    0    0 -0.21545102896E-01  0.10102573530E-01  0.70074785517E-02  0.10191235854E+01  0.10188216351E+01 0.  0.
     999903    2    3    3    0    0  0.76499857458E-01 -0.98976399294E-01 -0.65834522989E-02  0.12688160589E+00  0.20175337925E-01 0.  0.
         14    1    1    2    0    0  0.21545102896E-01 -0.10102573530E-01 -0.70074785517E-02  0.24806414621E-01  0.00000000000E+00 0.  1.
     999901    1    3    3    0    0 -0.98044960354E-01  0.10907897282E+00  0.13590930851E-01  0.89224197949E+00  0.88000000000E+00 0.  1.
        -11    1    4    4    0    0  0.42678894792E-01 -0.67825577912E-01 -0.10060256266E-01  0.80766744127E-01  0.51100000000E-03 0.  1.
         11    1    4    4    0    0  0.33820962667E-01 -0.31150821381E-01  0.34768039667E-02  0.46114861761E-01  0.51100000000E-03 0. -1.
</event>
<event>
 8    1  0.1150863E+005  0.1043930E+01  0.7957747E-01            NaN
         13   -1    0    0    0    0  0.00000000000E+00  0.00000000000E+00  0.74505805969E-08  0.10566000000E+00  0.10566000000E+00 0.  1.
     999900   -1    0    0    0    0 -0.00000000000E+00 -0.00000000000E+00 -0.74505805969E-08  0.93827000000E+00  0.93827000000E+00 0. -1.
     999902    2    1    2    0    0 -0.11577724139E-01 -0.13058885951E-01 -0.16038329696E-01  0.10202275483E+01  0.10199521773E+01 0.  0.
     999903    2    3    3    0    0  0.17468398181E-01  0.58988154866E-01 -0.11427450302E+00  0.13136040462E+00  0.20301391903E-01 0.  0.
         14    1    1    2    0    0  0.11577724139E-01  0.13058885951E-01  0.16038329696E-01  0.23702451729E-01  0.00000000000E+00 0.  1.
     999901    1    3    3    0    0 -0.29046122320E-01 -0.72047040818E-01  0.98236173320E-01  0.88886714365E+00  0.88000000000E+00 0.  1.
        -11    1    4    4    0    0  0.12579223340E-01  0.26108608425E-01 -0.35311441447E-01  0.45684300496E-01  0.51100000000E-03 0.  1.
         11    1    4    4    0    0  0.48891748409E-02  0.32879546442E-01 -0.78963061568E-01  0.85676104125E-01  0.51100000000E-03 0. -1.
</event>
<event>
 8    1  0.1150863E+005  0.1043930E+01  0.7957747E-01            NaN
         13   -1    0    0    0    0  0.00000000000E+00  0.00000000000E+00  0.74505805969E-08  0.10566000000E+00  0.10566000000E+00 0.  1.
     999900   -1    0    0    0    0 -0.00000000000E+00 -0.00000000000E+00 -0.74505805969E-08  0.93827000000E+00  0.93827000000E+00 0.  1.
     999902    2    1    2    0    0 -0.93522724826E-03 -0.18102891693E-01  0.15475695630E-01  0.10200954349E+01  0.10198169492E+01 0.  0.
     999903    2    3    3    0    0 -0.25670478470E-02 -0.22281768196E-01  0.12925802571E+00  0.13275866430E+00  0.20350892076E-01 0.  0.
         14    1    1    2    0    0  0.93522724826E-03  0.18102891693E-01 -0.15475695630E-01  0.23834565087E-01  0.00000000000E+00 0. -1.
     999901    1    3    3    0    0  0.16318205988E-02  0.41788765034E-02 -0.11378233008E+00  0.88733677061E+00  0.88000000000E+00 0.  1.
        -11    1    4    4    0    0  0.52292419762E-02 -0.77292001720E-02  0.85116274718E-01  0.85627839221E-01  0.51100000000E-03 0.  1.
         11    1    4    4    0    0 -0.77962898232E-02 -0.14552568024E-01  0.44141750989E-01  0.47130825077E-01  0.51100000000E-03 0. -1.
</event>
<event>
 8    1  0.1150863E+005  0.1043930E+01  0.7957747E-01            NaN
         13   -1    0    0    0    0  0.00000000000E+00  0.00000000000E+00  0.74505805969E-08  0.10566000000E+00  0.10566000000E+00 0. -1.
     999900   -1    0    0    0    0 -0.00000000000E+00 -0.00000000000E+00 -0.74505805969E-08  0.93827000000E+00  0.93827000000E+00 0. -1.
     999902    2    1    2    0    0 -0.96415310031E-03  0.12576437669E-01 -0.18464283983E-01  0.10215687353E+01  0.10213239715E+01 0.  0.
     999903    2    3    3    0    0  0.92438689747E-01  0.92929962569E-01  0.44918531721E-02  0.13268867352E+00  0.20130028059E-01 0.  0.
         14    1    1    2    0    0  0.96415310031E-03 -0.12576437669E-01  0.18464283983E-01  0.22361264692E-01  0.00000000000E+00 0. -1.
     999901    1    3    3    0    0 -0.93402842847E-01 -0.80353524901E-01 -0.22956137155E-01  0.88888006179E+00  0.88000000000E+00 0.  1.
        -11    1    4    4    0    0  0.65347310872E-01  0.76633082229E-01 -0.26341495710E-03  0.10071360801E+00  0.51100000000E-03 0.  1.
         11    1    4    4    0    0  0.27091378875E-01  0.16296880340E-01  0.47552681292E-02  0.31975065506E-01  0.51100000000E-03 0. -1.
</event>
<event>
 8    1  0.1150863E+005  0.1043930E+01  0.7957747E-01            NaN
         13   -1    0    0    0    0  0.00000000000E+00  0.00000000000E+00  0.74505805969E-08  0.10566000000E+00  0.10566000000E+00 0.  1.
     999900   -1    0    0    0    0 -0.00000000000E+00 -0.00000000000E+00 -0.74505805969E-08  0.93827000000E+00  0.93827000000E+00 0.  1.
     999902    2    1    2    0    0 -0.70621107004E-02  0.84330906412E-02 -0.19931232663E-01  0.10211650168E+01  0.10209112337E+01 0.  0.
     999903    2    3    3    0    0  0.11423103634E+00  0.59477996647E-01  0.11280479323E-01  0.13083261767E+00  0.20088874670E-01 0.  0.
         14    1    1    2    0    0  0.70621107004E-02 -0.84330906412E-02  0.19931232663E-01  0.22764983215E-01  0.00000000000E+00 0.  1.
     999901    1    3    3    0    0 -0.12129314704E+00 -0.51044906005E-01 -0.31211711986E-01  0.89033239911E+00  0.88000000000E+00 0.  1.
        -11    1    4    4    0    0  0.83920849958E-01  0.36515836768E-01  0.13684560425E-02  0.91532776564E-01  0.51100000000E-03 0. -1.
         11    1    4    4    0    0  0.30310186377E-01  0.22962159879E-01  0.99120232807E-02  0.39299841107E-01  0.51100000000E-03 0.  1.
</event>
<event>
 8    1  0.1150863E+005  0.1043930E+01  0.7957747E-01            NaN
         13   -1    0    0    0    0  0.00000000000E+00  0.00000000000E+00  0.74505805969E-08  0.10566000000E+00  0.10566000000E+00 0. -1.
     999900   -1    0    0    0    0 -0.00000000000E+00 -0.00000000000E+00 -0.74505805969E-08  0.93827000000E+00  0.93827000000E+00 0.  1.
     999902    2    1    2    0    0  0.87208129892E-02 -0.16756538882E-01  0.14118880375E-01  0.10203465957E+01  0.10200740162E+01 0.  0.
     999903    2    3    3    0    0 -0.42458763321E-01  0.11016304347E+00  0.48085733718E-01  0.12912177754E+00  0.20531753908E-01 0.  0.
         14    1    1    2    0    0 -0.87208129892E-02  0.16756538882E-01 -0.14118880375E-01  0.23583404283E-01  0.00000000000E+00 0.  1.
     999901    1    3    3    0    0  0.51179576310E-01 -0.12691958235E+00 -0.33966853342E-01  0.89122481818E+00  0.88000000000E+00 0.  1.
        -11    1    4    4    0    0 -0.38858994395E-01  0.10771821542E+00  0.49144741113E-01  0.12461421299E+00  0.51100000000E-03 0.  1.
         11    1    4    4    0    0 -0.35997689257E-02  0.24448280476E-02 -0.10590073955E-02  0.45075645491E-02  0.51100000000E-03 0. -1.
</event>
<event>
 8    1  0.1150863E+005  0.1043930E+01  0.7957747E-01            NaN
         13   -1    0    0    0    0  0.00000000000E+00  0.00000000000E+00  0.74505805969E-08  0.10566000000E+00  0.10566000000E+00 0.  1.
     999900   -1    0    0    0    0 -0.00000000000E+00 -0.00000000000E+00 -0.74505805969E-08  0.93827000000E+00  0.93827000000E+00 0. -1.
     999902    2    1    2    0    0 -0.31138663703E-02  0.13646818283E-01  0.17899829029E-01  0.10212069788E+01  0.10209541409E+01 0.  0.
     999903    2    3    3    0    0 -0.12848135897E+00 -0.96352557635E-02  0.20312647903E-01  0.13201358878E+00  0.20363845417E-01 0.  0.
         14    1    1    2    0    0  0.31138663703E-02 -0.13646818283E-01 -0.17899829029E-01  0.22723021196E-01  0.00000000000E+00 0. -1.
     999901    1    3    3    0    0  0.12536749260E+00  0.23282074046E-01 -0.24128188740E-02  0.88919339003E+00  0.88000000000E+00 0.  1.
        -11    1    4    4    0    0 -0.84956697297E-01 -0.62899734646E-02  0.35965240398E-02  0.85266642294E-01  0.51100000000E-03 0. -1.
         11    1    4    4    0    0 -0.43524661674E-01 -0.33452822990E-02  0.16716123863E-01  0.46746946483E-01  0.51100000000E-03 0.  1.
</event>
<event>
 8    1  0.1150863E+005  0.1043930E+01  0.7957747E-01            NaN
         13   -1    0    0    0    0  0.00000000000E+00  0.00000000000E+00  0.74505805969E-08  0.10566000000E+00  0.10566000000E+00 0. -1.
     999900   -1    0    0    0    0 -0.00000000000E+00 -0.00000000000E+00 -0.74505805969E-08  0.93827000000E+00  0.93827000000E+00 0. -1.
     999902    2    1    2    0    0 -0.10172727210E-01 -0.28570312616E-02 -0.21731517240E-01  0.10197658561E+01  0.10194795219E+01 0.  0.
     999903    2    3    3    0    0  0.11633635889E+00 -0.33382940581E-01 -0.43301107137E-01  0.12993349710E+00  0.18951481950E-01 0.  0.
         14    1    1    2    0    0  0.10172727210E-01  0.28570312616E-02  0.21731517240E-01  0.24164143852E-01  0.00000000000E+00 0. -1.
     999901    1    3    3    0    0 -0.12650908610E+00  0.30525909319E-01  0.21569589897E-01  0.88983235905E+00  0.88000000000E+00 0.  1.
        -11    1    4    4    0    0  0.34973754643E-01 -0.16887711228E-01 -0.76710613451E-02  0.39591218818E-01  0.51100000000E-03 0.  1.
         11    1    4    4    0    0  0.81362604244E-01 -0.16495229352E-01 -0.35630045792E-01  0.90342278280E-01  0.51100000000E-03 0. -1.
</event>
<event>
 8    1  0.1150863E+005  0.1043930E+01  0.7957747E-01            NaN
         13   -1    0    0    0    0  0.00000000000E+00  0.00000000000E+00  0.74505805969E-08  0.10566000000E+00  0.10566000000E+00 0. -1.
     999900   -1    0    0    0    0 -0.00000000000E+00 -0.00000000000E+00 -0.74505805969E-08  0.93827000000E+00  0.93827000000E+00 0.  1.
     999902    2    1    2    0    0  0.81166335807E-02  0.21182070129E-01  0.89784166049E-02  0.10195338569E+01  0.10192419308E+01 0.  0.
     999903    2    3    3    0    0 -0.87087767908E-01 -0.51129466363E-01  0.77471232199E-01  0.12881274328E+00  0.19809829991E-01 0.  0.
         14    1    1    2    0    0 -0.81166335807E-02 -0.21182070129E-01 -0.89784166049E-02  0.24396143145E-01  0.00000000000E+00 0.  1.
     999901    1    3    3    0    0  0.95204401489E-01  0.72311536492E-01 -0.68492815594E-01  0.89072111357E+00  0.88000000000E+00 0.  1.
        -11    1    4    4    0    0 -0.13605762090E-01 -0.28374498752E-02  0.17607193785E-01  0.22437519422E-01  0.51100000000E-03 0. -1.
         11    1    4    4    0    0 -0.73482005818E-01 -0.48292016488E-01  0.59864038414E-01  0.10637522386E+00  0.51100000000E-03 0.  1.
</event>
<event>
 7    1  0.1150863E+005  0.1043930E+01  0.7957747E-01            NaN
         13   -1    0    0    0    0  0.00000000000E+00  0.00000000000E+00  0.74505805969E-08  0.10566000000E+00  0.10566000000E+00 0.  1.
     999900   -1    0    0    0    0 -0.00000000000E+00 -0.00000000000E+00 -0.74505805969E-08  0.93827000000E+00  0.93827000000E+00 0.  1.
     999903    2    1    2    0    0 -0.54405118867E-01 -0.59567244453E-01 -0.67954853957E-01  0.10737055232E+00  0.20059904276E-01 0.  0.
         14    1    1    2    0    0 -0.32626639143E-01 -0.29179963735E-01 -0.83254381140E-02  0.44556489821E-01  0.00000000000E+00 0. -1.
     999901    1    1    2    0    0  0.87031758010E-01  0.88747208188E-01  0.76280292070E-01  0.89200295785E+00  0.88000000000E+00 0. -1.
        -11    1    3    3    0    0 -0.49562834497E-01 -0.43032076036E-01 -0.57106573708E-01  0.87003770108E-01  0.51100000000E-03 0.  1.
         11    1    3    3    0    0 -0.48422843704E-02 -0.16535168418E-01 -0.10848280248E-01  0.20366782217E-01  0.51100000000E-03 0. -1.
</event>
<event>
 8    1  0.1150863E+005  0.1043930E+01  0.7957747E-01            NaN
         13   -1    0    0    0    0  0.00000000000E+00  0.00000000000E+00  0.74505805969E-08  0.10566000000E+00  0.10566000000E+00 0. -1.
     999900   -1    0    0    0    0 -0.00000000000E+00 -0.00000000000E+00 -0.74505805969E-08  0.93827000000E+00  0.93827000000E+00 0.  1.
     999902    2    1    2    0    0  0.61930419451E-03 -0.13391805271E-01 -0.20307532194E-01  0.10195964871E+01  0.10193060760E+01 0.  0.
     999903    2    3    3    0    0  0.10916324780E+00 -0.68085022184E-01 -0.14966916512E-01  0.13122626144E+00  0.21074586245E-01 0.  0.
         14    1    1    2    0    0 -0.61930419451E-03  0.13391805271E-01  0.20307532194E-01  0.24333512897E-01  0.00000000000E+00 0. -1.
     999901    1    3    3    0    0 -0.10854394361E+00  0.54693216913E-01 -0.53406156812E-02  0.88837022566E+00  0.88000000000E+00 0. -1.
        -11    1    4    4    0    0  0.54279900148E-01 -0.38948191702E-01 -0.17400598746E-01  0.69038475900E-01  0.51100000000E-03 0. -1.
         11    1    4    4    0    0  0.54883347653E-01 -0.29136830482E-01  0.24336822334E-02  0.62187785540E-01  0.51100000000E-03 0.  1.
</event>
<event>
 8    1  0.1150863E+005  0.1043930E+01  0.7957747E-01            NaN
         13   -1    0    0    0    0  0.00000000000E+00  0.00000000000E+00  0.74505805969E-08  0.10566000000E+00  0.10566000000E+00 0. -1.
     999900   -1    0    0    0    0 -0.00000000000E+00 -0.00000000000E+00 -0.74505805969E-08  0.93827000000E+00  0.93827000000E+00 0.  1.
     999902    2    1    2    0    0  0.11548683890E-01  0.20720455896E-01  0.65969653756E-03  0.10201993323E+01  0.10199232976E+01 0.  0.
     999903    2    3    3    0    0  0.12696393926E+00  0.18931318945E-01  0.25201084278E-01  0.13232199732E+00  0.19894210636E-01 0.  0.
         14    1    1    2    0    0 -0.11548683890E-01 -0.20720455896E-01 -0.65969653756E-03  0.23730667745E-01  0.00000000000E+00 0. -1.
     999901    1    3    3    0    0 -0.11541525537E+00  0.17891369505E-02 -0.24541387741E-01  0.88787733494E+00  0.88000000000E+00 0.  1.
        -11    1    4    4    0    0  0.10608661618E+00  0.15606760230E-01  0.13285847747E-01  0.10804959958E+00  0.51100000000E-03 0. -1.
         11    1    4    4    0    0  0.20877323078E-01  0.33245587150E-02  0.11915236532E-01  0.24272397742E-01  0.51100000000E-03 0.  1.
</event>
<event>
 7    1  0.1150863E+005  0.1043930E+01  0.7957747E-01            NaN
         13   -1    0    0    0    0  0.00000000000E+00  0.00000000000E+00  0.74505805969E-08  0.10566000000E+00  0.10566000000E+00 0.  1.
     999900   -1    0    0    0    0 -0.00000000000E+00 -0.00000000000E+00 -0.74505805969E-08  0.93827000000E+00  0.93827000000E+00 0.  1.
     999903    2    1    2    0    0  0.58327610177E-01  0.34195233713E-01 -0.85585951730E-01  0.11098387769E+00  0.20519304453E-01 0.  0.
         14    1    1    2    0    0 -0.32835782991E-01  0.27495306822E-01 -0.13423381312E-01  0.44881707941E-01  0.00000000000E+00 0. -1.
     999901    1    1    2    0    0 -0.25491827186E-01 -0.61690540535E-01  0.99009333042E-01  0.88806441437E+00  0.88000000000E+00 0. -1.
        -11    1    3    3    0    0  0.40192753166E-01  0.28522114297E-01 -0.47663208222E-01  0.68563918719E-01  0.51100000000E-03 0.  1.
         11    1    3    3    0    0  0.18134857011E-01  0.56731194161E-02 -0.37922743508E-01  0.42419958968E-01  0.51100000000E-03 0. -1.
</event>
<event>
 8    1  0.1150863E+005  0.1043930E+01  0.7957747E-01            NaN
         13   -1    0    0    0    0  0.00000000000E+00  0.00000000000E+00  0.74505805969E-08  0.10566000000E+00  0.10566000000E+00 0.  1.
     999900   -1    0    0    0    0 -0.00000000000E+00 -0.00000000000E+00 -0.74505805969E-08  0.93827000000E+00  0.93827000000E+00 0. -1.
     999902    2    1    2    0    0  0.16954200612E-01 -0.90266023563E-02 -0.14542288828E-01  0.10198384531E+01  0.10195538572E+01 0.  0.
     999903    2    3    3    0    0  0.71313513701E-01 -0.31151840377E-01 -0.10650907217E+00  0.13310154153E+00  0.17770298491E-01 0.  0.
         14    1    1    2    0    0 -0.16954200612E-01  0.90266023563E-02  0.14542288828E-01  0.24091546916E-01  0.00000000000E+00 0.  1.
     999901    1    3    3    0    0 -0.54359313090E-01  0.22125238020E-01  0.91966783338E-01  0.88673691156E+00  0.88000000000E+00 0.  1.
        -11    1    4    4    0    0  0.96747804035E-02 -0.62731123087E-03 -0.22636256684E-01  0.24630390434E-01  0.51100000000E-03 0.  1.
         11    1    4    4    0    0  0.61638733298E-01 -0.30524529146E-01 -0.83872815481E-01  0.10847115109E+00  0.51100000000E-03 0. -1.
</event>
<event>
 8    1  0.1150863E+005  0.1043930E+01  0.7957747E-01            NaN
         13   -1    0    0    0    0  0.00000000000E+00  0.00000000000E+00  0.74505805969E-08  0.10566000000E+00  0.10566000000E+00 0.  1.
     999900   -1    0    0    0    0 -0.00000000000E+00 -0.00000000000E+00 -0.74505805969E-08  0.93827000000E+00  0.93827000000E+00 0. -1.
     999902    2    1    2    0    0 -0.96955875135E-02  0.10215442977E-01  0.19617743942E-01  0.10197801435E+01  0.10194941518E+01 0.  0.
     999903    2    3    3    0    0 -0.11320334356E+00 -0.51022888905E-01 -0.32816120190E-01  0.13005361305E+00  0.20462461636E-01 0.  0.
         14    1    1    2    0    0  0.96955875135E-02 -0.10215442977E-01 -0.19617743942E-01  0.24149856517E-01  0.00000000000E+00 0. -1.
     999901    1    3    3    0    0  0.10350775605E+00  0.61238331881E-01  0.52433864132E-01  0.88972653044E+00  0.88000000000E+00 0. -1.
        -11    1    4    4    0    0 -0.44347305882E-01 -0.28356483915E-01 -0.70130965957E-02  0.53105728164E-01  0.51100000000E-03 0.  1.
         11    1    4    4    0    0 -0.68856037681E-01 -0.22666404990E-01 -0.25803023595E-01  0.76947884882E-01  0.51100000000E-03 0. -1.
</event>
<event>
 8    1  0.1150863E+005  0.1043930E+01  0.7957747E-01            NaN
         13   -1    0    0    0    0  0.00000000000E+00  0.00000000000E+00  0.74505805969E-08  0.10566000000E+00  0.10566000000E+00 0. -1.
     999900   -1    0    0    0    0 -0.00000000000E+00 -0.00000000000E+00 -0.74505805969E-08  0.93827000000E+00  0.93827000000E+00 0.  1.
     999902    2    1    2    0    0 -0.11030817276E-01  0.20706102673E-01  0.12617434252E-02  0.10204350300E+01  0.10201645146E+01 0.  0.
     999903    2    3    3    0    0  0.42593549796E-01 -0.54575859636E-01  0.10740463053E+00  0.12925084083E+00  0.19423960872E-01 0.  0.
         14    1    1    2    0    0  0.11030817276E-01 -0.20706102673E-01 -0.12617434252E-02  0.23494969975E-01  0.00000000000E+00 0.  1.
     999901    1    3    3    0    0 -0.53624367072E-01  0.75281962308E-01 -0.10614288710E+00  0.89118418920E+00  0.88000000000E+00 0.  1.
        -11    1    4    4    0    0  0.11256900267E-01 -0.29900685569E-01  0.45144314214E-01  0.55308580058E-01  0.51100000000E-03 0.  1.
         11    1    4    4    0    0  0.31336649529E-01 -0.24675174067E-01  0.62260316316E-01  0.73942260769E-01  0.51100000000E-03 0. -1.
</event>
<event>
 8    1  0.1150863E+005  0.1043930E+01  0.7957747E-01            NaN
         13   -1    0    0    0    0  0.00000000000E+00  0.00000000000E+00  0.74505805969E-08  0.10566000000E+00  0.10566000000E+00 0. -1.
     999900   -1    0    0    0    0 -0.00000000000E+00 -0.00000000000E+00 -0.74505805969E-08  0.93827000000E+00  0.93827000000E+00 0. -1.
     999902    2    1    2    0    0  0.92370188973E-02  0.20761826969E-01  0.89903177650E-03  0.10211883150E+01  0.10209350570E+01 0.  0.
     999903    2    3    3    0    0 -0.26965093505E-01  0.39446020222E-01 -0.12136663071E+00  0.13180168131E+00  0.18939888220E-01 0.  0.
         14    1    1    2    0    0 -0.92370188973E-02 -0.20761826969E-01 -0.89903177650E-03  0.22741684971E-01  0.00000000000E+00 0. -1.
     999901    1    3    3    0    0  0.36202112403E-01 -0.18684193253E-01  0.12226566249E+00  0.88938663372E+00  0.88000000000E+00 0.  1.
        -11    1    4    4    0    0  0.84109832209E-03  0.19283234523E-02 -0.20890973051E-01  0.21002851086E-01  0.51100000000E-03 0.  1.
         11    1    4    4    0    0 -0.27806191828E-01  0.37517696770E-01 -0.10047565766E+00  0.11079883022E+00  0.51100000000E-03 0. -1.
</event>
<event>
 8    1  0.1150863E+005  0.1043930E+01  0.7957747E-01            NaN
         13   -1    0    0    0    0  0.00000000000E+00  0.00000000000E+00  0.74505805969E-08  0.10566000000E+00  0.10566000000E+00 0. -1.
     999900   -1    0    0    0    0 -0.00000000000E+00 -0.00000000000E+00 -0.74505805969E-08  0.93827000000E+00  0.93827000000E+00 0.  1.
     999902    2    1    2    0    0 -0.43270645574E-02  0.21809374187E-01  0.96095550099E-02  0.10197077821E+01  0.10194200533E+01 0.  0.
     999903    2    3    3    0    0 -0.16718235130E-01  0.10186490840E+00  0.81544612574E-01  0.13306406443E+00  0.20014056372E-01 0.  0.
         14    1    1    2    0    0  0.43270645574E-02 -0.21809374187E-01 -0.96095550099E-02  0.24222217850E-01  0.00000000000E+00 0. -1.
     999901    1    3    3    0    0  0.12391170572E-01 -0.80055534217E-01 -0.71935057564E-01  0.88664371772E+00  0.88000000000E+00 0.  1.
        -11    1    4    4    0    0  0.27347908032E-03  0.30243209249E-01  0.33628693859E-01  0.45231368188E-01  0.51100000000E-03 0. -1.
         11    1    4    4    0    0 -0.16991714210E-01  0.71621699155E-01  0.47915918715E-01  0.87832696241E-01  0.51100000000E-03 0.  1.
</event>
<event>
 8    1  0.1150863E+005  0.1043930E+01  0.7957747E-01            NaN
         13   -1    0    0    0    0  0.00000000000E+00  0.00000000000E+00  0.74505805969E-08  0.10566000000E+00  0.10566000000E+00 0.  1.
     999900   -1    0    0    0    0 -0.00000000000E+00 -0.00000000000E+00 -0.74505805969E-08  0.93827000000E+00  0.93827000000E+00 0. -1.
     999902    2    1    2    0    0  0.10504639623E-02 -0.23332805636E-01  0.23991474976E-01  0.10104469571E+01  0.10098920432E+01 0.  0.
     999903    2    3    3    0    0  0.97585779037E-01 -0.50687115889E-01 -0.48008119640E-01  0.12182371463E+00  0.21072966290E-01 0.  0.
         14    1    1    2    0    0 -0.10504639623E-02  0.23332805636E-01 -0.23991474976E-01  0.33483042946E-01  0.00000000000E+00 0.  1.
     999901    1    3    3    0    0 -0.96535315075E-01  0.27354310253E-01  0.71999594616E-01  0.88862324242E+00  0.88000000000E+00 0. -1.
        -11    1    4    4    0    0  0.82408637515E-01 -0.48355222133E-01 -0.46848107278E-01  0.10641624557E+00  0.51100000000E-03 0.  1.
         11    1    4    4    0    0  0.15177141522E-01 -0.23318937561E-02 -0.11600123623E-02  0.15407469063E-01  0.51100000000E-03 0. -1.
</event>
<event>
 8    1  0.1150863E+005  0.1043930E+01  0.7957747E-01            NaN
         13   -1    0    0    0    0  0.00000000000E+00  0.00000000000E+00  0.74505805969E-08  0.10566000000E+00  0.10566000000E+00 0.  1.
     999900   -1    0    0    0    0 -0.00000000000E+00 -0.00000000000E+00 -0.74505805969E-08  0.93827000000E+00  0.93827000000E+00 0. -1.
     999902    2    1    2    0    0 -0.98644613633E-02  0.93140126502E-02 -0.19420394507E-01  0.10202401255E+01  0.10199650502E+01 0.  0.
     999903    2    3    3    0    0  0.82292829479E-02  0.43402072413E-01  0.11917689207E+00  0.12855711725E+00  0.19296108533E-01 0.  0.
         14    1    1    2    0    0  0.98644613633E-02 -0.93140126502E-02  0.19420394507E-01  0.23689874470E-01  0.00000000000E+00 0.  1.
     999901    1    3    3    0    0 -0.18093744311E-01 -0.34088059763E-01 -0.13859728658E+00  0.89168300828E+00  0.88000000000E+00 0. -1.
        -11    1    4    4    0    0  0.12284800036E-01  0.25080949161E-01  0.54931467436E-01  0.61625461933E-01  0.51100000000E-03 0.  1.
         11    1    4    4    0    0 -0.40555170881E-02  0.18321123252E-01  0.64245424638E-01  0.66931655321E-01  0.51100000000E-03 0. -1.
</event>
<event>
 8    1  0.1150863E+005  0.1043930E+01  0.7957747E-01            NaN
         13   -1    0    0    0    0  0.00000000000E+00  0.00000000000E+00  0.74505805969E-08  0.10566000000E+00  0.10566000000E+00 0. -1.
     999900   -1    0    0    0    0 -0.00000000000E+00 -0.00000000000E+00 -0.74505805969E-08  0.93827000000E+00  0.93827000000E+00 0. -1.
     999902    2    1    2    0    0 -0.16141274398E-01  0.26922520280E-03 -0.15731732347E-01  0.10213889125E+01  0.10211401520E+01 0.  0.
     999903    2    3    3    0    0 -0.66800654702E-02  0.12746754225E+00  0.24118837803E-01  0.13130071787E+00  0.19119690747E-01 0.  0.
         14    1    1    2    0    0  0.16141274398E-01 -0.26922520280E-03  0.15731732347E-01  0.22541087463E-01  0.00000000000E+00 0. -1.
     999901    1    3    3    0    0 -0.94612089274E-02 -0.12719831705E+00 -0.39850570151E-01  0.89008819466E+00  0.88000000000E+00 0.  1.
        -11    1    4    4    0    0 -0.25420959740E-02  0.67094607050E-01  0.22319923465E-01  0.70757251583E-01  0.51100000000E-03 0. -1.
         11    1    4    4    0    0 -0.41379694961E-02  0.60372935205E-01  0.17989143387E-02  0.60543466291E-01  0.51100000000E-03 0.  1.
</event>
<event>
 8    1  0.1150863E+005  0.1043930E+01  0.7957747E-01            NaN
         13   -1    0    0    0    0  0.00000000000E+00  0.00000000000E+00  0.74505805969E-08  0.10566000000E+00  0.10566000000E+00 0.  1.
     999900   -1    0    0    0    0 -0.00000000000E+00 -0.00000000000E+00 -0.74505805969E-08  0.93827000000E+00  0.93827000000E+00 0. -1.
     999902    2    1    2    0    0 -0.15308066538E-01  0.18026474370E-01 -0.50768297875E-02  0.10197418856E+01  0.10194549761E+01 0.  0.
     999903    2    3    3    0    0 -0.11291270926E-01 -0.54331007261E-01 -0.11571695108E+00  0.12985819865E+00  0.19834007157E-01 0.  0.
         14    1    1    2    0    0  0.15308066538E-01 -0.18026474370E-01  0.50768297875E-02  0.24188114437E-01  0.00000000000E+00 0.  1.
     999901    1    3    3    0    0 -0.40167956113E-02  0.72357481630E-01  0.11064012129E+00  0.88988368691E+00  0.88000000000E+00 0.  1.
        -11    1    4    4    0    0 -0.15651669953E-01 -0.43395710921E-01 -0.10073872218E+00  0.11080033288E+00  0.51100000000E-03 0. -1.
         11    1    4    4    0    0  0.43603990264E-02 -0.10935296340E-01 -0.14978228900E-01  0.19057865770E-01  0.51100000000E-03 0.  1.
</event>
<event>
 8    1  0.1150863E+005  0.1043930E+01  0.7957747E-01            NaN
         13   -1    0    0    0    0  0.00000000000E+00  0.00000000000E+00  0.74505805969E-08  0.10566000000E+00  0.10566000000E+00 0. -1.
     999900   -1    0    0    0    0 -0.00000000000E+00 -0.00000000000E+00 -0.74505805969E-08  0.93827000000E+00  0.93827000000E+00 0.  1.
     999902    2    1    2    0    0  0.16615152870E-01  0.14878513032E-01 -0.59300759710E-02  0.10208518879E+01  0.10205909944E+01 0.  0.
     999903    2    3    3    0    0  0.45893873188E-02  0.64393467803E-01  0.11266194156E+00  0.13143611543E+00  0.20375431087E-01 0.  0.
         14    1    1    2    0    0 -0.16615152870E-01 -0.14878513032E-01  0.59300759710E-02  0.23078112054E-01  0.00000000000E+00 0. -1.
     999901    1    3    3    0    0  0.12025765551E-01 -0.49514954771E-01 -0.11859201753E+00  0.88941577252E+00  0.88000000000E+00 0.  1.
        -11    1    4    4    0    0  0.85562627728E-02  0.21926151319E-01  0.53970726607E-01  0.58881798510E-01  0.51100000000E-03 0. -1.
         11    1    4    4    0    0 -0.39668754539E-02  0.42467316484E-01  0.58691214949E-01  0.72554316918E-01  0.51100000000E-03 0.  1.
</event>
<event>
 8    1  0.1150863E+005  0.1043930E+01  0.7957747E-01            NaN
         13   -1    0    0    0    0  0.00000000000E+00  0.00000000000E+00  0.74505805969E-08  0.10566000000E+00  0.10566000000E+00 0.  1.
     999900   -1    0    0    0    0 -0.00000000000E+00 -0.00000000000E+00 -0.74505805969E-08  0.93827000000E+00  0.93827000000E+00 0.  1.
     999902    2    1    2    0    0  0.85154190107E-02 -0.46677467256E-02 -0.22403092371E-01  0.10195128182E+01  0.10192203823E+01 0.  0.
     999903    2    3    3    0    0  0.66430440625E-01 -0.26955724146E-01  0.10443809116E+00  0.12825550993E+00  0.20063559882E-01 0.  0.
         14    1    1    2    0    0 -0.85154190107E-02  0.46677467256E-02  0.22403092371E-01  0.24417181824E-01  0.00000000000E+00 0.  1.
     999901    1    3    3    0    0 -0.57915021615E-01  0.22287977420E-01 -0.12684118353E+00  0.89125730825E+00  0.88000000000E+00 0.  1.
        -11    1    4    4    0    0  0.42798696010E-01 -0.15475922264E-01  0.81626407787E-01  0.93457820000E-01  0.51100000000E-03 0. -1.
         11    1    4    4    0    0  0.23631744616E-01 -0.11479801881E-01  0.22811683377E-01  0.34797689928E-01  0.51100000000E-03 0.  1.
</event>
<event>
 8    1  0.1150863E+005  0.1043930E+01  0.7957747E-01            NaN
         13   -1    0    0    0    0  0.00000000000E+00  0.00000000000E+00  0.74505805969E-08  0.10566000000E+00  0.10566000000E+00 0.  1.
     999900   -1    0    0    0    0 -0.00000000000E+00 -0.00000000000E+00 -0.74505805969E-08  0.93827000000E+00  0.93827000000E+00 0. -1.
     999902    2    1    2    0    0  0.22079335061E-01  0.92257816383E-02 -0.27582360940E-02  0.10198422448E+01  0.10195577396E+01 0.  0.
     999903    2    3    3    0    0  0.70632950821E-01 -0.10800483444E+00  0.21999131071E-02  0.13072748608E+00  0.20755191990E-01 0.  0.
         14    1    1    2    0    0 -0.22079335061E-01 -0.92257816383E-02  0.27582360940E-02  0.24087755186E-01  0.00000000000E+00 0. -1.
     999901    1    3    3    0    0 -0.48553615761E-01  0.11723061608E+00 -0.49581492011E-02  0.88911475873E+00  0.88000000000E+00 0. -1.
        -11    1    4    4    0    0  0.42609582003E-03 -0.10177872866E-01  0.15197825115E-02  0.10312202171E-01  0.51100000000E-03 0.  1.
         11    1    4    4    0    0  0.70206855001E-01 -0.97826961579E-01  0.68013059553E-03  0.12041528391E+00  0.51100000000E-03 0. -1.
</event>
<event>
 8    1  0.1150863E+005  0.1043930E+01  0.7957747E-01            NaN
         13   -1    0    0    0    0  0.00000000000E+00  0.00000000000E+00  0.74505805969E-08  0.10566000000E+00  0.10566000000E+00 0. -1.
     999900   -1    0    0    0    0 -0.00000000000E+00 -0.00000000000E+00 -0.74505805969E-08  0.93827000000E+00  0.93827000000E+00 0. -1.
     999902    2    1    2    0    0  0.19927646600E-03 -0.20276128617E-01 -0.10785728337E-01  0.10209627834E+01  0.10207044195E+01 0.  0.
     999903    2    3    3    0    0  0.12945041941E+00 -0.15995858980E-02  0.66271402618E-02  0.13115500685E+00  0.19943597335E-01 0.  0.
         14    1    1    2    0    0 -0.19927646600E-03  0.20276128617E-01  0.10785728337E-01  0.22967216604E-01  0.00000000000E+00 0. -1.
     999901    1    3    3    0    0 -0.12925114294E+00 -0.18676542719E-01 -0.17412868599E-01  0.88980777654E+00  0.88000000000E+00 0. -1.
        -11    1    4    4    0    0  0.35036618638E-01 -0.47272555084E-02  0.96116026429E-02  0.36640900871E-01  0.51100000000E-03 0.  1.
         11    1    4    4    0    0  0.94413800771E-01  0.31276696104E-02 -0.29844623812E-02  0.94514105984E-01  0.51100000000E-03 0. -1.
</event>
<event>
 8    1  0.1150863E+005  0.1043930E+01  0.7957747E-01            NaN
         13   -1    0    0    0    0  0.00000000000E+00  0.00000000000E+00  0.74505805969E-08  0.10566000000E+00  0.10566000000E+00 0. -1.
     999900   -1    0    0    0    0 -0.00000000000E+00 -0.00000000000E+00 -0.74505805969E-08  0.93827000000E+00  0.93827000000E+00 0.  1.
     999902    2    1    2    0    0  0.70362487014E-02 -0.21276027450E-01 -0.96640686616E-02  0.10195256487E+01  0.10192335238E+01 0.  0.
     999903    2    3    3    0    0 -0.34404290928E-01 -0.10431422524E+00  0.69306266620E-01  0.13112879228E+00  0.18063464560E-01 0.  0.
         14    1    1    2    0    0 -0.70362487014E-02  0.21276027450E-01  0.96640686616E-02  0.24404351312E-01  0.00000000000E+00 0. -1.
     999901    1    3    3    0    0  0.41440539629E-01  0.83038197786E-01 -0.78970335282E-01  0.88839685641E+00  0.88000000000E+00 0.  1.
        -11    1    4    4    0    0 -0.20536313627E-01 -0.42986453502E-01  0.22193051363E-01  0.52558234483E-01  0.51100000000E-03 0. -1.
         11    1    4    4    0    0 -0.13867977300E-01 -0.61327771734E-01  0.47113215257E-01  0.78570557800E-01  0.51100000000E-03 0.  1.
</event>
<event>
 8    1  0.1150863E+005  0.1043930E+01  0.7957747E-01            NaN
         13   -1    0    0    0    0  0.00000000000E+00  0.00000000000E+00  0.74505805969E-08  0.10566000000E+00  0.10566000000E+00 0.  1.
     999900   -1    0    0    0    0 -0.00000000000E+00 -0.00000000000E+00 -0.74505805969E-08  0.93827000000E+00  0.93827000000E+00 0.  1.
     999902    2    1    2    0    0 -0.93698556808E-02  0.20617411405E-01 -0.57972659037E-02  0.10205530853E+01  0.10202853129E+01 0.  0.
     999903    2    3    3    0    0 -0.52262191940E-01 -0.26428049819E-01 -0.11593178652E+00  0.13140594306E+00  0.19939012585E-01 0.  0.
         14    1    1    2    0    0  0.93698556808E-02 -0.20617411405E-01  0.57972659037E-02  0.23376914691E-01  0.00000000000E+00 0.  1.
     999901    1    3    3    0    0  0.42892336260E-01  0.47045461224E-01  0.11013452062E+00  0.88914714225E+00  0.88000000000E+00 0. -1.
        -11    1    4    4    0    0 -0.45475750536E-01 -0.15284117966E-01 -0.99098463975E-01  0.11010183846E+00  0.51100000000E-03 0. -1.
         11    1    4    4    0    0 -0.67864414047E-02 -0.11143931853E-01 -0.16833322546E-01  0.21304104605E-01  0.51100000000E-03 0.  1.
</event>
<event>
 8    1  0.1150863E+005  0.1043930E+01  0.7957747E-01            NaN
         13   -1    0    0    0    0  0.00000000000E+00  0.00000000000E+00  0.74505805969E-08  0.10566000000E+00  0.10566000000E+00 0. -1.
     999900   -1    0    0    0    0 -0.00000000000E+00 -0.00000000000E+00 -0.74505805969E-08  0.93827000000E+00  0.93827000000E+00 0. -1.
     999902    2    1    2    0    0 -0.42711358329E-02 -0.15816194100E-01  0.17584977592E-01  0.10198961482E+01  0.10196129300E+01 0.  0.
     999903    2    3    3    0    0 -0.11932910748E-01 -0.68148013700E-01 -0.10772139395E+00  0.12944737991E+00  0.19135812521E-01 0.  0.
         14    1    1    2    0    0  0.42711358329E-02  0.15816194100E-01 -0.17584977592E-01  0.24033851835E-01  0.00000000000E+00 0.  1.
     999901    1    3    3    0    0  0.76617749149E-02  0.52331819600E-01  0.12530637154E+00  0.89044876825E+00  0.88000000000E+00 0.  1.
        -11    1    4    4    0    0 -0.13517826871E-02 -0.49095272684E-01 -0.83380411826E-01  0.96771521191E-01  0.51100000000E-03 0. -1.
         11    1    4    4    0    0 -0.10581128061E-01 -0.19052741016E-01 -0.24340982124E-01  0.32675858719E-01  0.51100000000E-03 0.  1.
</event>
<event>
 8    1  0.1150863E+005  0.1043930E+01  0.7957747E-01            NaN
         13   -1    0    0    0    0  0.00000000000E+00  0.00000000000E+00  0.74505805969E-08  0.10566000000E+00  0.10566000000E+00 0. -1.
     999900   -1    0    0    0    0 -0.00000000000E+00 -0.00000000000E+00 -0.74505805969E-08  0.93827000000E+00  0.93827000000E+00 0.  1.
     999902    2    1    2    0    0  0.12166750803E-01  0.18865718266E-01 -0.81073612963E-02  0.10200621459E+01  0.10197828725E+01 0.  0.
     999903    2    3    3    0    0 -0.44002912880E-01  0.10474450995E+00  0.62598242857E-01  0.13128237544E+00  0.20220123279E-01 0.  0.
         14    1    1    2    0    0 -0.12166750803E-01 -0.18865718266E-01  0.81073612963E-02  0.23867854072E-01  0.00000000000E+00 0. -1.
     999901    1    3    3    0    0  0.56169663684E-01 -0.85878791679E-01 -0.70705604154E-01  0.88877977049E+00  0.88000000000E+00 0.  1.
        -11    1    4    4    0    0 -0.13572865435E-01  0.38492066985E-01  0.33411461204E-01  0.52748921863E-01  0.51100000000E-03 0. -1.
         11    1    4    4    0    0 -0.30430047445E-01  0.66252442961E-01  0.29186781653E-01  0.78533453573E-01  0.51100000000E-03 0.  1.
</event>
<event>
 8    1  0.1150863E+005  0.1043930E+01  0.7957747E-01            NaN
         13   -1    0    0    0    0  0.00000000000E+00  0.00000000000E+00  0.74505805969E-08  0.10566000000E+00  0.10566000000E+00 0. -1.
     999900   -1    0    0    0    0 -0.00000000000E+00 -0.00000000000E+00 -0.74505805969E-08  0.93827000000E+00  0.93827000000E+00 0.  1.
     999902    2    1    2    0    0 -0.36359890484E-02 -0.20509443248E-01  0.83859594075E-02  0.10214760027E+01  0.10212291820E+01 0.  0.
     999903    2    3    3    0    0 -0.40120604914E-01  0.12129870058E+00  0.15782967215E-02  0.12935099964E+00  0.20153222714E-01 0.  0.
         14    1    1    2    0    0  0.36359890484E-02  0.20509443248E-01 -0.83859594075E-02  0.22453997281E-01  0.00000000000E+00 0.  1.
     999901    1    3    3    0    0  0.36484615865E-01 -0.14180814383E+00  0.68076626859E-02  0.89212500308E+00  0.88000000000E+00 0. -1.
        -11    1    4    4    0    0 -0.19736837379E-02  0.31908617673E-01  0.33124731150E-02  0.32144811532E-01  0.51100000000E-03 0. -1.
         11    1    4    4    0    0 -0.38146921176E-01  0.89390082907E-01 -0.17341763935E-02  0.97206188106E-01  0.51100000000E-03 0.  1.
</event>
<event>
 8    1  0.1150863E+005  0.1043930E+01  0.7957747E-01            NaN
         13   -1    0    0    0    0  0.00000000000E+00  0.00000000000E+00  0.74505805969E-08  0.10566000000E+00  0.10566000000E+00 0. -1.
     999900   -1    0    0    0    0 -0.00000000000E+00 -0.00000000000E+00 -0.74505805969E-08  0.93827000000E+00  0.93827000000E+00 0.  1.
     999902    2    1    2    0    0 -0.15608982169E-01  0.17163946540E-01  0.10728358532E-02  0.10207051779E+01  0.10204409183E+01 0.  0.
     999903    2    3    3    0    0  0.11551974364E+00  0.23494083885E-01  0.49667009986E-01  0.12964052977E+00  0.21049273871E-01 0.  0.
         14    1    1    2    0    0  0.15608982169E-01 -0.17163946540E-01 -0.10728358532E-02  0.23224822108E-01  0.00000000000E+00 0.  1.
     999901    1    3    3    0    0 -0.13112872581E+00 -0.63301373447E-02 -0.48594174133E-01  0.89106464812E+00  0.88000000000E+00 0.  1.
        -11    1    4    4    0    0  0.10036442800E+00  0.24674090302E-01  0.36774129306E-01  0.10970153530E+00  0.51100000000E-03 0.  1.
         11    1    4    4    0    0  0.15155315634E-01 -0.11800064174E-02  0.12892880681E-01  0.19938994467E-01  0.51100000000E-03 0. -1.
</event>
<event>
 8    1  0.1150863E+005  0.1043930E+01  0.7957747E-01            NaN
         13   -1    0    0    0    0  0.00000000000E+00  0.00000000000E+00  0.74505805969E-08  0.10566000000E+00  0.10566000000E+00 0. -1.
     999900   -1    0    0    0    0 -0.00000000000E+00 -0.00000000000E+00 -0.74505805969E-08  0.93827000000E+00  0.93827000000E+00 0.  1.
     999902    2    1    2    0    0 -0.19963061476E-01  0.64668079632E-02 -0.87925807978E-02  0.10211780131E+01  0.10209245230E+01 0.  0.
     999903    2    3    3    0    0 -0.12655399954E+00 -0.28614374902E-01 -0.25306047916E-01  0.13389845626E+00  0.21300311660E-01 0.  0.
         14    1    1    2    0    0  0.19963061476E-01 -0.64668079632E-02  0.87925807978E-02  0.22751986855E-01  0.00000000000E+00 0.  1.
     999901    1    3    3    0    0  0.10659093807E+00  0.35081182865E-01  0.16513467118E-01  0.88727955688E+00  0.88000000000E+00 0.  1.
        -11    1    4    4    0    0 -0.78253010554E-01 -0.79146870445E-02 -0.19434493694E-01  0.81019359402E-01  0.51100000000E-03 0.  1.
         11    1    4    4    0    0 -0.48300988988E-01 -0.20699687857E-01 -0.58715542216E-02  0.52879096859E-01  0.51100000000E-03 0. -1.
</event>
<event>
 8    1  0.1150863E+005  0.1043930E+01  0.7957747E-01            NaN
         13   -1    0    0    0    0  0.00000000000E+00  0.00000000000E+00  0.74505805969E-08  0.10566000000E+00  0.10566000000E+00 0. -1.
     999900   -1    0    0    0    0 -0.00000000000E+00 -0.00000000000E+00 -0.74505805969E-08  0.93827000000E+00  0.93827000000E+00 0. -1.
     999902    2    1    2    0    0 -0.20081440218E-01 -0.10309296431E-01  0.33062537293E-02  0.10211160317E+01  0.10208611429E+01 0.  0.
     999903    2    3    3    0    0 -0.68831210390E-01  0.86020903099E-01  0.69956115158E-01  0.13201634584E+00  0.19928026186E-01 0.  0.
         14    1    1    2    0    0  0.20081440218E-01  0.10309296431E-01 -0.33062537293E-02  0.22813968262E-01  0.00000000000E+00 0.  1.
     999901    1    3    3    0    0  0.48749770172E-01 -0.96330199529E-01 -0.66649861429E-01  0.88909968590E+00  0.88000000000E+00 0. -1.
        -11    1    4    4    0    0 -0.41884039890E-01  0.52172772801E-01  0.30778038528E-01  0.73646587130E-01  0.51100000000E-03 0.  1.
         11    1    4    4    0    0 -0.26947170500E-01  0.33848130298E-01  0.39178076630E-01  0.58369758712E-01  0.51100000000E-03 0. -1.
</event>
<event>
 8    1  0.1150863E+005  0.1043930E+01  0.7957747E-01            NaN
         13   -1    0    0    0    0  0.00000000000E+00  0.00000000000E+00  0.74505805969E-08  0.10566000000E+00  0.10566000000E+00 0. -1.
     999900   -1    0    0    0    0 -0.00000000000E+00 -0.00000000000E+00 -0.74505805969E-08  0.93827000000E+00  0.93827000000E+00 0. -1.
     999902    2    1    2    0    0 -0.16091001369E-01 -0.13025080676E-02  0.20382195955E-01  0.10179290238E+01  0.10175968979E+01 0.  0.
     999903    2    3    3    0    0  0.38954938888E-01 -0.19215851885E-01  0.12103578503E+00  0.13030179999E+00  0.21027638845E-01 0.  0.
         14    1    1    2    0    0  0.16091001369E-01  0.13025080676E-02 -0.20382195955E-01  0.26000976218E-01  0.00000000000E+00 0. -1.
     999901    1    3    3    0    0 -0.55045940257E-01  0.17913343817E-01 -0.10065358907E+00  0.88762722379E+00  0.88000000000E+00 0. -1.
        -11    1    4    4    0    0  0.24262123341E-01 -0.12142263459E-01  0.45108471909E-01  0.52641433775E-01  0.51100000000E-03 0. -1.
         11    1    4    4    0    0  0.14692815548E-01 -0.70735884255E-02  0.75927313119E-01  0.77660366214E-01  0.51100000000E-03 0.  1.
</event>
<event>
 8    1  0.1150863E+005  0.1043930E+01  0.7957747E-01            NaN
         13   -1    0    0    0    0  0.00000000000E+00  0.00000000000E+00  0.74505805969E-08  0.10566000000E+00  0.10566000000E+00 0.  1.
     999900   -1    0    0    0    0 -0.00000000000E+00 -0.00000000000E+00 -0.74505805969E-08  0.93827000000E+00  0.93827000000E+00 0. -1.
     999902    2    1    2    0    0 -0.15245707347E-02 -0.16549063533E-01  0.18055074123E-01  0.10193906129E+01  0.10190952066E+01 0.  0.
     999903    2    3    3    0    0 -0.22790122896E-01 -0.12661299384E+00 -0.15196006762E-01  0.13165645961E+00  0.23500315391E-01 0.  0.
         14    1    1    2    0    0  0.15245707347E-02  0.16549063533E-01 -0.18055074123E-01  0.24539387143E-01  0.00000000000E+00 0. -1.
     999901    1    3    3    0    0  0.21265552161E-01  0.11006393031E+00  0.33251080885E-01  0.88773415325E+00  0.88000000000E+00 0.  1.
        -11    1    4    4    0    0 -0.89414300138E-02 -0.52406337830E-01  0.53119661214E-02  0.53430810592E-01  0.51100000000E-03 0. -1.
         11    1    4    4    0    0 -0.13848692882E-01 -0.74206656014E-01 -0.20507972884E-01  0.78225649017E-01  0.51100000000E-03 0.  1.
</event>
<event>
 8    1  0.1150863E+005  0.1043930E+01  0.7957747E-01            NaN
         13   -1    0    0    0    0  0.00000000000E+00  0.00000000000E+00  0.74505805969E-08  0.10566000000E+00  0.10566000000E+00 0.  1.
     999900   -1    0    0    0    0 -0.00000000000E+00 -0.00000000000E+00 -0.74505805969E-08  0.93827000000E+00  0.93827000000E+00 0. -1.
     999902    2    1    2    0    0 -0.56344151878E-02 -0.56455800388E-02  0.22959110739E-01  0.10196248570E+01  0.10193351309E+01 0.  0.
     999903    2    3    3    0    0  0.40930291369E-01 -0.56264267275E-01  0.11105799792E+00  0.13255556024E+00  0.19903294329E-01 0.  0.
         14    1    1    2    0    0  0.56344151878E-02  0.56455800388E-02 -0.22959110739E-01  0.24305142962E-01  0.00000000000E+00 0. -1.
     999901    1    3    3    0    0 -0.46564706557E-01  0.50618687236E-01 -0.88098887183E-01  0.88706929680E+00  0.88000000000E+00 0. -1.
        -11    1    4    4    0    0  0.25727917253E-01 -0.49117890949E-01  0.88242001445E-01  0.10421806407E+00  0.51100000000E-03 0.  1.
         11    1    4    4    0    0  0.15202374116E-01 -0.71463763259E-02  0.22815996477E-01  0.28337496177E-01  0.51100000000E-03 0. -1.
</event>
<event>
 8    1  0.1150863E+005  0.1043930E+01  0.7957747E-01            NaN
         13   -1    0    0    0    0  0.00000000000E+00  0.00000000000E+00  0.74505805969E-08  0.10566000000E+00  0.10566000000E+00 0. -1.
     999900   -1    0    0    0    0 -0.00000000000E+00 -0.00000000000E+00 -0.74505805969E-08  0.93827000000E+00  0.93827000000E+00 0.  1.
     999902    2    1    2    0    0  0.22743195024E-01 -0.23786718417E-02  0.23957701936E-02  0.10209375944E+01  0.10206786571E+01 0.  0.
     999903    2    3    3    0    0  0.91075299598E-01 -0.73907813164E-01 -0.59905828244E-01  0.13320611264E+00  0.19952071151E-01 0.  0.
         14    1    1    2    0    0 -0.22743195024E-01  0.23786718417E-02 -0.23957701936E-02  0.22992405582E-01  0.00000000000E+00 0. -1.
     999901    1    3    3    0    0 -0.68332104574E-01  0.71529141322E-01  0.62301598437E-01  0.88773148178E+00  0.88000000000E+00 0.  1.
        -11    1    4    4    0    0  0.33100254603E-01 -0.34916145066E-01 -0.16085843276E-01  0.50732430614E-01  0.51100000000E-03 0. -1.
         11    1    4    4    0    0  0.57975044995E-01 -0.38991668098E-01 -0.43819984968E-01  0.82473682025E-01  0.51100000000E-03 0.  1.
</event>
<event>
 8    1  0.1150863E+005  0.1043930E+01  0.7957747E-01            NaN
         13   -1    0    0    0    0  0.00000000000E+00  0.00000000000E+00  0.74505805969E-08  0.10566000000E+00  0.10566000000E+00 0.  1.
     999900   -1    0    0    0    0 -0.00000000000E+00 -0.00000000000E+00 -0.74505805969E-08  0.93827000000E+00  0.93827000000E+00 0. -1.
     999902    2    1    2    0    0  0.74382569602E-02 -0.14971196412E-01  0.17514708481E-01  0.10197178253E+01  0.10194303379E+01 0.  0.
     999903    2    3    3    0    0  0.30284636336E-01  0.36182803899E-02  0.12735734575E+00  0.13239999578E+00  0.19483691012E-01 0.  0.
         14    1    1    2    0    0 -0.74382569602E-02  0.14971196412E-01 -0.17514708481E-01  0.24212174660E-01  0.00000000000E+00 0. -1.
     999901    1    3    3    0    0 -0.22846379376E-01 -0.18589476802E-01 -0.10984263726E+00  0.88731782956E+00  0.88000000000E+00 0. -1.
        -11    1    4    4    0    0  0.23827958079E-02  0.69402920913E-02  0.17052769659E-01  0.18571576245E-01  0.51100000000E-03 0.  1.
         11    1    4    4    0    0  0.27901840528E-01 -0.33220117014E-02  0.11030457609E+00  0.11382841953E+00  0.51100000000E-03 0. -1.
</event>
<event>
 8    1  0.1150863E+005  0.1043930E+01  0.7957747E-01            NaN
         13   -1    0    0    0    0  0.00000000000E+00  0.00000000000E+00  0.74505805969E-08  0.10566000000E+00  0.10566000000E+00 0.  1.
     999900   -1    0    0    0    0 -0.00000000000E+00 -0.00000000000E+00 -0.74505805969E-08  0.93827000000E+00  0.93827000000E+00 0. -1.
     999902    2    1    2    0    0  0.17248455207E-01 -0.12933733036E-02  0.14750091502E-01  0.10211979253E+01  0.10209448836E+01 0.  0.
     999903    2    3    3    0    0 -0.11020379568E+00  0.26578126339E-01 -0.57143226419E-01  0.12867927231E+00  0.21017455020E-01 0.  0.
         14    1    1    2    0    0 -0.17248455207E-01  0.12933733036E-02 -0.14750091502E-01  0.22732074716E-01  0.00000000000E+00 0. -1.
     999901    1    3    3    0    0  0.12745225088E+00 -0.27871499643E-01  0.71893317921E-01  0.89251865298E+00  0.88000000000E+00 0. -1.
        -11    1    4    4    0    0 -0.62217582956E-01  0.16041579541E-01 -0.43815761403E-01  0.77771729898E-01  0.51100000000E-03 0. -1.
         11    1    4    4    0    0 -0.47986212719E-01  0.10536546798E-01 -0.13327465016E-01  0.50907542411E-01  0.51100000000E-03 0.  1.
</event>
<event>
 8    1  0.1150863E+005  0.1043930E+01  0.7957747E-01            NaN
         13   -1    0    0    0    0  0.00000000000E+00  0.00000000000E+00  0.74505805969E-08  0.10566000000E+00  0.10566000000E+00 0.  1.
     999900   -1    0    0    0    0 -0.00000000000E+00 -0.00000000000E+00 -0.74505805969E-08  0.93827000000E+00  0.93827000000E+00 0. -1.
     999902    2    1    2    0    0 -0.67484320770E-02  0.22908796927E-01 -0.11413600035E-01  0.10174606861E+01  0.10171163273E+01 0.  0.
     999903    2    3    3    0    0  0.65812701636E-01 -0.76731164911E-01 -0.73698402908E-01  0.12668987564E+00  0.19997165607E-01 0.  0.
         14    1    1    2    0    0  0.67484320770E-02 -0.22908796927E-01  0.11413600035E-01  0.26469313891E-01  0.00000000000E+00 0. -1.
     999901    1    3    3    0    0 -0.72561133713E-01  0.99639961838E-01  0.62284802873E-01  0.89077081047E+00  0.88000000000E+00 0.  1.
        -11    1    4    4    0    0  0.24614529608E-01 -0.21214240536E-01 -0.33701674901E-01  0.46818618961E-01  0.51100000000E-03 0. -1.
         11    1    4    4    0    0  0.41198172028E-01 -0.55516924376E-01 -0.39996728007E-01  0.79871256675E-01  0.51100000000E-03 0.  1.
</event>
<event>
 8    1  0.1150863E+005  0.1043930E+01  0.7957747E-01            NaN
         13   -1    0    0    0    0  0.00000000000E+00  0.00000000000E+00  0.74505805969E-08  0.10566000000E+00  0.10566000000E+00 0. -1.
     999900   -1    0    0    0    0 -0.00000000000E+00 -0.00000000000E+00 -0.74505805969E-08  0.93827000000E+00  0.93827000000E+00 0. -1.
     999902    2    1    2    0    0  0.16394074015E-01 -0.78304293843E-02 -0.16097969972E-01  0.10196560237E+01  0.10193670491E+01 0.  0.
     999903    2    3    3    0    0 -0.11044526113E+00  0.55792960425E-01 -0.26657133652E-01  0.12822590946E+00  0.20500510799E-01 0.  0.
         14    1    1    2    0    0 -0.16394074015E-01  0.78304293843E-02  0.16097969972E-01  0.24273976279E-01  0.00000000000E+00 0. -1.
     999901    1    3    3    0    0  0.12683933515E+00 -0.63623389810E-01  0.10559163679E-01  0.89143011426E+00  0.88000000000E+00 0.  1.
        -11    1    4    4    0    0 -0.68334009705E-01  0.25087142901E-01 -0.98237408988E-02  0.73455215115E-01  0.51100000000E-03 0.  1.
         11    1    4    4    0    0 -0.42111251427E-01  0.30705817525E-01 -0.16833392753E-01  0.54770694346E-01  0.51100000000E-03 0. -1.
</event>
<event>
 8    1  0.1150863E+005  0.1043930E+01  0.7957747E-01            NaN
         13   -1    0    0    0    0  0.00000000000E+00  0.00000000000E+00  0.74505805969E-08  0.10566000000E+00  0.10566000000E+00 0. -1.
     999900   -1    0    0    0    0 -0.00000000000E+00 -0.00000000000E+00 -0.74505805969E-08  0.93827000000E+00  0.93827000000E+00 0. -1.
     999902    2    1    2    0    0  0.59535217541E-03  0.13479803794E-01  0.12179735687E-01  0.10257529398E+01  0.10255918721E+01 0.  0.
     999903    2    3    3    0    0  0.20250342284E-01 -0.40419973825E-01 -0.12406083965E+00  0.13342284451E+00  0.19149748213E-01 0.  0.
         14    1    1    2    0    0 -0.59535217541E-03 -0.13479803794E-01 -0.12179735687E-01  0.18177060157E-01  0.00000000000E+00 0.  1.
     999901    1    3    3    0    0 -0.19654990109E-01  0.53899777619E-01  0.13624057534E+00  0.89233009533E+00  0.88000000000E+00 0.  1.
        -11    1    4    4    0    0  0.99432188077E-02 -0.32223261533E-02 -0.24589803936E-01  0.26723969853E-01  0.51100000000E-03 0. -1.
         11    1    4    4    0    0  0.10307123477E-01 -0.37197647671E-01 -0.99471035713E-01  0.10669887466E+00  0.51100000000E-03 0.  1.
</event>
<event>
 8    1  0.1150863E+005  0.1043930E+01  0.7957747E-01            NaN
         13   -1    0    0    0    0  0.00000000000E+00  0.00000000000E+00  0.74505805969E-08  0.10566000000E+00  0.10566000000E+00 0.  1.
     999900   -1    0    0    0    0 -0.00000000000E+00 -0.00000000000E+00 -0.74505805969E-08  0.93827000000E+00  0.93827000000E+00 0.  1.
     999902    2    1    2    0    0 -0.47043796287E-02  0.14840304109E-01  0.16011374027E-01  0.10215977383E+01  0.10213536161E+01 0.  0.
     999903    2    3    3    0    0 -0.58867881185E-01  0.13444269182E-01  0.11793264271E+00  0.13405980739E+00  0.20438882900E-01 0.  0.
         14    1    1    2    0    0  0.47043796287E-02 -0.14840304109E-01 -0.16011374027E-01  0.22332261685E-01  0.00000000000E+00 0. -1.
     999901    1    3    3    0    0  0.54163501556E-01  0.13960349274E-02 -0.10192126868E+00  0.88753793092E+00  0.88000000000E+00 0.  1.
        -11    1    4    4    0    0 -0.31896869272E-01  0.31593267911E-02  0.81481389191E-01  0.87560661947E-01  0.51100000000E-03 0. -1.
         11    1    4    4    0    0 -0.26971011913E-01  0.10284942391E-01  0.36451253514E-01  0.46499145447E-01  0.51100000000E-03 0.  1.
</event>
<event>
 8    1  0.1150863E+005  0.1043930E+01  0.7957747E-01            NaN
         13   -1    0    0    0    0  0.00000000000E+00  0.00000000000E+00  0.74505805969E-08  0.10566000000E+00  0.10566000000E+00 0.  1.
     999900   -1    0    0    0    0 -0.00000000000E+00 -0.00000000000E+00 -0.74505805969E-08  0.93827000000E+00  0.93827000000E+00 0.  1.
     999902    2    1    2    0    0 -0.14172322132E-01  0.16498554951E-01 -0.10782270477E-01  0.10196542016E+01  0.10193651831E+01 0.  0.
     999903    2    3    3    0    0 -0.44089037254E-02  0.11990742448E+00  0.50766910904E-01  0.13141041732E+00  0.17151957905E-01 0.  0.
         14    1    1    2    0    0  0.14172322132E-01 -0.16498554951E-01  0.10782270477E-01  0.24275798375E-01  0.00000000000E+00 0. -1.
     999901    1    3    3    0    0 -0.97634184065E-02 -0.10340886952E+00 -0.61549181381E-01  0.88824378431E+00  0.88000000000E+00 0.  1.
        -11    1    4    4    0    0 -0.70572382501E-02  0.52546584735E-01  0.29742261536E-01  0.60793185648E-01  0.51100000000E-03 0. -1.
         11    1    4    4    0    0  0.26483345247E-02  0.67360839741E-01  0.21024649368E-01  0.70617231668E-01  0.51100000000E-03 0.  1.
</event>
<event>
 8    1  0.1150863E+005  0.1043930E+01  0.7957747E-01            NaN
         13   -1    0    0    0    0  0.00000000000E+00  0.00000000000E+00  0.74505805969E-08  0.10566000000E+00  0.10566000000E+00 0. -1.
     999900   -1    0    0    0    0 -0.00000000000E+00 -0.00000000000E+00 -0.74505805969E-08  0.93827000000E+00  0.93827000000E+00 0.  1.
     999902    2    1    2    0    0 -0.17764371330E-01  0.13274835960E-01  0.70371267190E-02  0.10206638161E+01  0.10203986036E+01 0.  0.
     999903    2    3    3    0    0 -0.57702942704E-03 -0.20035542596E-02 -0.12832194458E+00  0.13001747101E+00  0.20824843688E-01 0.  0.
         14    1    1    2    0    0  0.17764371330E-01 -0.13274835960E-01 -0.70371267190E-02  0.23266183850E-01  0.00000000000E+00 0.  1.
     999901    1    3    3    0    0 -0.17187341903E-01  0.15278390219E-01  0.13535907130E+00  0.89064634514E+00  0.88000000000E+00 0. -1.
        -11    1    4    4    0    0  0.55492352550E-02 -0.60020499061E-02 -0.10967350727E+00  0.10997889767E+00  0.51100000000E-03 0. -1.
         11    1    4    4    0    0 -0.61262646820E-02  0.39984956465E-02 -0.18648437307E-01  0.20038573337E-01  0.51100000000E-03 0.  1.
</event>
<event>
 8    1  0.1150863E+005  0.1043930E+01  0.7957747E-01            NaN
         13   -1    0    0    0    0  0.00000000000E+00  0.00000000000E+00  0.74505805969E-08  0.10566000000E+00  0.10566000000E+00 0.  1.
     999900   -1    0    0    0    0 -0.00000000000E+00 -0.00000000000E+00 -0.74505805969E-08  0.93827000000E+00  0.93827000000E+00 0. -1.
     999902    2    1    2    0    0 -0.52458039186E-03 -0.13996811454E-01 -0.18005118616E-01  0.10211183755E+01  0.10208635397E+01 0.  0.
     999903    2    3    3    0    0  0.45045212689E-01 -0.25788638615E-01 -0.12141679189E+00  0.13381367734E+00  0.21678049328E-01 0.  0.
         14    1    1    2    0    0  0.52458039186E-03  0.13996811454E-01  0.18005118616E-01  0.22811624489E-01  0.00000000000E+00 0.  1.
     999901    1    3    3    0    0 -0.45569793081E-01  0.11791827161E-01  0.10341167327E+00  0.88730469817E+00  0.88000000000E+00 0.  1.
        -11    1    4    4    0    0  0.12918160005E-01 -0.19022256288E-01 -0.42188689143E-01  0.48050720128E-01  0.51100000000E-03 0.  1.
         11    1    4    4    0    0  0.32127052684E-01 -0.67663823272E-02 -0.79228102745E-01  0.85762957211E-01  0.51100000000E-03 0. -1.
</event>
<event>
 8    1  0.1150863E+005  0.1043930E+01  0.7957747E-01            NaN
         13   -1    0    0    0    0  0.00000000000E+00  0.00000000000E+00  0.74505805969E-08  0.10566000000E+00  0.10566000000E+00 0. -1.
     999900   -1    0    0    0    0 -0.00000000000E+00 -0.00000000000E+00 -0.74505805969E-08  0.93827000000E+00  0.93827000000E+00 0.  1.
     999902    2    1    2    0    0  0.20257899867E-01 -0.11264879979E-01 -0.28150409969E-02  0.10205803858E+01  0.10203132457E+01 0.  0.
     999903    2    3    3    0    0  0.12545229501E+00 -0.31726699783E-01 -0.27443520316E-01  0.13373704628E+00  0.19687278597E-01 0.  0.
         14    1    1    2    0    0 -0.20257899867E-01  0.11264879979E-01  0.28150409969E-02  0.23349614210E-01  0.00000000000E+00 0. -1.
     999901    1    3    3    0    0 -0.10519439514E+00  0.20461819805E-01  0.24628479319E-01  0.88684333951E+00  0.88000000000E+00 0. -1.
        -11    1    4    4    0    0  0.95278894052E-01 -0.26385794152E-01 -0.29057305745E-01  0.10304788170E+00  0.51100000000E-03 0. -1.
         11    1    4    4    0    0  0.30173400956E-01 -0.53409056313E-02  0.16137854284E-02  0.30689164580E-01  0.51100000000E-03 0.  1.
</event>
<event>
 8    1  0.1150863E+005  0.1043930E+01  0.7957747E-01            NaN
         13   -1    0    0    0    0  0.00000000000E+00  0.00000000000E+00  0.74505805969E-08  0.10566000000E+00  0.10566000000E+00 0. -1.
     999900   -1    0    0    0    0 -0.00000000000E+00 -0.00000000000E+00 -0.74505805969E-08  0.93827000000E+00  0.93827000000E+00 0. -1.
     999902    2    1    2    0    0 -0.81026395839E-03 -0.23290689538E-01  0.58143387242E-02  0.10199108559E+01  0.10196279884E+01 0.  0.
     999903    2    3    3    0    0  0.48548516896E-01  0.18762879857E-01  0.11782595232E+00  0.13044394057E+00  0.20583061961E-01 0.  0.
         14    1    1    2    0    0  0.81026395839E-03  0.23290689538E-01 -0.58143387242E-02  0.24019144065E-01  0.00000000000E+00 0. -1.
     999901    1    3    3    0    0 -0.49358780854E-01 -0.42053569394E-01 -0.11201161359E+00  0.88946691536E+00  0.88000000000E+00 0. -1.
        -11    1    4    4    0    0  0.50350251775E-01  0.18760769807E-01  0.11035756133E+00  0.12274431474E+00  0.51100000000E-03 0.  1.
         11    1    4    4    0    0 -0.18017348790E-02  0.21100501389E-05  0.74683909892E-02  0.76996258347E-02  0.51100000000E-03 0. -1.
</event>
<event>
 8    1  0.1150863E+005  0.1043930E+01  0.7957747E-01            NaN
         13   -1    0    0    0    0  0.00000000000E+00  0.00000000000E+00  0.74505805969E-08  0.10566000000E+00  0.10566000000E+00 0. -1.
     999900   -1    0    0    0    0 -0.00000000000E+00 -0.00000000000E+00 -0.74505805969E-08  0.93827000000E+00  0.93827000000E+00 0. -1.
     999902    2    1    2    0    0 -0.14910576389E-02  0.11302319047E-01 -0.20621281274E-01  0.10203672559E+01  0.10200951593E+01 0.  0.
     999903    2    3    3    0    0 -0.77475740710E-01 -0.19410770873E-01 -0.10398046618E+00  0.13263659873E+00  0.20031513915E-01 0.  0.
         14    1    1    2    0    0  0.14910576389E-02 -0.11302319047E-01  0.20621281274E-01  0.23562744112E-01  0.00000000000E+00 0. -1.
     999901    1    3    3    0    0  0.75984683072E-01  0.30713089920E-01  0.83359184910E-01  0.88773065716E+00  0.88000000000E+00 0. -1.
        -11    1    4    4    0    0 -0.52664918981E-01 -0.13499732629E-01 -0.54586964749E-01  0.77044365880E-01  0.51100000000E-03 0.  1.
         11    1    4    4    0    0 -0.24810821730E-01 -0.59110382438E-02 -0.49393501435E-01  0.55592232848E-01  0.51100000000E-03 0. -1.
</event>
<event>
 8    1  0.1150863E+005  0.1043930E+01  0.7957747E-01            NaN
         13   -1    0    0    0    0  0.00000000000E+00  0.00000000000E+00  0.74505805969E-08  0.10566000000E+00  0.10566000000E+00 0.  1.
     999900   -1    0    0    0    0 -0.00000000000E+00 -0.00000000000E+00 -0.74505805969E-08  0.93827000000E+00  0.93827000000E+00 0. -1.
     999902    2    1    2    0    0  0.20359565325E-02  0.61705715755E-02 -0.21726044725E-01  0.10212530934E+01  0.10210012922E+01 0.  0.
     999903    2    3    3    0    0 -0.47147980834E-01  0.11261649371E+00  0.43007306532E-01  0.13111815938E+00  0.20903027354E-01 0.  0.
         14    1    1    2    0    0 -0.20359565325E-02 -0.61705715755E-02  0.21726044725E-01  0.22676906579E-01  0.00000000000E+00 0. -1.
     999901    1    3    3    0    0  0.49183937366E-01 -0.10644592213E+00 -0.64733351257E-01  0.89013493404E+00  0.88000000000E+00 0. -1.
        -11    1    4    4    0    0 -0.11558939493E-01  0.54458710057E-01  0.18736653676E-01  0.58742518632E-01  0.51100000000E-03 0. -1.
         11    1    4    4    0    0 -0.35589041341E-01  0.58157783651E-01  0.24270652856E-01  0.72375640749E-01  0.51100000000E-03 0.  1.
</event>
<event>
 8    1  0.1150863E+005  0.1043930E+01  0.7957747E-01            NaN
         13   -1    0    0    0    0  0.00000000000E+00  0.00000000000E+00  0.74505805969E-08  0.10566000000E+00  0.10566000000E+00 0. -1.
     999900   -1    0    0    0    0 -0.00000000000E+00 -0.00000000000E+00 -0.74505805969E-08  0.93827000000E+00  0.93827000000E+00 0.  1.
     999902    2    1    2    0    0  0.14588330488E-02  0.23314070237E-01  0.24820029449E-02  0.10204388441E+01  0.10201684176E+01 0.  0.
     999903    2    3    3    0    0  0.57990263441E-01 -0.11214110974E+00  0.93808867606E-02  0.12825528511E+00  0.20564969653E-01 0.  0.
         14    1    1    2    0    0 -0.14588330488E-02 -0.23314070237E-01 -0.24820029449E-02  0.23491155857E-01  0.00000000000E+00 0.  1.
     999901    1    3    3    0    0 -0.56531430392E-01  0.13545517997E+00 -0.68988838157E-02  0.89218355903E+00  0.88000000000E+00 0. -1.
        -11    1    4    4    0    0  0.26321668614E-01 -0.48623808366E-01 -0.60427554843E-02  0.55622666185E-01  0.51100000000E-03 0.  1.
         11    1    4    4    0    0  0.31668594827E-01 -0.63517301369E-01  0.15423642245E-01  0.72632618930E-01  0.51100000000E-03 0. -1.
</event>
<event>
 8    1  0.1150863E+005  0.1043930E+01  0.7957747E-01            NaN
         13   -1    0    0    0    0  0.00000000000E+00  0.00000000000E+00  0.74505805969E-08  0.10566000000E+00  0.10566000000E+00 0. -1.
     999900   -1    0    0    0    0 -0.00000000000E+00 -0.00000000000E+00 -0.74505805969E-08  0.93827000000E+00  0.93827000000E+00 0.  1.
     999902    2    1    2    0    0 -0.39562427752E-02  0.24484326755E-02 -0.24581279138E-01  0.10189122870E+01  0.10186051063E+01 0.  0.
     999903    2    3    3    0    0  0.99046719606E-01 -0.69572284117E-01  0.36462699372E-01  0.12788874006E+00  0.19376429118E-01 0.  0.
         14    1    1    2    0    0  0.39562427752E-02 -0.24484326755E-02  0.24581279138E-01  0.25017712995E-01  0.00000000000E+00 0. -1.
     999901    1    3    3    0    0 -0.10300296238E+00  0.72020716793E-01 -0.61043978509E-01  0.89102354695E+00  0.88000000000E+00 0.  1.
        -11    1    4    4    0    0  0.40272929857E-01 -0.36432579808E-01  0.90509062514E-02  0.55058348828E-01  0.51100000000E-03 0. -1.
         11    1    4    4    0    0  0.58773789749E-01 -0.33139704310E-01  0.27411793120E-01  0.72830391227E-01  0.51100000000E-03 0.  1.
</event>
<event>
 8    1  0.1150863E+005  0.1043930E+01  0.7957747E-01            NaN
         13   -1    0    0    0    0  0.00000000000E+00  0.00000000000E+00  0.74505805969E-08  0.10566000000E+00  0.10566000000E+00 0. -1.
     999900   -1    0    0    0    0 -0.00000000000E+00 -0.00000000000E+00 -0.74505805969E-08  0.93827000000E+00  0.93827000000E+00 0.  1.
     999902    2    1    2    0    0 -0.20851577461E-02 -0.13943655820E-01 -0.17666381308E-01  0.10213274681E+01  0.10210773343E+01 0.  0.
     999903    2    3    3    0    0  0.10969757567E+00 -0.48092344422E-01 -0.53662608500E-01  0.13286968023E+00  0.20694073430E-01 0.  0.
         14    1    1    2    0    0  0.20851577461E-02  0.13943655820E-01  0.17666381308E-01  0.22602531915E-01  0.00000000000E+00 0. -1.
     999901    1    3    3    0    0 -0.11178273341E+00  0.34148688602E-01  0.35996227192E-01  0.88845778785E+00  0.88000000000E+00 0. -1.
        -11    1    4    4    0    0  0.61009822788E-01 -0.25646524730E-01 -0.40747421137E-01  0.77721014904E-01  0.51100000000E-03 0.  1.
         11    1    4    4    0    0  0.48687752878E-01 -0.22445819692E-01 -0.12915187363E-01  0.55148665329E-01  0.51100000000E-03 0. -1.
</event>
<event>
 8    1  0.1150863E+005  0.1043930E+01  0.7957747E-01            NaN
         13   -1    0    0    0    0  0.00000000000E+00  0.00000000000E+00  0.74505805969E-08  0.10566000000E+00  0.10566000000E+00 0. -1.
     999900   -1    0    0    0    0 -0.00000000000E+00 -0.00000000000E+00 -0.74505805969E-08  0.93827000000E+00  0.93827000000E+00 0.  1.
     999902    2    1    2    0    0  0.12407539839E-01  0.82831143550E-02  0.16888949234E-01  0.10213957231E+01  0.10211471146E+01 0.  0.
     999903    2    3    3    0    0 -0.99392990085E-02  0.11958142638E+00  0.54827953883E-01  0.13329321578E+00  0.19038635623E-01 0.  0.
         14    1    1    2    0    0 -0.12407539839E-01 -0.82831143550E-02 -0.16888949234E-01  0.22534276880E-01  0.00000000000E+00 0.  1.
     999901    1    3    3    0    0  0.22346838848E-01 -0.11129831203E+00 -0.37939004649E-01  0.88810250734E+00  0.88000000000E+00 0. -1.
        -11    1    4    4    0    0 -0.26407913235E-02  0.99326293735E-01  0.39825419716E-01  0.10704677287E+00  0.51100000000E-03 0.  1.
         11    1    4    4    0    0 -0.72985076849E-02  0.20255132646E-01  0.15002534167E-01  0.26246442909E-01  0.51100000000E-03 0. -1.
</event>
<event>
 8    1  0.1150863E+005  0.1043930E+01  0.7957747E-01            NaN
         13   -1    0    0    0    0  0.00000000000E+00  0.00000000000E+00  0.74505805969E-08  0.10566000000E+00  0.10566000000E+00 0.  1.
     999900   -1    0    0    0    0 -0.00000000000E+00 -0.00000000000E+00 -0.74505805969E-08  0.93827000000E+00  0.93827000000E+00 0. -1.
     999902    2    1    2    0    0 -0.12739783190E-01  0.92056982610E-02  0.16501750971E-01  0.10211406441E+01  0.10208863112E+01 0.  0.
     999903    2    3    3    0    0  0.12322792643E+00 -0.97922527030E-02 -0.31779756312E-01  0.12918815428E+00  0.19965375748E-01 0.  0.
         14    1    1    2    0    0  0.12739783190E-01 -0.92056982610E-02 -0.16501750971E-01  0.22789355877E-01  0.00000000000E+00 0.  1.
     999901    1    3    3    0    0 -0.13596770962E+00  0.18997950964E-01  0.48281507283E-01  0.89195248985E+00  0.88000000000E+00 0.  1.
        -11    1    4    4    0    0  0.64513593861E-01 -0.52407988969E-02 -0.63471393904E-02  0.65038581360E-01  0.51100000000E-03 0.  1.
         11    1    4    4    0    0  0.58714332568E-01 -0.45514538061E-02 -0.25432616922E-01  0.64149572915E-01  0.51100000000E-03 0. -1.
</event>
<event>
 8    1  0.1150863E+005  0.1043930E+01  0.7957747E-01            NaN
         13   -1    0    0    0    0  0.00000000000E+00  0.00000000000E+00  0.74505805969E-08  0.10566000000E+00  0.10566000000E+00 0.  1.
     999900   -1    0    0    0    0 -0.00000000000E+00 -0.00000000000E+00 -0.74505805969E-08  0.93827000000E+00  0.93827000000E+00 0.  1.
     999902    2    1    2    0    0  0.18322570265E-01  0.15775066178E-01 -0.13469727690E-02  0.10197146406E+01  0.10194270767E+01 0.  0.
     999903    2    3    3    0    0  0.72204543408E-02  0.10482846351E+00 -0.76701403403E-01  0.13194662207E+00  0.22037787273E-01 0.  0.
         14    1    1    2    0    0 -0.18322570265E-01 -0.15775066178E-01  0.13469727690E-02  0.24215359375E-01  0.00000000000E+00 0.  1.
     999901    1    3    3    0    0  0.11102115924E-01 -0.89053397335E-01  0.75354430634E-01  0.88776801856E+00  0.88000000000E+00 0. -1.
        -11    1    4    4    0    0  0.26258665140E-02  0.84338448705E-01 -0.50399480770E-01  0.98286509186E-01  0.51100000000E-03 0. -1.
         11    1    4    4    0    0  0.45945878268E-02  0.20490014808E-01 -0.26301922632E-01  0.33660112883E-01  0.51100000000E-03 0.  1.
</event>
<event>
 8    1  0.1150863E+005  0.1043930E+01  0.7957747E-01            NaN
         13   -1    0    0    0    0  0.00000000000E+00  0.00000000000E+00  0.74505805969E-08  0.10566000000E+00  0.10566000000E+00 0.  1.
     999900   -1    0    0    0    0 -0.00000000000E+00 -0.00000000000E+00 -0.74505805969E-08  0.93827000000E+00  0.93827000000E+00 0.  1.
     999902    2    1    2    0    0  0.70249099225E-02 -0.56529371595E-02 -0.24636147576E-01  0.10176955794E+01  0.10173573843E+01 0.  0.
     999903    2    3    3    0    0 -0.40563538655E-01  0.61750610878E-01 -0.10525375757E+00  0.13016693321E+00  0.20162797625E-01 0.  0.
         14    1    1    2    0    0 -0.70249099225E-02  0.56529371595E-02  0.24636147576E-01  0.26234420621E-01  0.00000000000E+00 0.  1.
     999901    1    3    3    0    0  0.47588448578E-01 -0.67403548037E-01  0.80617609990E-01  0.88752864617E+00  0.88000000000E+00 0. -1.
        -11    1    4    4    0    0 -0.33446246824E-01  0.44026932567E-01 -0.63180603298E-01  0.83958751610E-01  0.51100000000E-03 0. -1.
         11    1    4    4    0    0 -0.71172918315E-02  0.17723678310E-01 -0.42073154268E-01  0.46208181602E-01  0.51100000000E-03 0.  1.
</event>
<event>
 8    1  0.1150863E+005  0.1043930E+01  0.7957747E-01            NaN
         13   -1    0    0    0    0  0.00000000000E+00  0.00000000000E+00  0.74505805969E-08  0.10566000000E+00  0.10566000000E+00 0. -1.
     999900   -1    0    0    0    0 -0.00000000000E+00 -0.00000000000E+00 -0.74505805969E-08  0.93827000000E+00  0.93827000000E+00 0. -1.
     999902    2    1    2    0    0 -0.14189153784E-01  0.16417989567E-01 -0.94552232107E-02  0.10202596871E+01  0.10199850712E+01 0.  0.
     999903    2    3    3    0    0  0.54787298249E-01  0.10334662752E+00 -0.57853336459E-01  0.13197104235E+00  0.19676737806E-01 0.  0.
         14    1    1    2    0    0  0.14189153784E-01 -0.16417989567E-01  0.94552232107E-02  0.23670312894E-01  0.00000000000E+00 0. -1.
     999901    1    3    3    0    0 -0.68976452034E-01 -0.86928637954E-01  0.48398113248E-01  0.88828864475E+00  0.88000000000E+00 0.  1.
        -11    1    4    4    0    0  0.32127704197E-01  0.77254587524E-01 -0.36046106426E-01  0.91104574967E-01  0.51100000000E-03 0. -1.
         11    1    4    4    0    0  0.22659594052E-01  0.26092039997E-01 -0.21807230033E-01  0.40866467385E-01  0.51100000000E-03 0.  1.
</event>
<event>
 8    1  0.1150863E+005  0.1043930E+01  0.7957747E-01            NaN
         13   -1    0    0    0    0  0.00000000000E+00  0.00000000000E+00  0.74505805969E-08  0.10566000000E+00  0.10566000000E+00 0.  1.
     999900   -1    0    0    0    0 -0.00000000000E+00 -0.00000000000E+00 -0.74505805969E-08  0.93827000000E+00  0.93827000000E+00 0.  1.
     999902    2    1    2    0    0  0.22366537675E-02 -0.17148799069E-01  0.15707943323E-01  0.10205671360E+01  0.10202996892E+01 0.  0.
     999903    2    3    3    0    0  0.69597956215E-01  0.98414871999E-01  0.44063408763E-01  0.13000745832E+00  0.20760363363E-01 0.  0.
         14    1    1    2    0    0 -0.22366537675E-02  0.17148799069E-01 -0.15707943323E-01  0.23362863973E-01  0.00000000000E+00 0. -1.
     999901    1    3    3    0    0 -0.67361302448E-01 -0.11556367107E+00 -0.28355465440E-01  0.89055967771E+00  0.88000000000E+00 0. -1.
        -11    1    4    4    0    0  0.38013320656E-01  0.39706308619E-01  0.13154989208E-01  0.56523608815E-01  0.51100000000E-03 0. -1.
         11    1    4    4    0    0  0.31584635559E-01  0.58708563380E-01  0.30908419555E-01  0.73483849504E-01  0.51100000000E-03 0.  1.
</event>
<event>
 8    1  0.1150863E+005  0.1043930E+01  0.7957747E-01            NaN
         13   -1    0    0    0    0  0.00000000000E+00  0.00000000000E+00  0.74505805969E-08  0.10566000000E+00  0.10566000000E+00 0. -1.
     999900   -1    0    0    0    0 -0.00000000000E+00 -0.00000000000E+00 -0.74505805969E-08  0.93827000000E+00  0.93827000000E+00 0.  1.
     999902    2    1    2    0    0 -0.42474486479E-02 -0.21310146992E-01 -0.11721963675E-01  0.10192405768E+01  0.10189415026E+01 0.  0.
     999903    2    3    3    0    0  0.55905574153E-01 -0.10769322336E+00 -0.48399055383E-01  0.13220865456E+00  0.20332146977E-01 0.  0.
         14    1    1    2    0    0  0.42474486479E-02  0.21310146992E-01  0.11721963675E-01  0.24689423186E-01  0.00000000000E+00 0. -1.
     999901    1    3    3    0    0 -0.60153022801E-01  0.86383076368E-01  0.36677091708E-01  0.88703192225E+00  0.88000000000E+00 0. -1.
        -11    1    4    4    0    0  0.45352400581E-02 -0.67270711957E-02  0.17583894766E-02  0.83171475765E-02  0.51100000000E-03 0. -1.
         11    1    4    4    0    0  0.51370334095E-01 -0.10096615216E+00 -0.50157444859E-01  0.12389150699E+00  0.51100000000E-03 0.  1.
</event>
<event>
 8    1  0.1150863E+005  0.1043930E+01  0.7957747E-01            NaN
         13   -1    0    0    0    0  0.00000000000E+00  0.00000000000E+00  0.74505805969E-08  0.10566000000E+00  0.10566000000E+00 0. -1.
     999900   -1    0    0    0    0 -0.00000000000E+00 -0.00000000000E+00 -0.74505805969E-08  0.93827000000E+00  0.93827000000E+00 0. -1.
     999902    2    1    2    0    0 -0.12178003681E-01 -0.17829204542E-01 -0.10439213511E-01  0.10199474754E+01  0.10196654800E+01 0.  0.
     999903    2    3    3    0    0  0.24599870062E-01 -0.12169287458E+00 -0.42192240830E-01  0.13250816552E+00  0.19076671956E-01 0.  0.
         14    1    1    2    0    0  0.12178003681E-01  0.17829204542E-01  0.10439213511E-01  0.23982524617E-01  0.00000000000E+00 0.  1.
     999901    1    3    3    0    0 -0.36777873743E-01  0.10386367004E+00  0.31753027318E-01  0.88743930987E+00  0.88000000000E+00 0.  1.
        -11    1    4    4    0    0  0.22941109834E-02 -0.33518322041E-01 -0.19176305243E-01  0.38687629308E-01  0.51100000000E-03 0. -1.
         11    1    4    4    0    0  0.22305759078E-01 -0.88174552536E-01 -0.23015935586E-01  0.93820536210E-01  0.51100000000E-03 0.  1.
</event>
<event>
 8    1  0.1150863E+005  0.1043930E+01  0.7957747E-01            NaN
         13   -1    0    0    0    0  0.00000000000E+00  0.00000000000E+00  0.74505805969E-08  0.10566000000E+00  0.10566000000E+00 0.  1.
     999900   -1    0    0    0    0 -0.00000000000E+00 -0.00000000000E+00 -0.74505805969E-08  0.93827000000E+00  0.93827000000E+00 0.  1.
     999902    2    1    2    0    0  0.22570114049E-01 -0.77641055930E-02  0.11869654888E-02  0.10200322957E+01  0.10197523150E+01 0.  0.
     999903    2    3    3    0    0  0.52474337978E-01 -0.11954381767E+00 -0.75364619127E-02  0.13241466134E+00  0.20798167925E-01 0.  0.
         14    1    1    2    0    0 -0.22570114049E-01  0.77641055930E-02 -0.11869654888E-02  0.23897704302E-01  0.00000000000E+00 0.  1.
     999901    1    3    3    0    0 -0.29904223929E-01  0.11177971208E+00  0.87234274014E-02  0.88761763436E+00  0.88000000000E+00 0.  1.
        -11    1    4    4    0    0  0.37816236720E-01 -0.89434828478E-01  0.34599155550E-02  0.97164234372E-01  0.51100000000E-03 0.  1.
         11    1    4    4    0    0  0.14658101258E-01 -0.30108989195E-01 -0.10996377468E-01  0.35250426965E-01  0.51100000000E-03 0. -1.
</event>
<event>
 8    1  0.1150863E+005  0.1043930E+01  0.7957747E-01            NaN
         13   -1    0    0    0    0  0.00000000000E+00  0.00000000000E+00  0.74505805969E-08  0.10566000000E+00  0.10566000000E+00 0.  1.
     999900   -1    0    0    0    0 -0.00000000000E+00 -0.00000000000E+00 -0.74505805969E-08  0.93827000000E+00  0.93827000000E+00 0.  1.
     999902    2    1    2    0    0  0.22114561775E-01  0.72418429802E-02  0.40537146754E-02  0.10203094425E+01  0.10200359934E+01 0.  0.
     999903    2    3    3    0    0 -0.53515237410E-01  0.11514644977E+00  0.21520683085E-01  0.13032721480E+00  0.19986435102E-01 0.  0.
         14    1    1    2    0    0 -0.22114561775E-01 -0.72418429802E-02 -0.40537146754E-02  0.23620557464E-01  0.00000000000E+00 0. -1.
     999901    1    3    3    0    0  0.75629799185E-01 -0.10790460679E+00 -0.17466968410E-01  0.88998222773E+00  0.88000000000E+00 0. -1.
        -11    1    4    4    0    0 -0.30431747548E-01  0.81605991400E-01  0.21051925674E-01  0.89605099111E-01  0.51100000000E-03 0.  1.
         11    1    4    4    0    0 -0.23083489862E-01  0.33540458373E-01  0.46875741140E-03  0.40722115694E-01  0.51100000000E-03 0. -1.
</event>
<event>
 8    1  0.1150863E+005  0.1043930E+01  0.7957747E-01            NaN
         13   -1    0    0    0    0  0.00000000000E+00  0.00000000000E+00  0.74505805969E-08  0.10566000000E+00  0.10566000000E+00 0. -1.
     999900   -1    0    0    0    0 -0.00000000000E+00 -0.00000000000E+00 -0.74505805969E-08  0.93827000000E+00  0.93827000000E+00 0. -1.
     999902    2    1    2    0    0  0.10200990160E-01 -0.20772350131E-01  0.64127690190E-02  0.10199159554E+01  0.10196332094E+01 0.  0.
     999903    2    3    3    0    0 -0.10047782773E+00 -0.71112904827E-02  0.80321211909E-01  0.12980423030E+00  0.15851712928E-01 0.  0.
         14    1    1    2    0    0 -0.10200990160E-01  0.20772350131E-01 -0.64127690190E-02  0.24014044572E-01  0.00000000000E+00 0.  1.
     999901    1    3    3    0    0  0.11067881789E+00 -0.13661059648E-01 -0.73908442890E-01  0.89011172513E+00  0.88000000000E+00 0. -1.
        -11    1    4    4    0    0 -0.57279782853E-01 -0.10192834693E-02  0.36283554256E-01  0.67814230755E-01  0.51100000000E-03 0. -1.
         11    1    4    4    0    0 -0.43198044881E-01 -0.60920070134E-02  0.44037657653E-01  0.61989999545E-01  0.51100000000E-03 0.  1.
</event>
<event>
 8    1  0.1150863E+005  0.1043930E+01  0.7957747E-01            NaN
         13   -1    0    0    0    0  0.00000000000E+00  0.00000000000E+00  0.74505805969E-08  0.10566000000E+00  0.10566000000E+00 0.  1.
     999900   -1    0    0    0    0 -0.00000000000E+00 -0.00000000000E+00 -0.74505805969E-08  0.93827000000E+00  0.93827000000E+00 0. -1.
     999902    2    1    2    0    0 -0.24317460609E-01  0.17060199490E-01 -0.86304894673E-02  0.10129966095E+01  0.10125242003E+01 0.  0.
     999903    2    3    3    0    0  0.97173461163E-01  0.57386609660E-01 -0.44414286522E-01  0.12301529313E+00  0.20596819486E-01 0.  0.
         14    1    1    2    0    0  0.24317460609E-01 -0.17060199490E-01  0.86304894673E-02  0.30933390463E-01  0.00000000000E+00 0. -1.
     999901    1    3    3    0    0 -0.12149092177E+00 -0.40326410170E-01  0.35783797055E-01  0.88998131641E+00  0.88000000000E+00 0. -1.
        -11    1    4    4    0    0  0.10799419149E-01  0.12461295317E-02 -0.88663048525E-02  0.14037548771E-01  0.51100000000E-03 0. -1.
         11    1    4    4    0    0  0.86374042014E-01  0.56140480128E-01 -0.35547981669E-01  0.10897774435E+00  0.51100000000E-03 0.  1.
</event>
<event>
 8    1  0.1150863E+005  0.1043930E+01  0.7957747E-01            NaN
         13   -1    0    0    0    0  0.00000000000E+00  0.00000000000E+00  0.74505805969E-08  0.10566000000E+00  0.10566000000E+00 0.  1.
     999900   -1    0    0    0    0 -0.00000000000E+00 -0.00000000000E+00 -0.74505805969E-08  0.93827000000E+00  0.93827000000E+00 0.  1.
     999902    2    1    2    0    0  0.16879712094E-01  0.17833431914E-01 -0.23878977665E-03  0.10193736771E+01  0.10190778579E+01 0.  0.
     999903    2    3    3    0    0  0.38684866934E-01  0.27701934624E-01  0.12018306438E+00  0.13085002795E+00  0.20343174255E-01 0.  0.
         14    1    1    2    0    0 -0.16879712094E-01 -0.17833431914E-01  0.23878977665E-03  0.24556322908E-01  0.00000000000E+00 0.  1.
     999901    1    3    3    0    0 -0.21805154840E-01 -0.98685027102E-02 -0.12042185416E+00  0.88852364914E+00  0.88000000000E+00 0.  1.
        -11    1    4    4    0    0  0.10605798036E-01  0.17548953791E-01  0.34794639177E-01  0.40390305367E-01  0.51100000000E-03 0. -1.
         11    1    4    4    0    0  0.28079068897E-01  0.10152980833E-01  0.85388425206E-01  0.90459722584E-01  0.51100000000E-03 0.  1.
</event>
<event>
 8    1  0.1150863E+005  0.1043930E+01  0.7957747E-01            NaN
         13   -1    0    0    0    0  0.00000000000E+00  0.00000000000E+00  0.74505805969E-08  0.10566000000E+00  0.10566000000E+00 0.  1.
     999900   -1    0    0    0    0 -0.00000000000E+00 -0.00000000000E+00 -0.74505805969E-08  0.93827000000E+00  0.93827000000E+00 0.  1.
     999902    2    1    2    0    0  0.83965347756E-02  0.19101070928E-01 -0.10606405886E-01  0.10205238352E+01  0.10202553845E+01 0.  0.
     999903    2    3    3    0    0 -0.40948285319E-01  0.92532882369E-01  0.81105133005E-01  0.13134547928E+00  0.20844566108E-01 0.  0.
         14    1    1    2    0    0 -0.83965347756E-02 -0.19101070928E-01  0.10606405886E-01  0.23406164843E-01  0.00000000000E+00 0.  1.
     999901    1    3    3    0    0  0.49344820095E-01 -0.73431811441E-01 -0.91711538891E-01  0.88917835588E+00  0.88000000000E+00 0.  1.
        -11    1    4    4    0    0 -0.13917080246E-01  0.40358730012E-01  0.46600386430E-01  0.63201023308E-01  0.51100000000E-03 0. -1.
         11    1    4    4    0    0 -0.27031205073E-01  0.52174152358E-01  0.34504746575E-01  0.68144455968E-01  0.51100000000E-03 0.  1.
</event>
<event>
 8    1  0.1150863E+005  0.1043930E+01  0.7957747E-01            NaN
         13   -1    0    0    0    0  0.00000000000E+00  0.00000000000E+00  0.74505805969E-08  0.10566000000E+00  0.10566000000E+00 0.  1.
     999900   -1    0    0    0    0 -0.00000000000E+00 -0.00000000000E+00 -0.74505805969E-08  0.93827000000E+00  0.93827000000E+00 0.  1.
     999902    2    1    2    0    0 -0.28124408075E-01  0.23982409591E-03  0.70059632531E-02  0.10149451183E+01  0.10145311576E+01 0.  0.
     999903    2    3    3    0    0 -0.11961166513E+00  0.39552626561E-01  0.20974136622E-01  0.12921913105E+00  0.19654737856E-01 0.  0.
         14    1    1    2    0    0  0.28124408075E-01 -0.23982409591E-03 -0.70059632531E-02  0.28984881685E-01  0.00000000000E+00 0. -1.
     999901    1    3    3    0    0  0.91487257056E-01 -0.39312802465E-01 -0.13968173369E-01  0.88572598726E+00  0.88000000000E+00 0.  1.
        -11    1    4    4    0    0 -0.56729796923E-01  0.24244609404E-01  0.18667011472E-01  0.64457655732E-01  0.51100000000E-03 0.  1.
         11    1    4    4    0    0 -0.62881868208E-01  0.15308017157E-01  0.23071251507E-02  0.64761475323E-01  0.51100000000E-03 0. -1.
</event>
<event>
 8    1  0.1150863E+005  0.1043930E+01  0.7957747E-01            NaN
         13   -1    0    0    0    0  0.00000000000E+00  0.00000000000E+00  0.74505805969E-08  0.10566000000E+00  0.10566000000E+00 0. -1.
     999900   -1    0    0    0    0 -0.00000000000E+00 -0.00000000000E+00 -0.74505805969E-08  0.93827000000E+00  0.93827000000E+00 0. -1.
     999902    2    1    2    0    0 -0.15723851339E-01  0.60014380665E-02 -0.16233291973E-01  0.10205467468E+01  0.10202788276E+01 0.  0.
     999903    2    3    3    0    0  0.34618682979E-02  0.73419353485E-01  0.10517368706E+00  0.12945027524E+00  0.17131354601E-01 0.  0.
         14    1    1    2    0    0  0.15723851339E-01 -0.60014380665E-02  0.16233291973E-01  0.23383253154E-01  0.00000000000E+00 0.  1.
     999901    1    3    3    0    0 -0.19185719637E-01 -0.67417915419E-01 -0.12140697903E+00  0.89109647161E+00  0.88000000000E+00 0. -1.
        -11    1    4    4    0    0 -0.16942497013E-02  0.76708468642E-02  0.21586222423E-01  0.22976912176E-01  0.51100000000E-03 0. -1.
         11    1    4    4    0    0  0.51561179991E-02  0.65748506621E-01  0.83587464638E-01  0.10647336306E+00  0.51100000000E-03 0.  1.
</event>
<event>
 8    1  0.1150863E+005  0.1043930E+01  0.7957747E-01            NaN
         13   -1    0    0    0    0  0.00000000000E+00  0.00000000000E+00  0.74505805969E-08  0.10566000000E+00  0.10566000000E+00 0. -1.
     999900   -1    0    0    0    0 -0.00000000000E+00 -0.00000000000E+00 -0.74505805969E-08  0.93827000000E+00  0.93827000000E+00 0. -1.
     999902    2    1    2    0    0 -0.22490621862E-01 -0.29280068561E-01 -0.49476791818E-02  0.10066790938E+01  0.10059896460E+01 0.  0.
     999903    2    3    3    0    0  0.11366895437E-01  0.47665893573E-01  0.10335651802E+00  0.11606312057E+00  0.19668106606E-01 0.  0.
         14    1    1    2    0    0  0.22490621862E-01  0.29280068561E-01  0.49476791818E-02  0.37250906243E-01  0.00000000000E+00 0.  1.
     999901    1    3    3    0    0 -0.33857517299E-01 -0.76945962133E-01 -0.10830419720E+00  0.89061597319E+00  0.88000000000E+00 0. -1.
        -11    1    4    4    0    0  0.10472121229E-01  0.25232429683E-01  0.36903461613E-01  0.45918051252E-01  0.51100000000E-03 0.  1.
         11    1    4    4    0    0  0.89477420777E-03  0.22433463890E-01  0.66453056404E-01  0.70145069317E-01  0.51100000000E-03 0. -1.
</event>
<event>
 8    1  0.1150863E+005  0.1043930E+01  0.7957747E-01            NaN
         13   -1    0    0    0    0  0.00000000000E+00  0.00000000000E+00  0.74505805969E-08  0.10566000000E+00  0.10566000000E+00 0. -1.
     999900   -1    0    0    0    0 -0.00000000000E+00 -0.00000000000E+00 -0.74505805969E-08  0.93827000000E+00  0.93827000000E+00 0. -1.
     999902    2    1    2    0    0  0.14241005718E-01 -0.10010929462E-01  0.23535729835E-01  0.10146561972E+01  0.10142338206E+01 0.  0.
     999903    2    3    3    0    0 -0.49383481141E-01  0.82781406011E-01 -0.71778091899E-01  0.12238761796E+00  0.23133204768E-01 0.  0.
         14    1    1    2    0    0 -0.14241005718E-01  0.10010929462E-01 -0.23535729835E-01  0.29273802818E-01  0.00000000000E+00 0.  1.
     999901    1    3    3    0    0  0.63624486859E-01 -0.92792335473E-01  0.95313821734E-01  0.89226857922E+00  0.88000000000E+00 0.  1.
        -11    1    4    4    0    0 -0.39858190306E-01  0.66100652635E-01 -0.67858110388E-01  0.10277624181E+00  0.51100000000E-03 0. -1.
         11    1    4    4    0    0 -0.95252908352E-02  0.16680753376E-01 -0.39199815111E-02  0.19611376156E-01  0.51100000000E-03 0.  1.
</event>
<event>
 8    1  0.1150863E+005  0.1043930E+01  0.7957747E-01            NaN
         13   -1    0    0    0    0  0.00000000000E+00  0.00000000000E+00  0.74505805969E-08  0.10566000000E+00  0.10566000000E+00 0. -1.
     999900   -1    0    0    0    0 -0.00000000000E+00 -0.00000000000E+00 -0.74505805969E-08  0.93827000000E+00  0.93827000000E+00 0. -1.
     999902    2    1    2    0    0  0.19775922113E-01  0.99783523244E-02 -0.10221867645E-01  0.10195344843E+01  0.10192425734E+01 0.  0.
     999903    2    3    3    0    0 -0.77453601511E-01  0.23562504175E-01 -0.99202118825E-01  0.12961561461E+00  0.20122007377E-01 0.  0.
         14    1    1    2    0    0 -0.19775922113E-01 -0.99783523244E-02  0.10221867645E-01  0.24395515750E-01  0.00000000000E+00 0. -1.
     999901    1    3    3    0    0  0.97229523624E-01 -0.13584151850E-01  0.88980251179E-01  0.88991886964E+00  0.88000000000E+00 0.  1.
        -11    1    4    4    0    0 -0.44429096406E-01  0.21326192620E-01 -0.69074275767E-01  0.84854391713E-01  0.51100000000E-03 0.  1.
         11    1    4    4    0    0 -0.33024505105E-01  0.22363115546E-02 -0.30127843057E-01  0.44761222895E-01  0.51100000000E-03 0. -1.
</event>
<event>
 8    1  0.1150863E+005  0.1043930E+01  0.7957747E-01            NaN
         13   -1    0    0    0    0  0.00000000000E+00  0.00000000000E+00  0.74505805969E-08  0.10566000000E+00  0.10566000000E+00 0. -1.
     999900   -1    0    0    0    0 -0.00000000000E+00 -0.00000000000E+00 -0.74505805969E-08  0.93827000000E+00  0.93827000000E+00 0. -1.
     999902    2    1    2    0    0  0.10193265645E-01  0.16743142552E-01 -0.72447691240E-02  0.10230321014E+01  0.10228186341E+01 0.  0.
     999903    2    3    3    0    0 -0.10366110510E+00  0.32885914848E-01  0.71983332927E-01  0.13202115925E+00  0.20515315381E-01 0.  0.
         14    1    1    2    0    0 -0.10193265645E-01 -0.16743142552E-01  0.72447691240E-02  0.20897898619E-01  0.00000000000E+00 0. -1.
     999901    1    3    3    0    0  0.11385437075E+00 -0.16142772295E-01 -0.79228102051E-01  0.89101094213E+00  0.88000000000E+00 0. -1.
        -11    1    4    4    0    0 -0.62546726658E-01  0.17156150183E-01  0.31051647966E-01  0.71908917855E-01  0.51100000000E-03 0. -1.
         11    1    4    4    0    0 -0.41114378444E-01  0.15729764664E-01  0.40931684961E-01  0.60112241399E-01  0.51100000000E-03 0.  1.
</event>
<event>
 8    1  0.1150863E+005  0.1043930E+01  0.7957747E-01            NaN
         13   -1    0    0    0    0  0.00000000000E+00  0.00000000000E+00  0.74505805969E-08  0.10566000000E+00  0.10566000000E+00 0.  1.
     999900   -1    0    0    0    0 -0.00000000000E+00 -0.00000000000E+00 -0.74505805969E-08  0.93827000000E+00  0.93827000000E+00 0. -1.
     999902    2    1    2    0    0 -0.26275263460E-01 -0.18354907686E-01  0.96874136819E-02  0.10104465998E+01  0.10098916739E+01 0.  0.
     999903    2    3    3    0    0 -0.68670239855E-01 -0.10110626069E+00 -0.17702578179E-01  0.12512443690E+00  0.20116302926E-01 0.  0.
         14    1    1    2    0    0  0.26275263460E-01  0.18354907686E-01 -0.96874136819E-02  0.33483400214E-01  0.00000000000E+00 0. -1.
     999901    1    3    3    0    0  0.42394976395E-01  0.82751352999E-01  0.27389991861E-01  0.88532216289E+00  0.88000000000E+00 0. -1.
        -11    1    4    4    0    0 -0.32747200507E-01 -0.56943852791E-01 -0.64467861356E-03  0.65693669735E-01  0.51100000000E-03 0.  1.
         11    1    4    4    0    0 -0.35923039348E-01 -0.44162407894E-01 -0.17057899565E-01  0.59430767163E-01  0.51100000000E-03 0. -1.
</event>
<event>
 8    1  0.1150863E+005  0.1043930E+01  0.7957747E-01            NaN
         13   -1    0    0    0    0  0.00000000000E+00  0.00000000000E+00  0.74505805969E-08  0.10566000000E+00  0.10566000000E+00 0. -1.
     999900   -1    0    0    0    0 -0.00000000000E+00 -0.00000000000E+00 -0.74505805969E-08  0.93827000000E+00  0.93827000000E+00 0.  1.
     999902    2    1    2    0    0  0.81001669592E-02  0.20325650235E-01  0.11662260061E-01  0.10191357855E+01  0.10188341358E+01 0.  0.
     999903    2    3    3    0    0 -0.75466152055E-01 -0.94701725307E-01  0.33083615395E-01  0.12746684400E+00  0.22129478739E-01 0.  0.
         14    1    1    2    0    0 -0.81001669592E-02 -0.20325650235E-01 -0.11662260061E-01  0.24794214486E-01  0.00000000000E+00 0.  1.
     999901    1    3    3    0    0  0.83566319014E-01  0.11502737554E+00 -0.21421355334E-01  0.89166894151E+00  0.88000000000E+00 0.  1.
        -11    1    4    4    0    0 -0.34975402132E-01 -0.37046174605E-01  0.24357436678E-01  0.56473388863E-01  0.51100000000E-03 0. -1.
         11    1    4    4    0    0 -0.40490749923E-01 -0.57655550702E-01  0.87261787170E-02  0.70993455135E-01  0.51100000000E-03 0.  1.
</event>
<event>
 8    1  0.1150863E+005  0.1043930E+01  0.7957747E-01            NaN
         13   -1    0    0    0    0  0.00000000000E+00  0.00000000000E+00  0.74505805969E-08  0.10566000000E+00  0.10566000000E+00 0.  1.
     999900   -1    0    0    0    0 -0.00000000000E+00 -0.00000000000E+00 -0.74505805969E-08  0.93827000000E+00  0.93827000000E+00 0. -1.
     999902    2    1    2    0    0 -0.82175856499E-02 -0.13659712552E-01  0.17921727429E-01  0.10199444882E+01  0.10196624217E+01 0.  0.
     999903    2    3    3    0    0  0.43421072391E-01 -0.83652545165E-01 -0.86355955267E-01  0.12952920156E+00  0.20912321892E-01 0.  0.
         14    1    1    2    0    0  0.82175856499E-02  0.13659712552E-01 -0.17921727429E-01  0.23985511772E-01  0.00000000000E+00 0. -1.
     999901    1    3    3    0    0 -0.51638658041E-01  0.69992832613E-01  0.10427768270E+00  0.89041528667E+00  0.88000000000E+00 0.  1.
        -11    1    4    4    0    0  0.60426896507E-02 -0.13208917473E-01 -0.24967806728E-01  0.28890172946E-01  0.51100000000E-03 0.  1.
         11    1    4    4    0    0  0.37378382740E-01 -0.70443627692E-01 -0.61388148539E-01  0.10063902862E+00  0.51100000000E-03 0. -1.
</event>
<event>
 8    1  0.1150863E+005  0.1043930E+01  0.7957747E-01            NaN
         13   -1    0    0    0    0  0.00000000000E+00  0.00000000000E+00  0.74505805969E-08  0.10566000000E+00  0.10566000000E+00 0.  1.
     999900   -1    0    0    0    0 -0.00000000000E+00 -0.00000000000E+00 -0.74505805969E-08  0.93827000000E+00  0.93827000000E+00 0. -1.
     999902    2    1    2    0    0  0.15441975666E-01 -0.42001137367E-02 -0.15571183134E-02  0.10278514371E+01  0.10277256718E+01 0.  0.
     999903    2    3    3    0    0  0.52986487315E-01 -0.39075601820E-02 -0.12498167142E+00  0.13844528900E+00  0.26904330370E-01 0.  0.
         14    1    1    2    0    0 -0.15441975666E-01  0.42001137367E-02  0.15571183134E-02  0.16078562912E-01  0.00000000000E+00 0. -1.
     999901    1    3    3    0    0 -0.37544511649E-01 -0.29255355471E-03  0.12342455310E+00  0.88940614808E+00  0.88000000000E+00 0.  1.
        -11    1    4    4    0    0  0.10318169472E-01  0.76680667604E-02 -0.47754364460E-01  0.49457095700E-01  0.51100000000E-03 0.  1.
         11    1    4    4    0    0  0.42668317843E-01 -0.11575626942E-01 -0.77227306955E-01  0.88988193303E-01  0.51100000000E-03 0. -1.
</event>
<event>
 8    1  0.1150863E+005  0.1043930E+01  0.7957747E-01            NaN
         13   -1    0    0    0    0  0.00000000000E+00  0.00000000000E+00  0.74505805969E-08  0.10566000000E+00  0.10566000000E+00 0. -1.
     999900   -1    0    0    0    0 -0.00000000000E+00 -0.00000000000E+00 -0.74505805969E-08  0.93827000000E+00  0.93827000000E+00 0.  1.
     999902    2    1    2    0    0  0.19349902923E-01  0.16955257320E-02 -0.10845078129E-01  0.10216834436E+01  0.10214412121E+01 0.  0.
     999903    2    3    3    0    0  0.74804809042E-01  0.10556768183E+00  0.23954894815E-01  0.13315898728E+00  0.20425082708E-01 0.  0.
         14    1    1    2    0    0 -0.19349902923E-01 -0.16955257320E-02  0.10845078129E-01  0.22246556369E-01  0.00000000000E+00 0.  1.
     999901    1    3    3    0    0 -0.55454906119E-01 -0.10387215610E+00 -0.34799972944E-01  0.88852445636E+00  0.88000000000E+00 0. -1.
        -11    1    4    4    0    0  0.91937401245E-02  0.27529100512E-01  0.50024905013E-02  0.29456107426E-01  0.51100000000E-03 0. -1.
         11    1    4    4    0    0  0.65611068917E-01  0.78038581318E-01  0.18952404313E-01  0.10370287985E+00  0.51100000000E-03 0.  1.
</event>
<event>
 8    1  0.1150863E+005  0.1043930E+01  0.7957747E-01            NaN
         13   -1    0    0    0    0  0.00000000000E+00  0.00000000000E+00  0.74505805969E-08  0.10566000000E+00  0.10566000000E+00 0. -1.
     999900   -1    0    0    0    0 -0.00000000000E+00 -0.00000000000E+00 -0.74505805969E-08  0.93827000000E+00  0.93827000000E+00 0. -1.
     999902    2    1    2    0    0 -0.23647659334E-01  0.36142425955E-02  0.15025504436E-02  0.10199605987E+01  0.10196789155E+01 0.  0.
     999903    2    3    3    0    0  0.74466216405E-01  0.63739514881E-01  0.80141448113E-01  0.12899176803E+00  0.24663360880E-01 0.  0.
         14    1    1    2    0    0  0.23647659334E-01 -0.36142425955E-02 -0.15025504436E-02  0.23969401314E-01  0.00000000000E+00 0.  1.
     999901    1    3    3    0    0 -0.98113875740E-01 -0.60125272285E-01 -0.78638897670E-01  0.89096883066E+00  0.88000000000E+00 0.  1.
        -11    1    4    4    0    0  0.55244829597E-01  0.45319802577E-01  0.43359482400E-01  0.83583380752E-01  0.51100000000E-03 0. -1.
         11    1    4    4    0    0  0.19221386808E-01  0.18419712304E-01  0.36781965713E-01  0.45408387275E-01  0.51100000000E-03 0.  1.
</event>
<event>
 8    1  0.1150863E+005  0.1043930E+01  0.7957747E-01            NaN
         13   -1    0    0    0    0  0.00000000000E+00  0.00000000000E+00  0.74505805969E-08  0.10566000000E+00  0.10566000000E+00 0.  1.
     999900   -1    0    0    0    0 -0.00000000000E+00 -0.00000000000E+00 -0.74505805969E-08  0.93827000000E+00  0.93827000000E+00 0. -1.
     999902    2    1    2    0    0  0.15413958220E-02  0.10517875785E-01  0.23885241094E-01  0.10177860456E+01  0.10174502092E+01 0.  0.
     999903    2    3    3    0    0  0.50206993556E-01 -0.84326965290E-01  0.81787826537E-01  0.12946369771E+00  0.20971914000E-01 0.  0.
         14    1    1    2    0    0 -0.15413958220E-02 -0.10517875785E-01 -0.23885241094E-01  0.26143954449E-01  0.00000000000E+00 0. -1.
     999901    1    3    3    0    0 -0.48665597734E-01  0.94844841075E-01 -0.57902585443E-01  0.88832234785E+00  0.88000000000E+00 0. -1.
        -11    1    4    4    0    0  0.37187096664E-01 -0.70916999200E-01  0.56452061835E-01  0.97975493569E-01  0.51100000000E-03 0. -1.
         11    1    4    4    0    0  0.13019896892E-01 -0.13409966091E-01  0.25335764703E-01  0.31488204136E-01  0.51100000000E-03 0.  1.
</event>
<event>
 8    1  0.1150863E+005  0.1043930E+01  0.7957747E-01            NaN
         13   -1    0    0    0    0  0.00000000000E+00  0.00000000000E+00  0.74505805969E-08  0.10566000000E+00  0.10566000000E+00 0. -1.
     999900   -1    0    0    0    0 -0.00000000000E+00 -0.00000000000E+00 -0.74505805969E-08  0.93827000000E+00  0.93827000000E+00 0.  1.
     999902    2    1    2    0    0 -0.32566688198E-02  0.18466530479E-01  0.15174366962E-01  0.10198078100E+01  0.10195224810E+01 0.  0.
     999903    2    3    3    0    0 -0.15567453724E-01 -0.85225516617E-01 -0.91344944391E-01  0.12725531304E+00  0.18554825091E-01 0.  0.
         14    1    1    2    0    0  0.32566688198E-02 -0.18466530479E-01 -0.15174366962E-01  0.24122190042E-01  0.00000000000E+00 0.  1.
     999901    1    3    3    0    0  0.12310784905E-01  0.10369204710E+00  0.10651931135E+00  0.89255249691E+00  0.88000000000E+00 0. -1.
        -11    1    4    4    0    0 -0.83863345901E-02 -0.47902687009E-01 -0.64226185715E-01  0.80562162850E-01  0.51100000000E-03 0. -1.
         11    1    4    4    0    0 -0.71811191343E-02 -0.37322829607E-01 -0.27118758675E-01  0.46693150194E-01  0.51100000000E-03 0.  1.
</event>
<event>
 8    1  0.1150863E+005  0.1043930E+01  0.7957747E-01            NaN
         13   -1    0    0    0    0  0.00000000000E+00  0.00000000000E+00  0.74505805969E-08  0.10566000000E+00  0.10566000000E+00 0. -1.
     999900   -1    0    0    0    0 -0.00000000000E+00 -0.00000000000E+00 -0.74505805969E-08  0.93827000000E+00  0.93827000000E+00 0. -1.
     999902    2    1    2    0    0 -0.21081137551E-01  0.87321104228E-02  0.81329103235E-02  0.10197058727E+01  0.10194180980E+01 0.  0.
     999903    2    3    3    0    0  0.54479170583E-01  0.87549426954E-01 -0.74831425072E-01  0.12908552121E+00  0.20747226807E-01 0.  0.
         14    1    1    2    0    0  0.21081137551E-01 -0.87321104228E-02 -0.81329103235E-02  0.24224127295E-01  0.00000000000E+00 0.  1.
     999901    1    3    3    0    0 -0.75560308134E-01 -0.78817316532E-01  0.82964335395E-01  0.89062035150E+00  0.88000000000E+00 0. -1.
        -11    1    4    4    0    0  0.40134721234E-01  0.63221238105E-01 -0.42320017829E-01  0.86017241447E-01  0.51100000000E-03 0. -1.
         11    1    4    4    0    0  0.14344449349E-01  0.24328188850E-01 -0.32511407243E-01  0.43068279763E-01  0.51100000000E-03 0.  1.
</event>
<event>
 8    1  0.1150863E+005  0.1043930E+01  0.7957747E-01            NaN
         13   -1    0    0    0    0  0.00000000000E+00  0.00000000000E+00  0.74505805969E-08  0.10566000000E+00  0.10566000000E+00 0. -1.
     999900   -1    0    0    0    0 -0.00000000000E+00 -0.00000000000E+00 -0.74505805969E-08  0.93827000000E+00  0.93827000000E+00 0. -1.
     999902    2    1    2    0    0 -0.21024173516E-01 -0.11301577731E-01  0.29149696788E-02  0.10198834082E+01  0.10195998861E+01 0.  0.
     999903    2    3    3    0    0  0.66952320194E-02  0.11695454165E+00  0.49921896517E-01  0.12891334762E+00  0.20081446622E-01 0.  0.
         14    1    1    2    0    0  0.21024173516E-01  0.11301577731E-01 -0.29149696788E-02  0.24046591847E-01  0.00000000000E+00 0.  1.
     999901    1    3    3    0    0 -0.27719405535E-01 -0.12825611938E+00 -0.47006926838E-01  0.89097006054E+00  0.88000000000E+00 0. -1.
        -11    1    4    4    0    0  0.11350333864E-01  0.63729597981E-01  0.34223625619E-01  0.73224377151E-01  0.51100000000E-03 0. -1.
         11    1    4    4    0    0 -0.46551018443E-02  0.53224943665E-01  0.15698270898E-01  0.55688970466E-01  0.51100000000E-03 0.  1.
</event>
<event>
 8    1  0.1150863E+005  0.1043930E+01  0.7957747E-01            NaN
         13   -1    0    0    0    0  0.00000000000E+00  0.00000000000E+00  0.74505805969E-08  0.10566000000E+00  0.10566000000E+00 0. -1.
     999900   -1    0    0    0    0 -0.00000000000E+00 -0.00000000000E+00 -0.74505805969E-08  0.93827000000E+00  0.93827000000E+00 0. -1.
     999902    2    1    2    0    0  0.10500161801E-01 -0.19310850389E-01 -0.48275771062E-02  0.10214251596E+01  0.10211772074E+01 0.  0.
     999903    2    3    3    0    0 -0.91106641242E-01  0.89121610791E-01 -0.25781363145E-02  0.12896417948E+00  0.19545618770E-01 0.  0.
         14    1    1    2    0    0 -0.10500161801E-01  0.19310850389E-01  0.48275771062E-02  0.22504840397E-01  0.00000000000E+00 0. -1.
     999901    1    3    3    0    0  0.10160680304E+00 -0.10843246118E+00 -0.22494407917E-02  0.89246098013E+00  0.88000000000E+00 0. -1.
        -11    1    4    4    0    0 -0.21747232040E-01  0.12622386444E-01 -0.51402164616E-02  0.25670015334E-01  0.51100000000E-03 0. -1.
         11    1    4    4    0    0 -0.69359409202E-01  0.76499224348E-01  0.25620801470E-02  0.10329416414E+00  0.51100000000E-03 0.  1.
</event>
<event>
 8    1  0.1150863E+005  0.1043930E+01  0.7957747E-01            NaN
         13   -1    0    0    0    0  0.00000000000E+00  0.00000000000E+00  0.74505805969E-08  0.10566000000E+00  0.10566000000E+00 0. -1.
     999900   -1    0    0    0    0 -0.00000000000E+00 -0.00000000000E+00 -0.74505805969E-08  0.93827000000E+00  0.93827000000E+00 0.  1.
     999902    2    1    2    0    0  0.18825648106E-01 -0.95190365349E-02  0.95431797964E-02  0.10207763963E+01  0.10205137735E+01 0.  0.
     999903    2    3    3    0    0  0.90853272179E-01 -0.75879580229E-01  0.59498254243E-01  0.13393525504E+00  0.19661701941E-01 0.  0.
         14    1    1    2    0    0 -0.18825648106E-01  0.95190365349E-02 -0.95431797964E-02  0.23153603689E-01  0.00000000000E+00 0.  1.
     999901    1    3    3    0    0 -0.72027624073E-01  0.66360543694E-01 -0.49955074447E-01  0.88684114127E+00  0.88000000000E+00 0.  1.
        -11    1    4    4    0    0  0.43298263022E-01 -0.47062268188E-01  0.37492810721E-01  0.74132102658E-01  0.51100000000E-03 0. -1.
         11    1    4    4    0    0  0.47555009157E-01 -0.28817312040E-01  0.22005443522E-01  0.59803152381E-01  0.51100000000E-03 0.  1.
</event>
<event>
 7    1  0.1150863E+005  0.1043930E+01  0.7957747E-01            NaN
         13   -1    0    0    0    0  0.00000000000E+00  0.00000000000E+00  0.74505805969E-08  0.10566000000E+00  0.10566000000E+00 0.  1.
     999900   -1    0    0    0    0 -0.00000000000E+00 -0.00000000000E+00 -0.74505805969E-08  0.93827000000E+00  0.93827000000E+00 0. -1.
     999902    2    1    2    0    0 -0.71915380930E-03  0.20709516326E-01  0.11862945891E-01  0.10200525895E+01  0.10197730897E+01 0.  0.
         14    1    1    2    0    0  0.71915380930E-03 -0.20709516326E-01 -0.11862945891E-01  0.23877410536E-01  0.00000000000E+00 0. -1.
     999901    1    3    3    0    0 -0.47223898289E-01  0.10433662751E+00 -0.63009697746E-01  0.88965524245E+00  0.88000000000E+00 0. -1.
        -11    1    3    3    0    0 -0.34051174949E-02 -0.39478138509E-01  0.21941774935E-01  0.45297029192E-01  0.51100000000E-03 0.  1.
         11    1    3    3    0    0  0.49909861975E-01 -0.44148972677E-01  0.52930868702E-01  0.85100317822E-01  0.51100000000E-03 0. -1.
</event>
<event>
 8    1  0.1150863E+005  0.1043930E+01  0.7957747E-01            NaN
         13   -1    0    0    0    0  0.00000000000E+00  0.00000000000E+00  0.74505805969E-08  0.10566000000E+00  0.10566000000E+00 0. -1.
     999900   -1    0    0    0    0 -0.00000000000E+00 -0.00000000000E+00 -0.74505805969E-08  0.93827000000E+00  0.93827000000E+00 0. -1.
     999902    2    1    2    0    0  0.21972330014E-01 -0.76889092983E-02 -0.32235557102E-02  0.10204290655E+01  0.10201584111E+01 0.  0.
     999903    2    3    3    0    0  0.80492661903E-01  0.53982000752E-01 -0.87767908287E-01  0.13229862576E+00  0.20164216489E-01 0.  0.
         14    1    1    2    0    0 -0.21972330014E-01  0.76889092983E-02  0.32235557102E-02  0.23500934531E-01  0.00000000000E+00 0. -1.
     999901    1    3    3    0    0 -0.58520331889E-01 -0.61670910050E-01  0.84544352576E-01  0.88813043971E+00  0.88000000000E+00 0.  1.
        -11    1    4    4    0    0  0.22835180290E-01  0.17584537873E-01 -0.14702293348E-01  0.32358615263E-01  0.51100000000E-03 0. -1.
         11    1    4    4    0    0  0.57657481613E-01  0.36397462879E-01 -0.73065614939E-01  0.99940010494E-01  0.51100000000E-03 0.  1.
</event>
<event>
 8    1  0.1150863E+005  0.1043930E+01  0.7957747E-01            NaN
         13   -1    0    0    0    0  0.00000000000E+00  0.00000000000E+00  0.74505805969E-08  0.10566000000E+00  0.10566000000E+00 0. -1.
     999900   -1    0    0    0    0 -0.00000000000E+00 -0.00000000000E+00 -0.74505805969E-08  0.93827000000E+00  0.93827000000E+00 0. -1.
     999902    2    1    2    0    0 -0.48029874999E-02  0.14479439893E-01 -0.18160233444E-01  0.10202125603E+01  0.10199368369E+01 0.  0.
     999903    2    3    3    0    0 -0.13492381943E-01 -0.12696849031E+00 -0.10496590279E-01  0.12884184392E+00  0.13674810267E-01 0.  0.
         14    1    1    2    0    0  0.48029874999E-02 -0.14479439893E-01  0.18160233444E-01  0.23717439729E-01  0.00000000000E+00 0. -1.
     999901    1    3    3    0    0  0.86893944434E-02  0.14144793020E+00 -0.76636431650E-02  0.89137071635E+00  0.88000000000E+00 0.  1.
        -11    1    4    4    0    0 -0.53817605452E-02 -0.29952080599E-01 -0.79286782787E-02  0.31451797071E-01  0.51100000000E-03 0. -1.
         11    1    4    4    0    0 -0.81106213981E-02 -0.97016409712E-01 -0.25679120003E-02  0.97390046853E-01  0.51100000000E-03 0.  1.
</event>
<event>
 8    1  0.1150863E+005  0.1043930E+01  0.7957747E-01            NaN
         13   -1    0    0    0    0  0.00000000000E+00  0.00000000000E+00  0.74505805969E-08  0.10566000000E+00  0.10566000000E+00 0. -1.
     999900   -1    0    0    0    0 -0.00000000000E+00 -0.00000000000E+00 -0.74505805969E-08  0.93827000000E+00  0.93827000000E+00 0.  1.
     999902    2    1    2    0    0 -0.12904111671E-01  0.25226097770E-01 -0.46385925232E-02  0.10152178310E+01  0.10148117342E+01 0.  0.
     999903    2    3    3    0    0  0.11621780376E+00  0.28051097425E-01  0.31390619306E-01  0.12506135390E+00  0.19013923341E-01 0.  0.
         14    1    1    2    0    0  0.12904111671E-01 -0.25226097770E-01  0.46385925232E-02  0.28712168976E-01  0.00000000000E+00 0.  1.
     999901    1    3    3    0    0 -0.12912191543E+00 -0.28249996557E-02 -0.36029211829E-01  0.89015647713E+00  0.88000000000E+00 0.  1.
        -11    1    4    4    0    0  0.29141380913E-01  0.76433681237E-02  0.16624304409E-01  0.34413220946E-01  0.51100000000E-03 0. -1.
         11    1    4    4    0    0  0.87076422846E-01  0.20407729302E-01  0.14766314897E-01  0.90648132951E-01  0.51100000000E-03 0.  1.
</event>
<event>
 8    1  0.1150863E+005  0.1043930E+01  0.7957747E-01            NaN
         13   -1    0    0    0    0  0.00000000000E+00  0.00000000000E+00  0.74505805969E-08  0.10566000000E+00  0.10566000000E+00 0.  1.
     999900   -1    0    0    0    0 -0.00000000000E+00 -0.00000000000E+00 -0.74505805969E-08  0.93827000000E+00  0.93827000000E+00 0.  1.
     999902    2    1    2    0    0 -0.10235857271E-01 -0.21305106360E-01 -0.11846036531E-02  0.10202639142E+01  0.10199893975E+01 0.  0.
     999903    2    3    3    0    0  0.20434682771E-01 -0.12966646596E+00  0.82461550910E-02  0.13303688267E+00  0.19996110160E-01 0.  0.
         14    1    1    2    0    0  0.10235857271E-01  0.21305106360E-01  0.11846036531E-02  0.23666085796E-01  0.00000000000E+00 0.  1.
     999901    1    3    3    0    0 -0.30670540042E-01  0.10836135960E+00 -0.94307587441E-02  0.88722703154E+00  0.88000000000E+00 0.  1.
        -11    1    4    4    0    0  0.22136676249E-02 -0.38711278065E-01 -0.58218039579E-02  0.39212471180E-01  0.51100000000E-03 0.  1.
         11    1    4    4    0    0  0.18221015147E-01 -0.90955187895E-01  0.14067959049E-01  0.93824411486E-01  0.51100000000E-03 0. -1.
</event>
<event>
 8    1  0.1150863E+005  0.1043930E+01  0.7957747E-01            NaN
         13   -1    0    0    0    0  0.00000000000E+00  0.00000000000E+00  0.74505805969E-08  0.10566000000E+00  0.10566000000E+00 0.  1.
     999900   -1    0    0    0    0 -0.00000000000E+00 -0.00000000000E+00 -0.74505805969E-08  0.93827000000E+00  0.93827000000E+00 0.  1.
     999902    2    1    2    0    0  0.21228865292E-01 -0.76786779575E-02 -0.12898982739E-02  0.10213182629E+01  0.10210679231E+01 0.  0.
     999903    2    3    3    0    0  0.55307214667E-02 -0.78191934429E-01  0.10448448095E+00  0.13204509320E+00  0.19347671433E-01 0.  0.
         14    1    1    2    0    0 -0.21228865292E-01  0.76786779575E-02  0.12898982739E-02  0.22611737092E-01  0.00000000000E+00 0.  1.
     999901    1    3    3    0    0  0.15698143825E-01  0.70513256472E-01 -0.10577437922E+00  0.88927316971E+00  0.88000000000E+00 0.  1.
        -11    1    4    4    0    0  0.99169579178E-02 -0.19681836203E-01  0.27295906138E-01  0.35086298516E-01  0.51100000000E-03 0.  1.
         11    1    4    4    0    0 -0.43862364510E-02 -0.58510098226E-01  0.77188574811E-01  0.96958794686E-01  0.51100000000E-03 0. -1.
</event>
<event>
 8    1  0.1150863E+005  0.1043930E+01  0.7957747E-01            NaN
         13   -1    0    0    0    0  0.00000000000E+00  0.00000000000E+00  0.74505805969E-08  0.10566000000E+00  0.10566000000E+00 0.  1.
     999900   -1    0    0    0    0 -0.00000000000E+00 -0.00000000000E+00 -0.74505805969E-08  0.93827000000E+00  0.93827000000E+00 0. -1.
     999902    2    1    2    0    0  0.15742347384E-01 -0.19148186640E-02  0.68918340720E-02  0.10266388055E+01  0.10264931814E+01 0.  0.
     999903    2    3    3    0    0  0.80512326296E-01  0.10969899551E+00 -0.13057959771E-02  0.13718954057E+00  0.17411508769E-01 0.  0.
         14    1    1    2    0    0 -0.15742347384E-01  0.19148186640E-02 -0.68918340720E-02  0.17291194538E-01  0.00000000000E+00 0.  1.
     999901    1    3    3    0    0 -0.64769978913E-01 -0.11161381417E+00  0.81976300491E-02  0.88944926489E+00  0.88000000000E+00 0. -1.
        -11    1    4    4    0    0  0.74850995057E-01  0.95509120100E-01 -0.50508696583E-02  0.12145137253E+00  0.51100000000E-03 0.  1.
         11    1    4    4    0    0  0.56613312391E-02  0.14189875406E-01  0.37450736812E-02  0.15738168041E-01  0.51100000000E-03 0. -1.
</event>
<event>
 8    1  0.1161062E+005  0.1043930E+01  0.7957747E-01            NaN
         13   -1    0    0    0    0  0.00000000000E+00  0.00000000000E+00  0.74505805969E-08  0.10566000000E+00  0.10566000000E+00 0.  1.
     999900   -1    0    0    0    0 -0.00000000000E+00 -0.00000000000E+00 -0.74505805969E-08  0.93827000000E+00  0.93827000000E+00 0.  1.
     999902    2    1    2    0    0  0.16312806866E-01  0.10493180653E-01 -0.13879076539E-01  0.10200795645E+01  0.10198007034E+01 0.  0.
     999903    2    3    3    0    0 -0.59437940403E-01 -0.11096761379E+00 -0.16282168390E-01  0.12850978307E+00  0.20074243906E-01 0.  0.
         14    1    1    2    0    0 -0.16312806866E-01 -0.10493180653E-01  0.13879076539E-01  0.23850435502E-01  0.00000000000E+00 0.  1.
     999901    1    3    3    0    0  0.75750747269E-01  0.12146079444E+00  0.24030918507E-02  0.89156978142E+00  0.88000000000E+00 0.  1.
        -11    1    4    4    0    0 -0.18051303299E-01 -0.54394555005E-01 -0.93350783588E-02  0.58069113769E-01  0.51100000000E-03 0.  1.
         11    1    4    4    0    0 -0.41386637104E-01 -0.56573058786E-01 -0.69470900309E-02  0.70440669305E-01  0.51100000000E-03 0. -1.
</event>
<event>
 8    1  0.1150863E+005  0.1043930E+01  0.7957747E-01            NaN
         13   -1    0    0    0    0  0.00000000000E+00  0.00000000000E+00  0.74505805969E-08  0.10566000000E+00  0.10566000000E+00 0. -1.
     999900   -1    0    0    0    0 -0.00000000000E+00 -0.00000000000E+00 -0.74505805969E-08  0.93827000000E+00  0.93827000000E+00 0. -1.
     999902    2    1    2    0    0  0.23176236554E-01  0.13118241497E-02  0.26586477141E-02  0.10205649143E+01  0.10202974160E+01 0.  0.
     999903    2    3    3    0    0 -0.14715087283E-02 -0.61839632954E-01  0.11372530111E+00  0.13099680593E+00  0.20010335064E-01 0.  0.
         14    1    1    2    0    0 -0.23176236554E-01 -0.13118241497E-02 -0.26586477141E-02  0.23365085728E-01  0.00000000000E+00 0.  1.
     999901    1    3    3    0    0  0.24647745282E-01  0.63151457104E-01 -0.11106665340E+00  0.88956810834E+00  0.88000000000E+00 0. -1.
        -11    1    4    4    0    0 -0.53899558007E-02 -0.31229920138E-01  0.75386135569E-01  0.81778298419E-01  0.51100000000E-03 0.  1.
         11    1    4    4    0    0  0.39184470725E-02 -0.30609712817E-01  0.38339165542E-01  0.49218507511E-01  0.51100000000E-03 0. -1.
</event>
<event>
 8    1  0.1150863E+005  0.1043930E+01  0.7957747E-01            NaN
         13   -1    0    0    0    0  0.00000000000E+00  0.00000000000E+00  0.74505805969E-08  0.10566000000E+00  0.10566000000E+00 0.  1.
     999900   -1    0    0    0    0 -0.00000000000E+00 -0.00000000000E+00 -0.74505805969E-08  0.93827000000E+00  0.93827000000E+00 0.  1.
     999902    2    1    2    0    0 -0.88181076291E-03 -0.10393689079E-01 -0.21218779746E-01  0.10202859103E+01  0.10200119096E+01 0.  0.
     999903    2    3    3    0    0  0.56256021834E-01  0.10812027979E+00 -0.41455019880E-01  0.13027478783E+00  0.19956622388E-01 0.  0.
         14    1    1    2    0    0  0.88181076291E-03  0.10393689079E-01  0.21218779746E-01  0.23644089681E-01  0.00000000000E+00 0.  1.
     999901    1    3    3    0    0 -0.57137832597E-01 -0.11851396887E+00  0.20236240134E-01  0.89001112248E+00  0.88000000000E+00 0.  1.
        -11    1    4    4    0    0  0.19983041012E-01  0.47509275630E-01 -0.81663083365E-02  0.52186232972E-01  0.51100000000E-03 0. -1.
         11    1    4    4    0    0  0.36272980822E-01  0.60611004162E-01 -0.33288711544E-01  0.78088554862E-01  0.51100000000E-03 0.  1.
</event>
<event>
 8    1  0.1150863E+005  0.1043930E+01  0.7957747E-01            NaN
         13   -1    0    0    0    0  0.00000000000E+00  0.00000000000E+00  0.74505805969E-08  0.10566000000E+00  0.10566000000E+00 0.  1.
     999900   -1    0    0    0    0 -0.00000000000E+00 -0.00000000000E+00 -0.74505805969E-08  0.93827000000E+00  0.93827000000E+00 0. -1.
     999902    2    1    2    0    0 -0.90321850432E-02  0.19745628638E-01  0.99702385899E-02  0.10200369911E+01  0.10197571217E+01 0.  0.
     999903    2    3    3    0    0 -0.38205621899E-01 -0.11820880942E+00  0.26845455644E-01  0.12865195120E+00  0.19941260982E-01 0.  0.
         14    1    1    2    0    0  0.90321850432E-02 -0.19745628638E-01 -0.99702385899E-02  0.23893008905E-01  0.00000000000E+00 0. -1.
     999901    1    3    3    0    0  0.29173436856E-01  0.13795443806E+00 -0.16875217054E-01  0.89138503990E+00  0.88000000000E+00 0. -1.
        -11    1    4    4    0    0 -0.26601826591E-01 -0.55345208314E-01  0.18789018227E-01  0.64218670091E-01  0.51100000000E-03 0.  1.
         11    1    4    4    0    0 -0.11603795308E-01 -0.62863601107E-01  0.80564374171E-02  0.64433281110E-01  0.51100000000E-03 0. -1.
</event>
<event>
 8    1  0.1150863E+005  0.1043930E+01  0.7957747E-01            NaN
         13   -1    0    0    0    0  0.00000000000E+00  0.00000000000E+00  0.74505805969E-08  0.10566000000E+00  0.10566000000E+00 0. -1.
     999900   -1    0    0    0    0 -0.00000000000E+00 -0.00000000000E+00 -0.74505805969E-08  0.93827000000E+00  0.93827000000E+00 0.  1.
     999902    2    1    2    0    0 -0.10717881971E-01  0.21657267314E-01  0.50571204046E-04  0.10197657127E+01  0.10194793750E+01 0.  0.
     999903    2    3    3    0    0 -0.65389475871E-02 -0.11741988526E+00 -0.46023724848E-01  0.12764309862E+00  0.18557750033E-01 0.  0.
         14    1    1    2    0    0  0.10717881971E-01 -0.21657267314E-01 -0.50571204046E-04  0.24164287263E-01  0.00000000000E+00 0.  1.
     999901    1    3    3    0    0 -0.41789343837E-02  0.13907715258E+00  0.46074296052E-01  0.89212261412E+00  0.88000000000E+00 0. -1.
        -11    1    4    4    0    0 -0.43412918785E-02 -0.52584660693E-01 -0.10934527042E-01  0.53887088973E-01  0.51100000000E-03 0. -1.
         11    1    4    4    0    0 -0.21976557087E-02 -0.64835224568E-01 -0.35089197806E-01  0.73756009648E-01  0.51100000000E-03 0.  1.
</event>
<event>
 8    1  0.1150863E+005  0.1043930E+01  0.7957747E-01            NaN
         13   -1    0    0    0    0  0.00000000000E+00  0.00000000000E+00  0.74505805969E-08  0.10566000000E+00  0.10566000000E+00 0.  1.
     999900   -1    0    0    0    0 -0.00000000000E+00 -0.00000000000E+00 -0.74505805969E-08  0.93827000000E+00  0.93827000000E+00 0. -1.
     999902    2    1    2    0    0 -0.20075789281E-01  0.48544459854E-03 -0.12554747168E-01  0.10202467855E+01  0.10199718666E+01 0.  0.
     999903    2    3    3    0    0  0.99042558746E-01 -0.79348534874E-01 -0.34503156449E-02  0.12859352568E+00  0.20463913068E-01 0.  0.
         14    1    1    2    0    0  0.20075789281E-01 -0.48544459854E-03  0.12554747168E-01  0.23683214481E-01  0.00000000000E+00 0.  1.
     999901    1    3    3    0    0 -0.11911834803E+00  0.79833979473E-01 -0.91044315235E-02  0.89165325984E+00  0.88000000000E+00 0. -1.
        -11    1    4    4    0    0  0.47405950940E-01 -0.32270354691E-01 -0.10704229364E-01  0.58339880216E-01  0.51100000000E-03 0. -1.
         11    1    4    4    0    0  0.51636607806E-01 -0.47078180184E-01  0.72539137188E-02  0.70253645459E-01  0.51100000000E-03 0.  1.
</event>
<event>
 8    1  0.1150863E+005  0.1043930E+01  0.7957747E-01            NaN
         13   -1    0    0    0    0  0.00000000000E+00  0.00000000000E+00  0.74505805969E-08  0.10566000000E+00  0.10566000000E+00 0.  1.
     999900   -1    0    0    0    0 -0.00000000000E+00 -0.00000000000E+00 -0.74505805969E-08  0.93827000000E+00  0.93827000000E+00 0.  1.
     999902    2    1    2    0    0  0.67676260999E-02  0.30432001999E-02 -0.22661588498E-01  0.10200844674E+01  0.10198057223E+01 0.  0.
     999903    2    3    3    0    0 -0.11666252555E+00 -0.50782201525E-01  0.10791803261E-01  0.12921337371E+00  0.19765021327E-01 0.  0.
         14    1    1    2    0    0 -0.67676260999E-02 -0.30432001999E-02  0.22661588498E-01  0.23845532574E-01  0.00000000000E+00 0.  1.
     999901    1    3    3    0    0  0.12343015165E+00  0.53825401725E-01 -0.33453391759E-01  0.89087109372E+00  0.88000000000E+00 0. -1.
        -11    1    4    4    0    0 -0.63721750859E-01 -0.22044490461E-01  0.14081459928E-01  0.68883740657E-01  0.51100000000E-03 0. -1.
         11    1    4    4    0    0 -0.52940774689E-01 -0.28737711064E-01 -0.32896566675E-02  0.60329633049E-01  0.51100000000E-03 0.  1.
</event>
<event>
 8    1  0.1150863E+005  0.1043930E+01  0.7957747E-01            NaN
         13   -1    0    0    0    0  0.00000000000E+00  0.00000000000E+00  0.74505805969E-08  0.10566000000E+00  0.10566000000E+00 0.  1.
     999900   -1    0    0    0    0 -0.00000000000E+00 -0.00000000000E+00 -0.74505805969E-08  0.93827000000E+00  0.93827000000E+00 0. -1.
     999902    2    1    2    0    0 -0.15571850164E-01  0.13647274740E-01 -0.12381778115E-01  0.10198045144E+01  0.10195191065E+01 0.  0.
     999903    2    3    3    0    0  0.19130368663E-01  0.45894988040E-01  0.11739422634E+00  0.12902621970E+00  0.19850442308E-01 0.  0.
         14    1    1    2    0    0  0.15571850164E-01 -0.13647274740E-01  0.12381778115E-01  0.24125485583E-01  0.00000000000E+00 0.  1.
     999901    1    3    3    0    0 -0.34702218827E-01 -0.32247713300E-01 -0.12977600445E+00  0.89077829472E+00  0.88000000000E+00 0. -1.
        -11    1    4    4    0    0  0.14295000413E-01  0.12487547591E-01  0.32122558767E-01  0.37314953898E-01  0.51100000000E-03 0.  1.
         11    1    4    4    0    0  0.48353682505E-02  0.33407440450E-01  0.85271667573E-01  0.91711265803E-01  0.51100000000E-03 0. -1.
</event>
<event>
 8    1  0.1150863E+005  0.1043930E+01  0.7957747E-01            NaN
         13   -1    0    0    0    0  0.00000000000E+00  0.00000000000E+00  0.74505805969E-08  0.10566000000E+00  0.10566000000E+00 0. -1.
     999900   -1    0    0    0    0 -0.00000000000E+00 -0.00000000000E+00 -0.74505805969E-08  0.93827000000E+00  0.93827000000E+00 0.  1.
     999902    2    1    2    0    0 -0.10521079415E-01  0.98922142822E-02  0.18910680718E-01  0.10201358230E+01  0.10198582914E+01 0.  0.
     999903    2    3    3    0    0  0.19906216667E-01  0.12745973484E+00  0.97682855757E-02  0.13174878703E+00  0.24901446008E-01 0.  0.
         14    1    1    2    0    0  0.10521079415E-01 -0.98922142822E-02 -0.18910680718E-01  0.23794177033E-01  0.00000000000E+00 0. -1.
     999901    1    3    3    0    0 -0.30427296082E-01 -0.11756752056E+00  0.91423951422E-02  0.88838703594E+00  0.88000000000E+00 0.  1.
        -11    1    4    4    0    0  0.12436167332E-01  0.22629889594E-01  0.63508937832E-02  0.26596336849E-01  0.51100000000E-03 0.  1.
         11    1    4    4    0    0  0.74700493353E-02  0.10482984524E+00  0.34173917924E-02  0.10515245018E+00  0.51100000000E-03 0. -1.
</event>
<event>
 8    1  0.1150863E+005  0.1043930E+01  0.7957747E-01            NaN
         13   -1    0    0    0    0  0.00000000000E+00  0.00000000000E+00  0.74505805969E-08  0.10566000000E+00  0.10566000000E+00 0. -1.
     999900   -1    0    0    0    0 -0.00000000000E+00 -0.00000000000E+00 -0.74505805969E-08  0.93827000000E+00  0.93827000000E+00 0. -1.
     999902    2    1    2    0    0 -0.13633263342E-01  0.20156683187E-01 -0.86987013776E-02  0.10180876868E+01  0.10177596538E+01 0.  0.
     999903    2    3    3    0    0  0.11400404363E+00  0.45364917673E-01  0.29201130557E-01  0.12771521727E+00  0.20089125857E-01 0.  0.
         14    1    1    2    0    0  0.13633263342E-01 -0.20156683187E-01  0.86987013776E-02  0.25842313211E-01  0.00000000000E+00 0.  1.
     999901    1    3    3    0    0 -0.12763730697E+00 -0.25208234487E-01 -0.37899831935E-01  0.89037246952E+00  0.88000000000E+00 0.  1.
        -11    1    4    4    0    0  0.46336825542E-01  0.27032169877E-01  0.65927273456E-02  0.54051501223E-01  0.51100000000E-03 0. -1.
         11    1    4    4    0    0  0.67667218085E-01  0.18332747796E-01  0.22608403212E-01  0.73663716047E-01  0.51100000000E-03 0.  1.
</event>
<event>
 8    1  0.1150863E+005  0.1043930E+01  0.7957747E-01            NaN
         13   -1    0    0    0    0  0.00000000000E+00  0.00000000000E+00  0.74505805969E-08  0.10566000000E+00  0.10566000000E+00 0.  1.
     999900   -1    0    0    0    0 -0.00000000000E+00 -0.00000000000E+00 -0.74505805969E-08  0.93827000000E+00  0.93827000000E+00 0. -1.
     999902    2    1    2    0    0 -0.23827238984E-02  0.22816814481E-01  0.41224038765E-02  0.10206216622E+01  0.10203554767E+01 0.  0.
     999903    2    3    3    0    0 -0.20123028701E-01 -0.33193932980E-01  0.12315549873E+00  0.13066615776E+00  0.19989858601E-01 0.  0.
         14    1    1    2    0    0  0.23827238984E-02 -0.22816814481E-01 -0.41224038765E-02  0.23308337778E-01  0.00000000000E+00 0.  1.
     999901    1    3    3    0    0  0.17740304802E-01  0.56010747461E-01 -0.11903309485E+00  0.88995550446E+00  0.88000000000E+00 0. -1.
        -11    1    4    4    0    0 -0.32269338352E-04 -0.16504999265E-01  0.62076411749E-01  0.64235177736E-01  0.51100000000E-03 0. -1.
         11    1    4    4    0    0 -0.20090759362E-01 -0.16688933716E-01  0.61079086979E-01  0.66430980029E-01  0.51100000000E-03 0.  1.
</event>
<event>
 8    1  0.1150863E+005  0.1043930E+01  0.7957747E-01            NaN
         13   -1    0    0    0    0  0.00000000000E+00  0.00000000000E+00  0.74505805969E-08  0.10566000000E+00  0.10566000000E+00 0.  1.
     999900   -1    0    0    0    0 -0.00000000000E+00 -0.00000000000E+00 -0.74505805969E-08  0.93827000000E+00  0.93827000000E+00 0.  1.
     999902    2    1    2    0    0 -0.21276622383E-01 -0.76360043797E-04 -0.41076484922E-02  0.10222603607E+01  0.10220306609E+01 0.  0.
     999903    2    3    3    0    0 -0.72955995016E-02 -0.68505715138E-01 -0.11191529315E+00  0.13293447337E+00  0.20007063550E-01 0.  0.
         14    1    1    2    0    0  0.21276622383E-01  0.76360043797E-04  0.41076484922E-02  0.21669639292E-01  0.00000000000E+00 0. -1.
     999901    1    3    3    0    0 -0.13981022882E-01  0.68429355095E-01  0.10780764465E+00  0.88932588734E+00  0.88000000000E+00 0.  1.
        -11    1    4    4    0    0  0.51952898866E-02 -0.42194388049E-01 -0.69710732412E-01  0.81652953126E-01  0.51100000000E-03 0.  1.
         11    1    4    4    0    0 -0.12490889388E-01 -0.26311327089E-01 -0.42204560735E-01  0.51281520246E-01  0.51100000000E-03 0. -1.
</event>
<event>
 8    1  0.1150863E+005  0.1043930E+01  0.7957747E-01            NaN
         13   -1    0    0    0    0  0.00000000000E+00  0.00000000000E+00  0.74505805969E-08  0.10566000000E+00  0.10566000000E+00 0.  1.
     999900   -1    0    0    0    0 -0.00000000000E+00 -0.00000000000E+00 -0.74505805969E-08  0.93827000000E+00  0.93827000000E+00 0. -1.
     999902    2    1    2    0    0 -0.23412388012E-01 -0.45654086558E-02  0.16096686669E-02  0.10200223882E+01  0.10197421726E+01 0.  0.
     999903    2    3    3    0    0  0.11810970540E+00 -0.43400518022E-01  0.94230298489E-02  0.12783534657E+00  0.20483526721E-01 0.  0.
         14    1    1    2    0    0  0.23412388012E-01  0.45654086558E-02 -0.16096686669E-02  0.23907611797E-01  0.00000000000E+00 0. -1.
     999901    1    3    3    0    0 -0.14152209341E+00  0.38835109367E-01 -0.78133611820E-02  0.89218704163E+00  0.88000000000E+00 0. -1.
        -11    1    4    4    0    0  0.52284614110E-02 -0.71105796249E-02 -0.45393402013E-03  0.88523628723E-02  0.51100000000E-03 0. -1.
         11    1    4    4    0    0  0.11288124399E+00 -0.36289938397E-01  0.98769638690E-02  0.11898298370E+00  0.51100000000E-03 0.  1.
</event>
<event>
 8    1  0.1150863E+005  0.1043930E+01  0.7957747E-01            NaN
         13   -1    0    0    0    0  0.00000000000E+00  0.00000000000E+00  0.74505805969E-08  0.10566000000E+00  0.10566000000E+00 0.  1.
     999900   -1    0    0    0    0 -0.00000000000E+00 -0.00000000000E+00 -0.74505805969E-08  0.93827000000E+00  0.93827000000E+00 0.  1.
     999902    2    1    2    0    0 -0.15052675954E-01 -0.20446497640E-01 -0.15597302407E-02  0.10184923296E+01  0.10181746168E+01 0.  0.
     999903    2    3    3    0    0 -0.86384501586E-01  0.16498745229E-01  0.92925646024E-01  0.12979628104E+00  0.21849672193E-01 0.  0.
         14    1    1    2    0    0  0.15052675954E-01  0.20446497640E-01  0.15597302407E-02  0.25437670443E-01  0.00000000000E+00 0. -1.
     999901    1    3    3    0    0  0.71331825633E-01 -0.36945242869E-01 -0.94485376265E-01  0.88869604852E+00  0.88000000000E+00 0.  1.
        -11    1    4    4    0    0 -0.24515351900E-01  0.88722871733E-02  0.41358080731E-01  0.48892452599E-01  0.51100000000E-03 0. -1.
         11    1    4    4    0    0 -0.61869149687E-01  0.76264580555E-02  0.51567565293E-01  0.80903828443E-01  0.51100000000E-03 0.  1.
</event>
<event>
 8    1  0.1150863E+005  0.1043930E+01  0.7957747E-01            NaN
         13   -1    0    0    0    0  0.00000000000E+00  0.00000000000E+00  0.74505805969E-08  0.10566000000E+00  0.10566000000E+00 0.  1.
     999900   -1    0    0    0    0 -0.00000000000E+00 -0.00000000000E+00 -0.74505805969E-08  0.93827000000E+00  0.93827000000E+00 0. -1.
     999902    2    1    2    0    0 -0.22663198909E-01 -0.59312537715E-02 -0.10624223815E-03  0.10205032707E+01  0.10202343427E+01 0.  0.
     999903    2    3    3    0    0  0.45697663496E-01  0.11786416504E+00 -0.17222244387E-01  0.12904857714E+00  0.19408547351E-01 0.  0.
         14    1    1    2    0    0  0.22663198909E-01  0.59312537715E-02  0.10624223815E-03  0.23426729253E-01  0.00000000000E+00 0.  1.
     999901    1    3    3    0    0 -0.68360862405E-01 -0.12379541881E+00  0.17116002149E-01  0.89145469361E+00  0.88000000000E+00 0.  1.
        -11    1    4    4    0    0  0.16649153615E-01  0.67947004268E-01 -0.12827717000E-01  0.71125249732E-01  0.51100000000E-03 0. -1.
         11    1    4    4    0    0  0.29048509882E-01  0.49917160772E-01 -0.43945273868E-02  0.57923327406E-01  0.51100000000E-03 0.  1.
</event>
<event>
 8    1  0.1150863E+005  0.1043930E+01  0.7957747E-01            NaN
         13   -1    0    0    0    0  0.00000000000E+00  0.00000000000E+00  0.74505805969E-08  0.10566000000E+00  0.10566000000E+00 0. -1.
     999900   -1    0    0    0    0 -0.00000000000E+00 -0.00000000000E+00 -0.74505805969E-08  0.93827000000E+00  0.93827000000E+00 0. -1.
     999902    2    1    2    0    0 -0.15023376909E-01  0.40463036793E-02 -0.17833573523E-01  0.10202633405E+01  0.10199888103E+01 0.  0.
     999903    2    3    3    0    0 -0.17360157371E-01  0.12509521520E+00  0.26416950157E-01  0.13087230818E+00  0.21897896305E-01 0.  0.
         14    1    1    2    0    0  0.15023376909E-01 -0.40463036793E-02  0.17833573523E-01  0.23666659498E-01  0.00000000000E+00 0. -1.
     999901    1    3    3    0    0  0.23367804618E-02 -0.12104891152E+00 -0.44250523679E-01  0.88939103232E+00  0.88000000000E+00 0. -1.
        -11    1    4    4    0    0 -0.14203920104E-01  0.44915146533E-01  0.16973419522E-01  0.50074742393E-01  0.51100000000E-03 0.  1.
         11    1    4    4    0    0 -0.31562372669E-02  0.80180068670E-01  0.94435306350E-02  0.80797565790E-01  0.51100000000E-03 0. -1.
</event>
<event>
 8    1  0.1150863E+005  0.1043930E+01  0.7957747E-01            NaN
         13   -1    0    0    0    0  0.00000000000E+00  0.00000000000E+00  0.74505805969E-08  0.10566000000E+00  0.10566000000E+00 0.  1.
     999900   -1    0    0    0    0 -0.00000000000E+00 -0.00000000000E+00 -0.74505805969E-08  0.93827000000E+00  0.93827000000E+00 0.  1.
     999902    2    1    2    0    0  0.62106017095E-02  0.25875898916E-01 -0.63367147398E-02  0.10165751527E+01  0.10162070426E+01 0.  0.
     999903    2    3    3    0    0 -0.75878875540E-01 -0.83514500748E-01  0.48447186014E-01  0.12432730729E+00  0.19438979337E-01 0.  0.
         14    1    1    2    0    0 -0.62106017095E-02 -0.25875898916E-01  0.63367147398E-02  0.27354847322E-01  0.00000000000E+00 0.  1.
     999901    1    3    3    0    0  0.82089477249E-01  0.10939039966E+00 -0.54783900754E-01  0.89224784539E+00  0.88000000000E+00 0.  1.
        -11    1    4    4    0    0 -0.57702710962E-01 -0.74231051354E-01  0.38225544556E-01  0.10149534578E+00  0.51100000000E-03 0.  1.
         11    1    4    4    0    0 -0.18176164578E-01 -0.92834493939E-02  0.10221641458E-01  0.22831961512E-01  0.51100000000E-03 0. -1.
</event>
<event>
 8    1  0.1150863E+005  0.1043930E+01  0.7957747E-01            NaN
         13   -1    0    0    0    0  0.00000000000E+00  0.00000000000E+00  0.74505805969E-08  0.10566000000E+00  0.10566000000E+00 0.  1.
     999900   -1    0    0    0    0 -0.00000000000E+00 -0.00000000000E+00 -0.74505805969E-08  0.93827000000E+00  0.93827000000E+00 0. -1.
     999902    2    1    2    0    0 -0.21269055388E-01 -0.98448567247E-02 -0.86602185865E-03  0.10204769850E+01  0.10202074460E+01 0.  0.
     999903    2    3    3    0    0  0.11111131997E+00 -0.46129843430E-01 -0.42903462143E-01  0.12884459970E+00  0.16927372132E-01 0.  0.
         14    1    1    2    0    0  0.21269055388E-01  0.98448567247E-02  0.86602185865E-03  0.23453015049E-01  0.00000000000E+00 0. -1.
     999901    1    3    3    0    0 -0.13238037536E+00  0.36284986705E-01  0.42037440284E-01  0.89163238525E+00  0.88000000000E+00 0.  1.
        -11    1    4    4    0    0  0.42115003646E-01 -0.22541621877E-01 -0.24270309595E-01  0.53582714543E-01  0.51100000000E-03 0. -1.
         11    1    4    4    0    0  0.68996316327E-01 -0.23588221553E-01 -0.18633152548E-01  0.75261885158E-01  0.51100000000E-03 0.  1.
</event>
<event>
 8    1  0.1150863E+005  0.1043930E+01  0.7957747E-01            NaN
         13   -1    0    0    0    0  0.00000000000E+00  0.00000000000E+00  0.74505805969E-08  0.10566000000E+00  0.10566000000E+00 0. -1.
     999900   -1    0    0    0    0 -0.00000000000E+00 -0.00000000000E+00 -0.74505805969E-08  0.93827000000E+00  0.93827000000E+00 0. -1.
     999902    2    1    2    0    0  0.61400541230E-02  0.18860255542E-01 -0.11403380457E-01  0.10210510448E+01  0.10207946853E+01 0.  0.
     999903    2    3    3    0    0  0.36340422829E-01  0.14100458331E-02 -0.12626075956E+00  0.13290196409E+00  0.19963418880E-01 0.  0.
         14    1    1    2    0    0 -0.61400541230E-02 -0.18860255542E-01  0.11403380457E-01  0.22878955168E-01  0.00000000000E+00 0. -1.
     999901    1    3    3    0    0 -0.30200368706E-01  0.17450209709E-01  0.11485737910E+00  0.88814908074E+00  0.88000000000E+00 0.  1.
        -11    1    4    4    0    0  0.35972399779E-01  0.67352256432E-03 -0.94380269746E-01  0.10100675035E+00  0.51100000000E-03 0. -1.
         11    1    4    4    0    0  0.36802305012E-03  0.73652326876E-03 -0.31880489814E-01  0.31895213736E-01  0.51100000000E-03 0.  1.
</event>
<event>
 8    1  0.1150863E+005  0.1043930E+01  0.7957747E-01            NaN
         13   -1    0    0    0    0  0.00000000000E+00  0.00000000000E+00  0.74505805969E-08  0.10566000000E+00  0.10566000000E+00 0.  1.
     999900   -1    0    0    0    0 -0.00000000000E+00 -0.00000000000E+00 -0.74505805969E-08  0.93827000000E+00  0.93827000000E+00 0.  1.
     999902    2    1    2    0    0  0.18614626070E-01  0.41036146351E-02  0.13887111204E-01  0.10203461959E+01  0.10200736070E+01 0.  0.
     999903    2    3    3    0    0 -0.11570434978E+00  0.42133269392E-01 -0.29556213114E-01  0.12828388626E+00  0.20505530751E-01 0.  0.
         14    1    1    2    0    0 -0.18614626070E-01 -0.41036146351E-02 -0.13887111204E-01  0.23583804070E-01  0.00000000000E+00 0. -1.
     999901    1    3    3    0    0  0.13431897585E+00 -0.38029654757E-01  0.43443324318E-01  0.89206230967E+00  0.88000000000E+00 0. -1.
        -11    1    4    4    0    0 -0.84805724336E-01  0.28753537929E-01 -0.12129096355E-01  0.90366768909E-01  0.51100000000E-03 0.  1.
         11    1    4    4    0    0 -0.30898625444E-01  0.13379731463E-01 -0.17427116758E-01  0.37917117347E-01  0.51100000000E-03 0. -1.
</event>
<event>
 8    1  0.1150863E+005  0.1043930E+01  0.7957747E-01            NaN
         13   -1    0    0    0    0  0.00000000000E+00  0.00000000000E+00  0.74505805969E-08  0.10566000000E+00  0.10566000000E+00 0. -1.
     999900   -1    0    0    0    0 -0.00000000000E+00 -0.00000000000E+00 -0.74505805969E-08  0.93827000000E+00  0.93827000000E+00 0. -1.
     999902    2    1    2    0    0 -0.13890825791E-01  0.93291189127E-02  0.17840104613E-01  0.10194707107E+01  0.10191772530E+01 0.  0.
     999903    2    3    3    0    0 -0.48329070607E-01  0.10411083458E-01 -0.11683210685E+00  0.12855894857E+00  0.20822399960E-01 0.  0.
         14    1    1    2    0    0  0.13890825791E-01 -0.93291189127E-02 -0.17840104613E-01  0.24459289307E-01  0.00000000000E+00 0.  1.
     999901    1    3    3    0    0  0.34438244816E-01 -0.10819645457E-02  0.13467221147E+00  0.89091176213E+00  0.88000000000E+00 0.  1.
        -11    1    4    4    0    0 -0.48400549660E-01  0.13692910405E-01 -0.10873411587E+00  0.11980600184E+00  0.51100000000E-03 0. -1.
         11    1    4    4    0    0  0.71479052642E-04 -0.32818269461E-02 -0.80979909863E-02  0.87529467252E-02  0.51100000000E-03 0.  1.
</event>
<event>
 8    1  0.1150863E+005  0.1043930E+01  0.7957747E-01            NaN
         13   -1    0    0    0    0  0.00000000000E+00  0.00000000000E+00  0.74505805969E-08  0.10566000000E+00  0.10566000000E+00 0. -1.
     999900   -1    0    0    0    0 -0.00000000000E+00 -0.00000000000E+00 -0.74505805969E-08  0.93827000000E+00  0.93827000000E+00 0.  1.
     999902    2    1    2    0    0  0.87564440385E-02 -0.20690773610E-01 -0.48543637690E-02  0.10209441724E+01  0.10206853848E+01 0.  0.
     999903    2    3    3    0    0 -0.30911937427E-01 -0.10848941197E+00 -0.68378305605E-01  0.13340968144E+00  0.19926114471E-01 0.  0.
         14    1    1    2    0    0 -0.87564440385E-02  0.20690773610E-01  0.48543637690E-02  0.22985827642E-01  0.00000000000E+00 0. -1.
     999901    1    3    3    0    0  0.39668381466E-01  0.87798638364E-01  0.63523941836E-01  0.88753449092E+00  0.88000000000E+00 0.  1.
        -11    1    4    4    0    0  0.10517807576E-02 -0.19695503231E-01 -0.75168722791E-02  0.21113587572E-01  0.51100000000E-03 0. -1.
         11    1    4    4    0    0 -0.31963718185E-01 -0.88793908743E-01 -0.60861433326E-01  0.11229609387E+00  0.51100000000E-03 0.  1.
</event>
<event>
 8    1  0.1150863E+005  0.1043930E+01  0.7957747E-01            NaN
         13   -1    0    0    0    0  0.00000000000E+00  0.00000000000E+00  0.74505805969E-08  0.10566000000E+00  0.10566000000E+00 0. -1.
     999900   -1    0    0    0    0 -0.00000000000E+00 -0.00000000000E+00 -0.74505805969E-08  0.93827000000E+00  0.93827000000E+00 0. -1.
     999902    2    1    2    0    0  0.12739179069E-01  0.58020350488E-02  0.19819223187E-01  0.10196657897E+01  0.10193770503E+01 0.  0.
     999903    2    3    3    0    0  0.36965788313E-01 -0.28463275729E-01  0.12257537456E+00  0.13269348643E+00  0.20154684821E-01 0.  0.
         14    1    1    2    0    0 -0.12739179069E-01 -0.58020350488E-02 -0.19819223187E-01  0.24264210307E-01  0.00000000000E+00 0.  1.
     999901    1    3    3    0    0 -0.24226609244E-01  0.34265310778E-01 -0.10275615137E+00  0.88697230327E+00  0.88000000000E+00 0.  1.
        -11    1    4    4    0    0  0.10775057081E-02  0.24918533178E-02  0.30574737447E-02  0.41206332290E-02  0.51100000000E-03 0. -1.
         11    1    4    4    0    0  0.35888282605E-01 -0.30955129047E-01  0.11951790082E+00  0.12857285320E+00  0.51100000000E-03 0.  1.
</event>
<event>
 8    1  0.1150863E+005  0.1043930E+01  0.7957747E-01            NaN
         13   -1    0    0    0    0  0.00000000000E+00  0.00000000000E+00  0.74505805969E-08  0.10566000000E+00  0.10566000000E+00 0.  1.
     999900   -1    0    0    0    0 -0.00000000000E+00 -0.00000000000E+00 -0.74505805969E-08  0.93827000000E+00  0.93827000000E+00 0. -1.
     999902    2    1    2    0    0  0.15783024115E-01  0.14703243355E-01  0.10405183376E-01  0.10199809487E+01  0.10196997493E+01 0.  0.
     999903    2    3    3    0    0 -0.49009889380E-02 -0.11925895557E+00  0.44475510136E-01  0.12895093448E+00  0.20088661591E-01 0.  0.
         14    1    1    2    0    0 -0.15783024115E-01 -0.14703243355E-01 -0.10405183376E-01  0.23949051264E-01  0.00000000000E+00 0. -1.
     999901    1    3    3    0    0  0.20684013053E-01  0.13396219893E+00 -0.34070326760E-01  0.89103001425E+00  0.88000000000E+00 0. -1.
        -11    1    4    4    0    0 -0.11412780597E-02 -0.64000752807E-01  0.34342261219E-01  0.72643312852E-01  0.51100000000E-03 0.  1.
         11    1    4    4    0    0 -0.37597108783E-02 -0.55258202767E-01  0.10133248918E-01  0.56307621629E-01  0.51100000000E-03 0. -1.
</event>
<event>
 8    1  0.1150863E+005  0.1043930E+01  0.7957747E-01            NaN
         13   -1    0    0    0    0  0.00000000000E+00  0.00000000000E+00  0.74505805969E-08  0.10566000000E+00  0.10566000000E+00 0. -1.
     999900   -1    0    0    0    0 -0.00000000000E+00 -0.00000000000E+00 -0.74505805969E-08  0.93827000000E+00  0.93827000000E+00 0.  1.
     999902    2    1    2    0    0  0.12343549178E-02 -0.75755977247E-02  0.22375752722E-01  0.10202743955E+01  0.10200001248E+01 0.  0.
     999903    2    3    3    0    0 -0.47450810660E-01 -0.11522978326E+00  0.39384012068E-01  0.13221530409E+00  0.20007594682E-01 0.  0.
         14    1    1    2    0    0 -0.12343549178E-02  0.75755977247E-02 -0.22375752722E-01  0.23655604470E-01  0.00000000000E+00 0.  1.
     999901    1    3    3    0    0  0.48685165578E-01  0.10765418554E+00 -0.17008259346E-01  0.88805909144E+00  0.88000000000E+00 0.  1.
        -11    1    4    4    0    0 -0.22678776316E-01 -0.67877670988E-01  0.13483582350E-01  0.72827008918E-01  0.51100000000E-03 0.  1.
         11    1    4    4    0    0 -0.24772034344E-01 -0.47352112274E-01  0.25900429718E-01  0.59388295168E-01  0.51100000000E-03 0. -1.
</event>
<event>
 8    1  0.1150863E+005  0.1043930E+01  0.7957747E-01            NaN
         13   -1    0    0    0    0  0.00000000000E+00  0.00000000000E+00  0.74505805969E-08  0.10566000000E+00  0.10566000000E+00 0.  1.
     999900   -1    0    0    0    0 -0.00000000000E+00 -0.00000000000E+00 -0.74505805969E-08  0.93827000000E+00  0.93827000000E+00 0.  1.
     999902    2    1    2    0    0 -0.20607303272E-01  0.23103036701E-02  0.10852055985E-01  0.10205256079E+01  0.10202571983E+01 0.  0.
     999903    2    3    3    0    0  0.12237590665E+00  0.30386112048E-01 -0.12299945101E-01  0.12824288112E+00  0.19893958217E-01 0.  0.
         14    1    1    2    0    0  0.20607303272E-01 -0.23103036701E-02 -0.10852055985E-01  0.23404392116E-01  0.00000000000E+00 0. -1.
     999901    1    3    3    0    0 -0.14298320992E+00 -0.28075808378E-01  0.23152001086E-01  0.89228272677E+00  0.88000000000E+00 0.  1.
        -11    1    4    4    0    0  0.11268490124E+00  0.24427865841E-01 -0.15679022623E-01  0.11636451550E+00  0.51100000000E-03 0.  1.
         11    1    4    4    0    0  0.96910054119E-02  0.59582462071E-02  0.33790775215E-02  0.11878365614E-01  0.51100000000E-03 0. -1.
</event>
<event>
 8    1  0.1150863E+005  0.1043930E+01  0.7957747E-01            NaN
         13   -1    0    0    0    0  0.00000000000E+00  0.00000000000E+00  0.74505805969E-08  0.10566000000E+00  0.10566000000E+00 0.  1.
     999900   -1    0    0    0    0 -0.00000000000E+00 -0.00000000000E+00 -0.74505805969E-08  0.93827000000E+00  0.93827000000E+00 0.  1.
     999902    2    1    2    0    0 -0.49313675274E-02 -0.33896058814E-02  0.22179242625E-01  0.10209576989E+01  0.10206992193E+01 0.  0.
     999903    2    3    3    0    0  0.11411098769E+00  0.19276304677E-01 -0.55305160453E-01  0.12928025804E+00  0.16181190086E-01 0.  0.
         14    1    1    2    0    0  0.49313675274E-02  0.33896058814E-02 -0.22179242625E-01  0.22972301085E-01  0.00000000000E+00 0. -1.
     999901    1    3    3    0    0 -0.11904235522E+00 -0.22665910558E-01  0.77484403077E-01  0.89167744087E+00  0.88000000000E+00 0. -1.
        -11    1    4    4    0    0  0.63014560089E-01  0.18739478876E-01 -0.31853578381E-01  0.73054188302E-01  0.51100000000E-03 0.  1.
         11    1    4    4    0    0  0.51096427605E-01  0.53682580087E-03 -0.23451582071E-01  0.56226069742E-01  0.51100000000E-03 0. -1.
</event>
<event>
 8    1  0.1150863E+005  0.1043930E+01  0.7957747E-01            NaN
         13   -1    0    0    0    0  0.00000000000E+00  0.00000000000E+00  0.74505805969E-08  0.10566000000E+00  0.10566000000E+00 0.  1.
     999900   -1    0    0    0    0 -0.00000000000E+00 -0.00000000000E+00 -0.74505805969E-08  0.93827000000E+00  0.93827000000E+00 0. -1.
     999902    2    1    2    0    0  0.10564217532E-01 -0.19422114066E-01  0.10017258379E-01  0.10196572442E+01  0.10193682990E+01 0.  0.
     999903    2    3    3    0    0 -0.54559548597E-01 -0.11507521651E+00 -0.25829287757E-01  0.13135797271E+00  0.19201955400E-01 0.  0.
         14    1    1    2    0    0 -0.10564217532E-01  0.19422114066E-01 -0.10017258379E-01  0.24272755762E-01  0.00000000000E+00 0.  1.
     999901    1    3    3    0    0  0.65123766129E-01  0.95653102445E-01  0.35846546137E-01  0.88829927153E+00  0.88000000000E+00 0.  1.
        -11    1    4    4    0    0 -0.20207314700E-01 -0.24764266455E-01 -0.32627847289E-02  0.32132714570E-01  0.51100000000E-03 0.  1.
         11    1    4    4    0    0 -0.34352233897E-01 -0.90310950056E-01 -0.22566503028E-01  0.99225258143E-01  0.51100000000E-03 0. -1.
</event>
<event>
 8    1  0.1150863E+005  0.1043930E+01  0.7957747E-01            NaN
         13   -1    0    0    0    0  0.00000000000E+00  0.00000000000E+00  0.74505805969E-08  0.10566000000E+00  0.10566000000E+00 0. -1.
     999900   -1    0    0    0    0 -0.00000000000E+00 -0.00000000000E+00 -0.74505805969E-08  0.93827000000E+00  0.93827000000E+00 0. -1.
     999902    2    1    2    0    0  0.21958205920E-01  0.10443494539E-01  0.11345793668E-01  0.10170979964E+01  0.10167440080E+01 0.  0.
     999903    2    3    3    0    0  0.66918359418E-01  0.10477189342E+00 -0.31680204696E-01  0.12987170123E+00  0.20194230181E-01 0.  0.
         14    1    1    2    0    0 -0.21958205920E-01 -0.10443494539E-01 -0.11345793668E-01  0.26832003640E-01  0.00000000000E+00 0.  1.
     999901    1    3    3    0    0 -0.44960153498E-01 -0.94328398880E-01  0.43025998363E-01  0.88722629513E+00  0.88000000000E+00 0.  1.
        -11    1    4    4    0    0  0.20922702475E-01  0.43105871946E-01 -0.38962036003E-02  0.48076160398E-01  0.51100000000E-03 0. -1.
         11    1    4    4    0    0  0.45995656943E-01  0.61666021473E-01 -0.27784001095E-01  0.81795540831E-01  0.51100000000E-03 0.  1.
</event>
<event>
 8    1  0.1150863E+005  0.1043930E+01  0.7957747E-01            NaN
         13   -1    0    0    0    0  0.00000000000E+00  0.00000000000E+00  0.74505805969E-08  0.10566000000E+00  0.10566000000E+00 0.  1.
     999900   -1    0    0    0    0 -0.00000000000E+00 -0.00000000000E+00 -0.74505805969E-08  0.93827000000E+00  0.93827000000E+00 0. -1.
     999902    2    1    2    0    0  0.15424566762E-01 -0.25799577475E-02  0.13903267281E-01  0.10230045542E+01  0.10227905179E+01 0.  0.
     999903    2    3    3    0    0  0.11152253228E+00 -0.73201350841E-02 -0.70883046675E-01  0.13370932351E+00  0.19050388500E-01 0.  0.
         14    1    1    2    0    0 -0.15424566762E-01  0.25799577475E-02 -0.13903267281E-01  0.20925445823E-01  0.00000000000E+00 0. -1.
     999901    1    3    3    0    0 -0.96097965523E-01  0.47401773366E-02  0.84786313956E-01  0.88929523067E+00  0.88000000000E+00 0.  1.
        -11    1    4    4    0    0  0.85089884271E-01  0.21793138382E-02 -0.56337623338E-01  0.10207461358E+00  0.51100000000E-03 0. -1.
         11    1    4    4    0    0  0.26432648013E-01 -0.94994489223E-02 -0.14545423337E-01  0.31634709922E-01  0.51100000000E-03 0.  1.
</event>
<event>
 8    1  0.1150863E+005  0.1043930E+01  0.7957747E-01            NaN
         13   -1    0    0    0    0  0.00000000000E+00  0.00000000000E+00  0.74505805969E-08  0.10566000000E+00  0.10566000000E+00 0.  1.
     999900   -1    0    0    0    0 -0.00000000000E+00 -0.00000000000E+00 -0.74505805969E-08  0.93827000000E+00  0.93827000000E+00 0.  1.
     999902    2    1    2    0    0 -0.10414422797E-01  0.65278285658E-02  0.19058299349E-01  0.10212520036E+01  0.10210001779E+01 0.  0.
     999903    2    3    3    0    0 -0.10841548046E+00 -0.69409179525E-01 -0.19565257378E-01  0.13172268104E+00  0.19912679355E-01 0.  0.
         14    1    1    2    0    0  0.10414422797E-01 -0.65278285658E-02 -0.19058299349E-01  0.22677996430E-01  0.00000000000E+00 0.  1.
     999901    1    3    3    0    0  0.98001057663E-01  0.75937008091E-01  0.38623556727E-01  0.88952932253E+00  0.88000000000E+00 0.  1.
        -11    1    4    4    0    0 -0.10295194796E-01 -0.14418220391E-01 -0.40079204861E-02  0.18171424346E-01  0.51100000000E-03 0.  1.
         11    1    4    4    0    0 -0.98120285664E-01 -0.54990959134E-01 -0.15557336892E-01  0.11355125670E+00  0.51100000000E-03 0. -1.
</event>
<event>
 8    1  0.1150863E+005  0.1043930E+01  0.7957747E-01            NaN
         13   -1    0    0    0    0  0.00000000000E+00  0.00000000000E+00  0.74505805969E-08  0.10566000000E+00  0.10566000000E+00 0.  1.
     999900   -1    0    0    0    0 -0.00000000000E+00 -0.00000000000E+00 -0.74505805969E-08  0.93827000000E+00  0.93827000000E+00 0. -1.
     999902    2    1    2    0    0  0.34172056888E-02  0.59594266353E-02  0.23022758977E-01  0.10199041911E+01  0.10196211648E+01 0.  0.
     999903    2    3    3    0    0  0.78479223686E-01  0.10209351985E+00 -0.10722753556E-01  0.13085141990E+00  0.20616529799E-01 0.  0.
         14    1    1    2    0    0 -0.34172056888E-02 -0.59594266353E-02 -0.23022758977E-01  0.24025808861E-01  0.00000000000E+00 0. -1.
     999901    1    3    3    0    0 -0.75062017997E-01 -0.96134093216E-01  0.33745512532E-01  0.88905277123E+00  0.88000000000E+00 0. -1.
        -11    1    4    4    0    0  0.42168601783E-01  0.44182068711E-01  0.29209975477E-02  0.61147686135E-01  0.51100000000E-03 0.  1.
         11    1    4    4    0    0  0.36310621903E-01  0.57911451141E-01 -0.13643751103E-01  0.69703733769E-01  0.51100000000E-03 0. -1.
</event>
<event>
 8    1  0.1150863E+005  0.1043930E+01  0.7957747E-01            NaN
         13   -1    0    0    0    0  0.00000000000E+00  0.00000000000E+00  0.74505805969E-08  0.10566000000E+00  0.10566000000E+00 0.  1.
     999900   -1    0    0    0    0 -0.00000000000E+00 -0.00000000000E+00 -0.74505805969E-08  0.93827000000E+00  0.93827000000E+00 0. -1.
     999902    2    1    2    0    0  0.24343741398E-01  0.13522976880E-01  0.50278886807E-02  0.10156321500E+01  0.10152378519E+01 0.  0.
     999903    2    3    3    0    0 -0.86688409277E-01 -0.39204542276E-01  0.78150350582E-01  0.12408561495E+00  0.15423556768E-01 0.  0.
         14    1    1    2    0    0 -0.24343741398E-01 -0.13522976880E-01 -0.50278886807E-02  0.28297849981E-01  0.00000000000E+00 0. -1.
     999901    1    3    3    0    0  0.11103215068E+00  0.52727519156E-01 -0.73122461901E-01  0.89154653507E+00  0.88000000000E+00 0. -1.
        -11    1    4    4    0    0 -0.61982164395E-01 -0.31032925695E-01  0.48327428206E-01  0.84502263983E-01  0.51100000000E-03 0.  1.
         11    1    4    4    0    0 -0.24706244882E-01 -0.81716165808E-02  0.29822922375E-01  0.39583350966E-01  0.51100000000E-03 0. -1.
</event>
<event>
 8    1  0.1150863E+005  0.1043930E+01  0.7957747E-01            NaN
         13   -1    0    0    0    0  0.00000000000E+00  0.00000000000E+00  0.74505805969E-08  0.10566000000E+00  0.10566000000E+00 0.  1.
     999900   -1    0    0    0    0 -0.00000000000E+00 -0.00000000000E+00 -0.74505805969E-08  0.93827000000E+00  0.93827000000E+00 0. -1.
     999902    2    1    2    0    0  0.13890230676E-01  0.10224258906E-01  0.16774467771E-01  0.10198705580E+01  0.10195867292E+01 0.  0.
     999903    2    3    3    0    0 -0.67120741335E-01 -0.89331580405E-01 -0.58303284834E-01  0.12739601405E+00  0.18578110763E-01 0.  0.
         14    1    1    2    0    0 -0.13890230676E-01 -0.10224258906E-01 -0.16774467771E-01  0.24059441959E-01  0.00000000000E+00 0. -1.
     999901    1    3    3    0    0  0.81010972011E-01  0.99555839311E-01  0.75077752605E-01  0.89247454399E+00  0.88000000000E+00 0.  1.
        -11    1    4    4    0    0 -0.56435538322E-01 -0.81033604963E-01 -0.56407369127E-01  0.11372540407E+00  0.51100000000E-03 0. -1.
         11    1    4    4    0    0 -0.10685203014E-01 -0.82979754421E-02 -0.18959157072E-02  0.13670609981E-01  0.51100000000E-03 0.  1.
</event>
<event>
 8    1  0.1150863E+005  0.1043930E+01  0.7957747E-01            NaN
         13   -1    0    0    0    0  0.00000000000E+00  0.00000000000E+00  0.74505805969E-08  0.10566000000E+00  0.10566000000E+00 0.  1.
     999900   -1    0    0    0    0 -0.00000000000E+00 -0.00000000000E+00 -0.74505805969E-08  0.93827000000E+00  0.93827000000E+00 0.  1.
     999902    2    1    2    0    0  0.15306297910E-01  0.10676519701E-01 -0.15810382657E-01  0.10194710747E+01  0.10191776259E+01 0.  0.
     999903    2    3    3    0    0  0.10993793708E+00 -0.13033146290E-01  0.66060090793E-01  0.13030288483E+00  0.18939199766E-01 0.  0.
         14    1    1    2    0    0 -0.15306297910E-01 -0.10676519701E-01  0.15810382657E-01  0.24458925332E-01  0.00000000000E+00 0. -1.
     999901    1    3    3    0    0 -0.94631639173E-01  0.23709665990E-01 -0.81870473451E-01  0.88916818984E+00  0.88000000000E+00 0.  1.
        -11    1    4    4    0    0  0.41532124532E-01 -0.48883406063E-02  0.14537543074E-01  0.44276568540E-01  0.51100000000E-03 0.  1.
         11    1    4    4    0    0  0.68405812550E-01 -0.81448056833E-02  0.51522547720E-01  0.86026316292E-01  0.51100000000E-03 0. -1.
</event>
<event>
 8    1  0.1150863E+005  0.1043930E+01  0.7957747E-01            NaN
         13   -1    0    0    0    0  0.00000000000E+00  0.00000000000E+00  0.74505805969E-08  0.10566000000E+00  0.10566000000E+00 0.  1.
     999900   -1    0    0    0    0 -0.00000000000E+00 -0.00000000000E+00 -0.74505805969E-08  0.93827000000E+00  0.93827000000E+00 0. -1.
     999902    2    1    2    0    0 -0.78179735427E-04 -0.38382899529E-02 -0.23515311889E-01  0.10201033663E+01  0.10198250680E+01 0.  0.
     999903    2    3    3    0    0 -0.74476242848E-01  0.81023282089E-01 -0.69437342656E-01  0.13170852662E+00  0.20349654529E-01 0.  0.
         14    1    1    2    0    0  0.78179735427E-04  0.38382899529E-02  0.23515311889E-01  0.23826633734E-01  0.00000000000E+00 0.  1.
     999901    1    3    3    0    0  0.74398063112E-01 -0.84861572042E-01  0.45922030767E-01  0.88839483965E+00  0.88000000000E+00 0.  1.
        -11    1    4    4    0    0 -0.25006502571E-01  0.36544163853E-01 -0.18833845038E-01  0.48122509520E-01  0.51100000000E-03 0.  1.
         11    1    4    4    0    0 -0.49469740277E-01  0.44479118236E-01 -0.50603497618E-01  0.83586017098E-01  0.51100000000E-03 0. -1.
</event>
<event>
 8    1  0.1150863E+005  0.1043930E+01  0.7957747E-01            NaN
         13   -1    0    0    0    0  0.00000000000E+00  0.00000000000E+00  0.74505805969E-08  0.10566000000E+00  0.10566000000E+00 0.  1.
     999900   -1    0    0    0    0 -0.00000000000E+00 -0.00000000000E+00 -0.74505805969E-08  0.93827000000E+00  0.93827000000E+00 0.  1.
     999902    2    1    2    0    0  0.38784877482E-02 -0.21011214810E-01  0.69996242912E-02  0.10214464826E+01  0.10211990052E+01 0.  0.
     999903    2    3    3    0    0  0.98726872686E-01  0.40760374033E-01  0.74358872599E-01  0.13164357540E+00  0.19808723516E-01 0.  0.
         14    1    1    2    0    0 -0.38784877482E-02  0.21011214810E-01 -0.69996242912E-02  0.22483517412E-01  0.00000000000E+00 0.  1.
     999901    1    3    3    0    0 -0.94848384938E-01 -0.61771588842E-01 -0.67359248308E-01  0.88980290719E+00  0.88000000000E+00 0.  1.
        -11    1    4    4    0    0  0.73694335090E-01  0.31071986978E-01  0.44636698915E-01  0.91591590281E-01  0.51100000000E-03 0. -1.
         11    1    4    4    0    0  0.25032537596E-01  0.96883870546E-02  0.29722173684E-01  0.40051985116E-01  0.51100000000E-03 0.  1.
</event>
<event>
 8    1  0.1150863E+005  0.1043930E+01  0.7957747E-01            NaN
         13   -1    0    0    0    0  0.00000000000E+00  0.00000000000E+00  0.74505805969E-08  0.10566000000E+00  0.10566000000E+00 0. -1.
     999900   -1    0    0    0    0 -0.00000000000E+00 -0.00000000000E+00 -0.74505805969E-08  0.93827000000E+00  0.93827000000E+00 0. -1.
     999902    2    1    2    0    0  0.11463456282E-01 -0.27643261162E-02 -0.21103540657E-01  0.10197553902E+01  0.10194688049E+01 0.  0.
     999903    2    3    3    0    0  0.39791775510E-01  0.11814230573E+00 -0.34691428669E-01  0.13093283315E+00  0.19973026111E-01 0.  0.
         14    1    1    2    0    0 -0.11463456282E-01  0.27643261162E-02  0.21103540657E-01  0.24174609761E-01  0.00000000000E+00 0. -1.
     999901    1    3    3    0    0 -0.28328319228E-01 -0.12090663184E+00  0.13587888011E-01  0.88882255709E+00  0.88000000000E+00 0.  1.
        -11    1    4    4    0    0  0.21408896298E-01  0.74093457666E-01 -0.30773174669E-01  0.83038730180E-01  0.51100000000E-03 0. -1.
         11    1    4    4    0    0  0.18382879212E-01  0.44048848062E-01 -0.39182539992E-02  0.47894102968E-01  0.51100000000E-03 0.  1.
</event>
<event>
 8    1  0.1150863E+005  0.1043930E+01  0.7957747E-01            NaN
         13   -1    0    0    0    0  0.00000000000E+00  0.00000000000E+00  0.74505805969E-08  0.10566000000E+00  0.10566000000E+00 0.  1.
     999900   -1    0    0    0    0 -0.00000000000E+00 -0.00000000000E+00 -0.74505805969E-08  0.93827000000E+00  0.93827000000E+00 0. -1.
     999902    2    1    2    0    0  0.15918772838E-01 -0.36678191048E-02  0.17457473999E-01  0.10200213483E+01  0.10197411081E+01 0.  0.
     999903    2    3    3    0    0  0.97744954687E-01  0.55907823895E-01  0.67423852401E-01  0.13281144068E+00  0.20325893948E-01 0.  0.
         14    1    1    2    0    0 -0.15918772838E-01  0.36678191048E-02 -0.17457473999E-01  0.23908651658E-01  0.00000000000E+00 0. -1.
     999901    1    3    3    0    0 -0.81826181849E-01 -0.59575643000E-01 -0.49966378402E-01  0.88720990766E+00  0.88000000000E+00 0. -1.
        -11    1    4    4    0    0  0.52377547760E-01  0.38372326657E-01  0.30471472606E-01  0.71725969678E-01  0.51100000000E-03 0.  1.
         11    1    4    4    0    0  0.45367406926E-01  0.17535497238E-01  0.36952379795E-01  0.61085471007E-01  0.51100000000E-03 0. -1.
</event>
<event>
 8    1  0.1150863E+005  0.1043930E+01  0.7957747E-01            NaN
         13   -1    0    0    0    0  0.00000000000E+00  0.00000000000E+00  0.74505805969E-08  0.10566000000E+00  0.10566000000E+00 0. -1.
     999900   -1    0    0    0    0 -0.00000000000E+00 -0.00000000000E+00 -0.74505805969E-08  0.93827000000E+00  0.93827000000E+00 0. -1.
     999902    2    1    2    0    0 -0.57116466439E-02 -0.22864220206E-01 -0.30243489745E-02  0.10201699040E+01  0.10198931763E+01 0.  0.
     999903    2    3    3    0    0  0.96988285031E-01  0.31795087779E-01 -0.77071471430E-01  0.12942982284E+00  0.19859816039E-01 0.  0.
         14    1    1    2    0    0  0.57116466439E-02  0.22864220206E-01  0.30243489745E-02  0.23760095953E-01  0.00000000000E+00 0. -1.
     999901    1    3    3    0    0 -0.10269993168E+00 -0.54659307985E-01  0.74047122455E-01  0.89074008120E+00  0.88000000000E+00 0. -1.
        -11    1    4    4    0    0  0.83544794492E-01  0.33620505425E-01 -0.63205057028E-01  0.11002368575E+00  0.51100000000E-03 0.  1.
         11    1    4    4    0    0  0.13443490540E-01 -0.18254176463E-02 -0.13866414402E-01  0.19406137092E-01  0.51100000000E-03 0. -1.
</event>
<event>
 8    1  0.1150863E+005  0.1043930E+01  0.7957747E-01            NaN
         13   -1    0    0    0    0  0.00000000000E+00  0.00000000000E+00  0.74505805969E-08  0.10566000000E+00  0.10566000000E+00 0.  1.
     999900   -1    0    0    0    0 -0.00000000000E+00 -0.00000000000E+00 -0.74505805969E-08  0.93827000000E+00  0.93827000000E+00 0.  1.
     999902    2    1    2    0    0 -0.96187910695E-02  0.16196934824E-01  0.14361919571E-01  0.10202418896E+01  0.10199668557E+01 0.  0.
     999903    2    3    3    0    0 -0.12172331810E+00 -0.27812784621E-01  0.38094850947E-01  0.13172203480E+00  0.17588622082E-01 0.  0.
         14    1    1    2    0    0  0.96187910695E-02 -0.16196934824E-01 -0.14361919571E-01  0.23688110374E-01  0.00000000000E+00 0. -1.
     999901    1    3    3    0    0  0.11210452703E+00  0.44009719445E-01 -0.23732931376E-01  0.88851985482E+00  0.88000000000E+00 0. -1.
        -11    1    4    4    0    0 -0.47510912550E-01 -0.14789056904E-01  0.23248752240E-01  0.54925118272E-01  0.51100000000E-03 0.  1.
         11    1    4    4    0    0 -0.74212405546E-01 -0.13023727717E-01  0.14846098707E-01  0.76796916529E-01  0.51100000000E-03 0. -1.
</event>
<event>
 8    1  0.1150863E+005  0.1043930E+01  0.7957747E-01            NaN
         13   -1    0    0    0    0  0.00000000000E+00  0.00000000000E+00  0.74505805969E-08  0.10566000000E+00  0.10566000000E+00 0.  1.
     999900   -1    0    0    0    0 -0.00000000000E+00 -0.00000000000E+00 -0.74505805969E-08  0.93827000000E+00  0.93827000000E+00 0.  1.
     999902    2    1    2    0    0 -0.16917197810E-01 -0.75489289820E-02  0.14759883203E-01  0.10202438846E+01  0.10199688976E+01 0.  0.
     999903    2    3    3    0    0 -0.57290533081E-01  0.22478480160E-01  0.11610248853E+00  0.13299985100E+00  0.20534976825E-01 0.  0.
         14    1    1    2    0    0  0.16917197810E-01  0.75489289820E-02 -0.14759883203E-01  0.23686115399E-01  0.00000000000E+00 0. -1.
     999901    1    3    3    0    0  0.40373335271E-01 -0.30027409142E-01 -0.10134260533E+00  0.88724403360E+00  0.88000000000E+00 0.  1.
        -11    1    4    4    0    0 -0.20239042833E-01  0.18181002013E-02  0.23052586810E-01  0.30734463112E-01  0.51100000000E-03 0. -1.
         11    1    4    4    0    0 -0.37051490248E-01  0.20660379959E-01  0.93049901719E-01  0.10226538789E+00  0.51100000000E-03 0.  1.
</event>
<event>
 8    1  0.1150863E+005  0.1043930E+01  0.7957747E-01            NaN
         13   -1    0    0    0    0  0.00000000000E+00  0.00000000000E+00  0.74505805969E-08  0.10566000000E+00  0.10566000000E+00 0. -1.
     999900   -1    0    0    0    0 -0.00000000000E+00 -0.00000000000E+00 -0.74505805969E-08  0.93827000000E+00  0.93827000000E+00 0. -1.
     999902    2    1    2    0    0 -0.55811934169E-02  0.22982347923E-01 -0.15468431667E-02  0.10202291401E+01  0.10199538066E+01 0.  0.
     999903    2    3    3    0    0 -0.23358534481E-01 -0.10185753830E+00  0.71699222622E-01  0.12822800939E+00  0.19520876647E-01 0.  0.
         14    1    1    2    0    0  0.55811934169E-02 -0.22982347923E-01  0.15468431667E-02  0.23700859895E-01  0.00000000000E+00 0.  1.
     999901    1    3    3    0    0  0.17777341064E-01  0.12483988622E+00 -0.73246065788E-01  0.89200113072E+00  0.88000000000E+00 0.  1.
        -11    1    4    4    0    0 -0.18797171483E-01 -0.95104170830E-01  0.60169945308E-01  0.11410004559E+00  0.51100000000E-03 0. -1.
         11    1    4    4    0    0 -0.45613629982E-02 -0.67533674710E-02  0.11529277313E-01  0.14127963794E-01  0.51100000000E-03 0.  1.
</event>
<event>
 8    1  0.1150863E+005  0.1043930E+01  0.7957747E-01            NaN
         13   -1    0    0    0    0  0.00000000000E+00  0.00000000000E+00  0.74505805969E-08  0.10566000000E+00  0.10566000000E+00 0.  1.
     999900   -1    0    0    0    0 -0.00000000000E+00 -0.00000000000E+00 -0.74505805969E-08  0.93827000000E+00  0.93827000000E+00 0. -1.
     999902    2    1    2    0    0 -0.10096092831E-01  0.12189727183E-01 -0.16818241183E-01  0.10208351136E+01  0.10205738364E+01 0.  0.
     999903    2    3    3    0    0 -0.11578423358E+00  0.61613181114E-01  0.51304386405E-02  0.13286303895E+00  0.20593515597E-01 0.  0.
         14    1    1    2    0    0  0.10096092831E-01 -0.12189727183E-01  0.16818241183E-01  0.23094886355E-01  0.00000000000E+00 0.  1.
     999901    1    3    3    0    0  0.10568814075E+00 -0.49423453931E-01 -0.21948679824E-01  0.88797207470E+00  0.88000000000E+00 0.  1.
        -11    1    4    4    0    0 -0.90778232455E-01  0.55553086334E-01  0.91277841165E-02  0.10681952281E+00  0.51100000000E-03 0. -1.
         11    1    4    4    0    0 -0.25006001129E-01  0.60600947805E-02 -0.39973454760E-02  0.26043516142E-01  0.51100000000E-03 0.  1.
</event>
<event>
 8    1  0.1150863E+005  0.1043930E+01  0.7957747E-01            NaN
         13   -1    0    0    0    0  0.00000000000E+00  0.00000000000E+00  0.74505805969E-08  0.10566000000E+00  0.10566000000E+00 0.  1.
     999900   -1    0    0    0    0 -0.00000000000E+00 -0.00000000000E+00 -0.74505805969E-08  0.93827000000E+00  0.93827000000E+00 0.  1.
     999902    2    1    2    0    0  0.13566565900E-01  0.55729383824E-02  0.12373468286E-01  0.10247411472E+01  0.10245614705E+01 0.  0.
     999903    2    3    3    0    0 -0.53810711241E-01  0.79728379902E-01 -0.89955288955E-01  0.13316394838E+00  0.19709792774E-01 0.  0.
         14    1    1    2    0    0 -0.13566565900E-01 -0.55729383824E-02 -0.12373468286E-01  0.19188852752E-01  0.00000000000E+00 0. -1.
     999901    1    3    3    0    0  0.67377277140E-01 -0.74155441519E-01  0.10232875724E+00  0.89157719887E+00  0.88000000000E+00 0. -1.
        -11    1    4    4    0    0 -0.21098631774E-01  0.20384689108E-01 -0.36636306457E-01  0.46937915213E-01  0.51100000000E-03 0. -1.
         11    1    4    4    0    0 -0.32712079467E-01  0.59343690794E-01 -0.53318982499E-01  0.86226033168E-01  0.51100000000E-03 0.  1.
</event>
<event>
 8    1  0.1150863E+005  0.1043930E+01  0.7957747E-01            NaN
         13   -1    0    0    0    0  0.00000000000E+00  0.00000000000E+00  0.74505805969E-08  0.10566000000E+00  0.10566000000E+00 0.  1.
     999900   -1    0    0    0    0 -0.00000000000E+00 -0.00000000000E+00 -0.74505805969E-08  0.93827000000E+00  0.93827000000E+00 0.  1.
     999902    2    1    2    0    0  0.13038282328E-01  0.13029381030E-01 -0.15357504043E-01  0.10199380325E+01  0.10196558123E+01 0.  0.
     999903    2    3    3    0    0 -0.93252117067E-01  0.99406213617E-02  0.84469559926E-01  0.12793319383E+00  0.20905076852E-01 0.  0.
         14    1    1    2    0    0 -0.13038282328E-01 -0.13029381030E-01  0.15357504043E-01  0.23991967542E-01  0.00000000000E+00 0. -1.
     999901    1    3    3    0    0  0.10629039940E+00  0.30887596684E-02 -0.99827063969E-01  0.89200483863E+00  0.88000000000E+00 0.  1.
        -11    1    4    4    0    0 -0.23774184565E-01  0.15753775567E-02  0.10307370306E-01  0.25965297414E-01  0.51100000000E-03 0.  1.
         11    1    4    4    0    0 -0.69477932502E-01  0.83652438050E-02  0.74162189620E-01  0.10196789641E+00  0.51100000000E-03 0. -1.
</event>
<event>
 8    1  0.1150863E+005  0.1043930E+01  0.7957747E-01            NaN
         13   -1    0    0    0    0  0.00000000000E+00  0.00000000000E+00  0.74505805969E-08  0.10566000000E+00  0.10566000000E+00 0.  1.
     999900   -1    0    0    0    0 -0.00000000000E+00 -0.00000000000E+00 -0.74505805969E-08  0.93827000000E+00  0.93827000000E+00 0.  1.
     999902    2    1    2    0    0 -0.21628299835E-01  0.96186379144E-02  0.10334052617E-02  0.10202367631E+01  0.10199616087E+01 0.  0.
     999903    2    3    3    0    0 -0.12208991792E+00 -0.21799532756E-01 -0.42820332594E-01  0.13287956980E+00  0.21029301006E-01 0.  0.
         14    1    1    2    0    0  0.21628299835E-01 -0.96186379144E-02 -0.10334052617E-02  0.23693236915E-01  0.00000000000E+00 0. -1.
     999901    1    3    3    0    0  0.10046161808E+00  0.31418170670E-01  0.43853737856E-01  0.88735719329E+00  0.88000000000E+00 0. -1.
        -11    1    4    4    0    0 -0.81617677632E-01 -0.20095574794E-01 -0.20078934913E-01  0.86421653401E-01  0.51100000000E-03 0.  1.
         11    1    4    4    0    0 -0.40472240284E-01 -0.17039579617E-02 -0.22741397681E-01  0.46457916396E-01  0.51100000000E-03 0. -1.
</event>
<event>
 8    1  0.1150863E+005  0.1043930E+01  0.7957747E-01            NaN
         13   -1    0    0    0    0  0.00000000000E+00  0.00000000000E+00  0.74505805969E-08  0.10566000000E+00  0.10566000000E+00 0.  1.
     999900   -1    0    0    0    0 -0.00000000000E+00 -0.00000000000E+00 -0.74505805969E-08  0.93827000000E+00  0.93827000000E+00 0.  1.
     999902    2    1    2    0    0 -0.23324366183E-01  0.44601039373E-02 -0.13257568797E-02  0.10201460513E+01  0.10198687610E+01 0.  0.
     999903    2    3    3    0    0 -0.13056170940E+00  0.12814696369E-01  0.13763059459E-01  0.13346836499E+00  0.20342228091E-01 0.  0.
         14    1    1    2    0    0  0.23324366183E-01 -0.44601039373E-02  0.13257568797E-02  0.23783948710E-01  0.00000000000E+00 0. -1.
     999901    1    3    3    0    0  0.10723734322E+00 -0.83545924318E-02 -0.15088816339E-01  0.88667768630E+00  0.88000000000E+00 0.  1.
        -11    1    4    4    0    0 -0.74372715488E-01 -0.23052663170E-02  0.45046004820E-02  0.74546412445E-01  0.51100000000E-03 0.  1.
         11    1    4    4    0    0 -0.56188993913E-01  0.15119962686E-01  0.92584589771E-02  0.58921952550E-01  0.51100000000E-03 0. -1.
</event>
<event>
 8    1  0.1150863E+005  0.1043930E+01  0.7957747E-01            NaN
         13   -1    0    0    0    0  0.00000000000E+00  0.00000000000E+00  0.74505805969E-08  0.10566000000E+00  0.10566000000E+00 0. -1.
     999900   -1    0    0    0    0 -0.00000000000E+00 -0.00000000000E+00 -0.74505805969E-08  0.93827000000E+00  0.93827000000E+00 0.  1.
     999902    2    1    2    0    0 -0.16257615312E-01  0.68992860198E-02 -0.16336214413E-01  0.10198721093E+01  0.10195883175E+01 0.  0.
     999903    2    3    3    0    0 -0.97939531745E-01  0.29639717290E-02  0.83856680842E-01  0.13041944703E+00  0.19399799879E-01 0.  0.
         14    1    1    2    0    0  0.16257615312E-01 -0.68992860198E-02  0.16336214413E-01  0.24057890692E-01  0.00000000000E+00 0. -1.
     999901    1    3    3    0    0  0.81681916433E-01  0.39353142908E-02 -0.10019289525E+00  0.88945266228E+00  0.88000000000E+00 0.  1.
        -11    1    4    4    0    0 -0.73205763516E-02  0.51939281609E-02  0.10382127161E-01  0.13733805490E-01  0.51100000000E-03 0. -1.
         11    1    4    4    0    0 -0.90618955393E-01 -0.22299564319E-02  0.73474553681E-01  0.11668564154E+00  0.51100000000E-03 0.  1.
</event>
<event>
 8    1  0.1150863E+005  0.1043930E+01  0.7957747E-01            NaN
         13   -1    0    0    0    0  0.00000000000E+00  0.00000000000E+00  0.74505805969E-08  0.10566000000E+00  0.10566000000E+00 0. -1.
     999900   -1    0    0    0    0 -0.00000000000E+00 -0.00000000000E+00 -0.74505805969E-08  0.93827000000E+00  0.93827000000E+00 0. -1.
     999902    2    1    2    0    0  0.18800903144E-01 -0.65807926149E-02 -0.13050744319E-01  0.10201160814E+01  0.10198380837E+01 0.  0.
     999903    2    3    3    0    0  0.60004936972E-01  0.69424113331E-02  0.11383031520E+00  0.12995909937E+00  0.16829655737E-01 0.  0.
         14    1    1    2    0    0 -0.18800903144E-01  0.65807926149E-02  0.13050744319E-01  0.23813918572E-01  0.00000000000E+00 0. -1.
     999901    1    3    3    0    0 -0.41204033827E-01 -0.13523203948E-01 -0.12688105952E+00  0.89015698206E+00  0.88000000000E+00 0. -1.
        -11    1    4    4    0    0  0.14336337337E-01  0.86705058260E-02  0.25711933630E-01  0.30693205950E-01  0.51100000000E-03 0.  1.
         11    1    4    4    0    0  0.45668599635E-01 -0.17280944929E-02  0.88118381575E-01  0.99265893415E-01  0.51100000000E-03 0. -1.
</event>
<event>
 8    1  0.1150863E+005  0.1043930E+01  0.7957747E-01            NaN
         13   -1    0    0    0    0  0.00000000000E+00  0.00000000000E+00  0.74505805969E-08  0.10566000000E+00  0.10566000000E+00 0. -1.
     999900   -1    0    0    0    0 -0.00000000000E+00 -0.00000000000E+00 -0.74505805969E-08  0.93827000000E+00  0.93827000000E+00 0. -1.
     999902    2    1    2    0    0 -0.87079034021E-02  0.18737804135E-01 -0.55494852430E-02  0.10225353822E+01  0.10223115367E+01 0.  0.
     999903    2    3    3    0    0  0.14516879557E-01  0.13070213479E+00 -0.22370379588E-01  0.13497786608E+00  0.20610740365E-01 0.  0.
         14    1    1    2    0    0  0.87079034021E-02 -0.18737804135E-01  0.55494852430E-02  0.21394617826E-01  0.00000000000E+00 0. -1.
     999901    1    3    3    0    0 -0.23224782959E-01 -0.11196433066E+00  0.16820894345E-01  0.88755751609E+00  0.88000000000E+00 0.  1.
        -11    1    4    4    0    0 -0.25585148188E-02  0.64714319947E-01 -0.73820438759E-02  0.65186232419E-01  0.51100000000E-03 0. -1.
         11    1    4    4    0    0  0.17075394376E-01  0.65987814844E-01 -0.14988335712E-01  0.69791633663E-01  0.51100000000E-03 0.  1.
</event>
<event>
 8    1  0.1150863E+005  0.1043930E+01  0.7957747E-01            NaN
         13   -1    0    0    0    0  0.00000000000E+00  0.00000000000E+00  0.74505805969E-08  0.10566000000E+00  0.10566000000E+00 0.  1.
     999900   -1    0    0    0    0 -0.00000000000E+00 -0.00000000000E+00 -0.74505805969E-08  0.93827000000E+00  0.93827000000E+00 0. -1.
     999902    2    1    2    0    0  0.20439126298E-01  0.11498094942E-02  0.98059642179E-02  0.10212311701E+01  0.10209788763E+01 0.  0.
     999903    2    3    3    0    0  0.12124506367E+00 -0.42180504220E-01 -0.30846628451E-01  0.13348571873E+00  0.19681519699E-01 0.  0.
         14    1    1    2    0    0 -0.20439126298E-01 -0.11498094942E-02 -0.98059642179E-02  0.22698829924E-01  0.00000000000E+00 0. -1.
     999901    1    3    3    0    0 -0.10080593737E+00  0.43330313714E-01  0.40652592669E-01  0.88774545135E+00  0.88000000000E+00 0. -1.
        -11    1    4    4    0    0  0.46332970359E-01 -0.12920269264E-01 -0.20900008005E-01  0.52447582935E-01  0.51100000000E-03 0.  1.
         11    1    4    4    0    0  0.74912093310E-01 -0.29260234955E-01 -0.99466204462E-02  0.81038135794E-01  0.51100000000E-03 0. -1.
</event>
<event>
 8    1  0.1150863E+005  0.1043930E+01  0.7957747E-01            NaN
         13   -1    0    0    0    0  0.00000000000E+00  0.00000000000E+00  0.74505805969E-08  0.10566000000E+00  0.10566000000E+00 0.  1.
     999900   -1    0    0    0    0 -0.00000000000E+00 -0.00000000000E+00 -0.74505805969E-08  0.93827000000E+00  0.93827000000E+00 0.  1.
     999902    2    1    2    0    0 -0.15072348689E-01 -0.92604073595E-02 -0.12577729780E-01  0.10222244679E+01  0.10219939983E+01 0.  0.
     999903    2    3    3    0    0 -0.68386361483E-01  0.36248662144E-01 -0.10793356337E+00  0.13430206450E+00  0.19918094399E-01 0.  0.
         14    1    1    2    0    0  0.15072348689E-01  0.92604073595E-02  0.12577729780E-01  0.21705532149E-01  0.00000000000E+00 0.  1.
     999901    1    3    3    0    0  0.53314012795E-01 -0.45509069503E-01  0.95355833587E-01  0.88792240335E+00  0.88000000000E+00 0. -1.
        -11    1    4    4    0    0 -0.25241346187E-01  0.20785684026E-01 -0.57525403599E-01  0.66171016299E-01  0.51100000000E-03 0. -1.
         11    1    4    4    0    0 -0.43145015297E-01  0.15462978118E-01 -0.50408159768E-01  0.68131048204E-01  0.51100000000E-03 0.  1.
</event>
<event>
 8    1  0.1150863E+005  0.1043930E+01  0.7957747E-01            NaN
         13   -1    0    0    0    0  0.00000000000E+00  0.00000000000E+00  0.74505805969E-08  0.10566000000E+00  0.10566000000E+00 0. -1.
     999900   -1    0    0    0    0 -0.00000000000E+00 -0.00000000000E+00 -0.74505805969E-08  0.93827000000E+00  0.93827000000E+00 0. -1.
     999902    2    1    2    0    0  0.10618251244E-01  0.18842353021E-01  0.63744757788E-02  0.10213819298E+01  0.10211330134E+01 0.  0.
     999903    2    3    3    0    0 -0.84385690183E-01 -0.46654505549E-01  0.85296240045E-01  0.13034644668E+00  0.20424495084E-01 0.  0.
         14    1    1    2    0    0 -0.10618251244E-01 -0.18842353021E-01 -0.63744757788E-02  0.22548070168E-01  0.00000000000E+00 0.  1.
     999901    1    3    3    0    0  0.95003941427E-01  0.65496858570E-01 -0.78921764266E-01  0.89103548316E+00  0.88000000000E+00 0.  1.
        -11    1    4    4    0    0 -0.65898966822E-01 -0.44886807263E-01  0.72680082120E-01  0.10788954886E+00  0.51100000000E-03 0. -1.
         11    1    4    4    0    0 -0.18486723362E-01 -0.17676982856E-02  0.12616157924E-01  0.22456897819E-01  0.51100000000E-03 0.  1.
</event>
<event>
 8    1  0.1150863E+005  0.1043930E+01  0.7957747E-01            NaN
         13   -1    0    0    0    0  0.00000000000E+00  0.00000000000E+00  0.74505805969E-08  0.10566000000E+00  0.10566000000E+00 0.  1.
     999900   -1    0    0    0    0 -0.00000000000E+00 -0.00000000000E+00 -0.74505805969E-08  0.93827000000E+00  0.93827000000E+00 0. -1.
     999902    2    1    2    0    0 -0.57375551076E-02  0.20458425892E-01 -0.99749764600E-02  0.10204573162E+01  0.10201873197E+01 0.  0.
     999903    2    3    3    0    0 -0.11235406339E+00  0.48524916010E-01 -0.48854394637E-01  0.13272626637E+00  0.15855815201E-01 0.  0.
         14    1    1    2    0    0  0.57375551076E-02 -0.20458425892E-01  0.99749764600E-02  0.23472683783E-01  0.00000000000E+00 0. -1.
     999901    1    3    3    0    0  0.10661650828E+00 -0.28066490118E-01  0.38879418177E-01  0.88773104985E+00  0.88000000000E+00 0. -1.
        -11    1    4    4    0    0 -0.75985116458E-01  0.25581069846E-01 -0.27941768374E-01  0.84906611041E-01  0.51100000000E-03 0.  1.
         11    1    4    4    0    0 -0.36368946929E-01  0.22943846164E-01 -0.20912626263E-01  0.47819655329E-01  0.51100000000E-03 0. -1.
</event>
<event>
 8    1  0.1150863E+005  0.1043930E+01  0.7957747E-01            NaN
         13   -1    0    0    0    0  0.00000000000E+00  0.00000000000E+00  0.74505805969E-08  0.10566000000E+00  0.10566000000E+00 0. -1.
     999900   -1    0    0    0    0 -0.00000000000E+00 -0.00000000000E+00 -0.74505805969E-08  0.93827000000E+00  0.93827000000E+00 0. -1.
     999902    2    1    2    0    0 -0.18974131518E-01  0.48461868258E-02 -0.12781655268E-01  0.10205446647E+01  0.10202766972E+01 0.  0.
     999903    2    3    3    0    0  0.10218152614E-01 -0.97210198820E-01  0.81945369533E-01  0.12911833322E+00  0.20056594640E-01 0.  0.
         14    1    1    2    0    0  0.18974131518E-01 -0.48461868258E-02  0.12781655268E-01  0.23385335256E-01  0.00000000000E+00 0. -1.
     999901    1    3    3    0    0 -0.29192284132E-01  0.10205638565E+00 -0.94727024802E-01  0.89142633152E+00  0.88000000000E+00 0.  1.
        -11    1    4    4    0    0  0.15650674837E-01 -0.81466412665E-01  0.65402183755E-01  0.10563818806E+00  0.51100000000E-03 0. -1.
         11    1    4    4    0    0 -0.54325222231E-02 -0.15743786156E-01  0.16543185779E-01  0.23480145164E-01  0.51100000000E-03 0.  1.
</event>
<event>
 8    1  0.1150863E+005  0.1043930E+01  0.7957747E-01            NaN
         13   -1    0    0    0    0  0.00000000000E+00  0.00000000000E+00  0.74505805969E-08  0.10566000000E+00  0.10566000000E+00 0.  1.
     999900   -1    0    0    0    0 -0.00000000000E+00 -0.00000000000E+00 -0.74505805969E-08  0.93827000000E+00  0.93827000000E+00 0.  1.
     999902    2    1    2    0    0 -0.22996818648E-01 -0.24911501386E-02 -0.21099233904E-02  0.10207026180E+01  0.10204382995E+01 0.  0.
     999903    2    3    3    0    0 -0.86115197047E-01  0.88564089845E-01  0.43672757102E-01  0.13257478924E+00  0.20232149088E-01 0.  0.
         14    1    1    2    0    0  0.22996818648E-01  0.24911501386E-02  0.21099233904E-02  0.23227381980E-01  0.00000000000E+00 0.  1.
     999901    1    3    3    0    0  0.63118378399E-01 -0.91055239983E-01 -0.45782680492E-01  0.88812782878E+00  0.88000000000E+00 0. -1.
        -11    1    4    4    0    0 -0.82072857686E-02  0.49347041558E-02 -0.14387214554E-02  0.96975195395E-02  0.51100000000E-03 0.  1.
         11    1    4    4    0    0 -0.77907911278E-01  0.83629385689E-01  0.45111478557E-01  0.12287726970E+00  0.51100000000E-03 0. -1.
</event>
<event>
 8    1  0.1422443E+005  0.1043930E+01  0.7957747E-01            NaN
         13   -1    0    0    0    0  0.00000000000E+00  0.00000000000E+00  0.74505805969E-08  0.10566000000E+00  0.10566000000E+00 0.  1.
     999900   -1    0    0    0    0 -0.00000000000E+00 -0.00000000000E+00 -0.74505805969E-08  0.93827000000E+00  0.93827000000E+00 0. -1.
     999902    2    1    2    0    0  0.48605624358E-04 -0.20995612126E-01  0.47798835981E-04  0.10229342772E+01  0.10227187859E+01 0.  0.
     999903    2    3    3    0    0  0.51748637598E-01 -0.24481164287E-01  0.11882814446E+00  0.13344351677E+00  0.20243402769E-01 0.  0.
         14    1    1    2    0    0 -0.48605624358E-04  0.20995612126E-01 -0.47798835981E-04  0.20995722798E-01  0.00000000000E+00 0.  1.
     999901    1    3    3    0    0 -0.51700031974E-01  0.34855521608E-02 -0.11878034562E+00  0.88949076043E+00  0.88000000000E+00 0. -1.
        -11    1    4    4    0    0  0.37435563914E-01 -0.10921599037E-01  0.61555282222E-01  0.72869861133E-01  0.51100000000E-03 0.  1.
         11    1    4    4    0    0  0.14313073684E-01 -0.13559565251E-01  0.57272862236E-01  0.60573655641E-01  0.51100000000E-03 0. -1.
</event>
<event>
 8    1  0.1150863E+005  0.1043930E+01  0.7957747E-01            NaN
         13   -1    0    0    0    0  0.00000000000E+00  0.00000000000E+00  0.74505805969E-08  0.10566000000E+00  0.10566000000E+00 0.  1.
     999900   -1    0    0    0    0 -0.00000000000E+00 -0.00000000000E+00 -0.74505805969E-08  0.93827000000E+00  0.93827000000E+00 0.  1.
     999902    2    1    2    0    0  0.16216484357E-01  0.75022034928E-02 -0.12583670287E-01  0.10220757972E+01  0.10218421253E+01 0.  0.
     999903    2    3    3    0    0  0.82404315198E-01  0.60912446738E-01 -0.86508941697E-01  0.13489011833E+00  0.14517220778E-01 0.  0.
         14    1    1    2    0    0 -0.16216484357E-01 -0.75022034928E-02  0.12583670287E-01  0.21854202801E-01  0.00000000000E+00 0.  1.
     999901    1    3    3    0    0 -0.66187830841E-01 -0.53410243245E-01  0.73925271409E-01  0.88718567887E+00  0.88000000000E+00 0. -1.
        -11    1    4    4    0    0  0.60681657345E-01  0.49983496232E-01 -0.71766868153E-01  0.10644885119E+00  0.51100000000E-03 0. -1.
         11    1    4    4    0    0  0.21722657854E-01  0.10928950505E-01 -0.14742073544E-01  0.28441267144E-01  0.51100000000E-03 0.  1.
</event>
<event>
 8    1  0.1150863E+005  0.1043930E+01  0.7957747E-01            NaN
         13   -1    0    0    0    0  0.00000000000E+00  0.00000000000E+00  0.74505805969E-08  0.10566000000E+00  0.10566000000E+00 0.  1.
     999900   -1    0    0    0    0 -0.00000000000E+00 -0.00000000000E+00 -0.74505805969E-08  0.93827000000E+00  0.93827000000E+00 0.  1.
     999902    2    1    2    0    0 -0.13471596170E-01 -0.17370119737E-01  0.21500921892E-02  0.10218431745E+01  0.10216044467E+01 0.  0.
     999903    2    3    3    0    0 -0.13282312043E+00 -0.12514537283E-01 -0.35665889858E-02  0.13375475355E+00  0.88892394720E-02 0.  0.
         14    1    1    2    0    0  0.13471596170E-01  0.17370119737E-01 -0.21500921892E-02  0.22086825473E-01  0.00000000000E+00 0. -1.
     999901    1    3    3    0    0  0.11935152426E+00 -0.48555824537E-02  0.57166811749E-02  0.88808842097E+00  0.88000000000E+00 0. -1.
        -11    1    4    4    0    0 -0.10040129040E+00 -0.13203556471E-01 -0.21157569642E-02  0.10128914338E+00  0.51100000000E-03 0. -1.
         11    1    4    4    0    0 -0.32421830023E-01  0.68901918792E-03 -0.14508320216E-02  0.32465610175E-01  0.51100000000E-03 0.  1.
</event>
<event>
 8    1  0.1150863E+005  0.1043930E+01  0.7957747E-01            NaN
         13   -1    0    0    0    0  0.00000000000E+00  0.00000000000E+00  0.74505805969E-08  0.10566000000E+00  0.10566000000E+00 0.  1.
     999900   -1    0    0    0    0 -0.00000000000E+00 -0.00000000000E+00 -0.74505805969E-08  0.93827000000E+00  0.93827000000E+00 0.  1.
     999902    2    1    2    0    0  0.26123873482E-02 -0.23012542304E-01 -0.13813855552E-02  0.10207284936E+01  0.10204647705E+01 0.  0.
     999903    2    3    3    0    0 -0.70692053098E-01 -0.10879480318E+00 -0.22897157738E-01  0.13326296433E+00  0.20026538904E-01 0.  0.
         14    1    1    2    0    0 -0.26123873482E-02  0.23012542304E-01  0.13813855552E-02  0.23201506352E-01  0.00000000000E+00 0. -1.
     999901    1    3    3    0    0  0.73304440447E-01  0.85782260874E-01  0.21515772183E-01  0.88746552932E+00  0.88000000000E+00 0. -1.
        -11    1    4    4    0    0 -0.60877162821E-01 -0.10127517646E+00 -0.16434985968E-01  0.11930238977E+00  0.51100000000E-03 0.  1.
         11    1    4    4    0    0 -0.98148902779E-02 -0.75196267191E-02 -0.64621717701E-02  0.13960574564E-01  0.51100000000E-03 0. -1.
</event>
<event>
 8    1  0.1150863E+005  0.1043930E+01  0.7957747E-01            NaN
         13   -1    0    0    0    0  0.00000000000E+00  0.00000000000E+00  0.74505805969E-08  0.10566000000E+00  0.10566000000E+00 0. -1.
     999900   -1    0    0    0    0 -0.00000000000E+00 -0.00000000000E+00 -0.74505805969E-08  0.93827000000E+00  0.93827000000E+00 0. -1.
     999902    2    1    2    0    0 -0.14575041814E-01 -0.78286574897E-02  0.15845575567E-01  0.10210214429E+01  0.10207644121E+01 0.  0.
     999903    2    3    3    0    0  0.66643230716E-01 -0.78717883461E-01  0.80534095490E-01  0.13208595890E+00  0.17975945766E-01 0.  0.
         14    1    1    2    0    0  0.14575041814E-01  0.78286574897E-02 -0.15845575567E-01  0.22908557070E-01  0.00000000000E+00 0.  1.
     999901    1    3    3    0    0 -0.81218272530E-01  0.70889225972E-01 -0.64688519923E-01  0.88893548403E+00  0.88000000000E+00 0. -1.
        -11    1    4    4    0    0  0.46448186160E-01 -0.63704332031E-01  0.54304760275E-01  0.95733714159E-01  0.51100000000E-03 0. -1.
         11    1    4    4    0    0  0.20195044556E-01 -0.15013551430E-01  0.26229335215E-01  0.36352244745E-01  0.51100000000E-03 0.  1.
</event>
<event>
 8    1  0.1150863E+005  0.1043930E+01  0.7957747E-01            NaN
         13   -1    0    0    0    0  0.00000000000E+00  0.00000000000E+00  0.74505805969E-08  0.10566000000E+00  0.10566000000E+00 0.  1.
     999900   -1    0    0    0    0 -0.00000000000E+00 -0.00000000000E+00 -0.74505805969E-08  0.93827000000E+00  0.93827000000E+00 0.  1.
     999902    2    1    2    0    0 -0.14921358263E-01 -0.12903398351E-01 -0.13909932386E-01  0.10197922528E+01  0.10195065512E+01 0.  0.
     999903    2    3    3    0    0 -0.11064550138E+00 -0.35548657971E-01  0.58204225337E-01  0.13137997738E+00  0.19152873145E-01 0.  0.
         14    1    1    2    0    0  0.14921358263E-01  0.12903398351E-01  0.13909932386E-01  0.24137747210E-01  0.00000000000E+00 0.  1.
     999901    1    3    3    0    0  0.95724143117E-01  0.22645259620E-01 -0.72114157723E-01  0.88841227541E+00  0.88000000000E+00 0.  1.
        -11    1    4    4    0    0 -0.28959737018E-01 -0.91682217964E-02  0.24985545218E-01  0.39335241831E-01  0.51100000000E-03 0. -1.
         11    1    4    4    0    0 -0.81685764361E-01 -0.26380436174E-01  0.33218680119E-01  0.92044735547E-01  0.51100000000E-03 0.  1.
</event>
<event>
 8    1  0.1150863E+005  0.1043930E+01  0.7957747E-01            NaN
         13   -1    0    0    0    0  0.00000000000E+00  0.00000000000E+00  0.74505805969E-08  0.10566000000E+00  0.10566000000E+00 0.  1.
     999900   -1    0    0    0    0 -0.00000000000E+00 -0.00000000000E+00 -0.74505805969E-08  0.93827000000E+00  0.93827000000E+00 0. -1.
     999902    2    1    2    0    0 -0.20465628837E-01  0.50377809613E-02  0.60012228644E-02  0.10220157152E+01  0.10217807428E+01 0.  0.
     999903    2    3    3    0    0  0.25785183929E-01  0.12739459156E+00 -0.13058133041E-01  0.13214292330E+00  0.19924348698E-01 0.  0.
         14    1    1    2    0    0  0.20465628837E-01 -0.50377809613E-02 -0.60012228644E-02  0.21914284761E-01  0.00000000000E+00 0. -1.
     999901    1    3    3    0    0 -0.46250812767E-01 -0.12235681060E+00  0.19059355906E-01  0.88987279194E+00  0.88000000000E+00 0.  1.
        -11    1    4    4    0    0  0.23864656125E-01  0.10570930200E+00 -0.17888851705E-01  0.10983738197E+00  0.51100000000E-03 0. -1.
         11    1    4    4    0    0  0.19205278038E-02  0.21685289560E-01  0.48307186639E-02  0.22305541332E-01  0.51100000000E-03 0.  1.
</event>
<event>
 8    1  0.1150863E+005  0.1043930E+01  0.7957747E-01            NaN
         13   -1    0    0    0    0  0.00000000000E+00  0.00000000000E+00  0.74505805969E-08  0.10566000000E+00  0.10566000000E+00 0.  1.
     999900   -1    0    0    0    0 -0.00000000000E+00 -0.00000000000E+00 -0.74505805969E-08  0.93827000000E+00  0.93827000000E+00 0.  1.
     999902    2    1    2    0    0  0.22517532537E-01 -0.47710705809E-02 -0.58715013365E-02  0.10201754865E+01  0.10198988902E+01 0.  0.
     999903    2    3    3    0    0 -0.71080541748E-01 -0.10617447393E+00 -0.11341434757E-01  0.12940437674E+00  0.17070508106E-01 0.  0.
         14    1    1    2    0    0 -0.22517532537E-01  0.47710705809E-02  0.58715013365E-02  0.23754513549E-01  0.00000000000E+00 0. -1.
     999901    1    3    3    0    0  0.93598074285E-01  0.10140340335E+00  0.54699334202E-02  0.89077110971E+00  0.88000000000E+00 0.  1.
        -11    1    4    4    0    0 -0.29777972263E-01 -0.32738999801E-01 -0.87133348679E-02  0.45108237225E-01  0.51100000000E-03 0.  1.
         11    1    4    4    0    0 -0.41302569486E-01 -0.73435474133E-01 -0.26280998888E-02  0.84296139516E-01  0.51100000000E-03 0. -1.
</event>
<event>
 8    1  0.1150863E+005  0.1043930E+01  0.7957747E-01            NaN
         13   -1    0    0    0    0  0.00000000000E+00  0.00000000000E+00  0.74505805969E-08  0.10566000000E+00  0.10566000000E+00 0. -1.
     999900   -1    0    0    0    0 -0.00000000000E+00 -0.00000000000E+00 -0.74505805969E-08  0.93827000000E+00  0.93827000000E+00 0.  1.
     999902    2    1    2    0    0 -0.22946564356E-01 -0.63858490781E-02  0.90679356417E-02  0.10184437029E+01  0.10181247589E+01 0.  0.
     999903    2    3    3    0    0 -0.11949688851E+00 -0.97291757032E-02  0.51891392859E-01  0.13212153153E+00  0.19728639563E-01 0.  0.
         14    1    1    2    0    0  0.22946564356E-01  0.63858490781E-02 -0.90679356417E-02  0.25486297122E-01  0.00000000000E+00 0.  1.
     999901    1    3    3    0    0  0.96550324153E-01  0.33433266251E-02 -0.42823457217E-01  0.88632217134E+00  0.88000000000E+00 0.  1.
        -11    1    4    4    0    0 -0.19714625725E-01 -0.89837638133E-02  0.78610637189E-02  0.23052807280E-01  0.51100000000E-03 0. -1.
         11    1    4    4    0    0 -0.99782262784E-01 -0.74541188987E-03  0.44030329140E-01  0.10906872425E+00  0.51100000000E-03 0.  1.
</event>
<event>
 8    1  0.1150863E+005  0.1043930E+01  0.7957747E-01            NaN
         13   -1    0    0    0    0  0.00000000000E+00  0.00000000000E+00  0.74505805969E-08  0.10566000000E+00  0.10566000000E+00 0. -1.
     999900   -1    0    0    0    0 -0.00000000000E+00 -0.00000000000E+00 -0.74505805969E-08  0.93827000000E+00  0.93827000000E+00 0.  1.
     999902    2    1    2    0    0  0.23046021431E-02  0.74556211698E-02  0.22045445338E-01  0.10205441252E+01  0.10202761452E+01 0.  0.
     999903    2    3    3    0    0  0.76744584333E-02  0.86597772351E-01  0.99540926623E-01  0.13358422476E+00  0.19449358399E-01 0.  0.
         14    1    1    2    0    0 -0.23046021431E-02 -0.74556211698E-02 -0.22045445338E-01  0.23385874759E-01  0.00000000000E+00 0.  1.
     999901    1    3    3    0    0 -0.53698562901E-02 -0.79142151181E-01 -0.77495481285E-01  0.88695990049E+00  0.88000000000E+00 0.  1.
        -11    1    4    4    0    0 -0.37563925526E-02  0.12787513465E-01  0.23336374711E-01  0.26878960011E-01  0.51100000000E-03 0. -1.
         11    1    4    4    0    0  0.11430850986E-01  0.73810258886E-01  0.76204551913E-01  0.10670526474E+00  0.51100000000E-03 0.  1.
</event>
<event>
 8    1  0.1150863E+005  0.1043930E+01  0.7957747E-01            NaN
         13   -1    0    0    0    0  0.00000000000E+00  0.00000000000E+00  0.74505805969E-08  0.10566000000E+00  0.10566000000E+00 0.  1.
     999900   -1    0    0    0    0 -0.00000000000E+00 -0.00000000000E+00 -0.74505805969E-08  0.93827000000E+00  0.93827000000E+00 0. -1.
     999902    2    1    2    0    0 -0.13486933551E-01  0.16553280398E-01  0.11919526920E-01  0.10194762970E+01  0.10191829750E+01 0.  0.
     999903    2    3    3    0    0  0.90078939969E-01 -0.78825655219E-02  0.90541448700E-01  0.12958618732E+00  0.20456679720E-01 0.  0.
         14    1    1    2    0    0  0.13486933551E-01 -0.16553280398E-01 -0.11919526920E-01  0.24453703003E-01  0.00000000000E+00 0. -1.
     999901    1    3    3    0    0 -0.10356587352E+00  0.24435845920E-01 -0.78621921781E-01  0.88989010968E+00  0.88000000000E+00 0. -1.
        -11    1    4    4    0    0  0.63405743614E-01 -0.52801915091E-02  0.75906073708E-01  0.99046261375E-01  0.51100000000E-03 0. -1.
         11    1    4    4    0    0  0.26673196356E-01 -0.26023740128E-02  0.14635374992E-01  0.30539925941E-01  0.51100000000E-03 0.  1.
</event>
<event>
 8    1  0.1150863E+005  0.1043930E+01  0.7957747E-01            NaN
         13   -1    0    0    0    0  0.00000000000E+00  0.00000000000E+00  0.74505805969E-08  0.10566000000E+00  0.10566000000E+00 0.  1.
     999900   -1    0    0    0    0 -0.00000000000E+00 -0.00000000000E+00 -0.74505805969E-08  0.93827000000E+00  0.93827000000E+00 0.  1.
     999902    2    1    2    0    0 -0.16491215967E-01 -0.45580261539E-03 -0.17075567429E-01  0.10201867280E+01  0.10199103966E+01 0.  0.
     999903    2    3    3    0    0 -0.12511807101E+00 -0.19819387042E-01  0.30695701400E-01  0.13201059902E+00  0.20910102193E-01 0.  0.
         14    1    1    2    0    0  0.16491215967E-01  0.45580261539E-03  0.17075567429E-01  0.23743271954E-01  0.00000000000E+00 0.  1.
     999901    1    3    3    0    0  0.10862685505E+00  0.19363584426E-01 -0.47771268829E-01  0.88817612902E+00  0.88000000000E+00 0. -1.
        -11    1    4    4    0    0 -0.74519337486E-01 -0.19079429308E-01  0.25941071112E-01  0.81181011164E-01  0.51100000000E-03 0.  1.
         11    1    4    4    0    0 -0.50598733526E-01 -0.73995773365E-03  0.47546302879E-02  0.50829587860E-01  0.51100000000E-03 0. -1.
</event>
<event>
 8    1  0.1150863E+005  0.1043930E+01  0.7957747E-01            NaN
         13   -1    0    0    0    0  0.00000000000E+00  0.00000000000E+00  0.74505805969E-08  0.10566000000E+00  0.10566000000E+00 0.  1.
     999900   -1    0    0    0    0 -0.00000000000E+00 -0.00000000000E+00 -0.74505805969E-08  0.93827000000E+00  0.93827000000E+00 0.  1.
     999902    2    1    2    0    0 -0.29181851832E-02 -0.81841586727E-02 -0.21860324659E-01  0.10204061812E+01  0.10201349933E+01 0.  0.
     999903    2    3    3    0    0 -0.58190409467E-01 -0.58257371899E-01 -0.10315237851E+00  0.13351794499E+00  0.20163911040E-01 0.  0.
         14    1    1    2    0    0  0.29181851832E-02  0.81841586727E-02  0.21860324659E-01  0.23523818825E-01  0.00000000000E+00 0.  1.
     999901    1    3    3    0    0  0.55272224284E-01  0.50073213227E-01  0.81292053850E-01  0.88688823618E+00  0.88000000000E+00 0. -1.
        -11    1    4    4    0    0 -0.48676420026E-01 -0.55652378632E-01 -0.83553382048E-01  0.11157064975E+00  0.51100000000E-03 0.  1.
         11    1    4    4    0    0 -0.95139894405E-02 -0.26049932677E-02 -0.19598996460E-01  0.21947295238E-01  0.51100000000E-03 0. -1.
</event>
<event>
 8    1  0.1150863E+005  0.1043930E+01  0.7957747E-01            NaN
         13   -1    0    0    0    0  0.00000000000E+00  0.00000000000E+00  0.74505805969E-08  0.10566000000E+00  0.10566000000E+00 0. -1.
     999900   -1    0    0    0    0 -0.00000000000E+00 -0.00000000000E+00 -0.74505805969E-08  0.93827000000E+00  0.93827000000E+00 0. -1.
     999902    2    1    2    0    0 -0.86502672686E-02  0.11579797657E-01  0.19336556266E-01  0.10197883090E+01  0.10195025129E+01 0.  0.
     999903    2    3    3    0    0 -0.76003642597E-01  0.45467658917E-01 -0.92484773864E-01  0.12951370292E+00  0.19403714885E-01 0.  0.
         14    1    1    2    0    0  0.86502672686E-02 -0.11579797657E-01 -0.19336556266E-01  0.24141691030E-01  0.00000000000E+00 0.  1.
     999901    1    3    3    0    0  0.67353375328E-01 -0.33887861261E-01  0.11182133013E+00  0.89027460605E+00  0.88000000000E+00 0.  1.
        -11    1    4    4    0    0 -0.49506802644E-01  0.31256056792E-01 -0.73421222459E-01  0.93908474712E-01  0.51100000000E-03 0. -1.
         11    1    4    4    0    0 -0.26496839953E-01  0.14211602125E-01 -0.19063551405E-01  0.35605228206E-01  0.51100000000E-03 0.  1.
</event>
<event>
 8    1  0.1150863E+005  0.1043930E+01  0.7957747E-01            NaN
         13   -1    0    0    0    0  0.00000000000E+00  0.00000000000E+00  0.74505805969E-08  0.10566000000E+00  0.10566000000E+00 0. -1.
     999900   -1    0    0    0    0 -0.00000000000E+00 -0.00000000000E+00 -0.74505805969E-08  0.93827000000E+00  0.93827000000E+00 0. -1.
     999902    2    1    2    0    0  0.96210508036E-02 -0.11434698520E-01 -0.19142401746E-01  0.10196452621E+01  0.10193560281E+01 0.  0.
     999903    2    3    3    0    0  0.19746558805E-01 -0.10852509060E+00  0.65923220230E-01  0.13017056874E+00  0.20757748558E-01 0.  0.
         14    1    1    2    0    0 -0.96210508036E-02  0.11434698520E-01  0.19142401746E-01  0.24284737870E-01  0.00000000000E+00 0.  1.
     999901    1    3    3    0    0 -0.10125508002E-01  0.97090392079E-01 -0.85065621976E-01  0.88947469339E+00  0.88000000000E+00 0. -1.
        -11    1    4    4    0    0  0.21149893505E-01 -0.10740853651E+00  0.61959457346E-01  0.12579009176E+00  0.51100000000E-03 0. -1.
         11    1    4    4    0    0 -0.14033347002E-02 -0.11165540938E-02  0.39637628843E-02  0.43804769749E-02  0.51100000000E-03 0.  1.
</event>
<event>
 8    1  0.1150863E+005  0.1043930E+01  0.7957747E-01            NaN
         13   -1    0    0    0    0  0.00000000000E+00  0.00000000000E+00  0.74505805969E-08  0.10566000000E+00  0.10566000000E+00 0.  1.
     999900   -1    0    0    0    0 -0.00000000000E+00 -0.00000000000E+00 -0.74505805969E-08  0.93827000000E+00  0.93827000000E+00 0.  1.
     999902    2    1    2    0    0 -0.14474824960E-01  0.37380901638E-02 -0.60164061234E-02  0.10278150685E+01  0.10276887291E+01 0.  0.
     999903    2    3    3    0    0  0.59197667623E-01  0.11937046179E+00  0.23979345055E-01  0.13669317634E+00  0.18877088449E-01 0.  0.
         14    1    1    2    0    0  0.14474824960E-01 -0.37380901638E-02  0.60164061234E-02  0.16114931534E-01  0.00000000000E+00 0.  1.
     999901    1    3    3    0    0 -0.73672492584E-01 -0.11563237163E+00 -0.29995751179E-01  0.89112189212E+00  0.88000000000E+00 0.  1.
        -11    1    4    4    0    0  0.22287843129E-01  0.39114683557E-01 -0.50582935604E-03  0.45024697727E-01  0.51100000000E-03 0. -1.
         11    1    4    4    0    0  0.36909824495E-01  0.80255778237E-01  0.24485174411E-01  0.91668478615E-01  0.51100000000E-03 0.  1.
</event>
<event>
 8    1  0.1150863E+005  0.1043930E+01  0.7957747E-01            NaN
         13   -1    0    0    0    0  0.00000000000E+00  0.00000000000E+00  0.74505805969E-08  0.10566000000E+00  0.10566000000E+00 0.  1.
     999900   -1    0    0    0    0 -0.00000000000E+00 -0.00000000000E+00 -0.74505805969E-08  0.93827000000E+00  0.93827000000E+00 0.  1.
     999902    2    1    2    0    0 -0.34096242481E-03 -0.77993688751E-02 -0.22399916473E-01  0.10202086453E+01  0.10199328298E+01 0.  0.
     999903    2    3    3    0    0  0.95801083279E-01 -0.37871406789E-01 -0.81046764056E-01  0.13252228564E+00  0.19531697769E-01 0.  0.
         14    1    1    2    0    0  0.34096242481E-03  0.77993688751E-02  0.22399916473E-01  0.23721354688E-01  0.00000000000E+00 0.  1.
     999901    1    3    3    0    0 -0.96142045703E-01  0.30072037913E-01  0.58646847583E-01  0.88768635967E+00  0.88000000000E+00 0. -1.
        -11    1    4    4    0    0  0.72762982054E-01 -0.21593931087E-01 -0.51845366541E-01  0.91918184109E-01  0.51100000000E-03 0. -1.
         11    1    4    4    0    0  0.23038101224E-01 -0.16277475701E-01 -0.29201397516E-01  0.40604101531E-01  0.51100000000E-03 0.  1.
</event>
<event>
 8    1  0.1150863E+005  0.1043930E+01  0.7957747E-01            NaN
         13   -1    0    0    0    0  0.00000000000E+00  0.00000000000E+00  0.74505805969E-08  0.10566000000E+00  0.10566000000E+00 0. -1.
     999900   -1    0    0    0    0 -0.00000000000E+00 -0.00000000000E+00 -0.74505805969E-08  0.93827000000E+00  0.93827000000E+00 0. -1.
     999902    2    1    2    0    0  0.12220502629E-01 -0.14571488612E-01 -0.14947124695E-01  0.10197414593E+01  0.10194545396E+01 0.  0.
     999903    2    3    3    0    0 -0.97453881659E-01  0.72991583122E-01  0.32878678318E-01  0.12733848444E+00  0.17579871259E-01 0.  0.
         14    1    1    2    0    0 -0.12220502629E-01  0.14571488612E-01  0.14947124695E-01  0.24188540706E-01  0.00000000000E+00 0.  1.
     999901    1    3    3    0    0  0.10967438429E+00 -0.87563071734E-01 -0.47825803012E-01  0.89240297486E+00  0.88000000000E+00 0.  1.
        -11    1    4    4    0    0 -0.66305716704E-01  0.39125756334E-01  0.19604480784E-01  0.79447276002E-01  0.51100000000E-03 0.  1.
         11    1    4    4    0    0 -0.31148164955E-01  0.33865826788E-01  0.13274197534E-01  0.47891208434E-01  0.51100000000E-03 0. -1.
</event>
<event>
 8    1  0.1150863E+005  0.1043930E+01  0.7957747E-01            NaN
         13   -1    0    0    0    0  0.00000000000E+00  0.00000000000E+00  0.74505805969E-08  0.10566000000E+00  0.10566000000E+00 0. -1.
     999900   -1    0    0    0    0 -0.00000000000E+00 -0.00000000000E+00 -0.74505805969E-08  0.93827000000E+00  0.93827000000E+00 0. -1.
     999902    2    1    2    0    0  0.16920165214E-01 -0.14489941909E-01 -0.71824226996E-02  0.10205240691E+01  0.10202556238E+01 0.  0.
     999903    2    3    3    0    0 -0.35947427020E-02  0.12266524622E+00 -0.35466034798E-01  0.12921471211E+00  0.19465800658E-01 0.  0.
         14    1    1    2    0    0 -0.16920165214E-01  0.14489941909E-01  0.71824226996E-02  0.23405930942E-01  0.00000000000E+00 0.  1.
     999901    1    3    3    0    0  0.20514907916E-01 -0.13715518813E+00  0.28283612098E-01  0.89130935695E+00  0.88000000000E+00 0.  1.
        -11    1    4    4    0    0 -0.67974866638E-02  0.40610929389E-01 -0.19482494824E-01  0.45555264639E-01  0.51100000000E-03 0. -1.
         11    1    4    4    0    0  0.32027439618E-02  0.82054316831E-01 -0.15983539974E-01  0.83659447467E-01  0.51100000000E-03 0.  1.
</event>
<event>
 8    1  0.1150863E+005  0.1043930E+01  0.7957747E-01            NaN
         13   -1    0    0    0    0  0.00000000000E+00  0.00000000000E+00  0.74505805969E-08  0.10566000000E+00  0.10566000000E+00 0. -1.
     999900   -1    0    0    0    0 -0.00000000000E+00 -0.00000000000E+00 -0.74505805969E-08  0.93827000000E+00  0.93827000000E+00 0. -1.
     999902    2    1    2    0    0 -0.16095013525E-02  0.30026246622E-01  0.43357139476E-02  0.10135496709E+01  0.10130942557E+01 0.  0.
     999903    2    3    3    0    0  0.31007883186E-01 -0.66304605130E-01  0.96756663839E-01  0.12288410024E+00  0.19515650493E-01 0.  0.
         14    1    1    2    0    0  0.16095013525E-02 -0.30026246622E-01 -0.43357139476E-02  0.30380329101E-01  0.00000000000E+00 0.  1.
     999901    1    3    3    0    0 -0.32617384538E-01  0.96330851752E-01 -0.92420949891E-01  0.89066557066E+00  0.88000000000E+00 0. -1.
        -11    1    4    4    0    0  0.10852247428E-01 -0.35131764599E-01  0.34643079690E-01  0.50521443463E-01  0.51100000000E-03 0.  1.
         11    1    4    4    0    0  0.20155635758E-01 -0.31172840531E-01  0.62113584149E-01  0.72362656781E-01  0.51100000000E-03 0. -1.
</event>
<event>
 8    1  0.1150863E+005  0.1043930E+01  0.7957747E-01            NaN
         13   -1    0    0    0    0  0.00000000000E+00  0.00000000000E+00  0.74505805969E-08  0.10566000000E+00  0.10566000000E+00 0.  1.
     999900   -1    0    0    0    0 -0.00000000000E+00 -0.00000000000E+00 -0.74505805969E-08  0.93827000000E+00  0.93827000000E+00 0.  1.
     999902    2    1    2    0    0  0.15068045924E-01  0.15181610696E-01 -0.11340317262E-01  0.10197198759E+01  0.10194324378E+01 0.  0.
     999903    2    3    3    0    0  0.88771018844E-01 -0.91846659833E-01  0.14037684194E-01  0.12981470017E+00  0.18403724983E-01 0.  0.
         14    1    1    2    0    0 -0.15068045924E-01 -0.15181610696E-01  0.11340317262E-01  0.24210124058E-01  0.00000000000E+00 0. -1.
     999901    1    3    3    0    0 -0.73702972920E-01  0.10702827053E+00 -0.25378001456E-01  0.88990517577E+00  0.88000000000E+00 0. -1.
        -11    1    4    4    0    0  0.29737228930E-01 -0.40209225227E-01  0.11616126274E-01  0.51344718213E-01  0.51100000000E-03 0. -1.
         11    1    4    4    0    0  0.59033789915E-01 -0.51637434606E-01  0.24215579205E-02  0.78469981956E-01  0.51100000000E-03 0.  1.
</event>
<event>
 8    1  0.1150863E+005  0.1043930E+01  0.7957747E-01            NaN
         13   -1    0    0    0    0  0.00000000000E+00  0.00000000000E+00  0.74505805969E-08  0.10566000000E+00  0.10566000000E+00 0.  1.
     999900   -1    0    0    0    0 -0.00000000000E+00 -0.00000000000E+00 -0.74505805969E-08  0.93827000000E+00  0.93827000000E+00 0.  1.
     999902    2    1    2    0    0 -0.41288765011E-02  0.88454871755E-02 -0.22030409323E-01  0.10198337513E+01  0.10195490430E+01 0.  0.
     999903    2    3    3    0    0 -0.59208370091E-01  0.10695282685E-01  0.11176154093E+00  0.12801680919E+00  0.16662570108E-01 0.  0.
         14    1    1    2    0    0  0.41288765011E-02 -0.88454871755E-02  0.22030409323E-01  0.24096248660E-01  0.00000000000E+00 0.  1.
     999901    1    3    3    0    0  0.55079493590E-01 -0.18497955092E-02 -0.13379195025E+00  0.89181694215E+00  0.88000000000E+00 0.  1.
        -11    1    4    4    0    0 -0.20321040253E-01  0.10606887788E-01  0.50376986665E-01  0.55349369030E-01  0.51100000000E-03 0. -1.
         11    1    4    4    0    0 -0.38887329839E-01  0.88394896452E-04  0.61384554266E-01  0.72667440158E-01  0.51100000000E-03 0.  1.
</event>
<event>
 8    1  0.1150863E+005  0.1043930E+01  0.7957747E-01            NaN
         13   -1    0    0    0    0  0.00000000000E+00  0.00000000000E+00  0.74505805969E-08  0.10566000000E+00  0.10566000000E+00 0.  1.
     999900   -1    0    0    0    0 -0.00000000000E+00 -0.00000000000E+00 -0.74505805969E-08  0.93827000000E+00  0.93827000000E+00 0.  1.
     999902    2    1    2    0    0  0.19401418983E-01  0.19060775981E-01  0.13351987459E-01  0.10136314223E+01  0.10131784919E+01 0.  0.
     999903    2    3    3    0    0  0.10996851798E+00  0.15393979813E-01 -0.56217849552E-01  0.12624435513E+00  0.21145709549E-01 0.  0.
         14    1    1    2    0    0 -0.19401418983E-01 -0.19060775981E-01 -0.13351987459E-01  0.30298577668E-01  0.00000000000E+00 0.  1.
     999901    1    3    3    0    0 -0.90567099000E-01  0.36667961678E-02  0.69569837011E-01  0.88738706720E+00  0.88000000000E+00 0. -1.
        -11    1    4    4    0    0  0.10225874521E+00  0.11579384992E-01 -0.56907902120E-01  0.11759976009E+00  0.51100000000E-03 0. -1.
         11    1    4    4    0    0  0.77097727707E-02  0.38145948211E-02  0.69005256832E-03  0.86445950380E-02  0.51100000000E-03 0.  1.
</event>
<event>
 8    1  0.1150863E+005  0.1043930E+01  0.7957747E-01            NaN
         13   -1    0    0    0    0  0.00000000000E+00  0.00000000000E+00  0.74505805969E-08  0.10566000000E+00  0.10566000000E+00 0. -1.
     999900   -1    0    0    0    0 -0.00000000000E+00 -0.00000000000E+00 -0.74505805969E-08  0.93827000000E+00  0.93827000000E+00 0. -1.
     999902    2    1    2    0    0  0.12206178572E-01  0.21164464013E-01  0.40433926371E-03  0.10194945990E+01  0.10192017212E+01 0.  0.
     999903    2    3    3    0    0 -0.58646918498E-01 -0.49937038195E-01 -0.10039338132E+00  0.12807114997E+00  0.19753977080E-01 0.  0.
         14    1    1    2    0    0 -0.12206178572E-01 -0.21164464013E-01 -0.40433926371E-03  0.24435401011E-01  0.00000000000E+00 0. -1.
     999901    1    3    3    0    0  0.70853097071E-01  0.71101502208E-01  0.10079772058E+00  0.89142344902E+00  0.88000000000E+00 0.  1.
        -11    1    4    4    0    0 -0.53392830077E-01 -0.36723533882E-01 -0.76473289377E-01  0.10023890140E+00  0.51100000000E-03 0.  1.
         11    1    4    4    0    0 -0.52540884208E-02 -0.13213504313E-01 -0.23920091940E-01  0.27832248575E-01  0.51100000000E-03 0. -1.
</event>
<event>
 8    1  0.1150863E+005  0.1043930E+01  0.7957747E-01            NaN
         13   -1    0    0    0    0  0.00000000000E+00  0.00000000000E+00  0.74505805969E-08  0.10566000000E+00  0.10566000000E+00 0.  1.
     999900   -1    0    0    0    0 -0.00000000000E+00 -0.00000000000E+00 -0.74505805969E-08  0.93827000000E+00  0.93827000000E+00 0. -1.
     999902    2    1    2    0    0  0.13761402336E-01 -0.10166979922E-01 -0.16332481645E-01  0.10202763823E+01  0.10200021581E+01 0.  0.
     999903    2    3    3    0    0 -0.89914586750E-01  0.69135403688E-01 -0.56432278020E-01  0.12974532025E+00  0.28016230476E-01 0.  0.
         14    1    1    2    0    0 -0.13761402336E-01  0.10166979922E-01  0.16332481645E-01  0.23653617729E-01  0.00000000000E+00 0. -1.
     999901    1    3    3    0    0  0.10367598909E+00 -0.79302383610E-01  0.40099796375E-01  0.89053106202E+00  0.88000000000E+00 0. -1.
        -11    1    4    4    0    0 -0.43523707313E-01  0.19862641621E-01 -0.13938662870E-01  0.49833573763E-01  0.51100000000E-03 0. -1.
         11    1    4    4    0    0 -0.46390879437E-01  0.49272762067E-01 -0.42493615150E-01  0.79911746485E-01  0.51100000000E-03 0.  1.
</event>
<event>
 8    1  0.1150863E+005  0.1043930E+01  0.7957747E-01            NaN
         13   -1    0    0    0    0  0.00000000000E+00  0.00000000000E+00  0.74505805969E-08  0.10566000000E+00  0.10566000000E+00 0. -1.
     999900   -1    0    0    0    0 -0.00000000000E+00 -0.00000000000E+00 -0.74505805969E-08  0.93827000000E+00  0.93827000000E+00 0. -1.
     999902    2    1    2    0    0  0.21694785735E-01 -0.58668775898E-04  0.92812432042E-02  0.10203332069E+01  0.10200603141E+01 0.  0.
     999903    2    3    3    0    0 -0.41429950741E-01 -0.11603140198E+00 -0.34067273545E-01  0.12942720673E+00  0.20275493832E-01 0.  0.
         14    1    1    2    0    0 -0.21694785735E-01  0.58668775898E-04 -0.92812432042E-02  0.23596793119E-01  0.00000000000E+00 0.  1.
     999901    1    3    3    0    0  0.63124736476E-01  0.11597273321E+00  0.43348516750E-01  0.89090600015E+00  0.88000000000E+00 0. -1.
        -11    1    4    4    0    0 -0.10220916459E-01 -0.11826051351E-01 -0.73986386368E-03  0.15656664503E-01  0.51100000000E-03 0.  1.
         11    1    4    4    0    0 -0.31209034282E-01 -0.10420535063E+00 -0.33327409682E-01  0.11377054223E+00  0.51100000000E-03 0. -1.
</event>
<event>
 8    1  0.1150863E+005  0.1043930E+01  0.7957747E-01            NaN
         13   -1    0    0    0    0  0.00000000000E+00  0.00000000000E+00  0.74505805969E-08  0.10566000000E+00  0.10566000000E+00 0. -1.
     999900   -1    0    0    0    0 -0.00000000000E+00 -0.00000000000E+00 -0.74505805969E-08  0.93827000000E+00  0.93827000000E+00 0. -1.
     999902    2    1    2    0    0  0.16333051725E-01 -0.77265206307E-02 -0.14832965799E-01  0.10205529905E+01  0.10202852159E+01 0.  0.
     999903    2    3    3    0    0 -0.95742395353E-01 -0.27901187114E-01  0.78139230640E-01  0.12835808335E+00  0.20614938396E-01 0.  0.
         14    1    1    2    0    0 -0.16333051725E-01  0.77265206307E-02  0.14832965799E-01  0.23377009520E-01  0.00000000000E+00 0. -1.
     999901    1    3    3    0    0  0.11207544708E+00  0.20174666484E-01 -0.92972196439E-01  0.89219490713E+00  0.88000000000E+00 0.  1.
        -11    1    4    4    0    0 -0.21528750525E-01 -0.13436890249E-01  0.27107806408E-01  0.37136658546E-01  0.51100000000E-03 0.  1.
         11    1    4    4    0    0 -0.74213644828E-01 -0.14464296866E-01  0.51031424232E-01  0.91221424800E-01  0.51100000000E-03 0. -1.
</event>
<event>
 8    1  0.1150863E+005  0.1043930E+01  0.7957747E-01            NaN
         13   -1    0    0    0    0  0.00000000000E+00  0.00000000000E+00  0.74505805969E-08  0.10566000000E+00  0.10566000000E+00 0.  1.
     999900   -1    0    0    0    0 -0.00000000000E+00 -0.00000000000E+00 -0.74505805969E-08  0.93827000000E+00  0.93827000000E+00 0.  1.
     999902    2    1    2    0    0 -0.83240750793E-02  0.22509934053E-01  0.82295822108E-02  0.10185584927E+01  0.10182424514E+01 0.  0.
     999903    2    3    3    0    0 -0.95451420631E-01 -0.65465501281E-01  0.52816160569E-01  0.12877266765E+00  0.19903455951E-01 0.  0.
         14    1    1    2    0    0  0.83240750793E-02 -0.22509934053E-01 -0.82295822108E-02  0.25371507255E-01  0.00000000000E+00 0. -1.
     999901    1    3    3    0    0  0.87127345552E-01  0.87975435334E-01 -0.44586578359E-01  0.88978582509E+00  0.88000000000E+00 0. -1.
        -11    1    4    4    0    0 -0.32236004128E-01 -0.11206714710E-01  0.15080078156E-01  0.37315148330E-01  0.51100000000E-03 0. -1.
         11    1    4    4    0    0 -0.63215416503E-01 -0.54258786571E-01  0.37736082414E-01  0.91457519323E-01  0.51100000000E-03 0.  1.
</event>
<event>
 8    1  0.1150863E+005  0.1043930E+01  0.7957747E-01            NaN
         13   -1    0    0    0    0  0.00000000000E+00  0.00000000000E+00  0.74505805969E-08  0.10566000000E+00  0.10566000000E+00 0.  1.
     999900   -1    0    0    0    0 -0.00000000000E+00 -0.00000000000E+00 -0.74505805969E-08  0.93827000000E+00  0.93827000000E+00 0. -1.
     999902    2    1    2    0    0 -0.96966096219E-02  0.77259390861E-02  0.19598427228E-01  0.10207392104E+01  0.10204757336E+01 0.  0.
     999903    2    3    3    0    0 -0.10884280263E+00 -0.64679451554E-01  0.31814628247E-01  0.13213257990E+00  0.20412274841E-01 0.  0.
         14    1    1    2    0    0  0.96966096219E-02 -0.77259390861E-02 -0.19598427228E-01  0.23190789610E-01  0.00000000000E+00 0. -1.
     999901    1    3    3    0    0  0.99146193004E-01  0.72405390640E-01 -0.12216201019E-01  0.88860663049E+00  0.88000000000E+00 0.  1.
        -11    1    4    4    0    0 -0.94351682881E-01 -0.62628792460E-01  0.24967770247E-01  0.11596661752E+00  0.51100000000E-03 0.  1.
         11    1    4    4    0    0 -0.14491119745E-01 -0.20506590939E-02  0.68468579993E-02  0.16165962379E-01  0.51100000000E-03 0. -1.
</event>
<event>
 8    1  0.1150863E+005  0.1043930E+01  0.7957747E-01            NaN
         13   -1    0    0    0    0  0.00000000000E+00  0.00000000000E+00  0.74505805969E-08  0.10566000000E+00  0.10566000000E+00 0. -1.
     999900   -1    0    0    0    0 -0.00000000000E+00 -0.00000000000E+00 -0.74505805969E-08  0.93827000000E+00  0.93827000000E+00 0. -1.
     999902    2    1    2    0    0 -0.20289914299E-01 -0.45872578855E-02  0.95600422458E-02  0.10210363772E+01  0.10207796851E+01 0.  0.
     999903    2    3    3    0    0  0.36509012228E-01  0.11666787699E+00 -0.38127520251E-01  0.12963129005E+00  0.20155943640E-01 0.  0.
         14    1    1    2    0    0  0.20289914299E-01  0.45872578855E-02 -0.95600422458E-02  0.22893622800E-01  0.00000000000E+00 0.  1.
     999901    1    3    3    0    0 -0.56798926527E-01 -0.12125513487E+00  0.47687562496E-01  0.89140508715E+00  0.88000000000E+00 0.  1.
        -11    1    4    4    0    0  0.95913689433E-02  0.12852532989E-01 -0.77607303314E-03  0.16063790736E-01  0.51100000000E-03 0.  1.
         11    1    4    4    0    0  0.26917643285E-01  0.10381534400E+00 -0.37351447217E-01  0.11356749931E+00  0.51100000000E-03 0. -1.
</event>
<event>
 8    1  0.1150863E+005  0.1043930E+01  0.7957747E-01            NaN
         13   -1    0    0    0    0  0.00000000000E+00  0.00000000000E+00  0.74505805969E-08  0.10566000000E+00  0.10566000000E+00 0. -1.
     999900   -1    0    0    0    0 -0.00000000000E+00 -0.00000000000E+00 -0.74505805969E-08  0.93827000000E+00  0.93827000000E+00 0. -1.
     999902    2    1    2    0    0  0.17150471894E-01  0.11547872523E-01 -0.92449975768E-02  0.10212813350E+01  0.10210301676E+01 0.  0.
     999903    2    3    3    0    0 -0.38945326990E-02  0.43765616923E-01 -0.12404511119E+00  0.13299087498E+00  0.19203817591E-01 0.  0.
         14    1    1    2    0    0 -0.17150471894E-01 -0.11547872523E-01  0.92449975768E-02  0.22648664998E-01  0.00000000000E+00 0. -1.
     999901    1    3    3    0    0  0.21045004593E-01 -0.32217744400E-01  0.11480011361E+00  0.88829046002E+00  0.88000000000E+00 0.  1.
        -11    1    4    4    0    0 -0.85293225778E-02  0.11179842589E-01 -0.50327579978E-01  0.52257675526E-01  0.51100000000E-03 0.  1.
         11    1    4    4    0    0  0.46347898788E-02  0.32585774335E-01 -0.73717531209E-01  0.80733199459E-01  0.51100000000E-03 0. -1.
</event>
<event>
 8    1  0.1150863E+005  0.1043930E+01  0.7957747E-01            NaN
         13   -1    0    0    0    0  0.00000000000E+00  0.00000000000E+00  0.74505805969E-08  0.10566000000E+00  0.10566000000E+00 0. -1.
     999900   -1    0    0    0    0 -0.00000000000E+00 -0.00000000000E+00 -0.74505805969E-08  0.93827000000E+00  0.93827000000E+00 0.  1.
     999902    2    1    2    0    0  0.86099801872E-02  0.19325325031E-01 -0.12882647952E-01  0.10191598049E+01  0.10188587465E+01 0.  0.
     999903    2    3    3    0    0 -0.10155159554E+00 -0.45129071999E-01 -0.61550345266E-01  0.12862149197E+00  0.20141586260E-01 0.  0.
         14    1    1    2    0    0 -0.86099801872E-02 -0.19325325031E-01  0.12882647952E-01  0.24770195087E-01  0.00000000000E+00 0. -1.
     999901    1    3    3    0    0  0.11016157573E+00  0.64454397030E-01  0.48667697313E-01  0.89053831295E+00  0.88000000000E+00 0.  1.
        -11    1    4    4    0    0 -0.62478151168E-01 -0.33393012115E-01 -0.29513668950E-01  0.76745882022E-01  0.51100000000E-03 0. -1.
         11    1    4    4    0    0 -0.39073444373E-01 -0.11736059884E-01 -0.32036676316E-01  0.51875609945E-01  0.51100000000E-03 0.  1.
</event>
<event>
 8    1  0.1150863E+005  0.1043930E+01  0.7957747E-01            NaN
         13   -1    0    0    0    0  0.00000000000E+00  0.00000000000E+00  0.74505805969E-08  0.10566000000E+00  0.10566000000E+00 0.  1.
     999900   -1    0    0    0    0 -0.00000000000E+00 -0.00000000000E+00 -0.74505805969E-08  0.93827000000E+00  0.93827000000E+00 0.  1.
     999902    2    1    2    0    0  0.63143191025E-02  0.25977812990E-02  0.23121584791E-01  0.10198213547E+01  0.10195363499E+01 0.  0.
     999903    2    3    3    0    0  0.10098556501E+00 -0.77870567769E-01  0.22898154476E-01  0.13109313423E+00  0.19979356773E-01 0.  0.
         14    1    1    2    0    0 -0.63143191025E-02 -0.25977812990E-02 -0.23121584791E-01  0.24108645268E-01  0.00000000000E+00 0. -1.
     999901    1    3    3    0    0 -0.94671245909E-01  0.80468349068E-01  0.22343031543E-03  0.88872822051E+00  0.88000000000E+00 0. -1.
        -11    1    4    4    0    0  0.68101096035E-01 -0.52293240156E-01  0.58060758037E-02  0.86059943554E-01  0.51100000000E-03 0.  1.
         11    1    4    4    0    0  0.32884468977E-01 -0.25577327613E-01  0.17092078672E-01  0.45033190672E-01  0.51100000000E-03 0. -1.
</event>
<event>
 8    1  0.1150863E+005  0.1043930E+01  0.7957747E-01            NaN
         13   -1    0    0    0    0  0.00000000000E+00  0.00000000000E+00  0.74505805969E-08  0.10566000000E+00  0.10566000000E+00 0. -1.
     999900   -1    0    0    0    0 -0.00000000000E+00 -0.00000000000E+00 -0.74505805969E-08  0.93827000000E+00  0.93827000000E+00 0.  1.
     999902    2    1    2    0    0 -0.14447886392E-01  0.32749200278E-02 -0.22081222129E-01  0.10173396466E+01  0.10169920893E+01 0.  0.
     999903    2    3    3    0    0 -0.15406341240E-01  0.16607334179E-01  0.12186484383E+00  0.12554418699E+00  0.19928467746E-01 0.  0.
         14    1    1    2    0    0  0.14447886392E-01 -0.32749200278E-02  0.22081222129E-01  0.26590353385E-01  0.00000000000E+00 0.  1.
     999901    1    3    3    0    0  0.95845484771E-03 -0.13332414151E-01 -0.14394606596E+00  0.89179545962E+00  0.88000000000E+00 0.  1.
        -11    1    4    4    0    0  0.45944060024E-02  0.47175677328E-02  0.34867065593E-01  0.35487144093E-01  0.51100000000E-03 0.  1.
         11    1    4    4    0    0 -0.20000747243E-01  0.11889766446E-01  0.86997778236E-01  0.90057042898E-01  0.51100000000E-03 0. -1.
</event>
<event>
 8    1  0.1150863E+005  0.1043930E+01  0.7957747E-01            NaN
         13   -1    0    0    0    0  0.00000000000E+00  0.00000000000E+00  0.74505805969E-08  0.10566000000E+00  0.10566000000E+00 0. -1.
     999900   -1    0    0    0    0 -0.00000000000E+00 -0.00000000000E+00 -0.74505805969E-08  0.93827000000E+00  0.93827000000E+00 0. -1.
     999902    2    1    2    0    0 -0.17112523947E-02 -0.15662905697E-01 -0.17842145220E-01  0.10201266988E+01  0.10198489518E+01 0.  0.
     999903    2    3    3    0    0 -0.57146902217E-01  0.10174652293E+00 -0.53432241887E-01  0.12988811275E+00  0.19944773698E-01 0.  0.
         14    1    1    2    0    0  0.17112523947E-02  0.15662905697E-01  0.17842145220E-01  0.23803301151E-01  0.00000000000E+00 0. -1.
     999901    1    3    3    0    0  0.55435649822E-01 -0.11740942863E+00  0.35590096667E-01  0.89023858610E+00  0.88000000000E+00 0.  1.
        -11    1    4    4    0    0 -0.45780039374E-01  0.85021771644E-01 -0.35587727468E-01  0.10291385293E+00  0.51100000000E-03 0.  1.
         11    1    4    4    0    0 -0.11366862843E-01  0.16724751291E-01 -0.17844514418E-01  0.26974259813E-01  0.51100000000E-03 0. -1.
</event>
<event>
 8    1  0.1150863E+005  0.1043930E+01  0.7957747E-01            NaN
         13   -1    0    0    0    0  0.00000000000E+00  0.00000000000E+00  0.74505805969E-08  0.10566000000E+00  0.10566000000E+00 0.  1.
     999900   -1    0    0    0    0 -0.00000000000E+00 -0.00000000000E+00 -0.74505805969E-08  0.93827000000E+00  0.93827000000E+00 0.  1.
     999902    2    1    2    0    0 -0.14104887354E-01  0.18123526194E-01  0.32129302734E-02  0.10207409299E+01  0.10204774927E+01 0.  0.
     999903    2    3    3    0    0  0.26023192135E-02  0.93014527308E-01  0.93049010663E-01  0.13284548895E+00  0.18202505160E-01 0.  0.
         14    1    1    2    0    0  0.14104887354E-01 -0.18123526194E-01 -0.32129302734E-02  0.23189070053E-01  0.00000000000E+00 0. -1.
     999901    1    3    3    0    0 -0.16707206568E-01 -0.74891001113E-01 -0.89836080389E-01  0.88789544099E+00  0.88000000000E+00 0.  1.
        -11    1    4    4    0    0 -0.52655088599E-02  0.69538735018E-01  0.63792779079E-01  0.94515295244E-01  0.51100000000E-03 0. -1.
         11    1    4    4    0    0  0.78678280734E-02  0.23475792290E-01  0.29256231584E-01  0.38330193708E-01  0.51100000000E-03 0.  1.
</event>
<event>
 8    1  0.1150863E+005  0.1043930E+01  0.7957747E-01            NaN
         13   -1    0    0    0    0  0.00000000000E+00  0.00000000000E+00  0.74505805969E-08  0.10566000000E+00  0.10566000000E+00 0. -1.
     999900   -1    0    0    0    0 -0.00000000000E+00 -0.00000000000E+00 -0.74505805969E-08  0.93827000000E+00  0.93827000000E+00 0.  1.
     999902    2    1    2    0    0  0.80993108986E-03  0.74770448020E-02 -0.22428528766E-01  0.10202741109E+01  0.10199998335E+01 0.  0.
     999903    2    3    3    0    0 -0.72730336289E-01 -0.53670537364E-01  0.88617852568E-01  0.12815388550E+00  0.20001654353E-01 0.  0.
         14    1    1    2    0    0 -0.80993108986E-03 -0.74770448020E-02  0.22428528766E-01  0.23655889118E-01  0.00000000000E+00 0. -1.
     999901    1    3    3    0    0  0.73540267379E-01  0.61147582166E-01 -0.11104638133E+00  0.89212022538E+00  0.88000000000E+00 0.  1.
        -11    1    4    4    0    0 -0.49892645548E-01 -0.42395018092E-01  0.73903467689E-01  0.98734985168E-01  0.51100000000E-03 0.  1.
         11    1    4    4    0    0 -0.22837690741E-01 -0.11275519272E-01  0.14714384880E-01  0.29418900330E-01  0.51100000000E-03 0. -1.
</event>
<event>
 8    1  0.1150863E+005  0.1043930E+01  0.7957747E-01            NaN
         13   -1    0    0    0    0  0.00000000000E+00  0.00000000000E+00  0.74505805969E-08  0.10566000000E+00  0.10566000000E+00 0.  1.
     999900   -1    0    0    0    0 -0.00000000000E+00 -0.00000000000E+00 -0.74505805969E-08  0.93827000000E+00  0.93827000000E+00 0.  1.
     999902    2    1    2    0    0  0.15983691116E-01 -0.13203136302E-01  0.81757315456E-02  0.10216444940E+01  0.10214014042E+01 0.  0.
     999903    2    3    3    0    0 -0.35105087535E-01 -0.12257865851E+00 -0.30447656088E-01  0.13256360107E+00  0.19701621106E-01 0.  0.
         14    1    1    2    0    0 -0.15983691116E-01  0.13203136302E-01 -0.81757315456E-02  0.22285505967E-01  0.00000000000E+00 0. -1.
     999901    1    3    3    0    0  0.51088778651E-01  0.10937552221E+00  0.38623387634E-01  0.88908089296E+00  0.88000000000E+00 0.  1.
        -11    1    4    4    0    0 -0.20776097716E-01 -0.78317259767E-01 -0.96481628426E-02  0.81600169001E-01  0.51100000000E-03 0.  1.
         11    1    4    4    0    0 -0.14328989818E-01 -0.44261398742E-01 -0.20799493246E-01  0.50963432068E-01  0.51100000000E-03 0. -1.
</event>
<event>
 8    1  0.1150863E+005  0.1043930E+01  0.7957747E-01            NaN
         13   -1    0    0    0    0  0.00000000000E+00  0.00000000000E+00  0.74505805969E-08  0.10566000000E+00  0.10566000000E+00 0.  1.
     999900   -1    0    0    0    0 -0.00000000000E+00 -0.00000000000E+00 -0.74505805969E-08  0.93827000000E+00  0.93827000000E+00 0.  1.
     999902    2    1    2    0    0  0.35530087238E-02  0.64355776087E-04  0.23243438514E-01  0.10204164837E+01  0.10201455361E+01 0.  0.
     999903    2    3    3    0    0  0.56654019701E-01  0.17498580058E-01  0.11803877582E+00  0.13356259188E+00  0.19746774425E-01 0.  0.
         14    1    1    2    0    0 -0.35530087238E-02 -0.64355776087E-04 -0.23243438514E-01  0.23513516254E-01  0.00000000000E+00 0. -1.
     999901    1    3    3    0    0 -0.53101010977E-01 -0.17434224281E-01 -0.94795337306E-01  0.88685389187E+00  0.88000000000E+00 0.  1.
        -11    1    4    4    0    0  0.46829645510E-01  0.21872862029E-01  0.99482508347E-01  0.11210918062E+00  0.51100000000E-03 0.  1.
         11    1    4    4    0    0  0.98243741914E-02 -0.43742819717E-02  0.18556267473E-01  0.21453411257E-01  0.51100000000E-03 0. -1.
</event>
<event>
 8    1  0.1150863E+005  0.1043930E+01  0.7957747E-01            NaN
         13   -1    0    0    0    0  0.00000000000E+00  0.00000000000E+00  0.74505805969E-08  0.10566000000E+00  0.10566000000E+00 0.  1.
     999900   -1    0    0    0    0 -0.00000000000E+00 -0.00000000000E+00 -0.74505805969E-08  0.93827000000E+00  0.93827000000E+00 0. -1.
     999902    2    1    2    0    0  0.18151515908E-01 -0.59633284345E-02 -0.14026675228E-01  0.10202279656E+01  0.10199526045E+01 0.  0.
     999903    2    3    3    0    0 -0.37776015108E-01 -0.55573518990E-01 -0.11127070475E+00  0.13172053121E+00  0.21299889068E-01 0.  0.
         14    1    1    2    0    0 -0.18151515908E-01  0.59633284345E-02  0.14026675228E-01  0.23702034380E-01  0.00000000000E+00 0. -1.
     999901    1    3    3    0    0  0.55927531016E-01  0.49610190556E-01  0.97244029525E-01  0.88850743442E+00  0.88000000000E+00 0.  1.
        -11    1    4    4    0    0 -0.49639362470E-02 -0.65005681153E-03 -0.17447752960E-01  0.18158976879E-01  0.51100000000E-03 0. -1.
         11    1    4    4    0    0 -0.32812078861E-01 -0.54923462179E-01 -0.93822951794E-01  0.11356155433E+00  0.51100000000E-03 0.  1.
</event>
<event>
 7    1  0.1150863E+005  0.1043930E+01  0.7957747E-01            NaN
         13   -1    0    0    0    0  0.00000000000E+00  0.00000000000E+00  0.74505805969E-08  0.10566000000E+00  0.10566000000E+00 0. -1.
     999900   -1    0    0    0    0 -0.00000000000E+00 -0.00000000000E+00 -0.74505805969E-08  0.93827000000E+00  0.93827000000E+00 0. -1.
     999903    2    1    2    0    0 -0.31198620556E-01 -0.89062811703E-01  0.29154678978E-01  0.10125402231E+00  0.22289983725E-01 0.  0.
         14    1    1    2    0    0  0.25788485874E-02 -0.40157227641E-01  0.30928855540E-01  0.50752807773E-01  0.00000000000E+00 0. -1.
     999901    1    1    2    0    0  0.28619771968E-01  0.12922003934E+00 -0.60083534518E-01  0.89192316992E+00  0.88000000000E+00 0. -1.
        -11    1    3    3    0    0 -0.23066574160E-01 -0.36305728381E-01  0.18461860295E-01  0.46811047449E-01  0.51100000000E-03 0.  1.
         11    1    3    3    0    0 -0.81320463957E-02 -0.52757083322E-01  0.10692818683E-01  0.54442974860E-01  0.51100000000E-03 0. -1.
</event>
<event>
 8    1  0.1150863E+005  0.1043930E+01  0.7957747E-01            NaN
         13   -1    0    0    0    0  0.00000000000E+00  0.00000000000E+00  0.74505805969E-08  0.10566000000E+00  0.10566000000E+00 0. -1.
     999900   -1    0    0    0    0 -0.00000000000E+00 -0.00000000000E+00 -0.74505805969E-08  0.93827000000E+00  0.93827000000E+00 0.  1.
     999902    2    1    2    0    0  0.14402147034E-01  0.17214414940E-01  0.98272857786E-02  0.10194282967E+01  0.10191338080E+01 0.  0.
     999903    2    3    3    0    0 -0.10025706430E+00  0.62170329716E-01  0.50704955277E-01  0.12991227495E+00  0.19737726623E-01 0.  0.
         14    1    1    2    0    0 -0.14402147034E-01 -0.17214414940E-01 -0.98272857786E-02  0.24501703343E-01  0.00000000000E+00 0.  1.
     999901    1    3    3    0    0  0.11465921134E+00 -0.44955914776E-01 -0.40877669498E-01  0.88951602171E+00  0.88000000000E+00 0. -1.
        -11    1    4    4    0    0 -0.12088244116E-01  0.82484173120E-03  0.65081719338E-02  0.13763118564E-01  0.51100000000E-03 0. -1.
         11    1    4    4    0    0 -0.88168820188E-01  0.61345487985E-01  0.44196783343E-01  0.11614915638E+00  0.51100000000E-03 0.  1.
</event>
<event>
 8    1  0.1150863E+005  0.1043930E+01  0.7957747E-01            NaN
         13   -1    0    0    0    0  0.00000000000E+00  0.00000000000E+00  0.74505805969E-08  0.10566000000E+00  0.10566000000E+00 0.  1.
     999900   -1    0    0    0    0 -0.00000000000E+00 -0.00000000000E+00 -0.74505805969E-08  0.93827000000E+00  0.93827000000E+00 0. -1.
     999902    2    1    2    0    0  0.20679497966E-01  0.71407831128E-02 -0.56260541709E-02  0.10213405134E+01  0.10210906715E+01 0.  0.
     999903    2    3    3    0    0 -0.48404066031E-01  0.38256272059E-01 -0.11384509900E+00  0.13147980849E+00  0.22797752412E-01 0.  0.
         14    1    1    2    0    0 -0.20679497966E-01 -0.71407831128E-02  0.56260541709E-02  0.22589486606E-01  0.00000000000E+00 0.  1.
     999901    1    3    3    0    0  0.69083563997E-01 -0.31115488946E-01  0.10821904483E+00  0.88986070490E+00  0.88000000000E+00 0.  1.
        -11    1    4    4    0    0 -0.29702852805E-01  0.10639766823E-01 -0.44777681549E-01  0.54779247792E-01  0.51100000000E-03 0.  1.
         11    1    4    4    0    0 -0.18701213227E-01  0.27616505236E-01 -0.69067417448E-01  0.76700560699E-01  0.51100000000E-03 0. -1.
</event>
<event>
 8    1  0.1150863E+005  0.1043930E+01  0.7957747E-01            NaN
         13   -1    0    0    0    0  0.00000000000E+00  0.00000000000E+00  0.74505805969E-08  0.10566000000E+00  0.10566000000E+00 0.  1.
     999900   -1    0    0    0    0 -0.00000000000E+00 -0.00000000000E+00 -0.74505805969E-08  0.93827000000E+00  0.93827000000E+00 0.  1.
     999902    2    1    2    0    0  0.12701925205E-01  0.92006860324E-02 -0.18155457145E-01  0.10199380815E+01  0.10196558625E+01 0.  0.
     999903    2    3    3    0    0  0.12352331353E+00  0.14886124727E-01 -0.41714920408E-01  0.13265641677E+00  0.19441826830E-01 0.  0.
         14    1    1    2    0    0 -0.12701925205E-01 -0.92006860324E-02  0.18155457145E-01  0.23991918463E-01  0.00000000000E+00 0.  1.
     999901    1    3    3    0    0 -0.11082138833E+00 -0.56854386950E-02  0.23559463263E-01  0.88728166477E+00  0.88000000000E+00 0.  1.
        -11    1    4    4    0    0  0.13623930031E-01  0.76065370318E-02 -0.29217312957E-02  0.15882962881E-01  0.51100000000E-03 0.  1.
         11    1    4    4    0    0  0.10989938350E+00  0.72795876956E-02 -0.38793189113E-01  0.11677345389E+00  0.51100000000E-03 0. -1.
</event>
<event>
 8    1  0.1305292E+005  0.1043930E+01  0.7957747E-01            NaN
         13   -1    0    0    0    0  0.00000000000E+00  0.00000000000E+00  0.74505805969E-08  0.10566000000E+00  0.10566000000E+00 0.  1.
     999900   -1    0    0    0    0 -0.00000000000E+00 -0.00000000000E+00 -0.74505805969E-08  0.93827000000E+00  0.93827000000E+00 0. -1.
     999902    2    1    2    0    0  0.67187467009E-02 -0.18764834376E-01 -0.10413052288E-01  0.10214423984E+01  0.10211948301E+01 0.  0.
     999903    2    3    3    0    0 -0.77996981600E-01  0.90857275611E-01 -0.46194611744E-01  0.12988528774E+00  0.19941718783E-01 0.  0.
         14    1    1    2    0    0 -0.67187467009E-02  0.18764834376E-01  0.10413052288E-01  0.22487601569E-01  0.00000000000E+00 0.  1.
     999901    1    3    3    0    0  0.84715728300E-01 -0.10962210999E+00  0.35781559455E-01  0.89155711069E+00  0.88000000000E+00 0.  1.
        -11    1    4    4    0    0 -0.46456197875E-01  0.53232944557E-01 -0.16677033988E-01  0.72596895876E-01  0.51100000000E-03 0.  1.
         11    1    4    4    0    0 -0.31540783724E-01  0.37624331055E-01 -0.29517577755E-01  0.57288391868E-01  0.51100000000E-03 0. -1.
</event>
<event>
 8    1  0.1150863E+005  0.1043930E+01  0.7957747E-01            NaN
         13   -1    0    0    0    0  0.00000000000E+00  0.00000000000E+00  0.74505805969E-08  0.10566000000E+00  0.10566000000E+00 0. -1.
     999900   -1    0    0    0    0 -0.00000000000E+00 -0.00000000000E+00 -0.74505805969E-08  0.93827000000E+00  0.93827000000E+00 0. -1.
     999902    2    1    2    0    0 -0.10869006031E-01  0.17520181567E-01  0.93805460430E-02  0.10212785829E+01  0.10210273538E+01 0.  0.
     999903    2    3    3    0    0 -0.14547115521E-01  0.12923757085E+00  0.25632127777E-01  0.13405909623E+00  0.20021663678E-01 0.  0.
         14    1    1    2    0    0  0.10869006031E-01 -0.17520181567E-01 -0.93805460430E-02  0.22651417137E-01  0.00000000000E+00 0. -1.
     999901    1    3    3    0    0  0.36781094906E-02 -0.11171738929E+00 -0.16251581734E-01  0.88721948664E+00  0.88000000000E+00 0. -1.
        -11    1    4    4    0    0  0.39417782160E-03  0.82748577538E-01  0.16379139150E-01  0.84356504082E-01  0.51100000000E-03 0.  1.
         11    1    4    4    0    0 -0.14941293343E-01  0.46488993317E-01  0.92529886264E-02  0.49702592144E-01  0.51100000000E-03 0. -1.
</event>
<event>
 8    1  0.1150863E+005  0.1043930E+01  0.7957747E-01            NaN
         13   -1    0    0    0    0  0.00000000000E+00  0.00000000000E+00  0.74505805969E-08  0.10566000000E+00  0.10566000000E+00 0.  1.
     999900   -1    0    0    0    0 -0.00000000000E+00 -0.00000000000E+00 -0.74505805969E-08  0.93827000000E+00  0.93827000000E+00 0.  1.
     999902    2    1    2    0    0  0.48262871848E-02  0.78949227041E-02 -0.22001755459E-01  0.10200616089E+01  0.10197823227E+01 0.  0.
     999903    2    3    3    0    0 -0.10087509531E+00 -0.69834762599E-01 -0.38718545099E-01  0.13017726958E+00  0.19857413226E-01 0.  0.
         14    1    1    2    0    0 -0.48262871848E-02 -0.78949227041E-02  0.22001755459E-01  0.23868391143E-01  0.00000000000E+00 0.  1.
     999901    1    3    3    0    0  0.10570138249E+00  0.77729685303E-01  0.16716789640E-01  0.88988433928E+00  0.88000000000E+00 0.  1.
        -11    1    4    4    0    0 -0.74555422370E-01 -0.47312964188E-01 -0.36223644320E-01  0.95443392196E-01  0.51100000000E-03 0.  1.
         11    1    4    4    0    0 -0.26319672936E-01 -0.22521798411E-01 -0.24949007792E-02  0.34733877382E-01  0.51100000000E-03 0. -1.
</event>
<event>
 8    1  0.1150863E+005  0.1043930E+01  0.7957747E-01            NaN
         13   -1    0    0    0    0  0.00000000000E+00  0.00000000000E+00  0.74505805969E-08  0.10566000000E+00  0.10566000000E+00 0. -1.
     999900   -1    0    0    0    0 -0.00000000000E+00 -0.00000000000E+00 -0.74505805969E-08  0.93827000000E+00  0.93827000000E+00 0.  1.
     999902    2    1    2    0    0 -0.26661049439E-02 -0.23535639353E-01 -0.63431223111E-03  0.10202353426E+01  0.10199601549E+01 0.  0.
     999903    2    3    3    0    0 -0.27370977607E-01  0.11690206025E+00 -0.39091570057E-01  0.12792819884E+00  0.20547776065E-01 0.  0.
         14    1    1    2    0    0  0.26661049439E-02  0.23535639353E-01  0.63431223111E-03  0.23694657359E-01  0.00000000000E+00 0.  1.
     999901    1    3    3    0    0  0.24704872664E-01 -0.14043769961E+00  0.38457257826E-01  0.89230714380E+00  0.88000000000E+00 0.  1.
        -11    1    4    4    0    0 -0.20619810452E-01  0.46652431491E-01 -0.12573527058E-01  0.52535517993E-01  0.51100000000E-03 0. -1.
         11    1    4    4    0    0 -0.67511671558E-02  0.70249628764E-01 -0.26518042999E-01  0.75392680844E-01  0.51100000000E-03 0.  1.
</event>
<event>
 8    1  0.1150863E+005  0.1043930E+01  0.7957747E-01            NaN
         13   -1    0    0    0    0  0.00000000000E+00  0.00000000000E+00  0.74505805969E-08  0.10566000000E+00  0.10566000000E+00 0.  1.
     999900   -1    0    0    0    0 -0.00000000000E+00 -0.00000000000E+00 -0.74505805969E-08  0.93827000000E+00  0.93827000000E+00 0.  1.
     999902    2    1    2    0    0 -0.18238863051E-01  0.12010671221E-01 -0.69913222858E-02  0.10209998684E+01  0.10207423477E+01 0.  0.
     999903    2    3    3    0    0  0.34528098681E-01  0.92741106933E-01 -0.84939591290E-01  0.13230549564E+00  0.22291422014E-01 0.  0.
         14    1    1    2    0    0  0.18238863051E-01 -0.12010671221E-01  0.69913222858E-02  0.22930131615E-01  0.00000000000E+00 0. -1.
     999901    1    3    3    0    0 -0.52766961732E-01 -0.80730435712E-01  0.77948269004E-01  0.88869437274E+00  0.88000000000E+00 0. -1.
        -11    1    4    4    0    0  0.15007115499E-01  0.61065765884E-01 -0.42693363964E-01  0.76008063560E-01  0.51100000000E-03 0. -1.
         11    1    4    4    0    0  0.19520983183E-01  0.31675341049E-01 -0.42246227326E-01  0.56297432084E-01  0.51100000000E-03 0.  1.
</event>
<event>
 8    1  0.1150863E+005  0.1043930E+01  0.7957747E-01            NaN
         13   -1    0    0    0    0  0.00000000000E+00  0.00000000000E+00  0.74505805969E-08  0.10566000000E+00  0.10566000000E+00 0. -1.
     999900   -1    0    0    0    0 -0.00000000000E+00 -0.00000000000E+00 -0.74505805969E-08  0.93827000000E+00  0.93827000000E+00 0. -1.
     999902    2    1    2    0    0  0.21821964384E-01  0.84870757054E-02  0.20371628253E-02  0.10204272636E+01  0.10201565673E+01 0.  0.
     999903    2    3    3    0    0 -0.20368781219E-01 -0.20970409931E-01 -0.12497227395E+00  0.12982117816E+00  0.19514704781E-01 0.  0.
         14    1    1    2    0    0 -0.21821964384E-01 -0.84870757054E-02 -0.20371628253E-02  0.23502736351E-01  0.00000000000E+00 0.  1.
     999901    1    3    3    0    0  0.42190745604E-01  0.29457485637E-01  0.12700943677E+00  0.89060608549E+00  0.88000000000E+00 0.  1.
        -11    1    4    4    0    0 -0.24154108640E-02 -0.14307362382E-01 -0.36151080556E-01  0.38957625368E-01  0.51100000000E-03 0. -1.
         11    1    4    4    0    0 -0.17953370355E-01 -0.66630475491E-02 -0.88821193393E-01  0.90863552795E-01  0.51100000000E-03 0.  1.
</event>
<event>
 8    1  0.1150863E+005  0.1043930E+01  0.7957747E-01            NaN
         13   -1    0    0    0    0  0.00000000000E+00  0.00000000000E+00  0.74505805969E-08  0.10566000000E+00  0.10566000000E+00 0.  1.
     999900   -1    0    0    0    0 -0.00000000000E+00 -0.00000000000E+00 -0.74505805969E-08  0.93827000000E+00  0.93827000000E+00 0.  1.
     999902    2    1    2    0    0  0.15668753394E-01 -0.13411916884E-01 -0.12504087591E-01  0.10198106809E+01  0.10195254206E+01 0.  0.
     999903    2    3    3    0    0 -0.58450007850E-01  0.63915300934E-01  0.91118501785E-01  0.12728016018E+00  0.19901977216E-01 0.  0.
         14    1    1    2    0    0 -0.15668753394E-01  0.13411916884E-01  0.12504087591E-01  0.24119319101E-01  0.00000000000E+00 0.  1.
     999901    1    3    3    0    0  0.74118761244E-01 -0.77327217818E-01 -0.10362258938E+00  0.89253052072E+00  0.88000000000E+00 0.  1.
        -11    1    4    4    0    0 -0.11919254134E-01  0.24006926787E-01  0.35669602156E-01  0.44620430207E-01  0.51100000000E-03 0. -1.
         11    1    4    4    0    0 -0.46530753716E-01  0.39908374147E-01  0.55448899629E-01  0.82659729975E-01  0.51100000000E-03 0.  1.
</event>
<event>
 8    1  0.1150863E+005  0.1043930E+01  0.7957747E-01            NaN
         13   -1    0    0    0    0  0.00000000000E+00  0.00000000000E+00  0.74505805969E-08  0.10566000000E+00  0.10566000000E+00 0. -1.
     999900   -1    0    0    0    0 -0.00000000000E+00 -0.00000000000E+00 -0.74505805969E-08  0.93827000000E+00  0.93827000000E+00 0.  1.
     999902    2    1    2    0    0 -0.20100515836E-01 -0.11604168325E-01  0.35025832181E-02  0.10204575577E+01  0.10201875668E+01 0.  0.
     999903    2    3    3    0    0 -0.31179242425E-02  0.71758142993E-01  0.10660239618E+00  0.13036359927E+00  0.21717380272E-01 0.  0.
         14    1    1    2    0    0  0.20100515836E-01  0.11604168325E-01 -0.35025832181E-02  0.23472442322E-01  0.00000000000E+00 0.  1.
     999901    1    3    3    0    0 -0.16982591593E-01 -0.83362311318E-01 -0.10309981296E+00  0.89009395841E+00  0.88000000000E+00 0.  1.
        -11    1    4    4    0    0 -0.82577677780E-02  0.16568484552E-01  0.37086812865E-01  0.41453567018E-01  0.51100000000E-03 0.  1.
         11    1    4    4    0    0  0.51398435355E-02  0.55189658441E-01  0.69515583313E-01  0.88910032250E-01  0.51100000000E-03 0. -1.
</event>
<event>
 8    1  0.1150863E+005  0.1043930E+01  0.7957747E-01            NaN
         13   -1    0    0    0    0  0.00000000000E+00  0.00000000000E+00  0.74505805969E-08  0.10566000000E+00  0.10566000000E+00 0.  1.
     999900   -1    0    0    0    0 -0.00000000000E+00 -0.00000000000E+00 -0.74505805969E-08  0.93827000000E+00  0.93827000000E+00 0.  1.
     999902    2    1    2    0    0 -0.14702140843E-01  0.87001444900E-03 -0.16001533532E-01  0.10221823807E+01  0.10219510069E+01 0.  0.
     999903    2    3    3    0    0  0.10603373402E+00  0.72762998909E-01 -0.14074077680E-01  0.13103173810E+00  0.20823783649E-01 0.  0.
         14    1    1    2    0    0  0.14702140843E-01 -0.87001444900E-03  0.16001533532E-01  0.21747619316E-01  0.00000000000E+00 0.  1.
     999901    1    3    3    0    0 -0.12073587487E+00 -0.71892984460E-01 -0.19274558529E-02  0.89115064259E+00  0.88000000000E+00 0.  1.
        -11    1    4    4    0    0  0.50527085316E-01  0.42342927099E-01 -0.15478546780E-01  0.67718212892E-01  0.51100000000E-03 0.  1.
         11    1    4    4    0    0  0.55506648707E-01  0.30420071809E-01  0.14044691007E-02  0.63313525207E-01  0.51100000000E-03 0. -1.
</event>
<event>
 8    1  0.1150863E+005  0.1043930E+01  0.7957747E-01            NaN
         13   -1    0    0    0    0  0.00000000000E+00  0.00000000000E+00  0.74505805969E-08  0.10566000000E+00  0.10566000000E+00 0.  1.
     999900   -1    0    0    0    0 -0.00000000000E+00 -0.00000000000E+00 -0.74505805969E-08  0.93827000000E+00  0.93827000000E+00 0. -1.
     999902    2    1    2    0    0 -0.18398500077E-01 -0.12894963725E-01 -0.73214919288E-02  0.10202997410E+01  0.10200260646E+01 0.  0.
     999903    2    3    3    0    0  0.14919272655E-01 -0.12657776947E+00 -0.28353543052E-01  0.13211271035E+00  0.20132769612E-01 0.  0.
         14    1    1    2    0    0  0.18398500077E-01  0.12894963725E-01  0.73214919288E-02  0.23630258962E-01  0.00000000000E+00 0. -1.
     999901    1    3    3    0    0 -0.33317772732E-01  0.11368280575E+00  0.21032051123E-01  0.88818703068E+00  0.88000000000E+00 0. -1.
        -11    1    4    4    0    0  0.50901664240E-02 -0.61703434303E-01 -0.23821626139E-01  0.66339690924E-01  0.51100000000E-03 0. -1.
         11    1    4    4    0    0  0.98291062315E-02 -0.64874335168E-01 -0.45319169126E-02  0.65773019429E-01  0.51100000000E-03 0.  1.
</event>
<event>
 8    1  0.1150863E+005  0.1043930E+01  0.7957747E-01            NaN
         13   -1    0    0    0    0  0.00000000000E+00  0.00000000000E+00  0.74505805969E-08  0.10566000000E+00  0.10566000000E+00 0.  1.
     999900   -1    0    0    0    0 -0.00000000000E+00 -0.00000000000E+00 -0.74505805969E-08  0.93827000000E+00  0.93827000000E+00 0. -1.
     999902    2    1    2    0    0 -0.81093698977E-02  0.21369667572E-01  0.51879166820E-02  0.10204920169E+01  0.10202228274E+01 0.  0.
     999903    2    3    3    0    0  0.10643238754E+00  0.51951737803E-01 -0.51987768292E-01  0.13070320141E+00  0.18808578581E-01 0.  0.
         14    1    1    2    0    0  0.81093698977E-02 -0.21369667572E-01 -0.51879166820E-02  0.23437983099E-01  0.00000000000E+00 0. -1.
     999901    1    3    3    0    0 -0.11454175744E+00 -0.30582070231E-01  0.57175684974E-01  0.88978881549E+00  0.88000000000E+00 0. -1.
        -11    1    4    4    0    0  0.84241963563E-01  0.32517216024E-01 -0.36687274242E-01  0.97469456627E-01  0.51100000000E-03 0. -1.
         11    1    4    4    0    0  0.22190423981E-01  0.19434521778E-01 -0.15300494050E-01  0.33233744784E-01  0.51100000000E-03 0.  1.
</event>
<event>
 8    1  0.1150863E+005  0.1043930E+01  0.7957747E-01            NaN
         13   -1    0    0    0    0  0.00000000000E+00  0.00000000000E+00  0.74505805969E-08  0.10566000000E+00  0.10566000000E+00 0. -1.
     999900   -1    0    0    0    0 -0.00000000000E+00 -0.00000000000E+00 -0.74505805969E-08  0.93827000000E+00  0.93827000000E+00 0. -1.
     999902    2    1    2    0    0  0.66460043515E-03  0.23584744789E-01  0.82404605209E-02  0.10189382600E+01  0.10186317247E+01 0.  0.
     999903    2    3    3    0    0 -0.48614553192E-01  0.91195546347E-01 -0.77584840602E-01  0.13081347268E+00  0.20316365037E-01 0.  0.
         14    1    1    2    0    0 -0.66460043515E-03 -0.23584744789E-01 -0.82404605209E-02  0.24991740038E-01  0.00000000000E+00 0. -1.
     999901    1    3    3    0    0  0.49279153627E-01 -0.67610801557E-01  0.85825301123E-01  0.88812478728E+00  0.88000000000E+00 0.  1.
        -11    1    4    4    0    0 -0.91869808556E-02  0.16926088705E-01 -0.54416694991E-02  0.20019140442E-01  0.51100000000E-03 0.  1.
         11    1    4    4    0    0 -0.39427572336E-01  0.74269457642E-01 -0.72143171103E-01  0.11079433224E+00  0.51100000000E-03 0. -1.
</event>
<event>
 8    1  0.1150863E+005  0.1043930E+01  0.7957747E-01            NaN
         13   -1    0    0    0    0  0.00000000000E+00  0.00000000000E+00  0.74505805969E-08  0.10566000000E+00  0.10566000000E+00 0. -1.
     999900   -1    0    0    0    0 -0.00000000000E+00 -0.00000000000E+00 -0.74505805969E-08  0.93827000000E+00  0.93827000000E+00 0.  1.
     999902    2    1    2    0    0 -0.10665732620E-01 -0.22536592778E-01  0.87878992852E-02  0.10174936039E+01  0.10171501123E+01 0.  0.
     999903    2    3    3    0    0  0.50353531360E-01 -0.11385040904E+00 -0.21703453232E-01  0.13014289181E+00  0.31124566613E-01 0.  0.
         14    1    1    2    0    0  0.10665732620E-01  0.22536592778E-01 -0.87878992852E-02  0.26436396127E-01  0.00000000000E+00 0.  1.
     999901    1    3    3    0    0 -0.61019263980E-01  0.91313816267E-01  0.30491352518E-01  0.88735071206E+00  0.88000000000E+00 0. -1.
        -11    1    4    4    0    0  0.31026293456E-01 -0.40204343598E-01 -0.18101589261E-01  0.53916127314E-01  0.51100000000E-03 0.  1.
         11    1    4    4    0    0  0.19327237905E-01 -0.73646065446E-01 -0.36018639710E-02  0.76226764497E-01  0.51100000000E-03 0. -1.
</event>
<event>
 8    1  0.1454236E+005  0.1043930E+01  0.7957747E-01            NaN
         13   -1    0    0    0    0  0.00000000000E+00  0.00000000000E+00  0.74505805969E-08  0.10566000000E+00  0.10566000000E+00 0. -1.
     999900   -1    0    0    0    0 -0.00000000000E+00 -0.00000000000E+00 -0.74505805969E-08  0.93827000000E+00  0.93827000000E+00 0. -1.
     999902    2    1    2    0    0  0.43407839310E-02 -0.94900360188E-02  0.20856405392E-01  0.10206084899E+01  0.10203419999E+01 0.  0.
     999903    2    3    3    0    0  0.12119303155E+00 -0.45690681777E-01 -0.12967989825E-01  0.13150274574E+00  0.18692620995E-01 0.  0.
         14    1    1    2    0    0 -0.43407839310E-02  0.94900360188E-02 -0.20856405392E-01  0.23321510128E-01  0.00000000000E+00 0.  1.
     999901    1    3    3    0    0 -0.11685224762E+00  0.36200645758E-01  0.33824395217E-01  0.88910574413E+00  0.88000000000E+00 0. -1.
        -11    1    4    4    0    0  0.62302580952E-01 -0.17910365708E-01  0.13042362072E-02  0.64840997418E-01  0.51100000000E-03 0. -1.
         11    1    4    4    0    0  0.58890450603E-01 -0.27780316069E-01 -0.14272226032E-01  0.66661748327E-01  0.51100000000E-03 0.  1.
</event>
<event>
 8    1  0.1150863E+005  0.1043930E+01  0.7957747E-01            NaN
         13   -1    0    0    0    0  0.00000000000E+00  0.00000000000E+00  0.74505805969E-08  0.10566000000E+00  0.10566000000E+00 0.  1.
     999900   -1    0    0    0    0 -0.00000000000E+00 -0.00000000000E+00 -0.74505805969E-08  0.93827000000E+00  0.93827000000E+00 0. -1.
     999902    2    1    2    0    0  0.17251163144E-01 -0.19124630099E-01 -0.98843441803E-04  0.10181741487E+01  0.10178483351E+01 0.  0.
     999903    2    3    3    0    0  0.11201704914E+00  0.35105758007E-01 -0.51983911293E-01  0.12990979142E+00  0.19849265267E-01 0.  0.
         14    1    1    2    0    0 -0.17251163144E-01  0.19124630099E-01  0.98843441803E-04  0.25755851301E-01  0.00000000000E+00 0. -1.
     999901    1    3    3    0    0 -0.94765885992E-01 -0.54230388105E-01  0.51885067852E-01  0.88826435728E+00  0.88000000000E+00 0.  1.
        -11    1    4    4    0    0  0.80772417862E-01  0.24515529469E-01 -0.46777610698E-01  0.96506997964E-01  0.51100000000E-03 0. -1.
         11    1    4    4    0    0  0.31244631274E-01  0.10590228538E-01 -0.52063005958E-02  0.33402793458E-01  0.51100000000E-03 0.  1.
</event>
<event>
 8    1  0.1150863E+005  0.1043930E+01  0.7957747E-01            NaN
         13   -1    0    0    0    0  0.00000000000E+00  0.00000000000E+00  0.74505805969E-08  0.10566000000E+00  0.10566000000E+00 0. -1.
     999900   -1    0    0    0    0 -0.00000000000E+00 -0.00000000000E+00 -0.74505805969E-08  0.93827000000E+00  0.93827000000E+00 0.  1.
     999902    2    1    2    0    0 -0.12630522255E-03  0.13912947691E-02 -0.23870382325E-01  0.10200187724E+01  0.10197384710E+01 0.  0.
     999903    2    3    3    0    0 -0.17363668916E-01 -0.57463996144E-02 -0.13060078062E+00  0.13337371864E+00  0.19936569911E-01 0.  0.
         14    1    1    2    0    0  0.12630522255E-03 -0.13912947691E-02  0.23870382325E-01  0.23911227624E-01  0.00000000000E+00 0. -1.
     999901    1    3    3    0    0  0.17237363694E-01  0.71376943835E-02  0.10673039829E+00  0.88664505373E+00  0.88000000000E+00 0. -1.
        -11    1    4    4    0    0 -0.18558720405E-01 -0.45089120292E-02 -0.13012092848E+00  0.13151605811E+00  0.51100000000E-03 0. -1.
         11    1    4    4    0    0  0.11950514892E-02 -0.12374875852E-02 -0.47985213691E-03  0.18576605337E-02  0.51100000000E-03 0.  1.
</event>
<event>
 8    1  0.1150863E+005  0.1043930E+01  0.7957747E-01            NaN
         13   -1    0    0    0    0  0.00000000000E+00  0.00000000000E+00  0.74505805969E-08  0.10566000000E+00  0.10566000000E+00 0.  1.
     999900   -1    0    0    0    0 -0.00000000000E+00 -0.00000000000E+00 -0.74505805969E-08  0.93827000000E+00  0.93827000000E+00 0. -1.
     999902    2    1    2    0    0 -0.19521093988E-01 -0.11474386448E-01 -0.78382478849E-02  0.10199680972E+01  0.10196865923E+01 0.  0.
     999903    2    3    3    0    0 -0.94634482401E-01  0.77730112521E-01  0.40769184431E-01  0.13094495566E+00  0.22063530130E-01 0.  0.
         14    1    1    2    0    0  0.19521093988E-01  0.11474386448E-01  0.78382478849E-02  0.23961902778E-01  0.00000000000E+00 0.  1.
     999901    1    3    3    0    0  0.75113388413E-01 -0.89204498969E-01 -0.48607432316E-01  0.88902314156E+00  0.88000000000E+00 0.  1.
        -11    1    4    4    0    0 -0.36538277871E-01  0.27067433581E-01  0.26240354436E-01  0.52502466917E-01  0.51100000000E-03 0.  1.
         11    1    4    4    0    0 -0.58096204531E-01  0.50662678940E-01  0.14528829996E-01  0.78442488744E-01  0.51100000000E-03 0. -1.
</event>
<event>
 8    1  0.1150863E+005  0.1043930E+01  0.7957747E-01            NaN
         13   -1    0    0    0    0  0.00000000000E+00  0.00000000000E+00  0.74505805969E-08  0.10566000000E+00  0.10566000000E+00 0.  1.
     999900   -1    0    0    0    0 -0.00000000000E+00 -0.00000000000E+00 -0.74505805969E-08  0.93827000000E+00  0.93827000000E+00 0. -1.
     999902    2    1    2    0    0  0.82243801769E-02  0.12721773858E-01  0.17680604799E-01  0.10206472221E+01  0.10203816268E+01 0.  0.
     999903    2    3    3    0    0  0.10392082518E+00 -0.82575762429E-02 -0.77235014596E-01  0.13013786366E+00  0.10143500680E-01 0.  0.
         14    1    1    2    0    0 -0.82243801769E-02 -0.12721773858E-01 -0.17680604799E-01  0.23282777872E-01  0.00000000000E+00 0. -1.
     999901    1    3    3    0    0 -0.95696445004E-01  0.20979350101E-01  0.94915619395E-01  0.89050935847E+00  0.88000000000E+00 0.  1.
        -11    1    4    4    0    0  0.43427742380E-01  0.14815594572E-02 -0.32957380597E-01  0.54540020934E-01  0.51100000000E-03 0. -1.
         11    1    4    4    0    0  0.60493082801E-01 -0.97391357000E-02 -0.44277633999E-01  0.75597842723E-01  0.51100000000E-03 0.  1.
</event>
<event>
 8    1  0.1150863E+005  0.1043930E+01  0.7957747E-01            NaN
         13   -1    0    0    0    0  0.00000000000E+00  0.00000000000E+00  0.74505805969E-08  0.10566000000E+00  0.10566000000E+00 0.  1.
     999900   -1    0    0    0    0 -0.00000000000E+00 -0.00000000000E+00 -0.74505805969E-08  0.93827000000E+00  0.93827000000E+00 0.  1.
     999902    2    1    2    0    0  0.72307047993E-02  0.10500087588E-01 -0.19131977142E-01  0.10209394045E+01  0.10206805084E+01 0.  0.
     999903    2    3    3    0    0  0.11034966333E+00 -0.47910949915E-01  0.46642770605E-01  0.13056213260E+00  0.19960338191E-01 0.  0.
         14    1    1    2    0    0 -0.72307047993E-02 -0.10500087588E-01  0.19131977142E-01  0.22990595482E-01  0.00000000000E+00 0.  1.
     999901    1    3    3    0    0 -0.10311895853E+00  0.58411037502E-01 -0.65774747747E-01  0.89037727192E+00  0.88000000000E+00 0.  1.
        -11    1    4    4    0    0  0.45110251667E-01 -0.14364142337E-01  0.93219999055E-02  0.48253747976E-01  0.51100000000E-03 0.  1.
         11    1    4    4    0    0  0.65239411661E-01 -0.33546807578E-01  0.37320770699E-01  0.82308384622E-01  0.51100000000E-03 0. -1.
</event>
<event>
 8    1  0.1150863E+005  0.1043930E+01  0.7957747E-01            NaN
         13   -1    0    0    0    0  0.00000000000E+00  0.00000000000E+00  0.74505805969E-08  0.10566000000E+00  0.10566000000E+00 0.  1.
     999900   -1    0    0    0    0 -0.00000000000E+00 -0.00000000000E+00 -0.74505805969E-08  0.93827000000E+00  0.93827000000E+00 0. -1.
     999902    2    1    2    0    0 -0.53708754951E-02 -0.23172079596E-01  0.42256488583E-02  0.10197711986E+01  0.10194849924E+01 0.  0.
     999903    2    3    3    0    0 -0.40331543366E-02 -0.10853664455E+00 -0.71020277949E-01  0.13244327278E+00  0.26473969880E-01 0.  0.
         14    1    1    2    0    0  0.53708754951E-02  0.23172079596E-01 -0.42256488583E-02  0.24158801392E-01  0.00000000000E+00 0.  1.
     999901    1    3    3    0    0 -0.13377211585E-02  0.85364564955E-01  0.75245926807E-01  0.88732792583E+00  0.88000000000E+00 0.  1.
        -11    1    4    4    0    0 -0.95949927534E-02 -0.48571389611E-01 -0.19592140632E-01  0.53248069170E-01  0.51100000000E-03 0. -1.
         11    1    4    4    0    0  0.55618384168E-02 -0.59965254940E-01 -0.51428137316E-01  0.79195203614E-01  0.51100000000E-03 0.  1.
</event>
<event>
 8    1  0.1150863E+005  0.1043930E+01  0.7957747E-01            NaN
         13   -1    0    0    0    0  0.00000000000E+00  0.00000000000E+00  0.74505805969E-08  0.10566000000E+00  0.10566000000E+00 0.  1.
     999900   -1    0    0    0    0 -0.00000000000E+00 -0.00000000000E+00 -0.74505805969E-08  0.93827000000E+00  0.93827000000E+00 0.  1.
     999902    2    1    2    0    0  0.30924754802E-02  0.13723116350E-01 -0.17981425251E-01  0.10210997792E+01  0.10208445230E+01 0.  0.
     999903    2    3    3    0    0  0.10128931247E+00  0.84115791702E-01 -0.85899516926E-02  0.13279468112E+00  0.15021612063E-01 0.  0.
         14    1    1    2    0    0 -0.30924754802E-02 -0.13723116350E-01  0.17981425251E-01  0.22830220783E-01  0.00000000000E+00 0.  1.
     999901    1    3    3    0    0 -0.98196836986E-01 -0.70392675351E-01 -0.93914735580E-02  0.88830509810E+00  0.88000000000E+00 0. -1.
        -11    1    4    4    0    0  0.70162416541E-01  0.64722187290E-01 -0.16788165414E-02  0.95471491915E-01  0.51100000000E-03 0.  1.
         11    1    4    4    0    0  0.31126895926E-01  0.19393604412E-01 -0.69111351512E-02  0.37323189201E-01  0.51100000000E-03 0. -1.
</event>
<event>
 8    1  0.1150863E+005  0.1043930E+01  0.7957747E-01            NaN
         13   -1    0    0    0    0  0.00000000000E+00  0.00000000000E+00  0.74505805969E-08  0.10566000000E+00  0.10566000000E+00 0. -1.
     999900   -1    0    0    0    0 -0.00000000000E+00 -0.00000000000E+00 -0.74505805969E-08  0.93827000000E+00  0.93827000000E+00 0. -1.
     999902    2    1    2    0    0  0.13841721879E-02  0.48367468035E-04  0.24367547648E-01  0.10195231229E+01  0.10192309368E+01 0.  0.
     999903    2    3    3    0    0  0.28418535495E-01 -0.11045172424E+00 -0.55882625291E-01  0.12857911941E+00  0.20063040459E-01 0.  0.
         14    1    1    2    0    0 -0.13841721879E-02 -0.48367468035E-04 -0.24367547648E-01  0.24406877113E-01  0.00000000000E+00 0.  1.
     999901    1    3    3    0    0 -0.27034363307E-01  0.11050009171E+00  0.80250172939E-01  0.89094400347E+00  0.88000000000E+00 0.  1.
        -11    1    4    4    0    0  0.27877594318E-01 -0.98785994775E-01 -0.43300102295E-01  0.11140463639E+00  0.51100000000E-03 0.  1.
         11    1    4    4    0    0  0.54094117664E-03 -0.11665729466E-01 -0.12582522996E-01  0.17174483028E-01  0.51100000000E-03 0. -1.
</event>
<event>
 8    1  0.1150863E+005  0.1043930E+01  0.7957747E-01            NaN
         13   -1    0    0    0    0  0.00000000000E+00  0.00000000000E+00  0.74505805969E-08  0.10566000000E+00  0.10566000000E+00 0.  1.
     999900   -1    0    0    0    0 -0.00000000000E+00 -0.00000000000E+00 -0.74505805969E-08  0.93827000000E+00  0.93827000000E+00 0. -1.
     999902    2    1    2    0    0 -0.12854106860E-01  0.34641241932E-02  0.19233801220E-01  0.10205383919E+01  0.10202702789E+01 0.  0.
     999903    2    3    3    0    0  0.80569798401E-01  0.98874474146E-01 -0.14255517958E-01  0.12983490845E+00  0.19652725195E-01 0.  0.
         14    1    1    2    0    0  0.12854106860E-01 -0.34641241932E-02 -0.19233801220E-01  0.23391608089E-01  0.00000000000E+00 0. -1.
     999901    1    3    3    0    0 -0.93423905262E-01 -0.95410349953E-01  0.33489319178E-01  0.89070348346E+00  0.88000000000E+00 0. -1.
        -11    1    4    4    0    0  0.22483761338E-01  0.35242973844E-01 -0.12585852745E-01  0.43660640623E-01  0.51100000000E-03 0.  1.
         11    1    4    4    0    0  0.58086037064E-01  0.63631500302E-01 -0.16696652123E-02  0.86174267826E-01  0.51100000000E-03 0. -1.
</event>
<event>
 8    1  0.1150863E+005  0.1043930E+01  0.7957747E-01            NaN
         13   -1    0    0    0    0  0.00000000000E+00  0.00000000000E+00  0.74505805969E-08  0.10566000000E+00  0.10566000000E+00 0.  1.
     999900   -1    0    0    0    0 -0.00000000000E+00 -0.00000000000E+00 -0.74505805969E-08  0.93827000000E+00  0.93827000000E+00 0. -1.
     999902    2    1    2    0    0 -0.10424008570E-01 -0.30087384889E-02 -0.16988290666E-01  0.10237727561E+01  0.10235742971E+01 0.  0.
     999903    2    3    3    0    0 -0.97093399782E-01 -0.89982209804E-01  0.15503278402E-01  0.13465427685E+00  0.19170192213E-01 0.  0.
         14    1    1    2    0    0  0.10424008570E-01  0.30087384889E-02  0.16988290666E-01  0.20157243902E-01  0.00000000000E+00 0.  1.
     999901    1    3    3    0    0  0.86669391212E-01  0.86973471315E-01 -0.32491569068E-01  0.88911847925E+00  0.88000000000E+00 0. -1.
        -11    1    4    4    0    0 -0.19524142552E-01 -0.93818862557E-02 -0.36193174846E-03  0.21670349506E-01  0.51100000000E-03 0. -1.
         11    1    4    4    0    0 -0.77569257230E-01 -0.80600323549E-01  0.15865210151E-01  0.11298392734E+00  0.51100000000E-03 0.  1.
</event>
<event>
 8    1  0.1150863E+005  0.1043930E+01  0.7957747E-01            NaN
         13   -1    0    0    0    0  0.00000000000E+00  0.00000000000E+00  0.74505805969E-08  0.10566000000E+00  0.10566000000E+00 0. -1.
     999900   -1    0    0    0    0 -0.00000000000E+00 -0.00000000000E+00 -0.74505805969E-08  0.93827000000E+00  0.93827000000E+00 0. -1.
     999902    2    1    2    0    0  0.13646471176E-01 -0.18298211306E-01 -0.66350966392E-03  0.10210938235E+01  0.10208384326E+01 0.  0.
     999903    2    3    3    0    0 -0.94375091466E-01 -0.80339068707E-01  0.38468898956E-01  0.13145958888E+00  0.20993891300E-01 0.  0.
         14    1    1    2    0    0 -0.13646471176E-01  0.18298211306E-01  0.66350966392E-03  0.22836176511E-01  0.00000000000E+00 0.  1.
     999901    1    3    3    0    0  0.10802156264E+00  0.62040857400E-01 -0.39132408620E-01  0.88963423461E+00  0.88000000000E+00 0.  1.
        -11    1    4    4    0    0 -0.54147171468E-01 -0.56091763994E-01  0.16919511221E-01  0.79779277679E-01  0.51100000000E-03 0. -1.
         11    1    4    4    0    0 -0.40227919998E-01 -0.24247304712E-01  0.21549387734E-01  0.51680311202E-01  0.51100000000E-03 0.  1.
</event>
<event>
 8    1  0.1150863E+005  0.1043930E+01  0.7957747E-01            NaN
         13   -1    0    0    0    0  0.00000000000E+00  0.00000000000E+00  0.74505805969E-08  0.10566000000E+00  0.10566000000E+00 0.  1.
     999900   -1    0    0    0    0 -0.00000000000E+00 -0.00000000000E+00 -0.74505805969E-08  0.93827000000E+00  0.93827000000E+00 0.  1.
     999902    2    1    2    0    0 -0.75259722925E-02 -0.13066971157E-01 -0.17259594228E-01  0.10210110212E+01  0.10207537538E+01 0.  0.
     999903    2    3    3    0    0  0.29504076719E-01  0.12039645975E+00  0.29543980658E-01  0.12894920358E+00  0.19729476604E-01 0.  0.
         14    1    1    2    0    0  0.75259722925E-02  0.13066971157E-01  0.17259594228E-01  0.22918978753E-01  0.00000000000E+00 0. -1.
     999901    1    3    3    0    0 -0.37030049011E-01 -0.13346343091E+00 -0.46803574887E-01  0.89206181767E+00  0.88000000000E+00 0. -1.
        -11    1    4    4    0    0 -0.29125998112E-02  0.77289481127E-02  0.22175678723E-02  0.85672985740E-02  0.51100000000E-03 0. -1.
         11    1    4    4    0    0  0.32416676530E-01  0.11266751164E+00  0.27326412786E-01  0.12038190500E+00  0.51100000000E-03 0.  1.
</event>
<event>
 8    1  0.1150863E+005  0.1043930E+01  0.7957747E-01            NaN
         13   -1    0    0    0    0  0.00000000000E+00  0.00000000000E+00  0.74505805969E-08  0.10566000000E+00  0.10566000000E+00 0. -1.
     999900   -1    0    0    0    0 -0.00000000000E+00 -0.00000000000E+00 -0.74505805969E-08  0.93827000000E+00  0.93827000000E+00 0.  1.
     999902    2    1    2    0    0 -0.10917753488E-01  0.72465992957E-02  0.18397527870E-01  0.10213428449E+01  0.10210930552E+01 0.  0.
     999903    2    3    3    0    0  0.72079673759E-01 -0.32526506682E-01  0.10444058032E+00  0.13236934714E+00  0.18983051349E-01 0.  0.
         14    1    1    2    0    0  0.10917753488E-01 -0.72465992957E-02 -0.18397527870E-01  0.22587155074E-01  0.00000000000E+00 0.  1.
     999901    1    3    3    0    0 -0.82997427247E-01  0.39773105977E-01 -0.86043052453E-01  0.88897349778E+00  0.88000000000E+00 0.  1.
        -11    1    4    4    0    0  0.23019798732E-01 -0.16812739128E-01  0.26388606216E-01  0.38848410388E-01  0.51100000000E-03 0.  1.
         11    1    4    4    0    0  0.49059875027E-01 -0.15713767554E-01  0.78051974107E-01  0.93520936754E-01  0.51100000000E-03 0. -1.
</event>
<event>
 8    1  0.1150863E+005  0.1043930E+01  0.7957747E-01            NaN
         13   -1    0    0    0    0  0.00000000000E+00  0.00000000000E+00  0.74505805969E-08  0.10566000000E+00  0.10566000000E+00 0.  1.
     999900   -1    0    0    0    0 -0.00000000000E+00 -0.00000000000E+00 -0.74505805969E-08  0.93827000000E+00  0.93827000000E+00 0.  1.
     999902    2    1    2    0    0 -0.18886237641E-01  0.33527405271E-02  0.12970542451E-01  0.10207747455E+01  0.10205120848E+01 0.  0.
     999903    2    3    3    0    0  0.11853755313E+00  0.40051052964E-01  0.26105993320E-01  0.12925659956E+00  0.19248566101E-01 0.  0.
         14    1    1    2    0    0  0.18886237641E-01 -0.33527405271E-02 -0.12970542451E-01  0.23155254539E-01  0.00000000000E+00 0. -1.
     999901    1    3    3    0    0 -0.13742379077E+00 -0.36698312436E-01 -0.13135450869E-01  0.89151814590E+00  0.88000000000E+00 0. -1.
        -11    1    4    4    0    0  0.69445088182E-01  0.27190071907E-01  0.24422403170E-01  0.78476972295E-01  0.51100000000E-03 0. -1.
         11    1    4    4    0    0  0.49092464946E-01  0.12860981056E-01  0.16835901503E-02  0.50779627263E-01  0.51100000000E-03 0.  1.
</event>
<event>
 8    1  0.1150863E+005  0.1043930E+01  0.7957747E-01            NaN
         13   -1    0    0    0    0  0.00000000000E+00  0.00000000000E+00  0.74505805969E-08  0.10566000000E+00  0.10566000000E+00 0.  1.
     999900   -1    0    0    0    0 -0.00000000000E+00 -0.00000000000E+00 -0.74505805969E-08  0.93827000000E+00  0.93827000000E+00 0.  1.
     999902    2    1    2    0    0 -0.33197612895E-02 -0.13082690185E-01  0.20969396077E-01  0.10189922140E+01  0.10186870172E+01 0.  0.
     999903    2    3    3    0    0  0.54185771056E-01  0.59077572132E-01  0.10121573987E+00  0.13053655087E+00  0.19206972733E-01 0.  0.
         14    1    1    2    0    0  0.33197612895E-02  0.13082690185E-01 -0.20969396077E-01  0.24937785975E-01  0.00000000000E+00 0. -1.
     999901    1    3    3    0    0 -0.57505532346E-01 -0.72160262316E-01 -0.80246343788E-01  0.88845566316E+00  0.88000000000E+00 0.  1.
        -11    1    4    4    0    0  0.32687516191E-01  0.31338502961E-01  0.71055603351E-01  0.84259927434E-01  0.51100000000E-03 0. -1.
         11    1    4    4    0    0  0.21498254865E-01  0.27739069171E-01  0.30160136514E-01  0.46276623432E-01  0.51100000000E-03 0.  1.
</event>
<event>
 8    1  0.1150863E+005  0.1043930E+01  0.7957747E-01            NaN
         13   -1    0    0    0    0  0.00000000000E+00  0.00000000000E+00  0.74505805969E-08  0.10566000000E+00  0.10566000000E+00 0. -1.
     999900   -1    0    0    0    0 -0.00000000000E+00 -0.00000000000E+00 -0.74505805969E-08  0.93827000000E+00  0.93827000000E+00 0. -1.
     999902    2    1    2    0    0 -0.12847175116E-01 -0.19515232722E-01 -0.58711020445E-02  0.10198392537E+01  0.10195546770E+01 0.  0.
     999903    2    3    3    0    0  0.93693502130E-01 -0.43145700526E-01  0.75431035346E-01  0.12937906233E+00  0.20225648608E-01 0.  0.
         14    1    1    2    0    0  0.12847175116E-01  0.19515232722E-01  0.58711020445E-02  0.24090746271E-01  0.00000000000E+00 0.  1.
     999901    1    3    3    0    0 -0.10654067725E+00  0.23630467804E-01 -0.81302137390E-01  0.89046019140E+00  0.88000000000E+00 0. -1.
        -11    1    4    4    0    0  0.49678903627E-01 -0.29149878985E-01  0.31585035672E-01  0.65693108541E-01  0.51100000000E-03 0. -1.
         11    1    4    4    0    0  0.44014598503E-01 -0.13995821541E-01  0.43845999674E-01  0.63685953792E-01  0.51100000000E-03 0.  1.
</event>
<event>
 8    1  0.1150863E+005  0.1043930E+01  0.7957747E-01            NaN
         13   -1    0    0    0    0  0.00000000000E+00  0.00000000000E+00  0.74505805969E-08  0.10566000000E+00  0.10566000000E+00 0. -1.
     999900   -1    0    0    0    0 -0.00000000000E+00 -0.00000000000E+00 -0.74505805969E-08  0.93827000000E+00  0.93827000000E+00 0. -1.
     999902    2    1    2    0    0  0.22191602508E-01  0.21172990324E-02  0.14568842021E-02  0.10215900652E+01  0.10213457733E+01 0.  0.
     999903    2    3    3    0    0  0.87548183790E-01 -0.51891792851E-01  0.84666865405E-01  0.13360787745E+00  0.18031754440E-01 0.  0.
         14    1    1    2    0    0 -0.22191602508E-01 -0.21172990324E-02 -0.14568842021E-02  0.22339934840E-01  0.00000000000E+00 0.  1.
     999901    1    3    3    0    0 -0.65356581281E-01  0.54009091884E-01 -0.83209981203E-01  0.88798218771E+00  0.88000000000E+00 0. -1.
        -11    1    4    4    0    0  0.10698929149E-01 -0.11923525698E-01  0.79243669542E-02  0.17879996158E-01  0.51100000000E-03 0.  1.
         11    1    4    4    0    0  0.76849254641E-01 -0.39968267154E-01  0.76742498451E-01  0.11572788129E+00  0.51100000000E-03 0. -1.
</event>
<event>
 8    1  0.1150863E+005  0.1043930E+01  0.7957747E-01            NaN
         13   -1    0    0    0    0  0.00000000000E+00  0.00000000000E+00  0.74505805969E-08  0.10566000000E+00  0.10566000000E+00 0. -1.
     999900   -1    0    0    0    0 -0.00000000000E+00 -0.00000000000E+00 -0.74505805969E-08  0.93827000000E+00  0.93827000000E+00 0.  1.
     999902    2    1    2    0    0 -0.16082873280E-01  0.72644536990E-02  0.11934501467E-01  0.10226259294E+01  0.10224039945E+01 0.  0.
     999903    2    3    3    0    0  0.76493885311E-01  0.17618341358E-01 -0.10245380961E+00  0.13034663176E+00  0.18213754816E-01 0.  0.
         14    1    1    2    0    0  0.16082873280E-01 -0.72644536990E-02 -0.11934501467E-01  0.21304070638E-01  0.00000000000E+00 0.  1.
     999901    1    3    3    0    0 -0.92576758591E-01 -0.10353887659E-01  0.11438831108E+00  0.89227929760E+00  0.88000000000E+00 0. -1.
        -11    1    4    4    0    0  0.38561558697E-01  0.15025619967E-01 -0.64386238782E-01  0.76541569947E-01  0.51100000000E-03 0. -1.
         11    1    4    4    0    0  0.37932326614E-01  0.25927213906E-02 -0.38067570831E-01  0.53805061811E-01  0.51100000000E-03 0.  1.
</event>
<event>
 8    1  0.1150863E+005  0.1043930E+01  0.7957747E-01            NaN
         13   -1    0    0    0    0  0.00000000000E+00  0.00000000000E+00  0.74505805969E-08  0.10566000000E+00  0.10566000000E+00 0. -1.
     999900   -1    0    0    0    0 -0.00000000000E+00 -0.00000000000E+00 -0.74505805969E-08  0.93827000000E+00  0.93827000000E+00 0.  1.
     999902    2    1    2    0    0 -0.69025576550E-02 -0.22202118248E-01 -0.30890856686E-02  0.10204753244E+01  0.10202057469E+01 0.  0.
     999903    2    3    3    0    0 -0.88483493192E-01 -0.85875597353E-01 -0.43995045608E-01  0.13346739967E+00  0.25962202313E-01 0.  0.
         14    1    1    2    0    0  0.69025576550E-02  0.22202118248E-01  0.30890856686E-02  0.23454675592E-01  0.00000000000E+00 0. -1.
     999901    1    3    3    0    0  0.81580935537E-01  0.63673479106E-01  0.40905959939E-01  0.88700792474E+00  0.88000000000E+00 0.  1.
        -11    1    4    4    0    0 -0.37629680785E-01 -0.27811045248E-01 -0.28344871600E-01  0.54709596789E-01  0.51100000000E-03 0. -1.
         11    1    4    4    0    0 -0.50853812407E-01 -0.58064552106E-01 -0.15650174008E-01  0.78757802884E-01  0.51100000000E-03 0.  1.
</event>
<event>
 8    1  0.1150863E+005  0.1043930E+01  0.7957747E-01            NaN
         13   -1    0    0    0    0  0.00000000000E+00  0.00000000000E+00  0.74505805969E-08  0.10566000000E+00  0.10566000000E+00 0. -1.
     999900   -1    0    0    0    0 -0.00000000000E+00 -0.00000000000E+00 -0.74505805969E-08  0.93827000000E+00  0.93827000000E+00 0. -1.
     999902    2    1    2    0    0 -0.25230568684E-02  0.15972467589E-01  0.18311488287E-01  0.10195005886E+01  0.10192078562E+01 0.  0.
     999903    2    3    3    0    0 -0.11449203275E+00  0.56819248251E-01  0.24091117553E-01  0.13144714701E+00  0.19003104391E-01 0.  0.
         14    1    1    2    0    0  0.25230568684E-02 -0.15972467589E-01 -0.18311488287E-01  0.24429411375E-01  0.00000000000E+00 0. -1.
     999901    1    3    3    0    0  0.11196897588E+00 -0.40846780662E-01 -0.57796292659E-02  0.88805344162E+00  0.88000000000E+00 0. -1.
        -11    1    4    4    0    0 -0.77272051370E-01  0.44605857499E-01  0.23499713453E-01  0.92266733439E-01  0.51100000000E-03 0.  1.
         11    1    4    4    0    0 -0.37219981382E-01  0.12213390752E-01  0.59140409998E-03  0.39180413571E-01  0.51100000000E-03 0. -1.
</event>
<event>
 8    1  0.1150863E+005  0.1043930E+01  0.7957747E-01            NaN
         13   -1    0    0    0    0  0.00000000000E+00  0.00000000000E+00  0.74505805969E-08  0.10566000000E+00  0.10566000000E+00 0.  1.
     999900   -1    0    0    0    0 -0.00000000000E+00 -0.00000000000E+00 -0.74505805969E-08  0.93827000000E+00  0.93827000000E+00 0. -1.
     999902    2    1    2    0    0  0.40680134738E-02 -0.13667758136E-01 -0.18123565757E-01  0.10208687775E+01  0.10206082701E+01 0.  0.
     999903    2    3    3    0    0 -0.10240255846E+00 -0.34269052024E-01  0.69298540356E-01  0.12991253807E+00  0.20355047199E-01 0.  0.
         14    1    1    2    0    0 -0.40680134738E-02  0.13667758136E-01  0.18123565757E-01  0.23061222471E-01  0.00000000000E+00 0.  1.
     999901    1    3    3    0    0  0.10647057193E+00  0.20601293887E-01 -0.87422106113E-01  0.89095623946E+00  0.88000000000E+00 0. -1.
        -11    1    4    4    0    0 -0.23559485978E-01 -0.15152060314E-02  0.22175884307E-01  0.32394076536E-01  0.51100000000E-03 0. -1.
         11    1    4    4    0    0 -0.78843072480E-01 -0.32753845992E-01  0.47122656049E-01  0.97518461532E-01  0.51100000000E-03 0.  1.
</event>
<event>
 8    1  0.1150863E+005  0.1043930E+01  0.7957747E-01            NaN
         13   -1    0    0    0    0  0.00000000000E+00  0.00000000000E+00  0.74505805969E-08  0.10566000000E+00  0.10566000000E+00 0.  1.
     999900   -1    0    0    0    0 -0.00000000000E+00 -0.00000000000E+00 -0.74505805969E-08  0.93827000000E+00  0.93827000000E+00 0. -1.
     999902    2    1    2    0    0  0.11703401769E-02  0.23357764699E-01  0.45520918300E-02  0.10201040392E+01  0.10198257569E+01 0.  0.
     999903    2    3    3    0    0 -0.19082478071E-01  0.12731842564E+00 -0.28013275536E-01  0.13315505599E+00  0.19271814960E-01 0.  0.
         14    1    1    2    0    0 -0.11703401769E-02 -0.23357764699E-01 -0.45520918300E-02  0.23825960797E-01  0.00000000000E+00 0. -1.
     999901    1    3    3    0    0  0.20252818248E-01 -0.10396066094E+00  0.32565367366E-01  0.88694898321E+00  0.88000000000E+00 0.  1.
        -11    1    4    4    0    0 -0.10603336155E-02  0.20268979306E-01 -0.11544735452E-01  0.23355895768E-01  0.51100000000E-03 0.  1.
         11    1    4    4    0    0 -0.18022144456E-01  0.10704944634E+00 -0.16468540084E-01  0.10979916022E+00  0.51100000000E-03 0. -1.
</event>
<event>
 8    1  0.1150863E+005  0.1043930E+01  0.7957747E-01            NaN
         13   -1    0    0    0    0  0.00000000000E+00  0.00000000000E+00  0.74505805969E-08  0.10566000000E+00  0.10566000000E+00 0.  1.
     999900   -1    0    0    0    0 -0.00000000000E+00 -0.00000000000E+00 -0.74505805969E-08  0.93827000000E+00  0.93827000000E+00 0. -1.
     999902    2    1    2    0    0  0.15713452013E-01 -0.84265970637E-02  0.85239709520E-02  0.10241669488E+01  0.10239762501E+01 0.  0.
     999903    2    3    3    0    0 -0.41481731051E-01 -0.28330760301E-01  0.12333445815E+00  0.13464521626E+00  0.19864030374E-01 0.  0.
         14    1    1    2    0    0 -0.15713452013E-01  0.84265970637E-02 -0.85239709520E-02  0.19763051208E-01  0.00000000000E+00 0. -1.
     999901    1    3    3    0    0  0.57195183064E-01  0.19904163237E-01 -0.11481048720E+00  0.88952173253E+00  0.88000000000E+00 0. -1.
        -11    1    4    4    0    0 -0.28492853158E-02 -0.14598704137E-02  0.29429557936E-01  0.29607594461E-01  0.51100000000E-03 0.  1.
         11    1    4    4    0    0 -0.38632445735E-01 -0.26870889887E-01  0.93904900218E-01  0.10503762180E+00  0.51100000000E-03 0. -1.
</event>
<event>
 8    1  0.1150863E+005  0.1043930E+01  0.7957747E-01            NaN
         13   -1    0    0    0    0  0.00000000000E+00  0.00000000000E+00  0.74505805969E-08  0.10566000000E+00  0.10566000000E+00 0.  1.
     999900   -1    0    0    0    0 -0.00000000000E+00 -0.00000000000E+00 -0.74505805969E-08  0.93827000000E+00  0.93827000000E+00 0.  1.
     999902    2    1    2    0    0  0.28611416064E-02  0.68507154060E-02  0.20466214511E-01  0.10221588179E+01  0.10219269371E+01 0.  0.
     999903    2    3    3    0    0 -0.10705804702E+00 -0.71571786200E-01 -0.88782910573E-02  0.13137634346E+00  0.24433042364E-01 0.  0.
         14    1    1    2    0    0 -0.28611416064E-02 -0.68507154060E-02 -0.20466214511E-01  0.21771182083E-01  0.00000000000E+00 0. -1.
     999901    1    3    3    0    0  0.10991918862E+00  0.78422501606E-01  0.29344505568E-01  0.89078247445E+00  0.88000000000E+00 0. -1.
        -11    1    4    4    0    0 -0.42516864206E-01 -0.20374251336E-01  0.64208587930E-02  0.47584476545E-01  0.51100000000E-03 0.  1.
         11    1    4    4    0    0 -0.64541182811E-01 -0.51197534864E-01 -0.15299149850E-01  0.83791866920E-01  0.51100000000E-03 0. -1.
</event>
<event>
 8    1  0.1150863E+005  0.1043930E+01  0.7957747E-01            NaN
         13   -1    0    0    0    0  0.00000000000E+00  0.00000000000E+00  0.74505805969E-08  0.10566000000E+00  0.10566000000E+00 0. -1.
     999900   -1    0    0    0    0 -0.00000000000E+00 -0.00000000000E+00 -0.74505805969E-08  0.93827000000E+00  0.93827000000E+00 0. -1.
     999902    2    1    2    0    0  0.31700989852E-03 -0.26013694699E-02 -0.23705477887E-01  0.10200801090E+01  0.10198012608E+01 0.  0.
     999903    2    3    3    0    0 -0.22356991636E-01  0.11551632689E+00 -0.54683500790E-01  0.13135881499E+00  0.20518191066E-01 0.  0.
         14    1    1    2    0    0 -0.31700989852E-03  0.26013694699E-02  0.23705477887E-01  0.23849890990E-01  0.00000000000E+00 0. -1.
     999901    1    3    3    0    0  0.22674001535E-01 -0.11811769636E+00  0.30978022903E-01  0.88872129402E+00  0.88000000000E+00 0. -1.
        -11    1    4    4    0    0 -0.26043030041E-01  0.10728819321E+00 -0.50509122991E-01  0.12141016614E+00  0.51100000000E-03 0. -1.
         11    1    4    4    0    0  0.36860384052E-02  0.82281336767E-02 -0.41743777987E-02  0.99486488496E-02  0.51100000000E-03 0.  1.
</event>
<event>
 8    1  0.1150863E+005  0.1043930E+01  0.7957747E-01            NaN
         13   -1    0    0    0    0  0.00000000000E+00  0.00000000000E+00  0.74505805969E-08  0.10566000000E+00  0.10566000000E+00 0. -1.
     999900   -1    0    0    0    0 -0.00000000000E+00 -0.00000000000E+00 -0.74505805969E-08  0.93827000000E+00  0.93827000000E+00 0. -1.
     999902    2    1    2    0    0 -0.21160867679E-01  0.33224073866E-02 -0.93614725816E-02  0.10205535614E+01  0.10202858001E+01 0.  0.
     999903    2    3    3    0    0 -0.22264808556E-01 -0.10369215400E+00  0.73170490945E-01  0.13023628087E+00  0.18967962728E-01 0.  0.
         14    1    1    2    0    0  0.21160867679E-01 -0.33224073866E-02  0.93614725816E-02  0.23376438580E-01  0.00000000000E+00 0. -1.
     999901    1    3    3    0    0  0.11039408764E-02  0.10701456139E+00 -0.82531963526E-01  0.89031728055E+00  0.88000000000E+00 0. -1.
        -11    1    4    4    0    0 -0.20900148440E-01 -0.64051008103E-01  0.38803406210E-01  0.77751612834E-01  0.51100000000E-03 0. -1.
         11    1    4    4    0    0 -0.13646601161E-02 -0.39641145896E-01  0.34367084735E-01  0.52484668041E-01  0.51100000000E-03 0.  1.
</event>
<event>
 8    1  0.1150863E+005  0.1043930E+01  0.7957747E-01            NaN
         13   -1    0    0    0    0  0.00000000000E+00  0.00000000000E+00  0.74505805969E-08  0.10566000000E+00  0.10566000000E+00 0.  1.
     999900   -1    0    0    0    0 -0.00000000000E+00 -0.00000000000E+00 -0.74505805969E-08  0.93827000000E+00  0.93827000000E+00 0.  1.
     999902    2    1    2    0    0 -0.11563850067E-01 -0.97208660165E-02 -0.18868428640E-01  0.10197590368E+01  0.10194725389E+01 0.  0.
     999903    2    3    3    0    0  0.42444041861E-01 -0.95242476420E-01 -0.78336079369E-01  0.13197122443E+00  0.20180107622E-01 0.  0.
         14    1    1    2    0    0  0.11563850067E-01  0.97208660165E-02  0.18868428640E-01  0.24170963237E-01  0.00000000000E+00 0.  1.
     999901    1    3    3    0    0 -0.54007891928E-01  0.85521610403E-01  0.59467650729E-01  0.88778781233E+00  0.88000000000E+00 0. -1.
        -11    1    4    4    0    0  0.19621616907E-01 -0.22944650477E-01 -0.18758831234E-01  0.35547428962E-01  0.51100000000E-03 0. -1.
         11    1    4    4    0    0  0.22822424954E-01 -0.72297825943E-01 -0.59577248135E-01  0.96423795471E-01  0.51100000000E-03 0.  1.
</event>
<event>
 8    1  0.1150863E+005  0.1043930E+01  0.7957747E-01            NaN
         13   -1    0    0    0    0  0.00000000000E+00  0.00000000000E+00  0.74505805969E-08  0.10566000000E+00  0.10566000000E+00 0. -1.
     999900   -1    0    0    0    0 -0.00000000000E+00 -0.00000000000E+00 -0.74505805969E-08  0.93827000000E+00  0.93827000000E+00 0.  1.
     999902    2    1    2    0    0 -0.12677594156E-01  0.13915751487E-01 -0.15641859019E-01  0.10194547618E+01  0.10191609166E+01 0.  0.
     999903    2    3    3    0    0  0.13419267123E-01  0.13314299261E-01  0.12484244532E+00  0.12792952506E+00  0.20566475955E-01 0.  0.
         14    1    1    2    0    0  0.12677594156E-01 -0.13915751487E-01  0.15641859019E-01  0.24475238234E-01  0.00000000000E+00 0. -1.
     999901    1    3    3    0    0 -0.26096861279E-01  0.60145222625E-03 -0.14048430434E+00  0.89152523670E+00  0.88000000000E+00 0.  1.
        -11    1    4    4    0    0 -0.24629928734E-02  0.50965717343E-02  0.70273928217E-01  0.70503386340E-01  0.51100000000E-03 0. -1.
         11    1    4    4    0    0  0.15882259996E-01  0.82177275265E-02  0.54568517107E-01  0.57426138722E-01  0.51100000000E-03 0.  1.
</event>
<event>
 8    1  0.1150863E+005  0.1043930E+01  0.7957747E-01            NaN
         13   -1    0    0    0    0  0.00000000000E+00  0.00000000000E+00  0.74505805969E-08  0.10566000000E+00  0.10566000000E+00 0.  1.
     999900   -1    0    0    0    0 -0.00000000000E+00 -0.00000000000E+00 -0.74505805969E-08  0.93827000000E+00  0.93827000000E+00 0.  1.
     999902    2    1    2    0    0 -0.92668252053E-03 -0.97711974002E-02  0.21278125051E-01  0.10204972527E+01  0.10202281849E+01 0.  0.
     999903    2    3    3    0    0  0.45611436800E-01 -0.97115541883E-01 -0.68901823063E-01  0.13036959104E+00  0.27146591005E-01 0.  0.
         14    1    1    2    0    0  0.92668252053E-03  0.97711974002E-02 -0.21278125051E-01  0.23432747274E-01  0.00000000000E+00 0. -1.
     999901    1    3    3    0    0 -0.46538119321E-01  0.87344344483E-01  0.90179948114E-01  0.89012766169E+00  0.88000000000E+00 0. -1.
        -11    1    4    4    0    0  0.10715425194E-01 -0.31088607907E-01 -0.76116357085E-02  0.33756777066E-01  0.51100000000E-03 0. -1.
         11    1    4    4    0    0  0.34896011606E-01 -0.66026933976E-01 -0.61290187355E-01  0.96612813970E-01  0.51100000000E-03 0.  1.
</event>
<event>
 8    1  0.1150863E+005  0.1043930E+01  0.7957747E-01            NaN
         13   -1    0    0    0    0  0.00000000000E+00  0.00000000000E+00  0.74505805969E-08  0.10566000000E+00  0.10566000000E+00 0. -1.
     999900   -1    0    0    0    0 -0.00000000000E+00 -0.00000000000E+00 -0.74505805969E-08  0.93827000000E+00  0.93827000000E+00 0. -1.
     999902    2    1    2    0    0 -0.18102455559E-02 -0.23440188920E-01 -0.49183424300E-02  0.10199110588E+01  0.10196281961E+01 0.  0.
     999903    2    3    3    0    0  0.12697875678E+00  0.95722891216E-03 -0.20397979189E-01  0.13006755552E+00  0.19415727731E-01 0.  0.
         14    1    1    2    0    0  0.18102455559E-02  0.23440188920E-01  0.49183424300E-02  0.24018941231E-01  0.00000000000E+00 0. -1.
     999901    1    3    3    0    0 -0.12878900234E+00 -0.24397417832E-01  0.15479636759E-01  0.88984350325E+00  0.88000000000E+00 0.  1.
        -11    1    4    4    0    0  0.62952631936E-01 -0.61781956400E-02 -0.17246224407E-01  0.65565977049E-01  0.51100000000E-03 0.  1.
         11    1    4    4    0    0  0.64026124845E-01  0.71354245521E-02 -0.31517547821E-02  0.64501578472E-01  0.51100000000E-03 0. -1.
</event>
<event>
 8    1  0.1150863E+005  0.1043930E+01  0.7957747E-01            NaN
         13   -1    0    0    0    0  0.00000000000E+00  0.00000000000E+00  0.74505805969E-08  0.10566000000E+00  0.10566000000E+00 0. -1.
     999900   -1    0    0    0    0 -0.00000000000E+00 -0.00000000000E+00 -0.74505805969E-08  0.93827000000E+00  0.93827000000E+00 0. -1.
     999902    2    1    2    0    0  0.10333090525E-01 -0.21947565819E-01 -0.18203016487E-03  0.10196709493E+01  0.10193823342E+01 0.  0.
     999903    2    3    3    0    0 -0.59188995987E-01 -0.11609922085E+00  0.23806764399E-02  0.13191849388E+00  0.20358169850E-01 0.  0.
         14    1    1    2    0    0 -0.10333090525E-01  0.21947565819E-01  0.18203016487E-03  0.24259050685E-01  0.00000000000E+00 0.  1.
     999901    1    3    3    0    0  0.69522086511E-01  0.94151655035E-01 -0.25627066048E-02  0.88775245543E+00  0.88000000000E+00 0.  1.
        -11    1    4    4    0    0 -0.35302594641E-01 -0.89084336738E-01  0.23434995807E-02  0.95854292297E-01  0.51100000000E-03 0.  1.
         11    1    4    4    0    0 -0.23886401345E-01 -0.27014884116E-01  0.37176859228E-04  0.36064201587E-01  0.51100000000E-03 0. -1.
</event>
<event>
 8    1  0.1150863E+005  0.1043930E+01  0.7957747E-01            NaN
         13   -1    0    0    0    0  0.00000000000E+00  0.00000000000E+00  0.74505805969E-08  0.10566000000E+00  0.10566000000E+00 0. -1.
     999900   -1    0    0    0    0 -0.00000000000E+00 -0.00000000000E+00 -0.74505805969E-08  0.93827000000E+00  0.93827000000E+00 0.  1.
     999902    2    1    2    0    0  0.17439453616E-01  0.11887161903E-01  0.11462479287E-01  0.10199127647E+01  0.10196299427E+01 0.  0.
     999903    2    3    3    0    0  0.79487094565E-01 -0.78480538045E-01 -0.63447898322E-01  0.12995332988E+00  0.19617316077E-01 0.  0.
         14    1    1    2    0    0 -0.17439453616E-01 -0.11887161903E-01 -0.11462479287E-01  0.24017235310E-01  0.00000000000E+00 0.  1.
     999901    1    3    3    0    0 -0.62047640949E-01  0.90367699948E-01  0.74910377609E-01  0.88995943481E+00  0.88000000000E+00 0.  1.
        -11    1    4    4    0    0  0.14934802184E-01 -0.20315548183E-01 -0.64406799781E-02  0.26029085536E-01  0.51100000000E-03 0. -1.
         11    1    4    4    0    0  0.64552292381E-01 -0.58164989862E-01 -0.57007218344E-01  0.10392424434E+00  0.51100000000E-03 0.  1.
</event>
<event>
 8    1  0.1150863E+005  0.1043930E+01  0.7957747E-01            NaN
         13   -1    0    0    0    0  0.00000000000E+00  0.00000000000E+00  0.74505805969E-08  0.10566000000E+00  0.10566000000E+00 0.  1.
     999900   -1    0    0    0    0 -0.00000000000E+00 -0.00000000000E+00 -0.74505805969E-08  0.93827000000E+00  0.93827000000E+00 0.  1.
     999902    2    1    2    0    0  0.12669287200E-01  0.15330911436E-01 -0.11370034971E-01  0.10210209324E+01  0.10207638899E+01 0.  0.
     999903    2    3    3    0    0 -0.36789384863E-01 -0.55481940683E-01  0.10807176183E+00  0.12876146167E+00  0.21640326374E-01 0.  0.
         14    1    1    2    0    0 -0.12669287200E-01 -0.15330911436E-01  0.11370034971E-01  0.22909067613E-01  0.00000000000E+00 0.  1.
     999901    1    3    3    0    0  0.49458672063E-01  0.70812852119E-01 -0.11944179680E+00  0.89225947072E+00  0.88000000000E+00 0.  1.
        -11    1    4    4    0    0 -0.14693786465E-01 -0.41028696794E-01  0.66307155207E-01  0.79348353946E-01  0.51100000000E-03 0.  1.
         11    1    4    4    0    0 -0.22095598398E-01 -0.14453243889E-01  0.41764606621E-01  0.49413107721E-01  0.51100000000E-03 0. -1.
</event>
<event>
 8    1  0.1150863E+005  0.1043930E+01  0.7957747E-01            NaN
         13   -1    0    0    0    0  0.00000000000E+00  0.00000000000E+00  0.74505805969E-08  0.10566000000E+00  0.10566000000E+00 0. -1.
     999900   -1    0    0    0    0 -0.00000000000E+00 -0.00000000000E+00 -0.74505805969E-08  0.93827000000E+00  0.93827000000E+00 0. -1.
     999902    2    1    2    0    0 -0.95680875564E-03  0.22012001396E-01 -0.92563140162E-02  0.10200318194E+01  0.10197518274E+01 0.  0.
     999903    2    3    3    0    0 -0.11584771795E+00 -0.32383555365E-01  0.43238646110E-01  0.12934976698E+00  0.19808919373E-01 0.  0.
         14    1    1    2    0    0  0.95680875564E-03 -0.22012001396E-01  0.92563140162E-02  0.23898180634E-01  0.00000000000E+00 0. -1.
     999901    1    3    3    0    0  0.11489090920E+00  0.54395556761E-01 -0.52494960126E-01  0.89068205239E+00  0.88000000000E+00 0. -1.
        -11    1    4    4    0    0 -0.87816260899E-01 -0.32910710137E-01  0.35312622156E-01  0.10021004403E+00  0.51100000000E-03 0.  1.
         11    1    4    4    0    0 -0.28031457052E-01  0.52715477247E-03  0.79260239537E-02  0.29139722945E-01  0.51100000000E-03 0. -1.
</event>
<event>
 8    1  0.1150863E+005  0.1043930E+01  0.7957747E-01            NaN
         13   -1    0    0    0    0  0.00000000000E+00  0.00000000000E+00  0.74505805969E-08  0.10566000000E+00  0.10566000000E+00 0.  1.
     999900   -1    0    0    0    0 -0.00000000000E+00 -0.00000000000E+00 -0.74505805969E-08  0.93827000000E+00  0.93827000000E+00 0. -1.
     999902    2    1    2    0    0 -0.21942720959E-01  0.10012936912E-01  0.46414067077E-03  0.10198062081E+01  0.10195208408E+01 0.  0.
     999903    2    3    3    0    0  0.23370261153E-01  0.72558308414E-01 -0.10371244803E+00  0.13030187901E+00  0.20283751408E-01 0.  0.
         14    1    1    2    0    0  0.21942720959E-01 -0.10012936912E-01 -0.46414067077E-03  0.24123791892E-01  0.00000000000E+00 0.  1.
     999901    1    3    3    0    0 -0.45312982112E-01 -0.62545371502E-01  0.10417658870E+00  0.88950432909E+00  0.88000000000E+00 0.  1.
        -11    1    4    4    0    0  0.88535980888E-02  0.16481817170E-01 -0.13439799187E-01  0.23041827608E-01  0.51100000000E-03 0.  1.
         11    1    4    4    0    0  0.14516663064E-01  0.56076491243E-01 -0.90272648847E-01  0.10726005141E+00  0.51100000000E-03 0. -1.
</event>
<event>
 8    1  0.1150863E+005  0.1043930E+01  0.7957747E-01            NaN
         13   -1    0    0    0    0  0.00000000000E+00  0.00000000000E+00  0.74505805969E-08  0.10566000000E+00  0.10566000000E+00 0. -1.
     999900   -1    0    0    0    0 -0.00000000000E+00 -0.00000000000E+00 -0.74505805969E-08  0.93827000000E+00  0.93827000000E+00 0. -1.
     999902    2    1    2    0    0  0.41506886686E-02 -0.11247637959E-01 -0.20127896466E-01  0.10205020297E+01  0.10202330728E+01 0.  0.
     999903    2    3    3    0    0  0.94927456094E-01  0.65525306959E-01 -0.60076212482E-01  0.13160924960E+00  0.20175616479E-01 0.  0.
         14    1    1    2    0    0 -0.41506886686E-02  0.11247637959E-01  0.20127896466E-01  0.23427970297E-01  0.00000000000E+00 0. -1.
     999901    1    3    3    0    0 -0.90776767426E-01 -0.76772944918E-01  0.39948316016E-01  0.88889278011E+00  0.88000000000E+00 0. -1.
        -11    1    4    4    0    0  0.59986943589E-01  0.29391409298E-01 -0.35713090796E-01  0.75749417931E-01  0.51100000000E-03 0.  1.
         11    1    4    4    0    0  0.34940512505E-01  0.36133897661E-01 -0.24363121686E-01  0.55859831664E-01  0.51100000000E-03 0. -1.
</event>
<event>
 8    1  0.1150863E+005  0.1043930E+01  0.7957747E-01            NaN
         13   -1    0    0    0    0  0.00000000000E+00  0.00000000000E+00  0.74505805969E-08  0.10566000000E+00  0.10566000000E+00 0. -1.
     999900   -1    0    0    0    0 -0.00000000000E+00 -0.00000000000E+00 -0.74505805969E-08  0.93827000000E+00  0.93827000000E+00 0. -1.
     999902    2    1    2    0    0 -0.11707817498E-01  0.21228702936E-01 -0.12926219037E-02  0.10196524035E+01  0.10193633417E+01 0.  0.
     999903    2    3    3    0    0  0.11835349718E+00  0.48918796127E-01 -0.48495892397E-02  0.12965502216E+00  0.19654702866E-01 0.  0.
         14    1    1    2    0    0  0.11707817498E-01 -0.21228702936E-01  0.12926219037E-02  0.24277596468E-01  0.00000000000E+00 0. -1.
     999901    1    3    3    0    0 -0.13006131468E+00 -0.27690093191E-01  0.35569673360E-02  0.88999738137E+00  0.88000000000E+00 0.  1.
        -11    1    4    4    0    0  0.68702734598E-01  0.18202519689E-01 -0.89231149962E-04  0.71075076838E-01  0.51100000000E-03 0. -1.
         11    1    4    4    0    0  0.49650762585E-01  0.30716276437E-01 -0.47603580897E-02  0.58579945319E-01  0.51100000000E-03 0.  1.
</event>
<event>
 8    1  0.1150863E+005  0.1043930E+01  0.7957747E-01            NaN
         13   -1    0    0    0    0  0.00000000000E+00  0.00000000000E+00  0.74505805969E-08  0.10566000000E+00  0.10566000000E+00 0.  1.
     999900   -1    0    0    0    0 -0.00000000000E+00 -0.00000000000E+00 -0.74505805969E-08  0.93827000000E+00  0.93827000000E+00 0. -1.
     999902    2    1    2    0    0  0.15421698015E-01 -0.32884097043E-01 -0.80631012311E-02  0.10067250782E+01  0.10060373635E+01 0.  0.
     999903    2    3    3    0    0  0.19990843002E-01  0.11014753024E+00 -0.18498257596E-01  0.11510418563E+00  0.19356543952E-01 0.  0.
         14    1    1    2    0    0 -0.15421698015E-01  0.32884097043E-01  0.80631012311E-02  0.37204921845E-01  0.00000000000E+00 0.  1.
     999901    1    3    3    0    0 -0.45691449866E-02 -0.14303162729E+00  0.10435156365E-01  0.89162089252E+00  0.88000000000E+00 0.  1.
        -11    1    4    4    0    0  0.51953395041E-02  0.73322093421E-01 -0.16659058487E-01  0.75371787075E-01  0.51100000000E-03 0. -1.
         11    1    4    4    0    0  0.14795503498E-01  0.36825436823E-01 -0.18391991097E-02  0.39732398559E-01  0.51100000000E-03 0.  1.
</event>
<event>
 8    1  0.1150863E+005  0.1043930E+01  0.7957747E-01            NaN
         13   -1    0    0    0    0  0.00000000000E+00  0.00000000000E+00  0.74505805969E-08  0.10566000000E+00  0.10566000000E+00 0.  1.
     999900   -1    0    0    0    0 -0.00000000000E+00 -0.00000000000E+00 -0.74505805969E-08  0.93827000000E+00  0.93827000000E+00 0. -1.
     999902    2    1    2    0    0  0.22762676996E-01  0.82822308571E-02  0.10530131956E-01  0.10175175315E+01  0.10171746696E+01 0.  0.
     999903    2    3    3    0    0 -0.76751219976E-01 -0.96653636621E-02  0.98931889178E-01  0.12732653937E+00  0.20984754177E-01 0.  0.
         14    1    1    2    0    0 -0.22762676996E-01 -0.82822308571E-02 -0.10530131956E-01  0.26412468476E-01  0.00000000000E+00 0. -1.
     999901    1    3    3    0    0  0.99513896972E-01  0.17947594519E-01 -0.88401757222E-01  0.89019099216E+00  0.88000000000E+00 0. -1.
        -11    1    4    4    0    0 -0.47813353400E-01 -0.14444138975E-01  0.53017200793E-01  0.72841160170E-01  0.51100000000E-03 0.  1.
         11    1    4    4    0    0 -0.28937866577E-01  0.47787753134E-02  0.45914688386E-01  0.54485379195E-01  0.51100000000E-03 0. -1.
</event>
<event>
 8    1  0.1150863E+005  0.1043930E+01  0.7957747E-01            NaN
         13   -1    0    0    0    0  0.00000000000E+00  0.00000000000E+00  0.74505805969E-08  0.10566000000E+00  0.10566000000E+00 0.  1.
     999900   -1    0    0    0    0 -0.00000000000E+00 -0.00000000000E+00 -0.74505805969E-08  0.93827000000E+00  0.93827000000E+00 0. -1.
     999902    2    1    2    0    0  0.39591753563E-02  0.21436856520E-01 -0.84792235863E-02  0.10205395934E+01  0.10202715083E+01 0.  0.
     999903    2    3    3    0    0 -0.11947909647E+00  0.16638386153E-01  0.44947491109E-01  0.13030678898E+00  0.20186428888E-01 0.  0.
         14    1    1    2    0    0 -0.39591753563E-02 -0.21436856520E-01  0.84792235863E-02  0.23390406572E-01  0.00000000000E+00 0. -1.
     999901    1    3    3    0    0  0.12343827182E+00  0.47984703672E-02 -0.53426714695E-01  0.89023280445E+00  0.88000000000E+00 0. -1.
        -11    1    4    4    0    0 -0.11158560900E+00  0.20556696637E-01  0.41125501754E-01  0.12068758813E+00  0.51100000000E-03 0. -1.
         11    1    4    4    0    0 -0.78934874698E-02 -0.39183104838E-02  0.38219893553E-02  0.96192008564E-02  0.51100000000E-03 0.  1.
</event>
<event>
 8    1  0.1150863E+005  0.1043930E+01  0.7957747E-01            NaN
         13   -1    0    0    0    0  0.00000000000E+00  0.00000000000E+00  0.74505805969E-08  0.10566000000E+00  0.10566000000E+00 0.  1.
     999900   -1    0    0    0    0 -0.00000000000E+00 -0.00000000000E+00 -0.74505805969E-08  0.93827000000E+00  0.93827000000E+00 0.  1.
     999902    2    1    2    0    0 -0.19195993552E-01 -0.32516952718E-02 -0.13598202956E-01  0.10201819303E+01  0.10199054859E+01 0.  0.
     999903    2    3    3    0    0 -0.17275156166E-01 -0.96859490674E-01  0.82652137009E-01  0.12999642328E+00  0.19685079601E-01 0.  0.
         14    1    1    2    0    0  0.19195993552E-01  0.32516952718E-02  0.13598202956E-01  0.23748069694E-01  0.00000000000E+00 0.  1.
     999901    1    3    3    0    0 -0.19208373863E-02  0.93607795403E-01 -0.96250339965E-01  0.89018550703E+00  0.88000000000E+00 0.  1.
        -11    1    4    4    0    0 -0.19832944876E-02 -0.49811879905E-01  0.32278141245E-01  0.59391046126E-01  0.51100000000E-03 0. -1.
         11    1    4    4    0    0 -0.15291861678E-01 -0.47047610769E-01  0.50373995764E-01  0.70605377153E-01  0.51100000000E-03 0.  1.
</event>
<event>
 8    1  0.1150863E+005  0.1043930E+01  0.7957747E-01            NaN
         13   -1    0    0    0    0  0.00000000000E+00  0.00000000000E+00  0.74505805969E-08  0.10566000000E+00  0.10566000000E+00 0.  1.
     999900   -1    0    0    0    0 -0.00000000000E+00 -0.00000000000E+00 -0.74505805969E-08  0.93827000000E+00  0.93827000000E+00 0.  1.
     999902    2    1    2    0    0  0.33210232153E-02 -0.21217599440E-03  0.23581514122E-01  0.10201148363E+01  0.10198368091E+01 0.  0.
     999903    2    3    3    0    0 -0.10044842027E+00 -0.79444491468E-01  0.14903062235E-01  0.13044007958E+00  0.19778795128E-01 0.  0.
         14    1    1    2    0    0 -0.33210232153E-02  0.21217599440E-03 -0.23581514122E-01  0.23815163702E-01  0.00000000000E+00 0. -1.
     999901    1    3    3    0    0  0.10376944349E+00  0.79232315474E-01  0.86784518877E-02  0.88967475672E+00  0.88000000000E+00 0.  1.
        -11    1    4    4    0    0 -0.87764385909E-02 -0.13909824972E-01  0.55405784610E-02  0.17362840660E-01  0.51100000000E-03 0. -1.
         11    1    4    4    0    0 -0.91671981681E-01 -0.65534666496E-01  0.93624837737E-02  0.11307723892E+00  0.51100000000E-03 0.  1.
</event>
<event>
 8    1  0.1150863E+005  0.1043930E+01  0.7957747E-01            NaN
         13   -1    0    0    0    0  0.00000000000E+00  0.00000000000E+00  0.74505805969E-08  0.10566000000E+00  0.10566000000E+00 0.  1.
     999900   -1    0    0    0    0 -0.00000000000E+00 -0.00000000000E+00 -0.74505805969E-08  0.93827000000E+00  0.93827000000E+00 0. -1.
     999902    2    1    2    0    0  0.96723789889E-02 -0.98062044745E-02 -0.19071035464E-01  0.10204050993E+01  0.10201338861E+01 0.  0.
     999903    2    3    3    0    0 -0.23207158921E-01 -0.12677957973E+00  0.15797492560E-01  0.13137211405E+00  0.19935834967E-01 0.  0.
         14    1    1    2    0    0 -0.96723789889E-02  0.98062044745E-02  0.19071035464E-01  0.23524900747E-01  0.00000000000E+00 0.  1.
     999901    1    3    3    0    0  0.32879537910E-01  0.11697337526E+00 -0.34868528024E-01  0.88903298520E+00  0.88000000000E+00 0. -1.
        -11    1    4    4    0    0 -0.13882256359E-01 -0.57917409452E-01  0.16758708044E-01  0.61872924414E-01  0.51100000000E-03 0.  1.
         11    1    4    4    0    0 -0.93249025625E-02 -0.68862170282E-01 -0.96121548361E-03  0.69499189635E-01  0.51100000000E-03 0. -1.
</event>
<event>
 8    1  0.1150863E+005  0.1043930E+01  0.7957747E-01            NaN
         13   -1    0    0    0    0  0.00000000000E+00  0.00000000000E+00  0.74505805969E-08  0.10566000000E+00  0.10566000000E+00 0.  1.
     999900   -1    0    0    0    0 -0.00000000000E+00 -0.00000000000E+00 -0.74505805969E-08  0.93827000000E+00  0.93827000000E+00 0.  1.
     999902    2    1    2    0    0  0.10836575657E-01 -0.14140996185E-01  0.13068987705E-01  0.10218348063E+01  0.10215958955E+01 0.  0.
     999903    2    3    3    0    0 -0.12828047262E+00  0.13414940461E-01 -0.29225997525E-02  0.13033684576E+00  0.18528666743E-01 0.  0.
         14    1    1    2    0    0 -0.10836575657E-01  0.14140996185E-01 -0.13068987705E-01  0.22095193702E-01  0.00000000000E+00 0.  1.
     999901    1    3    3    0    0  0.13911704828E+00 -0.27555936646E-01  0.15991587458E-01  0.89149796053E+00  0.88000000000E+00 0. -1.
        -11    1    4    4    0    0 -0.94890207958E-01  0.17307425533E-02 -0.30776872954E-02  0.94957255206E-01  0.51100000000E-03 0. -1.
         11    1    4    4    0    0 -0.33390264663E-01  0.11684197908E-01  0.15508754287E-03  0.35379590559E-01  0.51100000000E-03 0.  1.
</event>
<event>
 8    1  0.1150863E+005  0.1043930E+01  0.7957747E-01            NaN
         13   -1    0    0    0    0  0.00000000000E+00  0.00000000000E+00  0.74505805969E-08  0.10566000000E+00  0.10566000000E+00 0.  1.
     999900   -1    0    0    0    0 -0.00000000000E+00 -0.00000000000E+00 -0.74505805969E-08  0.93827000000E+00  0.93827000000E+00 0.  1.
     999902    2    1    2    0    0  0.37678532944E-03  0.13414128565E-01  0.14051793689E-01  0.10244997731E+01  0.10243155038E+01 0.  0.
     999903    2    3    3    0    0 -0.13110300912E+00 -0.44922171954E-02  0.22137028997E-01  0.13451497287E+00  0.19901026599E-01 0.  0.
         14    1    1    2    0    0 -0.37678532944E-03 -0.13414128565E-01 -0.14051793689E-01  0.19430226921E-01  0.00000000000E+00 0. -1.
     999901    1    3    3    0    0  0.13147979445E+00  0.17906345760E-01 -0.80852353086E-02  0.88998480021E+00  0.88000000000E+00 0.  1.
        -11    1    4    4    0    0 -0.28120409457E-01 -0.38273516462E-03  0.13174644538E-01  0.31060204344E-01  0.51100000000E-03 0. -1.
         11    1    4    4    0    0 -0.10298259966E+00 -0.41094820307E-02  0.89623844594E-02  0.10345476853E+00  0.51100000000E-03 0.  1.
</event>
<event>
 8    1  0.1150863E+005  0.1043930E+01  0.7957747E-01            NaN
         13   -1    0    0    0    0  0.00000000000E+00  0.00000000000E+00  0.74505805969E-08  0.10566000000E+00  0.10566000000E+00 0.  1.
     999900   -1    0    0    0    0 -0.00000000000E+00 -0.00000000000E+00 -0.74505805969E-08  0.93827000000E+00  0.93827000000E+00 0.  1.
     999902    2    1    2    0    0 -0.23390495325E-01 -0.34195622585E-02  0.32607159422E-02  0.10200670382E+01  0.10197878806E+01 0.  0.
     999903    2    3    3    0    0 -0.41221386104E-01 -0.49665720288E-01 -0.11242071364E+00  0.13111324809E+00  0.19656564410E-01 0.  0.
         14    1    1    2    0    0  0.23390495325E-01  0.34195622585E-02 -0.32607159422E-02  0.23862961803E-01  0.00000000000E+00 0. -1.
     999901    1    3    3    0    0  0.17830890779E-01  0.46246158030E-01  0.11568142958E+00  0.88895379011E+00  0.88000000000E+00 0. -1.
        -11    1    4    4    0    0 -0.95152848231E-02 -0.61939184844E-02 -0.35238374023E-01  0.37025793661E-01  0.51100000000E-03 0.  1.
         11    1    4    4    0    0 -0.31706101281E-01 -0.43471801804E-01 -0.77182339619E-01  0.94087454427E-01  0.51100000000E-03 0. -1.
</event>
<event>
 8    1  0.1150863E+005  0.1043930E+01  0.7957747E-01            NaN
         13   -1    0    0    0    0  0.00000000000E+00  0.00000000000E+00  0.74505805969E-08  0.10566000000E+00  0.10566000000E+00 0. -1.
     999900   -1    0    0    0    0 -0.00000000000E+00 -0.00000000000E+00 -0.74505805969E-08  0.93827000000E+00  0.93827000000E+00 0.  1.
     999902    2    1    2    0    0 -0.84206630413E-02 -0.21896812839E-01  0.61501948900E-02  0.10196771058E+01  0.10193886390E+01 0.  0.
     999903    2    3    3    0    0 -0.83304461921E-01  0.86698379197E-01  0.43268001009E-01  0.12907156430E+00  0.18196331170E-01 0.  0.
         14    1    1    2    0    0  0.84206630413E-02  0.21896812839E-01 -0.61501948900E-02  0.24252894173E-01  0.00000000000E+00 0.  1.
     999901    1    3    3    0    0  0.74883798880E-01 -0.10859519204E+00 -0.37117806119E-01  0.89060554153E+00  0.88000000000E+00 0. -1.
        -11    1    4    4    0    0 -0.42816867396E-01  0.45730256375E-01  0.12926992837E-01  0.63968029096E-01  0.51100000000E-03 0.  1.
         11    1    4    4    0    0 -0.40487594526E-01  0.40968122822E-01  0.30341008172E-01  0.65103535203E-01  0.51100000000E-03 0. -1.
</event>
<event>
 8    1  0.1150863E+005  0.1043930E+01  0.7957747E-01            NaN
         13   -1    0    0    0    0  0.00000000000E+00  0.00000000000E+00  0.74505805969E-08  0.10566000000E+00  0.10566000000E+00 0. -1.
     999900   -1    0    0    0    0 -0.00000000000E+00 -0.00000000000E+00 -0.74505805969E-08  0.93827000000E+00  0.93827000000E+00 0. -1.
     999902    2    1    2    0    0 -0.15218564644E-01 -0.13781341184E-01  0.12064970259E-01  0.10201162732E+01  0.10198382800E+01 0.  0.
     999903    2    3    3    0    0  0.89503457702E-01 -0.75228428805E-01  0.56175376553E-01  0.13068489619E+00  0.15896028458E-01 0.  0.
         14    1    1    2    0    0  0.15218564644E-01  0.13781341184E-01 -0.12064970259E-01  0.23813726756E-01  0.00000000000E+00 0.  1.
     999901    1    3    3    0    0 -0.10472202235E+00  0.61447087621E-01 -0.44110406294E-01  0.88943137705E+00  0.88000000000E+00 0. -1.
        -11    1    4    4    0    0  0.29545599789E-01 -0.34295466000E-01  0.24519118692E-01  0.51483684381E-01  0.51100000000E-03 0.  1.
         11    1    4    4    0    0  0.59957857913E-01 -0.40932962805E-01  0.31656257861E-01  0.79201211811E-01  0.51100000000E-03 0. -1.
</event>
<event>
 8    1  0.1150863E+005  0.1043930E+01  0.7957747E-01            NaN
         13   -1    0    0    0    0  0.00000000000E+00  0.00000000000E+00  0.74505805969E-08  0.10566000000E+00  0.10566000000E+00 0. -1.
     999900   -1    0    0    0    0 -0.00000000000E+00 -0.00000000000E+00 -0.74505805969E-08  0.93827000000E+00  0.93827000000E+00 0. -1.
     999902    2    1    2    0    0  0.25424673901E-01  0.12391667195E-02  0.22496036848E-02  0.10183759339E+01  0.10180552698E+01 0.  0.
     999903    2    3    3    0    0 -0.42187526271E-01 -0.11882825307E+00  0.51709088986E-02  0.12764806922E+00  0.19166381407E-01 0.  0.
         14    1    1    2    0    0 -0.25424673901E-01 -0.12391667195E-02 -0.22496036848E-02  0.25554066093E-01  0.00000000000E+00 0.  1.
     999901    1    3    3    0    0  0.67612200172E-01  0.12006741979E+00 -0.29213052139E-02  0.89072786469E+00  0.88000000000E+00 0.  1.
        -11    1    4    4    0    0 -0.12140863704E-01 -0.50837562374E-01 -0.54679796484E-02  0.52554906926E-01  0.51100000000E-03 0. -1.
         11    1    4    4    0    0 -0.30046662567E-01 -0.67990690696E-01  0.10638888547E-01  0.75093162294E-01  0.51100000000E-03 0.  1.
</event>
<event>
 8    1  0.1150863E+005  0.1043930E+01  0.7957747E-01            NaN
         13   -1    0    0    0    0  0.00000000000E+00  0.00000000000E+00  0.74505805969E-08  0.10566000000E+00  0.10566000000E+00 0.  1.
     999900   -1    0    0    0    0 -0.00000000000E+00 -0.00000000000E+00 -0.74505805969E-08  0.93827000000E+00  0.93827000000E+00 0.  1.
     999902    2    1    2    0    0  0.56334943973E-02  0.22097604544E-01 -0.56506055061E-02  0.10204359640E+01  0.10201654703E+01 0.  0.
     999903    2    3    3    0    0 -0.10015053575E+00 -0.38652361124E-01 -0.70324292970E-01  0.12967027919E+00  0.18567183205E-01 0.  0.
         14    1    1    2    0    0 -0.56334943973E-02 -0.22097604544E-01  0.56506055061E-02  0.23494036015E-01  0.00000000000E+00 0.  1.
     999901    1    3    3    0    0  0.10578403014E+00  0.60749965668E-01  0.64673687464E-01  0.89076568480E+00  0.88000000000E+00 0. -1.
        -11    1    4    4    0    0 -0.23886243733E-01 -0.11986555988E-01 -0.27002395272E-01  0.37995008034E-01  0.51100000000E-03 0.  1.
         11    1    4    4    0    0 -0.76264292013E-01 -0.26665805136E-01 -0.43321897698E-01  0.91675271153E-01  0.51100000000E-03 0. -1.
</event>
<event>
 8    1  0.1150863E+005  0.1043930E+01  0.7957747E-01            NaN
         13   -1    0    0    0    0  0.00000000000E+00  0.00000000000E+00  0.74505805969E-08  0.10566000000E+00  0.10566000000E+00 0.  1.
     999900   -1    0    0    0    0 -0.00000000000E+00 -0.00000000000E+00 -0.74505805969E-08  0.93827000000E+00  0.93827000000E+00 0.  1.
     999902    2    1    2    0    0 -0.20131025275E-01  0.12069536734E-01  0.53900724472E-02  0.10198471269E+01  0.10195627384E+01 0.  0.
     999903    2    3    3    0    0 -0.10528312057E-02  0.49565834654E-02  0.12938368546E+00  0.13092137766E+00  0.19354402428E-01 0.  0.
         14    1    1    2    0    0  0.20131025275E-01 -0.12069536734E-01 -0.53900724472E-02  0.24082873096E-01  0.00000000000E+00 0. -1.
     999901    1    3    3    0    0 -0.19078194069E-01  0.71129532685E-02 -0.12399361301E+00  0.88892574924E+00  0.88000000000E+00 0.  1.
        -11    1    4    4    0    0 -0.77078504049E-03  0.12314983041E-01  0.70047139873E-01  0.71127461942E-01  0.51100000000E-03 0. -1.
         11    1    4    4    0    0 -0.28204616516E-03 -0.73583995756E-02  0.59336545586E-01  0.59793915723E-01  0.51100000000E-03 0.  1.
</event>
<event>
 8    1  0.1150863E+005  0.1043930E+01  0.7957747E-01            NaN
         13   -1    0    0    0    0  0.00000000000E+00  0.00000000000E+00  0.74505805969E-08  0.10566000000E+00  0.10566000000E+00 0.  1.
     999900   -1    0    0    0    0 -0.00000000000E+00 -0.00000000000E+00 -0.74505805969E-08  0.93827000000E+00  0.93827000000E+00 0.  1.
     999902    2    1    2    0    0 -0.15832375241E-01  0.79769355471E-02  0.16580298935E-01  0.10196565182E+01  0.10193675555E+01 0.  0.
     999903    2    3    3    0    0  0.11917880793E+00 -0.10250972291E-01 -0.39115609132E-01  0.12743327797E+00  0.20013464591E-01 0.  0.
         14    1    1    2    0    0  0.15832375241E-01 -0.79769355471E-02 -0.16580298935E-01  0.24273481812E-01  0.00000000000E+00 0. -1.
     999901    1    3    3    0    0 -0.13501118317E+00  0.18227907838E-01  0.55695908066E-01  0.89222324022E+00  0.88000000000E+00 0.  1.
        -11    1    4    4    0    0  0.75089092053E-01 -0.71187644559E-02 -0.14402363162E-01  0.76790219028E-01  0.51100000000E-03 0. -1.
         11    1    4    4    0    0  0.44089715876E-01 -0.31322078353E-02 -0.24713245970E-01  0.50643058945E-01  0.51100000000E-03 0.  1.
</event>
<event>
 8    1  0.1150863E+005  0.1043930E+01  0.7957747E-01            NaN
         13   -1    0    0    0    0  0.00000000000E+00  0.00000000000E+00  0.74505805969E-08  0.10566000000E+00  0.10566000000E+00 0. -1.
     999900   -1    0    0    0    0 -0.00000000000E+00 -0.00000000000E+00 -0.74505805969E-08  0.93827000000E+00  0.93827000000E+00 0. -1.
     999902    2    1    2    0    0  0.16374629596E-01  0.16678485489E-01  0.25049049253E-02  0.10204230878E+01  0.10201522941E+01 0.  0.
     999903    2    3    3    0    0  0.11948043788E+00  0.51615503764E-01 -0.20586076367E-01  0.13341429620E+00  0.20877083750E-01 0.  0.
         14    1    1    2    0    0 -0.16374629596E-01 -0.16678485489E-01 -0.25049049253E-02  0.23506912203E-01  0.00000000000E+00 0. -1.
     999901    1    3    3    0    0 -0.10310580829E+00 -0.34937018275E-01  0.23090981292E-01  0.88700879159E+00  0.88000000000E+00 0.  1.
        -11    1    4    4    0    0  0.52578868012E-01  0.14559473054E-01 -0.14627276233E-02  0.54579449522E-01  0.51100000000E-03 0. -1.
         11    1    4    4    0    0  0.66901569870E-01  0.37056030710E-01 -0.19123348744E-01  0.78834846681E-01  0.51100000000E-03 0.  1.
</event>
<event>
 8    1  0.1150863E+005  0.1043930E+01  0.7957747E-01            NaN
         13   -1    0    0    0    0  0.00000000000E+00  0.00000000000E+00  0.74505805969E-08  0.10566000000E+00  0.10566000000E+00 0.  1.
     999900   -1    0    0    0    0 -0.00000000000E+00 -0.00000000000E+00 -0.74505805969E-08  0.93827000000E+00  0.93827000000E+00 0.  1.
     999902    2    1    2    0    0  0.10972677945E-02  0.23629228348E-01  0.12568838932E-02  0.10202419400E+01  0.10199669073E+01 0.  0.
     999903    2    3    3    0    0  0.13306903811E-01 -0.40423003079E-01 -0.12066346338E+00  0.12944660176E+00  0.19638188494E-01 0.  0.
         14    1    1    2    0    0 -0.10972677945E-02 -0.23629228348E-01 -0.12568838932E-02  0.23688059989E-01  0.00000000000E+00 0. -1.
     999901    1    3    3    0    0 -0.12209636016E-01  0.64052231428E-01  0.12192034727E+00  0.89079533825E+00  0.88000000000E+00 0. -1.
        -11    1    4    4    0    0 -0.20549329631E-02 -0.24237311428E-01 -0.69148385218E-01  0.73303685541E-01  0.51100000000E-03 0. -1.
         11    1    4    4    0    0  0.15361836774E-01 -0.16185691652E-01 -0.51515078159E-01  0.56142916223E-01  0.51100000000E-03 0.  1.
</event>
<event>
 8    1  0.1150863E+005  0.1043930E+01  0.7957747E-01            NaN
         13   -1    0    0    0    0  0.00000000000E+00  0.00000000000E+00  0.74505805969E-08  0.10566000000E+00  0.10566000000E+00 0. -1.
     999900   -1    0    0    0    0 -0.00000000000E+00 -0.00000000000E+00 -0.74505805969E-08  0.93827000000E+00  0.93827000000E+00 0. -1.
     999902    2    1    2    0    0  0.53507104303E-02  0.17321960568E-01 -0.12538497869E-01  0.10218869887E+01  0.10216492173E+01 0.  0.
     999903    2    3    3    0    0  0.55637499253E-01  0.11020091468E+00 -0.50155566819E-01  0.13477352065E+00  0.20212571993E-01 0.  0.
         14    1    1    2    0    0 -0.53507104303E-02 -0.17321960568E-01  0.12538497869E-01  0.22043011337E-01  0.00000000000E+00 0. -1.
     999901    1    3    3    0    0 -0.50286788823E-01 -0.92878954114E-01  0.37617068951E-01  0.88711346801E+00  0.88000000000E+00 0. -1.
        -11    1    4    4    0    0  0.19333097351E-01  0.21807416338E-01 -0.16285588418E-01  0.33388824053E-01  0.51100000000E-03 0.  1.
         11    1    4    4    0    0  0.36304401902E-01  0.88393498343E-01 -0.33869978401E-01  0.10138469660E+00  0.51100000000E-03 0. -1.
</event>
<event>
 8    1  0.1150863E+005  0.1043930E+01  0.7957747E-01            NaN
         13   -1    0    0    0    0  0.00000000000E+00  0.00000000000E+00  0.74505805969E-08  0.10566000000E+00  0.10566000000E+00 0. -1.
     999900   -1    0    0    0    0 -0.00000000000E+00 -0.00000000000E+00 -0.74505805969E-08  0.93827000000E+00  0.93827000000E+00 0. -1.
     999902    2    1    2    0    0 -0.22079369492E-01 -0.92711852433E-02 -0.84188762074E-02  0.10185463259E+01  0.10182299775E+01 0.  0.
     999903    2    3    3    0    0 -0.12387073755E+00  0.32325498380E-01  0.21573013769E-01  0.13119561726E+00  0.18920824461E-01 0.  0.
         14    1    1    2    0    0  0.22079369492E-01  0.92711852433E-02  0.84188762074E-02  0.25383674076E-01  0.00000000000E+00 0. -1.
     999901    1    3    3    0    0  0.10179136806E+00 -0.41596683624E-01 -0.29991889976E-01  0.88735070866E+00  0.88000000000E+00 0. -1.
        -11    1    4    4    0    0 -0.42631254389E-02 -0.19551249934E-02  0.24315688301E-02  0.53075795070E-02  0.51100000000E-03 0. -1.
         11    1    4    4    0    0 -0.11960761211E+00  0.34280623374E-01  0.19141444939E-01  0.12588803775E+00  0.51100000000E-03 0.  1.
</event>
<event>
 8    1  0.1150863E+005  0.1043930E+01  0.7957747E-01            NaN
         13   -1    0    0    0    0  0.00000000000E+00  0.00000000000E+00  0.74505805969E-08  0.10566000000E+00  0.10566000000E+00 0.  1.
     999900   -1    0    0    0    0 -0.00000000000E+00 -0.00000000000E+00 -0.74505805969E-08  0.93827000000E+00  0.93827000000E+00 0. -1.
     999902    2    1    2    0    0  0.22579451845E-01 -0.17401650956E-02 -0.30682915705E-02  0.10210766800E+01  0.10208209012E+01 0.  0.
     999903    2    3    3    0    0  0.41773801181E-01 -0.10282414555E+00 -0.70241826672E-01  0.13253929874E+00  0.17745312675E-01 0.  0.
         14    1    1    2    0    0 -0.22579451845E-01  0.17401650956E-02  0.30682915705E-02  0.22853319963E-01  0.00000000000E+00 0. -1.
     999901    1    3    3    0    0 -0.19194349336E-01  0.10108398045E+00  0.67173535101E-01  0.88853738130E+00  0.88000000000E+00 0.  1.
        -11    1    4    4    0    0  0.13844784437E-01 -0.35208844596E-01 -0.14319636647E-01  0.40455579450E-01  0.51100000000E-03 0.  1.
         11    1    4    4    0    0  0.27929016744E-01 -0.67615300954E-01 -0.55922190025E-01  0.92083719286E-01  0.51100000000E-03 0. -1.
</event>
<event>
 8    1  0.1150863E+005  0.1043930E+01  0.7957747E-01            NaN
         13   -1    0    0    0    0  0.00000000000E+00  0.00000000000E+00  0.74505805969E-08  0.10566000000E+00  0.10566000000E+00 0.  1.
     999900   -1    0    0    0    0 -0.00000000000E+00 -0.00000000000E+00 -0.74505805969E-08  0.93827000000E+00  0.93827000000E+00 0. -1.
     999902    2    1    2    0    0  0.69298162144E-02  0.12200719463E-01  0.18345727634E-01  0.10208335581E+01  0.10205722452E+01 0.  0.
     999903    2    3    3    0    0  0.50910842696E-01 -0.31329415110E-01 -0.11255865187E+00  0.12900108506E+00  0.19959551129E-01 0.  0.
         14    1    1    2    0    0 -0.69298162144E-02 -0.12200719463E-01 -0.18345727634E-01  0.23096441947E-01  0.00000000000E+00 0. -1.
     999901    1    3    3    0    0 -0.43981026482E-01  0.43530134574E-01  0.13090437950E+00  0.89183247299E+00  0.88000000000E+00 0.  1.
        -11    1    4    4    0    0  0.37072835302E-01 -0.27809541406E-01 -0.68682323123E-01  0.82857035556E-01  0.51100000000E-03 0. -1.
         11    1    4    4    0    0  0.13838007395E-01 -0.35198737038E-02 -0.43876328747E-01  0.46144049506E-01  0.51100000000E-03 0.  1.
</event>
<event>
 8    1  0.1150863E+005  0.1043930E+01  0.7957747E-01            NaN
         13   -1    0    0    0    0  0.00000000000E+00  0.00000000000E+00  0.74505805969E-08  0.10566000000E+00  0.10566000000E+00 0.  1.
     999900   -1    0    0    0    0 -0.00000000000E+00 -0.00000000000E+00 -0.74505805969E-08  0.93827000000E+00  0.93827000000E+00 0.  1.
     999902    2    1    2    0    0  0.72544461729E-02 -0.12101821698E-01  0.18297386272E-01  0.10208242556E+01  0.10205627298E+01 0.  0.
     999903    2    3    3    0    0 -0.38677058427E-01  0.90450587925E-02 -0.12064837821E+00  0.12848865783E+00  0.19379785594E-01 0.  0.
         14    1    1    2    0    0 -0.72544461729E-02  0.12101821698E-01 -0.18297386272E-01  0.23105744352E-01  0.00000000000E+00 0. -1.
     999901    1    3    3    0    0  0.45931504600E-01 -0.21146880490E-01  0.13894576448E+00  0.89233559782E+00  0.88000000000E+00 0. -1.
        -11    1    4    4    0    0 -0.32778689800E-01  0.14596063819E-01 -0.10275223623E+00  0.10883827799E+00  0.51100000000E-03 0. -1.
         11    1    4    4    0    0 -0.58983686274E-02 -0.55510050263E-02 -0.17896141973E-01  0.19650379838E-01  0.51100000000E-03 0.  1.
</event>
<event>
 8    1  0.1150863E+005  0.1043930E+01  0.7957747E-01            NaN
         13   -1    0    0    0    0  0.00000000000E+00  0.00000000000E+00  0.74505805969E-08  0.10566000000E+00  0.10566000000E+00 0. -1.
     999900   -1    0    0    0    0 -0.00000000000E+00 -0.00000000000E+00 -0.74505805969E-08  0.93827000000E+00  0.93827000000E+00 0.  1.
     999902    2    1    2    0    0 -0.10781721209E-01  0.14729458340E-01 -0.14578280168E-01  0.10205691629E+01  0.10203017630E+01 0.  0.
     999903    2    3    3    0    0 -0.92922104594E-01 -0.72390481802E-01 -0.54150328963E-01  0.13157935783E+00  0.22493774752E-01 0.  0.
         14    1    1    2    0    0  0.10781721209E-01 -0.14729458340E-01  0.14578280168E-01  0.23360837054E-01  0.00000000000E+00 0. -1.
     999901    1    3    3    0    0  0.82140383385E-01  0.87119940142E-01  0.39572048795E-01  0.88898980512E+00  0.88000000000E+00 0.  1.
        -11    1    4    4    0    0 -0.75075807765E-01 -0.46215839911E-01 -0.37774117390E-01  0.95913637382E-01  0.51100000000E-03 0.  1.
         11    1    4    4    0    0 -0.17846296829E-01 -0.26174641891E-01 -0.16376211573E-01  0.35665720448E-01  0.51100000000E-03 0. -1.
</event>
<event>
 8    1  0.1150863E+005  0.1043930E+01  0.7957747E-01            NaN
         13   -1    0    0    0    0  0.00000000000E+00  0.00000000000E+00  0.74505805969E-08  0.10566000000E+00  0.10566000000E+00 0. -1.
     999900   -1    0    0    0    0 -0.00000000000E+00 -0.00000000000E+00 -0.74505805969E-08  0.93827000000E+00  0.93827000000E+00 0.  1.
     999902    2    1    2    0    0 -0.16041641087E-01 -0.15767183662E-01 -0.97225753862E-02  0.10194255759E+01  0.10191310210E+01 0.  0.
     999903    2    3    3    0    0  0.14833992357E-01  0.10841610702E+00 -0.64418057812E-01  0.12848989345E+00  0.19643496510E-01 0.  0.
         14    1    1    2    0    0  0.16041641087E-01  0.15767183662E-01  0.97225753862E-02  0.24504424121E-01  0.00000000000E+00 0.  1.
     999901    1    3    3    0    0 -0.30875633444E-01 -0.12418329069E+00  0.54695482425E-01  0.89093568243E+00  0.88000000000E+00 0.  1.
        -11    1    4    4    0    0  0.28093417914E-02  0.71982552375E-01 -0.34720150548E-01  0.79969558101E-01  0.51100000000E-03 0.  1.
         11    1    4    4    0    0  0.12024650566E-01  0.36433554649E-01 -0.29697907264E-01  0.48520335350E-01  0.51100000000E-03 0. -1.
</event>
<event>
 8    1  0.1150863E+005  0.1043930E+01  0.7957747E-01            NaN
         13   -1    0    0    0    0  0.00000000000E+00  0.00000000000E+00  0.74505805969E-08  0.10566000000E+00  0.10566000000E+00 0. -1.
     999900   -1    0    0    0    0 -0.00000000000E+00 -0.00000000000E+00 -0.74505805969E-08  0.93827000000E+00  0.93827000000E+00 0. -1.
     999902    2    1    2    0    0 -0.10402471148E-01  0.93505426229E-02 -0.18851710066E-01  0.10204559500E+01  0.10201859217E+01 0.  0.
     999903    2    3    3    0    0 -0.73752327401E-01 -0.10297650093E+00  0.21895565432E-01  0.13012404023E+00  0.20230781502E-01 0.  0.
         14    1    1    2    0    0  0.10402471148E-01 -0.93505426229E-02  0.18851710066E-01  0.23474050050E-01  0.00000000000E+00 0. -1.
     999901    1    3    3    0    0  0.63349856253E-01  0.11232704355E+00 -0.40747275498E-01  0.89033190972E+00  0.88000000000E+00 0.  1.
        -11    1    4    4    0    0 -0.71753867413E-01 -0.95653602964E-01  0.24542344601E-01  0.12206890287E+00  0.51100000000E-03 0.  1.
         11    1    4    4    0    0 -0.19984599873E-02 -0.73228979652E-02 -0.26467791692E-02  0.80551373607E-02  0.51100000000E-03 0. -1.
</event>
<event>
 8    1  0.1150863E+005  0.1043930E+01  0.7957747E-01            NaN
         13   -1    0    0    0    0  0.00000000000E+00  0.00000000000E+00  0.74505805969E-08  0.10566000000E+00  0.10566000000E+00 0.  1.
     999900   -1    0    0    0    0 -0.00000000000E+00 -0.00000000000E+00 -0.74505805969E-08  0.93827000000E+00  0.93827000000E+00 0. -1.
     999902    2    1    2    0    0 -0.55881415846E-02 -0.22206193962E-01  0.57517680483E-02  0.10203201459E+01  0.10200469474E+01 0.  0.
     999903    2    3    3    0    0  0.36433249999E-01 -0.69600805564E-02  0.12447897629E+00  0.13122263079E+00  0.18669195667E-01 0.  0.
         14    1    1    2    0    0  0.55881415846E-02  0.22206193962E-01 -0.57517680483E-02  0.23609854136E-01  0.00000000000E+00 0. -1.
     999901    1    3    3    0    0 -0.42021391583E-01 -0.15246113405E-01 -0.11872720824E+00  0.88909751507E+00  0.88000000000E+00 0. -1.
        -11    1    4    4    0    0  0.37939027436E-01 -0.89444956524E-02  0.11680789076E+00  0.12314105030E+00  0.51100000000E-03 0. -1.
         11    1    4    4    0    0 -0.15057774373E-02  0.19844150959E-02  0.76710855368E-02  0.80815804938E-02  0.51100000000E-03 0.  1.
</event>
<event>
 8    1  0.1150863E+005  0.1043930E+01  0.7957747E-01            NaN
         13   -1    0    0    0    0  0.00000000000E+00  0.00000000000E+00  0.74505805969E-08  0.10566000000E+00  0.10566000000E+00 0. -1.
     999900   -1    0    0    0    0 -0.00000000000E+00 -0.00000000000E+00 -0.74505805969E-08  0.93827000000E+00  0.93827000000E+00 0. -1.
     999902    2    1    2    0    0 -0.18369565029E-01  0.63692505934E-02 -0.83066889761E-02  0.10227874043E+01  0.10225688559E+01 0.  0.
     999903    2    3    3    0    0  0.34251875907E-01  0.12584865037E+00  0.15193851181E-01  0.13284548571E+00  0.20149346324E-01 0.  0.
         14    1    1    2    0    0  0.18369565029E-01 -0.63692505934E-02  0.83066889761E-02  0.21142595731E-01  0.00000000000E+00 0. -1.
     999901    1    3    3    0    0 -0.52621440936E-01 -0.11947939978E+00 -0.23500540157E-01  0.88994191856E+00  0.88000000000E+00 0.  1.
        -11    1    4    4    0    0  0.32238140185E-01  0.84364302062E-01  0.13054178980E-01  0.91254073086E-01  0.51100000000E-03 0. -1.
         11    1    4    4    0    0  0.20137357227E-02  0.41484348308E-01  0.21396722008E-02  0.41591412626E-01  0.51100000000E-03 0.  1.
</event>
<event>
 8    1  0.1150863E+005  0.1043930E+01  0.7957747E-01            NaN
         13   -1    0    0    0    0  0.00000000000E+00  0.00000000000E+00  0.74505805969E-08  0.10566000000E+00  0.10566000000E+00 0.  1.
     999900   -1    0    0    0    0 -0.00000000000E+00 -0.00000000000E+00 -0.74505805969E-08  0.93827000000E+00  0.93827000000E+00 0. -1.
     999902    2    1    2    0    0 -0.12805125473E-01 -0.18851517802E-01 -0.33714642917E-02  0.10208926882E+01  0.10206327269E+01 0.  0.
     999903    2    3    3    0    0  0.51777693580E-01  0.11254831652E+00  0.26715857315E-01  0.12828857448E+00  0.19903974628E-01 0.  0.
         14    1    1    2    0    0  0.12805125473E-01  0.18851517802E-01  0.33714642917E-02  0.23037311763E-01  0.00000000000E+00 0.  1.
     999901    1    3    3    0    0 -0.64582819053E-01 -0.13139983432E+00 -0.30087321607E-01  0.89260411376E+00  0.88000000000E+00 0.  1.
        -11    1    4    4    0    0  0.46233012323E-01  0.10607585615E+00  0.20009738243E-01  0.11743180758E+00  0.51100000000E-03 0. -1.
         11    1    4    4    0    0  0.55446812563E-02  0.64724603734E-02  0.67061190724E-02  0.10856766901E-01  0.51100000000E-03 0.  1.
</event>
<event>
 8    1  0.1150863E+005  0.1043930E+01  0.7957747E-01            NaN
         13   -1    0    0    0    0  0.00000000000E+00  0.00000000000E+00  0.74505805969E-08  0.10566000000E+00  0.10566000000E+00 0.  1.
     999900   -1    0    0    0    0 -0.00000000000E+00 -0.00000000000E+00 -0.74505805969E-08  0.93827000000E+00  0.93827000000E+00 0.  1.
     999902    2    1    2    0    0 -0.10488695535E-01  0.22090371175E-01 -0.27916327137E-02  0.10193171894E+01  0.10190199910E+01 0.  0.
     999903    2    3    3    0    0  0.20597604558E-01  0.67097680592E-02  0.12589796588E+00  0.12928127226E+00  0.19851127003E-01 0.  0.
         14    1    1    2    0    0  0.10488695535E-01 -0.22090371175E-01  0.27916327137E-02  0.24612810605E-01  0.00000000000E+00 0.  1.
     999901    1    3    3    0    0 -0.31086300093E-01  0.15380603116E-01 -0.12868959859E+00  0.89003591714E+00  0.88000000000E+00 0.  1.
        -11    1    4    4    0    0 -0.57701845130E-03  0.76023600471E-02  0.45400763408E-01  0.46039323058E-01  0.51100000000E-03 0. -1.
         11    1    4    4    0    0  0.21174623010E-01 -0.89259198792E-03  0.80497202471E-01  0.83241949201E-01  0.51100000000E-03 0.  1.
</event>
<event>
 8    1  0.1150863E+005  0.1043930E+01  0.7957747E-01            NaN
         13   -1    0    0    0    0  0.00000000000E+00  0.00000000000E+00  0.74505805969E-08  0.10566000000E+00  0.10566000000E+00 0.  1.
     999900   -1    0    0    0    0 -0.00000000000E+00 -0.00000000000E+00 -0.74505805969E-08  0.93827000000E+00  0.93827000000E+00 0.  1.
     999902    2    1    2    0    0  0.23453160386E-01 -0.16010817430E-02 -0.17970863407E-02  0.10203536620E+01  0.10200812477E+01 0.  0.
     999903    2    3    3    0    0 -0.88078470383E-01  0.82360094696E-02 -0.91055412597E-01  0.12878026521E+00  0.21624517301E-01 0.  0.
         14    1    1    2    0    0 -0.23453160386E-01  0.16010817430E-02  0.17970863407E-02  0.23576338014E-01  0.00000000000E+00 0. -1.
     999901    1    3    3    0    0  0.11153163077E+00 -0.98370912126E-02  0.89258326257E-01  0.89157339677E+00  0.88000000000E+00 0. -1.
        -11    1    4    4    0    0 -0.23169173571E-01 -0.68441090563E-02 -0.20027637475E-01  0.31385025355E-01  0.51100000000E-03 0. -1.
         11    1    4    4    0    0 -0.64909296812E-01  0.15080118526E-01 -0.71027775123E-01  0.97395239859E-01  0.51100000000E-03 0.  1.
</event>
<event>
 8    1  0.1150863E+005  0.1043930E+01  0.7957747E-01            NaN
         13   -1    0    0    0    0  0.00000000000E+00  0.00000000000E+00  0.74505805969E-08  0.10566000000E+00  0.10566000000E+00 0. -1.
     999900   -1    0    0    0    0 -0.00000000000E+00 -0.00000000000E+00 -0.74505805969E-08  0.93827000000E+00  0.93827000000E+00 0. -1.
     999902    2    1    2    0    0 -0.15081875865E-01 -0.23514510362E-01 -0.32117974820E-02  0.10158104193E+01  0.10154211427E+01 0.  0.
     999903    2    3    3    0    0  0.36127032290E-01 -0.91744374665E-01 -0.79799687260E-01  0.12837401506E+00  0.19740945060E-01 0.  0.
         14    1    1    2    0    0  0.15081875865E-01  0.23514510362E-01  0.32117974820E-02  0.28119580727E-01  0.00000000000E+00 0.  1.
     999901    1    3    3    0    0 -0.51208908155E-01  0.68229864303E-01  0.76587889778E-01  0.88743640421E+00  0.88000000000E+00 0. -1.
        -11    1    4    4    0    0  0.13689403441E-01 -0.16814690901E-01 -0.11585762796E-01  0.24589115828E-01  0.51100000000E-03 0.  1.
         11    1    4    4    0    0  0.22437628850E-01 -0.74929683764E-01 -0.68213924464E-01  0.10378489923E+00  0.51100000000E-03 0. -1.
</event>
<event>
 8    1  0.1150863E+005  0.1043930E+01  0.7957747E-01            NaN
         13   -1    0    0    0    0  0.00000000000E+00  0.00000000000E+00  0.74505805969E-08  0.10566000000E+00  0.10566000000E+00 0.  1.
     999900   -1    0    0    0    0 -0.00000000000E+00 -0.00000000000E+00 -0.74505805969E-08  0.93827000000E+00  0.93827000000E+00 0. -1.
     999902    2    1    2    0    0 -0.13729010179E-01 -0.10777736132E-01 -0.15499106459E-02  0.10264072280E+01  0.10262576431E+01 0.  0.
     999903    2    3    3    0    0  0.19646255156E-01 -0.12944340858E+00  0.35139298861E-01  0.13705828169E+00  0.20214620639E-01 0.  0.
         14    1    1    2    0    0  0.13729010179E-01  0.10777736132E-01  0.15499106459E-02  0.17522772031E-01  0.00000000000E+00 0. -1.
     999901    1    3    3    0    0 -0.33375265335E-01  0.11866567245E+00 -0.36689209507E-01  0.88934894628E+00  0.88000000000E+00 0. -1.
        -11    1    4    4    0    0  0.87639334415E-02 -0.14087841285E-01  0.38739924215E-02  0.17045314304E-01  0.51100000000E-03 0.  1.
         11    1    4    4    0    0  0.10882321715E-01 -0.11535556730E+00  0.31265306440E-01  0.12001296739E+00  0.51100000000E-03 0. -1.
</event>
<event>
 8    1  0.1150863E+005  0.1043930E+01  0.7957747E-01            NaN
         13   -1    0    0    0    0  0.00000000000E+00  0.00000000000E+00  0.74505805969E-08  0.10566000000E+00  0.10566000000E+00 0.  1.
     999900   -1    0    0    0    0 -0.00000000000E+00 -0.00000000000E+00 -0.74505805969E-08  0.93827000000E+00  0.93827000000E+00 0. -1.
     999902    2    1    2    0    0 -0.25505622667E-01  0.15159631217E-02  0.26147473817E-02  0.10182459225E+01  0.10179219454E+01 0.  0.
     999903    2    3    3    0    0  0.10751455023E-01  0.87969552332E-01  0.91343463531E-01  0.12882949371E+00  0.19979344291E-01 0.  0.
         14    1    1    2    0    0  0.25505622667E-01 -0.15159631217E-02 -0.26147473817E-02  0.25684077474E-01  0.00000000000E+00 0. -1.
     999901    1    3    3    0    0 -0.36257077690E-01 -0.86453589210E-01 -0.88728716149E-01  0.88941642881E+00  0.88000000000E+00 0. -1.
        -11    1    4    4    0    0  0.16251470793E-02  0.62363762776E-01  0.73024904363E-01  0.96045706769E-01  0.51100000000E-03 0. -1.
         11    1    4    4    0    0  0.91263079435E-02  0.25605789556E-01  0.18318559168E-01  0.32783786945E-01  0.51100000000E-03 0.  1.
</event>
<event>
 8    1  0.1150863E+005  0.1043930E+01  0.7957747E-01            NaN
         13   -1    0    0    0    0  0.00000000000E+00  0.00000000000E+00  0.74505805969E-08  0.10566000000E+00  0.10566000000E+00 0. -1.
     999900   -1    0    0    0    0 -0.00000000000E+00 -0.00000000000E+00 -0.74505805969E-08  0.93827000000E+00  0.93827000000E+00 0. -1.
     999902    2    1    2    0    0  0.18942055129E-01  0.96426684904E-02  0.12999759951E-01  0.10190146179E+01  0.10187099760E+01 0.  0.
     999903    2    3    3    0    0 -0.16389899361E-01  0.78759024039E-01  0.10159989431E+00  0.13116586869E+00  0.20256700496E-01 0.  0.
         14    1    1    2    0    0 -0.18942055129E-01 -0.96426684904E-02 -0.12999759951E-01  0.24915382134E-01  0.00000000000E+00 0.  1.
     999901    1    3    3    0    0  0.35331954490E-01 -0.69116355549E-01 -0.88600134361E-01  0.88784874918E+00  0.88000000000E+00 0. -1.
        -11    1    4    4    0    0  0.72581846293E-03  0.22515084897E-01  0.17389271408E-01  0.28462321435E-01  0.51100000000E-03 0. -1.
         11    1    4    4    0    0 -0.17115717824E-01  0.56243939142E-01  0.84210622904E-01  0.10270354725E+00  0.51100000000E-03 0.  1.
</event>
<event>
 8    1  0.1150863E+005  0.1043930E+01  0.7957747E-01            NaN
         13   -1    0    0    0    0  0.00000000000E+00  0.00000000000E+00  0.74505805969E-08  0.10566000000E+00  0.10566000000E+00 0.  1.
     999900   -1    0    0    0    0 -0.00000000000E+00 -0.00000000000E+00 -0.74505805969E-08  0.93827000000E+00  0.93827000000E+00 0.  1.
     999902    2    1    2    0    0  0.59123272694E-02 -0.45330861416E-02  0.22431290818E-01  0.10202938562E+01  0.10200200419E+01 0.  0.
     999903    2    3    3    0    0 -0.85292959415E-01 -0.85398939147E-01  0.48111399424E-01  0.13152101773E+00  0.20376545787E-01 0.  0.
         14    1    1    2    0    0 -0.59123272694E-02  0.45330861416E-02 -0.22431290818E-01  0.23636143752E-01  0.00000000000E+00 0. -1.
     999901    1    3    3    0    0  0.91205286684E-01  0.80865853005E-01 -0.25680108606E-01  0.88877283851E+00  0.88000000000E+00 0. -1.
        -11    1    4    4    0    0 -0.16749810153E-01 -0.21109521864E-01  0.19564129556E-01  0.33304419223E-01  0.51100000000E-03 0. -1.
         11    1    4    4    0    0 -0.68543149262E-01 -0.64289417282E-01  0.28547269869E-01  0.98216598511E-01  0.51100000000E-03 0.  1.
</event>
<event>
 8    1  0.1150863E+005  0.1043930E+01  0.7957747E-01            NaN
         13   -1    0    0    0    0  0.00000000000E+00  0.00000000000E+00  0.74505805969E-08  0.10566000000E+00  0.10566000000E+00 0. -1.
     999900   -1    0    0    0    0 -0.00000000000E+00 -0.00000000000E+00 -0.74505805969E-08  0.93827000000E+00  0.93827000000E+00 0. -1.
     999902    2    1    2    0    0 -0.36882134245E-02  0.20618910422E-01 -0.99102226663E-02  0.10207577127E+01  0.10204946610E+01 0.  0.
     999903    2    3    3    0    0  0.91509671487E-01 -0.84274624879E-01 -0.29129352889E-01  0.12922270722E+00  0.19332782700E-01 0.  0.
         14    1    1    2    0    0  0.36882134245E-02 -0.20618910422E-01  0.99102226663E-02  0.23172287296E-01  0.00000000000E+00 0. -1.
     999901    1    3    3    0    0 -0.95197884912E-01  0.10489353530E+00  0.19219130222E-01  0.89153500549E+00  0.88000000000E+00 0.  1.
        -11    1    4    4    0    0  0.83143665576E-01 -0.71955021500E-01 -0.30901701043E-01  0.11421720752E+00  0.51100000000E-03 0.  1.
         11    1    4    4    0    0  0.83660059112E-02 -0.12319603379E-01  0.17723481547E-02  0.15005499702E-01  0.51100000000E-03 0. -1.
</event>
<event>
 8    1  0.1150863E+005  0.1043930E+01  0.7957747E-01            NaN
         13   -1    0    0    0    0  0.00000000000E+00  0.00000000000E+00  0.74505805969E-08  0.10566000000E+00  0.10566000000E+00 0. -1.
     999900   -1    0    0    0    0 -0.00000000000E+00 -0.00000000000E+00 -0.74505805969E-08  0.93827000000E+00  0.93827000000E+00 0.  1.
     999902    2    1    2    0    0  0.14796106209E-01  0.10255825040E-01 -0.16611960755E-01  0.10194337973E+01  0.10191394424E+01 0.  0.
     999903    2    3    3    0    0  0.11523383936E+00 -0.15977238003E-01 -0.59815316748E-01  0.13227967214E+00  0.19645092929E-01 0.  0.
         14    1    1    2    0    0 -0.14796106209E-01 -0.10255825040E-01  0.16611960755E-01  0.24496202692E-01  0.00000000000E+00 0. -1.
     999901    1    3    3    0    0 -0.10043773315E+00  0.26233063043E-01  0.43203355993E-01  0.88715412517E+00  0.88000000000E+00 0. -1.
        -11    1    4    4    0    0  0.10207664257E+00 -0.16770979102E-01 -0.46110178897E-01  0.11325774330E+00  0.51100000000E-03 0. -1.
         11    1    4    4    0    0  0.13157196787E-01  0.79374109979E-03 -0.13705137851E-01  0.19021928838E-01  0.51100000000E-03 0.  1.
</event>
<event>
 8    1  0.1150863E+005  0.1043930E+01  0.7957747E-01            NaN
         13   -1    0    0    0    0  0.00000000000E+00  0.00000000000E+00  0.74505805969E-08  0.10566000000E+00  0.10566000000E+00 0. -1.
     999900   -1    0    0    0    0 -0.00000000000E+00 -0.00000000000E+00 -0.74505805969E-08  0.93827000000E+00  0.93827000000E+00 0.  1.
     999902    2    1    2    0    0  0.53293013097E-02 -0.15636123848E-01  0.16552435662E-01  0.10205446852E+01  0.10202767181E+01 0.  0.
     999903    2    3    3    0    0 -0.11951606029E+00 -0.32748826970E-01 -0.34264356634E-01  0.13011694794E+00  0.19994991170E-01 0.  0.
         14    1    1    2    0    0 -0.53293013097E-02  0.15636123848E-01 -0.16552435662E-01  0.23385314789E-01  0.00000000000E+00 0.  1.
     999901    1    3    3    0    0  0.12484536160E+00  0.17112703122E-01  0.50816792296E-01  0.89042773727E+00  0.88000000000E+00 0. -1.
        -11    1    4    4    0    0 -0.71149350443E-01 -0.29457847066E-01 -0.19528447418E-01  0.79445680825E-01  0.51100000000E-03 0. -1.
         11    1    4    4    0    0 -0.48366709843E-01 -0.32909799047E-02 -0.14735909217E-01  0.50671267117E-01  0.51100000000E-03 0.  1.
</event>
<event>
 8    1  0.1150863E+005  0.1043930E+01  0.7957747E-01            NaN
         13   -1    0    0    0    0  0.00000000000E+00  0.00000000000E+00  0.74505805969E-08  0.10566000000E+00  0.10566000000E+00 0. -1.
     999900   -1    0    0    0    0 -0.00000000000E+00 -0.00000000000E+00 -0.74505805969E-08  0.93827000000E+00  0.93827000000E+00 0. -1.
     999902    2    1    2    0    0  0.22123553342E-01 -0.46020090395E-02 -0.64302099055E-02  0.10204357944E+01  0.10201652967E+01 0.  0.
     999903    2    3    3    0    0 -0.10771437276E-01 -0.12518659274E+00 -0.31924116672E-01  0.13123803147E+00  0.20409919518E-01 0.  0.
         14    1    1    2    0    0 -0.22123553342E-01  0.46020090395E-02  0.64302099055E-02  0.23494205650E-01  0.00000000000E+00 0. -1.
     999901    1    3    3    0    0  0.32894990618E-01  0.12058458370E+00  0.25493906767E-01  0.88919776288E+00  0.88000000000E+00 0.  1.
        -11    1    4    4    0    0  0.51054634846E-02 -0.58260216627E-01 -0.13386416046E-01  0.59998132091E-01  0.51100000000E-03 0. -1.
         11    1    4    4    0    0 -0.15876900761E-01 -0.66926376115E-01 -0.18537700626E-01  0.71239899376E-01  0.51100000000E-03 0.  1.
</event>
<event>
 8    1  0.1150863E+005  0.1043930E+01  0.7957747E-01            NaN
         13   -1    0    0    0    0  0.00000000000E+00  0.00000000000E+00  0.74505805969E-08  0.10566000000E+00  0.10566000000E+00 0.  1.
     999900   -1    0    0    0    0 -0.00000000000E+00 -0.00000000000E+00 -0.74505805969E-08  0.93827000000E+00  0.93827000000E+00 0.  1.
     999902    2    1    2    0    0 -0.33525125995E-02 -0.22458232793E-01 -0.46523476779E-02  0.10207512188E+01  0.10204880179E+01 0.  0.
     999903    2    3    3    0    0  0.11080224576E+00  0.63498422817E-01  0.70871557302E-03  0.12920840066E+00  0.19624504027E-01 0.  0.
         14    1    1    2    0    0  0.33525125995E-02  0.22458232793E-01  0.46523476779E-02  0.23178781242E-01  0.00000000000E+00 0. -1.
     999901    1    3    3    0    0 -0.11415475836E+00 -0.85956655610E-01 -0.53610632509E-02  0.89154281810E+00  0.88000000000E+00 0.  1.
        -11    1    4    4    0    0  0.73015562996E-01  0.52218734717E-01  0.67914409822E-03  0.89770769479E-01  0.51100000000E-03 0.  1.
         11    1    4    4    0    0  0.37786682763E-01  0.11279688100E-01  0.29571474800E-04  0.39437631184E-01  0.51100000000E-03 0. -1.
</event>
<event>
 8    1  0.1150863E+005  0.1043930E+01  0.7957747E-01            NaN
         13   -1    0    0    0    0  0.00000000000E+00  0.00000000000E+00  0.74505805969E-08  0.10566000000E+00  0.10566000000E+00 0.  1.
     999900   -1    0    0    0    0 -0.00000000000E+00 -0.00000000000E+00 -0.74505805969E-08  0.93827000000E+00  0.93827000000E+00 0.  1.
     999902    2    1    2    0    0  0.10337510006E-02  0.20946817933E-01  0.11100132395E-01  0.10202013093E+01  0.10199253212E+01 0.  0.
     999903    2    3    3    0    0 -0.11418945760E+00 -0.43901068232E-01 -0.36750015724E-01  0.12903843261E+00  0.18270670866E-01 0.  0.
         14    1    1    2    0    0 -0.10337510006E-02 -0.20946817933E-01 -0.11100132395E-01  0.23728690690E-01  0.00000000000E+00 0. -1.
     999901    1    3    3    0    0  0.11522320860E+00  0.64847886165E-01  0.47850148119E-01  0.89116287670E+00  0.88000000000E+00 0. -1.
        -11    1    4    4    0    0 -0.17390696457E-01 -0.13923937596E-01 -0.49095089368E-02  0.22818342632E-01  0.51100000000E-03 0.  1.
         11    1    4    4    0    0 -0.96798761146E-01 -0.29977130636E-01 -0.31840506787E-01  0.10622008997E+00  0.51100000000E-03 0. -1.
</event>
<event>
 8    1  0.1150863E+005  0.1043930E+01  0.7957747E-01            NaN
         13   -1    0    0    0    0  0.00000000000E+00  0.00000000000E+00  0.74505805969E-08  0.10566000000E+00  0.10566000000E+00 0.  1.
     999900   -1    0    0    0    0 -0.00000000000E+00 -0.00000000000E+00 -0.74505805969E-08  0.93827000000E+00  0.93827000000E+00 0. -1.
     999902    2    1    2    0    0  0.28856040126E-02 -0.17137625963E-01  0.15911945062E-01  0.10203670008E+01  0.10200948983E+01 0.  0.
     999903    2    3    3    0    0  0.49865460727E-01  0.14425143952E-01  0.12021327690E+00  0.13240186458E+00  0.19605429069E-01 0.  0.
         14    1    1    2    0    0 -0.28856040126E-02  0.17137625963E-01 -0.15911945062E-01  0.23562999169E-01  0.00000000000E+00 0. -1.
     999901    1    3    3    0    0 -0.46979856715E-01 -0.31562769915E-01 -0.10430133184E+00  0.88796513626E+00  0.88000000000E+00 0. -1.
        -11    1    4    4    0    0  0.53908055499E-02  0.89857104562E-02  0.27347015493E-01  0.29290342337E-01  0.51100000000E-03 0.  1.
         11    1    4    4    0    0  0.44474655178E-01  0.54394334956E-02  0.92866261406E-01  0.10311152224E+00  0.51100000000E-03 0. -1.
</event>
<event>
 8    1  0.1150863E+005  0.1043930E+01  0.7957747E-01            NaN
         13   -1    0    0    0    0  0.00000000000E+00  0.00000000000E+00  0.74505805969E-08  0.10566000000E+00  0.10566000000E+00 0. -1.
     999900   -1    0    0    0    0 -0.00000000000E+00 -0.00000000000E+00 -0.74505805969E-08  0.93827000000E+00  0.93827000000E+00 0.  1.
     999902    2    1    2    0    0 -0.16614851867E-01 -0.97165934722E-02  0.13089308458E-01  0.10206534992E+01  0.10203880488E+01 0.  0.
     999903    2    3    3    0    0  0.22528743956E-01  0.55397930731E-01 -0.11198810213E+00  0.12856803193E+00  0.20296028745E-01 0.  0.
         14    1    1    2    0    0  0.16614851867E-01  0.97165934722E-02 -0.13089308458E-01  0.23276500750E-01  0.00000000000E+00 0.  1.
     999901    1    3    3    0    0 -0.39143595824E-01 -0.65114524203E-01  0.12507741059E+00  0.89208546732E+00  0.88000000000E+00 0. -1.
        -11    1    4    4    0    0  0.24444911965E-01  0.55074935000E-01 -0.10276807132E+00  0.11913160702E+00  0.51100000000E-03 0. -1.
         11    1    4    4    0    0 -0.19161680088E-02  0.32299573094E-03 -0.92200308106E-02  0.94364249178E-02  0.51100000000E-03 0.  1.
</event>
<event>
 8    1  0.1150863E+005  0.1043930E+01  0.7957747E-01            NaN
         13   -1    0    0    0    0  0.00000000000E+00  0.00000000000E+00  0.74505805969E-08  0.10566000000E+00  0.10566000000E+00 0. -1.
     999900   -1    0    0    0    0 -0.00000000000E+00 -0.00000000000E+00 -0.74505805969E-08  0.93827000000E+00  0.93827000000E+00 0.  1.
     999902    2    1    2    0    0 -0.12642069838E-01  0.18435718376E-01 -0.86692826462E-02  0.10199538847E+01  0.10196720418E+01 0.  0.
     999903    2    3    3    0    0 -0.12892135248E-01  0.34291479585E-01 -0.12534208482E+00  0.13211155049E+00  0.20017762700E-01 0.  0.
         14    1    1    2    0    0  0.12642069838E-01 -0.18435718376E-01  0.86692826462E-02  0.23976115270E-01  0.00000000000E+00 0. -1.
     999901    1    3    3    0    0  0.25006541064E-03 -0.15855761209E-01  0.11667280217E+00  0.88784233424E+00  0.88000000000E+00 0. -1.
        -11    1    4    4    0    0 -0.14314171156E-01  0.29949136224E-01 -0.81107395306E-01  0.87638558585E-01  0.51100000000E-03 0.  1.
         11    1    4    4    0    0  0.14220359075E-02  0.43423433611E-02 -0.44234689513E-01  0.44472991909E-01  0.51100000000E-03 0. -1.
</event>
<event>
 8    1  0.1150863E+005  0.1043930E+01  0.7957747E-01            NaN
         13   -1    0    0    0    0  0.00000000000E+00  0.00000000000E+00  0.74505805969E-08  0.10566000000E+00  0.10566000000E+00 0. -1.
     999900   -1    0    0    0    0 -0.00000000000E+00 -0.00000000000E+00 -0.74505805969E-08  0.93827000000E+00  0.93827000000E+00 0.  1.
     999902    2    1    2    0    0  0.10429917609E-01 -0.20891651446E-01  0.46980359550E-02  0.10201116075E+01  0.10198335040E+01 0.  0.
     999903    2    3    3    0    0 -0.29558811693E-01  0.98948480157E-01  0.73880219351E-01  0.12840149194E+00  0.19082223334E-01 0.  0.
         14    1    1    2    0    0 -0.10429917609E-01  0.20891651446E-01 -0.46980359550E-02  0.23818392543E-01  0.00000000000E+00 0. -1.
     999901    1    3    3    0    0  0.39988729303E-01 -0.11984013160E+00 -0.69182183396E-01  0.89171011552E+00  0.88000000000E+00 0. -1.
        -11    1    4    4    0    0 -0.11554660517E-01  0.17038685806E-01  0.95298968681E-02  0.22691563388E-01  0.51100000000E-03 0. -1.
         11    1    4    4    0    0 -0.18004151176E-01  0.81909794351E-01  0.64350322483E-01  0.10570992855E+00  0.51100000000E-03 0.  1.
</event>
<event>
 8    1  0.1150863E+005  0.1043930E+01  0.7957747E-01            NaN
         13   -1    0    0    0    0  0.00000000000E+00  0.00000000000E+00  0.74505805969E-08  0.10566000000E+00  0.10566000000E+00 0.  1.
     999900   -1    0    0    0    0 -0.00000000000E+00 -0.00000000000E+00 -0.74505805969E-08  0.93827000000E+00  0.93827000000E+00 0. -1.
     999902    2    1    2    0    0  0.14932787128E-01 -0.11271673527E-01  0.13975442082E-01  0.10205772328E+01  0.10203100197E+01 0.  0.
     999903    2    3    3    0    0 -0.11661268963E+00  0.15923173104E-01 -0.47795527086E-01  0.12824353692E+00  0.17604701816E-01 0.  0.
         14    1    1    2    0    0 -0.14932787128E-01  0.11271673527E-01 -0.13975442082E-01  0.23352767221E-01  0.00000000000E+00 0. -1.
     999901    1    3    3    0    0  0.13154547676E+00 -0.27194846631E-01  0.61770969167E-01  0.89233369586E+00  0.88000000000E+00 0. -1.
        -11    1    4    4    0    0 -0.49449612810E-01  0.11257722797E-01 -0.28637280373E-01  0.58243930824E-01  0.51100000000E-03 0.  1.
         11    1    4    4    0    0 -0.67163076824E-01  0.46654503067E-02 -0.19158246713E-01  0.69999606093E-01  0.51100000000E-03 0. -1.
</event>
<event>
 8    1  0.1150863E+005  0.1043930E+01  0.7957747E-01            NaN
         13   -1    0    0    0    0  0.00000000000E+00  0.00000000000E+00  0.74505805969E-08  0.10566000000E+00  0.10566000000E+00 0.  1.
     999900   -1    0    0    0    0 -0.00000000000E+00 -0.00000000000E+00 -0.74505805969E-08  0.93827000000E+00  0.93827000000E+00 0. -1.
     999902    2    1    2    0    0  0.56337491078E-02  0.22984372816E-01 -0.30390615399E-02  0.10200709049E+01  0.10197918389E+01 0.  0.
     999903    2    3    3    0    0  0.28779009536E-01 -0.11299709044E+00  0.48446843618E-01  0.12783917501E+00  0.19979593921E-01 0.  0.
         14    1    1    2    0    0 -0.56337491078E-02 -0.22984372816E-01  0.30390615399E-02  0.23859095075E-01  0.00000000000E+00 0. -1.
     999901    1    3    3    0    0 -0.23145260428E-01  0.13598146326E+00 -0.51485905158E-01  0.89223172991E+00  0.88000000000E+00 0. -1.
        -11    1    4    4    0    0  0.23251758901E-01 -0.10362137725E+00  0.38138401527E-01  0.11283985513E+00  0.51100000000E-03 0.  1.
         11    1    4    4    0    0  0.55272506348E-02 -0.93757131953E-02  0.10308442092E-01  0.14999319880E-01  0.51100000000E-03 0. -1.
</event>
<event>
 8    1  0.1150863E+005  0.1043930E+01  0.7957747E-01            NaN
         13   -1    0    0    0    0  0.00000000000E+00  0.00000000000E+00  0.74505805969E-08  0.10566000000E+00  0.10566000000E+00 0. -1.
     999900   -1    0    0    0    0 -0.00000000000E+00 -0.00000000000E+00 -0.74505805969E-08  0.93827000000E+00  0.93827000000E+00 0. -1.
     999902    2    1    2    0    0 -0.12942831329E-01  0.22555982984E-01 -0.14792646645E-01  0.10140115835E+01  0.10135701159E+01 0.  0.
     999903    2    3    3    0    0 -0.10755236612E+00 -0.45210399499E-01 -0.42925504108E-01  0.12590421142E+00  0.19944419530E-01 0.  0.
         14    1    1    2    0    0  0.12942831329E-01 -0.22555982984E-01  0.14792646645E-01  0.29918416501E-01  0.00000000000E+00 0. -1.
     999901    1    3    3    0    0  0.94609534790E-01  0.67766382482E-01  0.28132857463E-01  0.88810737208E+00  0.88000000000E+00 0.  1.
        -11    1    4    4    0    0 -0.45971989312E-01 -0.15542456366E-01 -0.81500975390E-02  0.49210537104E-01  0.51100000000E-03 0.  1.
         11    1    4    4    0    0 -0.61580376807E-01 -0.29667943133E-01 -0.34775406569E-01  0.76693674318E-01  0.51100000000E-03 0. -1.
</event>
<event>
 8    1  0.1150863E+005  0.1043930E+01  0.7957747E-01            NaN
         13   -1    0    0    0    0  0.00000000000E+00  0.00000000000E+00  0.74505805969E-08  0.10566000000E+00  0.10566000000E+00 0.  1.
     999900   -1    0    0    0    0 -0.00000000000E+00 -0.00000000000E+00 -0.74505805969E-08  0.93827000000E+00  0.93827000000E+00 0. -1.
     999902    2    1    2    0    0  0.21326035356E-01 -0.28100842959E-01 -0.53773330436E-02  0.10082456495E+01  0.10076139722E+01 0.  0.
     999903    2    3    3    0    0  0.96271712982E-01  0.66903827145E-01 -0.15503573037E-01  0.11990715396E+00  0.19824227295E-01 0.  0.
         14    1    1    2    0    0 -0.21326035356E-01  0.28100842959E-01  0.53773330436E-02  0.35684350487E-01  0.00000000000E+00 0.  1.
     999901    1    3    3    0    0 -0.74945677626E-01 -0.95004670104E-01  0.10126239993E-01  0.88833849555E+00  0.88000000000E+00 0. -1.
        -11    1    4    4    0    0  0.65547067201E-01  0.33884981420E-01 -0.10193830575E-01  0.74490169065E-01  0.51100000000E-03 0. -1.
         11    1    4    4    0    0  0.30724645781E-01  0.33018845725E-01 -0.53097424622E-02  0.45416984900E-01  0.51100000000E-03 0.  1.
</event>
<event>
 8    1  0.1150863E+005  0.1043930E+01  0.7957747E-01            NaN
         13   -1    0    0    0    0  0.00000000000E+00  0.00000000000E+00  0.74505805969E-08  0.10566000000E+00  0.10566000000E+00 0. -1.
     999900   -1    0    0    0    0 -0.00000000000E+00 -0.00000000000E+00 -0.74505805969E-08  0.93827000000E+00  0.93827000000E+00 0. -1.
     999902    2    1    2    0    0 -0.19779182192E-01  0.82988164160E-02 -0.95846334757E-02  0.10204363498E+01  0.10201658651E+01 0.  0.
     999903    2    3    3    0    0 -0.54624657917E-01 -0.17941370099E-01 -0.11793087243E+00  0.13271924277E+00  0.20024003484E-01 0.  0.
         14    1    1    2    0    0  0.19779182192E-01 -0.82988164160E-02  0.95846334757E-02  0.23493650226E-01  0.00000000000E+00 0.  1.
     999901    1    3    3    0    0  0.34845475725E-01  0.26240186515E-01  0.10834623896E+00  0.88771710700E+00  0.88000000000E+00 0.  1.
        -11    1    4    4    0    0 -0.20028992996E-01  0.58527501862E-04 -0.56562154766E-01  0.60005853537E-01  0.51100000000E-03 0.  1.
         11    1    4    4    0    0 -0.34595664921E-01 -0.17999897600E-01 -0.61368717668E-01  0.72713389236E-01  0.51100000000E-03 0. -1.
</event>
<event>
 8    1  0.1150863E+005  0.1043930E+01  0.7957747E-01            NaN
         13   -1    0    0    0    0  0.00000000000E+00  0.00000000000E+00  0.74505805969E-08  0.10566000000E+00  0.10566000000E+00 0. -1.
     999900   -1    0    0    0    0 -0.00000000000E+00 -0.00000000000E+00 -0.74505805969E-08  0.93827000000E+00  0.93827000000E+00 0.  1.
     999902    2    1    2    0    0  0.31004525904E-02  0.20098663020E-01 -0.11388521392E-01  0.10206219010E+01  0.10203557209E+01 0.  0.
     999903    2    3    3    0    0  0.85641290361E-01 -0.79462404124E-01  0.50796324929E-01  0.12899846525E+00  0.20288743846E-01 0.  0.
         14    1    1    2    0    0 -0.31004525904E-02 -0.20098663020E-01  0.11388521392E-01  0.23308099042E-01  0.00000000000E+00 0. -1.
     999901    1    3    3    0    0 -0.82540837771E-01  0.99561067144E-01 -0.62184846321E-01  0.89162343571E+00  0.88000000000E+00 0.  1.
        -11    1    4    4    0    0  0.20760490138E-01 -0.17242085210E-01  0.29200239781E-02  0.27149127319E-01  0.51100000000E-03 0. -1.
         11    1    4    4    0    0  0.64880800223E-01 -0.62220318914E-01  0.47876300951E-01  0.10184933793E+00  0.51100000000E-03 0.  1.
</event>
<event>
 8    1  0.1150863E+005  0.1043930E+01  0.7957747E-01            NaN
         13   -1    0    0    0    0  0.00000000000E+00  0.00000000000E+00  0.74505805969E-08  0.10566000000E+00  0.10566000000E+00 0. -1.
     999900   -1    0    0    0    0 -0.00000000000E+00 -0.00000000000E+00 -0.74505805969E-08  0.93827000000E+00  0.93827000000E+00 0.  1.
     999902    2    1    2    0    0 -0.32625003716E-02 -0.15253023735E-01 -0.18668678928E-01  0.10196026858E+01  0.10193124245E+01 0.  0.
     999903    2    3    3    0    0  0.55999946452E-01  0.35629969976E-01  0.10675784683E+00  0.12728383586E+00  0.19961168475E-01 0.  0.
         14    1    1    2    0    0  0.32625003716E-02  0.15253023735E-01  0.18668678928E-01  0.24327314169E-01  0.00000000000E+00 0. -1.
     999901    1    3    3    0    0 -0.59262446824E-01 -0.50882993711E-01 -0.12542652576E+00  0.89231884997E+00  0.88000000000E+00 0.  1.
        -11    1    4    4    0    0  0.25232424031E-01  0.13861222346E-01  0.64635485707E-01  0.70758856979E-01  0.51100000000E-03 0.  1.
         11    1    4    4    0    0  0.30767522421E-01  0.21768747631E-01  0.42122361128E-01  0.56524978879E-01  0.51100000000E-03 0. -1.
</event>
<event>
 8    1  0.1150863E+005  0.1043930E+01  0.7957747E-01            NaN
         13   -1    0    0    0    0  0.00000000000E+00  0.00000000000E+00  0.74505805969E-08  0.10566000000E+00  0.10566000000E+00 0.  1.
     999900   -1    0    0    0    0 -0.00000000000E+00 -0.00000000000E+00 -0.74505805969E-08  0.93827000000E+00  0.93827000000E+00 0.  1.
     999902    2    1    2    0    0 -0.17018414734E-01 -0.64717676867E-02  0.16476757825E-01  0.10193740686E+01  0.10190782590E+01 0.  0.
     999903    2    3    3    0    0  0.93514649245E-01  0.71321730756E-01 -0.43545619628E-01  0.12703328595E+00  0.20235015436E-01 0.  0.
         14    1    1    2    0    0  0.17018414734E-01  0.64717676867E-02 -0.16476757825E-01  0.24555931371E-01  0.00000000000E+00 0. -1.
     999901    1    3    3    0    0 -0.11053306398E+00 -0.77793498443E-01  0.60022377453E-01  0.89234078268E+00  0.88000000000E+00 0. -1.
        -11    1    4    4    0    0  0.83854377083E-01  0.55341521065E-01 -0.39247230223E-01  0.10786494663E+00  0.51100000000E-03 0.  1.
         11    1    4    4    0    0  0.96602721621E-02  0.15980209691E-01 -0.42983894054E-02  0.19168339325E-01  0.51100000000E-03 0. -1.
</event>
<event>
 8    1  0.1150863E+005  0.1043930E+01  0.7957747E-01            NaN
         13   -1    0    0    0    0  0.00000000000E+00  0.00000000000E+00  0.74505805969E-08  0.10566000000E+00  0.10566000000E+00 0. -1.
     999900   -1    0    0    0    0 -0.00000000000E+00 -0.00000000000E+00 -0.74505805969E-08  0.93827000000E+00  0.93827000000E+00 0.  1.
     999902    2    1    2    0    0 -0.15671922059E-01  0.78177813778E-02  0.68779715607E-02  0.10251142263E+01  0.10249415318E+01 0.  0.
     999903    2    3    3    0    0  0.73984220073E-01  0.10177032030E-01  0.11038587657E+00  0.13452022438E+00  0.18259578837E-01 0.  0.
         14    1    1    2    0    0  0.15671922059E-01 -0.78177813778E-02 -0.68779715607E-02  0.18815773688E-01  0.00000000000E+00 0.  1.
     999901    1    3    3    0    0 -0.89656142133E-01 -0.23592506522E-02 -0.10350790501E+00  0.89059400194E+00  0.88000000000E+00 0.  1.
        -11    1    4    4    0    0  0.32056969692E-01  0.15790597298E-02  0.62718299731E-01  0.70455581593E-01  0.51100000000E-03 0. -1.
         11    1    4    4    0    0  0.41927250382E-01  0.85979723002E-02  0.47667576838E-01  0.64064642782E-01  0.51100000000E-03 0.  1.
</event>
<event>
 8    1  0.1150863E+005  0.1043930E+01  0.7957747E-01            NaN
         13   -1    0    0    0    0  0.00000000000E+00  0.00000000000E+00  0.74505805969E-08  0.10566000000E+00  0.10566000000E+00 0. -1.
     999900   -1    0    0    0    0 -0.00000000000E+00 -0.00000000000E+00 -0.74505805969E-08  0.93827000000E+00  0.93827000000E+00 0. -1.
     999902    2    1    2    0    0  0.19067348925E-01 -0.15063624394E-01 -0.20982745272E-03  0.10196293703E+01  0.10193397531E+01 0.  0.
     999903    2    3    3    0    0  0.17308269097E-02 -0.11678018529E+00 -0.57577797989E-01  0.13174542645E+00  0.20026161156E-01 0.  0.
         14    1    1    2    0    0 -0.19067348925E-01  0.15063624394E-01  0.20982745272E-03  0.24300629672E-01  0.00000000000E+00 0.  1.
     999901    1    3    3    0    0  0.17336522015E-01  0.10171656090E+00  0.57367970536E-01  0.88788394388E+00  0.88000000000E+00 0.  1.
        -11    1    4    4    0    0  0.14482656253E-02 -0.47549589062E-01 -0.34500885121E-01  0.58767619387E-01  0.51100000000E-03 0. -1.
         11    1    4    4    0    0  0.28256128442E-03 -0.69230596227E-01 -0.23076912868E-01  0.72977807060E-01  0.51100000000E-03 0.  1.
</event>
<event>
 8    1  0.1150863E+005  0.1043930E+01  0.7957747E-01            NaN
         13   -1    0    0    0    0  0.00000000000E+00  0.00000000000E+00  0.74505805969E-08  0.10566000000E+00  0.10566000000E+00 0. -1.
     999900   -1    0    0    0    0 -0.00000000000E+00 -0.00000000000E+00 -0.74505805969E-08  0.93827000000E+00  0.93827000000E+00 0.  1.
     999902    2    1    2    0    0  0.10297991729E-01 -0.18719635323E-01  0.92712561370E-02  0.10206398826E+01  0.10203741178E+01 0.  0.
     999903    2    3    3    0    0  0.40145367472E-01 -0.10042384568E+00  0.76187173145E-01  0.13382299967E+00  0.20186891210E-01 0.  0.
         14    1    1    2    0    0 -0.10297991729E-01  0.18719635323E-01 -0.92712561370E-02  0.23290117445E-01  0.00000000000E+00 0.  1.
     999901    1    3    3    0    0 -0.29847375743E-01  0.81704210358E-01 -0.66915917008E-01  0.88681688289E+00  0.88000000000E+00 0. -1.
        -11    1    4    4    0    0  0.16952644228E-02 -0.16196329162E-01  0.50399427188E-02  0.17054534394E-01  0.51100000000E-03 0. -1.
         11    1    4    4    0    0  0.38450103049E-01 -0.84227516519E-01  0.71147230426E-01  0.11676846527E+00  0.51100000000E-03 0.  1.
</event>
<event>
 8    1  0.1150863E+005  0.1043930E+01  0.7957747E-01            NaN
         13   -1    0    0    0    0  0.00000000000E+00  0.00000000000E+00  0.74505805969E-08  0.10566000000E+00  0.10566000000E+00 0. -1.
     999900   -1    0    0    0    0 -0.00000000000E+00 -0.00000000000E+00 -0.74505805969E-08  0.93827000000E+00  0.93827000000E+00 0. -1.
     999902    2    1    2    0    0 -0.11140350964E-01  0.16892207352E-02  0.15231373492E-01  0.10249838757E+01  0.10248087577E+01 0.  0.
     999903    2    3    3    0    0  0.10851153954E+00  0.73169421074E-01  0.18779281235E-01  0.13400767987E+00  0.21837547164E-01 0.  0.
         14    1    1    2    0    0  0.11140350964E-01 -0.16892207352E-02 -0.15231373492E-01  0.18946124267E-01  0.00000000000E+00 0.  1.
     999901    1    3    3    0    0 -0.11965189051E+00 -0.71480200338E-01 -0.35479077431E-02  0.89097619586E+00  0.88000000000E+00 0.  1.
        -11    1    4    4    0    0  0.31219789811E-01  0.20567093219E-01  0.15444646486E-01  0.40453415497E-01  0.51100000000E-03 0. -1.
         11    1    4    4    0    0  0.77291749734E-01  0.52602327855E-01  0.33346347492E-02  0.93554264374E-01  0.51100000000E-03 0.  1.
</event>
<event>
 8    1  0.1150863E+005  0.1043930E+01  0.7957747E-01            NaN
         13   -1    0    0    0    0  0.00000000000E+00  0.00000000000E+00  0.74505805969E-08  0.10566000000E+00  0.10566000000E+00 0.  1.
     999900   -1    0    0    0    0 -0.00000000000E+00 -0.00000000000E+00 -0.74505805969E-08  0.93827000000E+00  0.93827000000E+00 0. -1.
     999902    2    1    2    0    0 -0.18760189382E-01  0.12668673862E-01 -0.10604682120E-01  0.10189320144E+01  0.10186253240E+01 0.  0.
     999903    2    3    3    0    0  0.34134375252E-01 -0.11883094203E+00 -0.22783824924E-01  0.12750713504E+00  0.21284230116E-01 0.  0.
         14    1    1    2    0    0  0.18760189382E-01 -0.12668673862E-01  0.10604682120E-01  0.24997985638E-01  0.00000000000E+00 0. -1.
     999901    1    3    3    0    0 -0.52894564635E-01  0.13149961589E+00  0.12179142804E-01  0.89142487932E+00  0.88000000000E+00 0.  1.
        -11    1    4    4    0    0  0.18285332768E-01 -0.40959347284E-01 -0.16472050579E-01  0.47787143623E-01  0.51100000000E-03 0. -1.
         11    1    4    4    0    0  0.15849042484E-01 -0.77871594745E-01 -0.63117743448E-02  0.79719991421E-01  0.51100000000E-03 0.  1.
</event>
<event>
 8    1  0.1150863E+005  0.1043930E+01  0.7957747E-01            NaN
         13   -1    0    0    0    0  0.00000000000E+00  0.00000000000E+00  0.74505805969E-08  0.10566000000E+00  0.10566000000E+00 0. -1.
     999900   -1    0    0    0    0 -0.00000000000E+00 -0.00000000000E+00 -0.74505805969E-08  0.93827000000E+00  0.93827000000E+00 0. -1.
     999902    2    1    2    0    0 -0.19378013607E-02  0.17866278881E-01  0.15654696128E-01  0.10200966514E+01  0.10198181944E+01 0.  0.
     999903    2    3    3    0    0  0.41454544743E-01  0.68972058633E-01 -0.10019516990E+00  0.12997537432E+00  0.19465397671E-01 0.  0.
         14    1    1    2    0    0  0.19378013607E-02 -0.17866278881E-01 -0.15654696128E-01  0.23833348611E-01  0.00000000000E+00 0.  1.
     999901    1    3    3    0    0 -0.43392346104E-01 -0.51105779752E-01  0.11584986603E+00  0.89012127707E+00  0.88000000000E+00 0.  1.
        -11    1    4    4    0    0  0.30321319737E-01  0.54460252136E-01 -0.88538080888E-01  0.10827998144E+00  0.51100000000E-03 0. -1.
         11    1    4    4    0    0  0.11133225006E-01  0.14511806497E-01 -0.11657089017E-01  0.21695392879E-01  0.51100000000E-03 0.  1.
</event>
<event>
 8    1  0.1150863E+005  0.1043930E+01  0.7957747E-01            NaN
         13   -1    0    0    0    0  0.00000000000E+00  0.00000000000E+00  0.74505805969E-08  0.10566000000E+00  0.10566000000E+00 0. -1.
     999900   -1    0    0    0    0 -0.00000000000E+00 -0.00000000000E+00 -0.74505805969E-08  0.93827000000E+00  0.93827000000E+00 0. -1.
     999902    2    1    2    0    0  0.13052527276E-01  0.19135512228E-01 -0.70358051064E-02  0.10197217607E+01  0.10194343679E+01 0.  0.
     999903    2    3    3    0    0 -0.42230787700E-01 -0.14035137488E-02  0.11982539189E+00  0.12867077461E+00  0.20313404887E-01 0.  0.
         14    1    1    2    0    0 -0.13052527276E-01 -0.19135512228E-01  0.70358051064E-02  0.24208239300E-01  0.00000000000E+00 0.  1.
     999901    1    3    3    0    0  0.55283314975E-01  0.20539025976E-01 -0.12686119699E+00  0.89105098609E+00  0.88000000000E+00 0. -1.
        -11    1    4    4    0    0 -0.36844672035E-03 -0.46560103154E-02  0.15988136721E-01  0.16664207808E-01  0.51100000000E-03 0. -1.
         11    1    4    4    0    0 -0.41862340979E-01  0.32524965666E-02  0.10383725517E+00  0.11200656681E+00  0.51100000000E-03 0.  1.
</event>
<event>
 8    1  0.1150863E+005  0.1043930E+01  0.7957747E-01            NaN
         13   -1    0    0    0    0  0.00000000000E+00  0.00000000000E+00  0.74505805969E-08  0.10566000000E+00  0.10566000000E+00 0. -1.
     999900   -1    0    0    0    0 -0.00000000000E+00 -0.00000000000E+00 -0.74505805969E-08  0.93827000000E+00  0.93827000000E+00 0.  1.
     999902    2    1    2    0    0  0.15950362224E-02  0.17875819191E-01 -0.14943469178E-01  0.10205762782E+01  0.10203090430E+01 0.  0.
     999903    2    3    3    0    0  0.15404707348E-01 -0.61405950276E-01  0.10970266787E+00  0.12815655323E+00  0.19530260078E-01 0.  0.
         14    1    1    2    0    0 -0.15950362224E-02 -0.17875819191E-01  0.14943469178E-01  0.23353721831E-01  0.00000000000E+00 0. -1.
     999901    1    3    3    0    0 -0.13809671126E-01  0.79281769467E-01 -0.12464613705E+00  0.89241972494E+00  0.88000000000E+00 0.  1.
        -11    1    4    4    0    0  0.30161471931E-02 -0.36560378411E-01  0.47348488977E-01  0.59899072971E-01  0.51100000000E-03 0. -1.
         11    1    4    4    0    0  0.12388560155E-01 -0.24845571865E-01  0.62354178895E-01  0.68257480254E-01  0.51100000000E-03 0.  1.
</event>
<event>
 8    1  0.1150863E+005  0.1043930E+01  0.7957747E-01            NaN
         13   -1    0    0    0    0  0.00000000000E+00  0.00000000000E+00  0.74505805969E-08  0.10566000000E+00  0.10566000000E+00 0.  1.
     999900   -1    0    0    0    0 -0.00000000000E+00 -0.00000000000E+00 -0.74505805969E-08  0.93827000000E+00  0.93827000000E+00 0.  1.
     999902    2    1    2    0    0 -0.67459836675E-02  0.40273710945E-02  0.23442562593E-01  0.10192058872E+01  0.10189059617E+01 0.  0.
     999903    2    3    3    0    0 -0.10390506502E+00 -0.72120124358E-01  0.25600757409E-01  0.13058730424E+00  0.20001759252E-01 0.  0.
         14    1    1    2    0    0  0.67459836675E-02 -0.40273710945E-02 -0.23442562593E-01  0.24724112816E-01  0.00000000000E+00 0. -1.
     999901    1    3    3    0    0  0.97159081356E-01  0.76147495452E-01 -0.21581948152E-02  0.88861858295E+00  0.88000000000E+00 0.  1.
        -11    1    4    4    0    0 -0.46128406282E-01 -0.43588921824E-01  0.95786866446E-02  0.64185951194E-01  0.51100000000E-03 0. -1.
         11    1    4    4    0    0 -0.57776658742E-01 -0.28531202534E-01  0.16022070764E-01  0.66401353043E-01  0.51100000000E-03 0.  1.
</event>
<event>
 8    1  0.1150863E+005  0.1043930E+01  0.7957747E-01            NaN
         13   -1    0    0    0    0  0.00000000000E+00  0.00000000000E+00  0.74505805969E-08  0.10566000000E+00  0.10566000000E+00 0.  1.
     999900   -1    0    0    0    0 -0.00000000000E+00 -0.00000000000E+00 -0.74505805969E-08  0.93827000000E+00  0.93827000000E+00 0.  1.
     999902    2    1    2    0    0  0.86701452141E-02 -0.10276914739E-01  0.19448918776E-01  0.10202858287E+01  0.10200118261E+01 0.  0.
     999903    2    3    3    0    0 -0.68157072287E-01 -0.96012262722E-01  0.57324464129E-01  0.13197984078E+00  0.16396435284E-01 0.  0.
         14    1    1    2    0    0 -0.86701452141E-02  0.10276914739E-01 -0.19448918776E-01  0.23644171293E-01  0.00000000000E+00 0. -1.
     999901    1    3    3    0    0  0.76827217501E-01  0.85735347983E-01 -0.37875545353E-01  0.88830598792E+00  0.88000000000E+00 0.  1.
        -11    1    4    4    0    0 -0.80489567084E-02 -0.87644327532E-02  0.90716025444E-03  0.11945084609E-01  0.51100000000E-03 0. -1.
         11    1    4    4    0    0 -0.60108115579E-01 -0.87247829969E-01  0.56417303875E-01  0.12003475618E+00  0.51100000000E-03 0.  1.
</event>
<event>
 8    1  0.1150863E+005  0.1043930E+01  0.7957747E-01            NaN
         13   -1    0    0    0    0  0.00000000000E+00  0.00000000000E+00  0.74505805969E-08  0.10566000000E+00  0.10566000000E+00 0. -1.
     999900   -1    0    0    0    0 -0.00000000000E+00 -0.00000000000E+00 -0.74505805969E-08  0.93827000000E+00  0.93827000000E+00 0.  1.
     999902    2    1    2    0    0  0.56136279588E-03  0.22409619142E-01 -0.88891781086E-02  0.10198151986E+01  0.10195300465E+01 0.  0.
     999903    2    3    3    0    0  0.20569706571E-01  0.12778339591E+00 -0.24263760516E-01  0.13316964123E+00  0.19842232027E-01 0.  0.
         14    1    1    2    0    0 -0.56136279588E-03 -0.22409619142E-01  0.88891781086E-02  0.24114801382E-01  0.00000000000E+00 0. -1.
     999901    1    3    3    0    0 -0.20008343775E-01 -0.10537377677E+00  0.15374582407E-01  0.88664555739E+00  0.88000000000E+00 0. -1.
        -11    1    4    4    0    0  0.20957695305E-01  0.92655193920E-01 -0.24217721472E-01  0.98035550221E-01  0.51100000000E-03 0. -1.
         11    1    4    4    0    0 -0.38798873425E-03  0.35128201992E-01 -0.46039043934E-04  0.35134091009E-01  0.51100000000E-03 0.  1.
</event>
<event>
 8    1  0.1150863E+005  0.1043930E+01  0.7957747E-01            NaN
         13   -1    0    0    0    0  0.00000000000E+00  0.00000000000E+00  0.74505805969E-08  0.10566000000E+00  0.10566000000E+00 0. -1.
     999900   -1    0    0    0    0 -0.00000000000E+00 -0.00000000000E+00 -0.74505805969E-08  0.93827000000E+00  0.93827000000E+00 0.  1.
     999902    2    1    2    0    0  0.22057319497E-01 -0.76623919924E-02  0.68717720767E-02  0.10195895225E+01  0.10192989431E+01 0.  0.
     999903    2    3    3    0    0  0.20567519035E-01  0.10264156337E+00  0.74334971364E-01  0.13013999309E+00  0.21270083745E-01 0.  0.
         14    1    1    2    0    0 -0.22057319497E-01  0.76623919924E-02 -0.68717720767E-02  0.24340477520E-01  0.00000000000E+00 0.  1.
     999901    1    3    3    0    0  0.14898004623E-02 -0.11030395537E+00 -0.67463199287E-01  0.88944952939E+00  0.88000000000E+00 0.  1.
        -11    1    4    4    0    0  0.13338559611E-01  0.57080635176E-01  0.54078675967E-01  0.79755127735E-01  0.51100000000E-03 0.  1.
         11    1    4    4    0    0  0.72289594237E-02  0.45560928198E-01  0.20256295396E-01  0.50384865355E-01  0.51100000000E-03 0. -1.
</event>
<event>
 8    1  0.1150863E+005  0.1043930E+01  0.7957747E-01            NaN
         13   -1    0    0    0    0  0.00000000000E+00  0.00000000000E+00  0.74505805969E-08  0.10566000000E+00  0.10566000000E+00 0. -1.
     999900   -1    0    0    0    0 -0.00000000000E+00 -0.00000000000E+00 -0.74505805969E-08  0.93827000000E+00  0.93827000000E+00 0. -1.
     999902    2    1    2    0    0  0.19991250727E-01 -0.20192046825E-01  0.13043324001E-01  0.10126650490E+01  0.10121822980E+01 0.  0.
     999903    2    3    3    0    0 -0.24547658313E-01 -0.67113543973E-01 -0.98533351570E-01  0.12326373583E+00  0.19450241306E-01 0.  0.
         14    1    1    2    0    0 -0.19991250727E-01  0.20192046825E-01 -0.13043324001E-01  0.31264951010E-01  0.00000000000E+00 0. -1.
     999901    1    3    3    0    0  0.44538909041E-01  0.46921497148E-01  0.11157667557E+00  0.88940131316E+00  0.88000000000E+00 0.  1.
        -11    1    4    4    0    0 -0.33589412294E-02  0.27682527665E-03 -0.41650944930E-02  0.53822162305E-02  0.51100000000E-03 0. -1.
         11    1    4    4    0    0 -0.21188717084E-01 -0.67390369250E-01 -0.94368257077E-01  0.11788151960E+00  0.51100000000E-03 0.  1.
</event>
<event>
 8    1  0.1150863E+005  0.1043930E+01  0.7957747E-01            NaN
         13   -1    0    0    0    0  0.00000000000E+00  0.00000000000E+00  0.74505805969E-08  0.10566000000E+00  0.10566000000E+00 0. -1.
     999900   -1    0    0    0    0 -0.00000000000E+00 -0.00000000000E+00 -0.74505805969E-08  0.93827000000E+00  0.93827000000E+00 0.  1.
     999902    2    1    2    0    0 -0.26787392572E-02 -0.15415504576E-01  0.17912098940E-01  0.10201464613E+01  0.10198691807E+01 0.  0.
     999903    2    3    3    0    0  0.11984877178E-01 -0.12715360608E+00  0.30766042015E-01  0.13286654557E+00  0.19881971005E-01 0.  0.
         14    1    1    2    0    0  0.26787392572E-02  0.15415504576E-01 -0.17912098940E-01  0.23783538715E-01  0.00000000000E+00 0.  1.
     999901    1    3    3    0    0 -0.14663616435E-01  0.11173810150E+00 -0.12853943075E-01  0.88727991571E+00  0.88000000000E+00 0.  1.
        -11    1    4    4    0    0  0.12218692257E-01 -0.70481705029E-01  0.87588270123E-02  0.72069031879E-01  0.51100000000E-03 0.  1.
         11    1    4    4    0    0 -0.23381507943E-03 -0.56671901051E-01  0.22007215002E-01  0.60797513694E-01  0.51100000000E-03 0. -1.
</event>
<event>
 8    1  0.1150863E+005  0.1043930E+01  0.7957747E-01            NaN
         13   -1    0    0    0    0  0.00000000000E+00  0.00000000000E+00  0.74505805969E-08  0.10566000000E+00  0.10566000000E+00 0. -1.
     999900   -1    0    0    0    0 -0.00000000000E+00 -0.00000000000E+00 -0.74505805969E-08  0.93827000000E+00  0.93827000000E+00 0. -1.
     999902    2    1    2    0    0 -0.22997973155E-01  0.31429202358E-02  0.11920691788E-01  0.10178361768E+01  0.10175016438E+01 0.  0.
     999903    2    3    3    0    0 -0.14466609086E-01 -0.37296835488E-01  0.12212976152E+00  0.12999936912E+00  0.19591340049E-01 0.  0.
         14    1    1    2    0    0  0.22997973155E-01 -0.31429202358E-02 -0.11920691788E-01  0.26093823207E-01  0.00000000000E+00 0.  1.
     999901    1    3    3    0    0 -0.85313640688E-02  0.40439755724E-01 -0.11020906973E+00  0.88783680768E+00  0.88000000000E+00 0. -1.
        -11    1    4    4    0    0 -0.12836850576E-01 -0.12291276116E-01  0.69008093415E-01  0.71261758882E-01  0.51100000000E-03 0.  1.
         11    1    4    4    0    0 -0.16297585106E-02 -0.25005559372E-01  0.53121668108E-01  0.58737610233E-01  0.51100000000E-03 0. -1.
</event>
<event>
 8    1  0.1150863E+005  0.1043930E+01  0.7957747E-01            NaN
         13   -1    0    0    0    0  0.00000000000E+00  0.00000000000E+00  0.74505805969E-08  0.10566000000E+00  0.10566000000E+00 0. -1.
     999900   -1    0    0    0    0 -0.00000000000E+00 -0.00000000000E+00 -0.74505805969E-08  0.93827000000E+00  0.93827000000E+00 0.  1.
     999902    2    1    2    0    0  0.98558979543E-02 -0.20357899086E-01  0.64069765472E-02  0.10204218710E+01  0.10201510490E+01 0.  0.
     999903    2    3    3    0    0 -0.56517961812E-01  0.11043676003E+00 -0.23061399717E-01  0.12779590382E+00  0.20233805974E-01 0.  0.
         14    1    1    2    0    0 -0.98558979543E-02  0.20357899086E-01 -0.64069765472E-02  0.23508128980E-01  0.00000000000E+00 0.  1.
     999901    1    3    3    0    0  0.66373859766E-01 -0.13079465911E+00  0.29468376264E-01  0.89262596720E+00  0.88000000000E+00 0. -1.
        -11    1    4    4    0    0 -0.17960608948E-01  0.36813227592E-01  0.19290709809E-02  0.41009506646E-01  0.51100000000E-03 0. -1.
         11    1    4    4    0    0 -0.38557352864E-01  0.73623532437E-01 -0.24990470698E-01  0.86786397178E-01  0.51100000000E-03 0.  1.
</event>
<event>
 8    1  0.1150863E+005  0.1043930E+01  0.7957747E-01            NaN
         13   -1    0    0    0    0  0.00000000000E+00  0.00000000000E+00  0.74505805969E-08  0.10566000000E+00  0.10566000000E+00 0. -1.
     999900   -1    0    0    0    0 -0.00000000000E+00 -0.00000000000E+00 -0.74505805969E-08  0.93827000000E+00  0.93827000000E+00 0. -1.
     999902    2    1    2    0    0 -0.53502568214E-02  0.20696434151E-01 -0.89492231231E-02  0.10207555263E+01  0.10204924244E+01 0.  0.
     999903    2    3    3    0    0  0.75154006291E-01  0.52990479690E-02  0.10375573223E+00  0.12978952091E+00  0.20096347813E-01 0.  0.
         14    1    1    2    0    0  0.53502568214E-02 -0.20696434151E-01  0.89492231231E-02  0.23174473654E-01  0.00000000000E+00 0. -1.
     999901    1    3    3    0    0 -0.80504263113E-01  0.15397386182E-01 -0.11270495536E+00  0.89096600544E+00  0.88000000000E+00 0. -1.
        -11    1    4    4    0    0  0.37156043313E-01  0.50407293464E-02  0.67766608547E-01  0.77450338037E-01  0.51100000000E-03 0.  1.
         11    1    4    4    0    0  0.37997962979E-01  0.25831862255E-03  0.35989123687E-01  0.52339182873E-01  0.51100000000E-03 0. -1.
</event>
<event>
 8    1  0.1150863E+005  0.1043930E+01  0.7957747E-01            NaN
         13   -1    0    0    0    0  0.00000000000E+00  0.00000000000E+00  0.74505805969E-08  0.10566000000E+00  0.10566000000E+00 0. -1.
     999900   -1    0    0    0    0 -0.00000000000E+00 -0.00000000000E+00 -0.74505805969E-08  0.93827000000E+00  0.93827000000E+00 0.  1.
     999902    2    1    2    0    0 -0.12247151292E-01  0.13192085440E-01 -0.12760182998E-01  0.10218654107E+01  0.10216271685E+01 0.  0.
     999903    2    3    3    0    0  0.52019377769E-01 -0.10732482260E+00  0.46003620920E-01  0.12939261189E+00  0.20037007340E-01 0.  0.
         14    1    1    2    0    0  0.12247151292E-01 -0.13192085440E-01  0.12760182998E-01  0.22064589349E-01  0.00000000000E+00 0.  1.
     999901    1    3    3    0    0 -0.64266529061E-01  0.12051690804E+00 -0.58763803919E-01  0.89247279876E+00  0.88000000000E+00 0.  1.
        -11    1    4    4    0    0  0.26851669633E-01 -0.40134282986E-01  0.10861184457E-01  0.49497467427E-01  0.51100000000E-03 0. -1.
         11    1    4    4    0    0  0.25167708136E-01 -0.67190539616E-01  0.35142436463E-01  0.79895144461E-01  0.51100000000E-03 0.  1.
</event>
<event>
 8    1  0.1150863E+005  0.1043930E+01  0.7957747E-01            NaN
         13   -1    0    0    0    0  0.00000000000E+00  0.00000000000E+00  0.74505805969E-08  0.10566000000E+00  0.10566000000E+00 0.  1.
     999900   -1    0    0    0    0 -0.00000000000E+00 -0.00000000000E+00 -0.74505805969E-08  0.93827000000E+00  0.93827000000E+00 0.  1.
     999902    2    1    2    0    0 -0.15627899547E-01 -0.94346121489E-03  0.18026794508E-01  0.10200535119E+01  0.10197740340E+01 0.  0.
     999903    2    3    3    0    0  0.52984564636E-01 -0.73210214132E-01  0.93153033318E-01  0.13124863705E+00  0.19535034371E-01 0.  0.
         14    1    1    2    0    0  0.15627899547E-01  0.94346121489E-03 -0.18026794508E-01  0.23876488091E-01  0.00000000000E+00 0. -1.
     999901    1    3    3    0    0 -0.68612464183E-01  0.72266752917E-01 -0.75126238809E-01  0.88880487486E+00  0.88000000000E+00 0.  1.
        -11    1    4    4    0    0  0.42246664413E-01 -0.52734461259E-01  0.57361556534E-01  0.88635846853E-01  0.51100000000E-03 0.  1.
         11    1    4    4    0    0  0.10737900223E-01 -0.20475752873E-01  0.35791476783E-01  0.42612790195E-01  0.51100000000E-03 0. -1.
</event>
<event>
 8    1  0.1150863E+005  0.1043930E+01  0.7957747E-01            NaN
         13   -1    0    0    0    0  0.00000000000E+00  0.00000000000E+00  0.74505805969E-08  0.10566000000E+00  0.10566000000E+00 0.  1.
     999900   -1    0    0    0    0 -0.00000000000E+00 -0.00000000000E+00 -0.74505805969E-08  0.93827000000E+00  0.93827000000E+00 0.  1.
     999902    2    1    2    0    0  0.30335773553E-02 -0.22981956170E-01  0.28001668063E-02  0.10205801855E+01  0.10203130408E+01 0.  0.
     999903    2    3    3    0    0  0.16872523280E-02 -0.10300148070E+00 -0.81710964352E-01  0.13291635943E+00  0.19440294826E-01 0.  0.
         14    1    1    2    0    0 -0.30335773553E-02  0.22981956170E-01 -0.28001668063E-02  0.23349814456E-01  0.00000000000E+00 0.  1.
     999901    1    3    3    0    0  0.13463250273E-02  0.80019524529E-01  0.84511131158E-01  0.88766382611E+00  0.88000000000E+00 0. -1.
        -11    1    4    4    0    0  0.83696767809E-02 -0.39249362291E-01 -0.38451274743E-01  0.55581701846E-01  0.51100000000E-03 0.  1.
         11    1    4    4    0    0 -0.66824244529E-02 -0.63752118408E-01 -0.43259689608E-01  0.77334657587E-01  0.51100000000E-03 0. -1.
</event>
<event>
 8    1  0.1150863E+005  0.1043930E+01  0.7957747E-01            NaN
         13   -1    0    0    0    0  0.00000000000E+00  0.00000000000E+00  0.74505805969E-08  0.10566000000E+00  0.10566000000E+00 0. -1.
     999900   -1    0    0    0    0 -0.00000000000E+00 -0.00000000000E+00 -0.74505805969E-08  0.93827000000E+00  0.93827000000E+00 0. -1.
     999902    2    1    2    0    0  0.15026413154E-01  0.92409019507E-02  0.16191308687E-01  0.10199853589E+01  0.10197042642E+01 0.  0.
     999903    2    3    3    0    0 -0.60455849947E-01  0.19085612738E-01  0.11331490293E+00  0.13137549909E+00  0.20002103097E-01 0.  0.
         14    1    1    2    0    0 -0.15026413154E-01 -0.92409019507E-02 -0.16191308687E-01  0.23944641115E-01  0.00000000000E+00 0.  1.
     999901    1    3    3    0    0  0.75482263101E-01 -0.98447107868E-02 -0.97123594240E-01  0.88860985980E+00  0.88000000000E+00 0.  1.
        -11    1    4    4    0    0 -0.26295923385E-01 -0.10704041560E-02  0.53154225496E-01  0.59314873015E-01  0.51100000000E-03 0. -1.
         11    1    4    4    0    0 -0.34159926563E-01  0.20156016894E-01  0.60160677431E-01  0.72060626071E-01  0.51100000000E-03 0.  1.
</event>
<event>
 8    1  0.1150863E+005  0.1043930E+01  0.7957747E-01            NaN
         13   -1    0    0    0    0  0.00000000000E+00  0.00000000000E+00  0.74505805969E-08  0.10566000000E+00  0.10566000000E+00 0.  1.
     999900   -1    0    0    0    0 -0.00000000000E+00 -0.00000000000E+00 -0.74505805969E-08  0.93827000000E+00  0.93827000000E+00 0. -1.
     999902    2    1    2    0    0  0.15821217020E-01 -0.17277203757E-01  0.79912621396E-02  0.10191777688E+01  0.10188771523E+01 0.  0.
     999903    2    3    3    0    0 -0.97213210330E-01  0.22489259041E-01 -0.75416077947E-01  0.12714921675E+00  0.22872767059E-01 0.  0.
         14    1    1    2    0    0 -0.15821217020E-01  0.17277203757E-01 -0.79912621396E-02  0.24752231177E-01  0.00000000000E+00 0. -1.
     999901    1    3    3    0    0  0.11303442735E+00 -0.39766462798E-01  0.83407340087E-01  0.89202855207E+00  0.88000000000E+00 0. -1.
        -11    1    4    4    0    0 -0.55970271063E-01  0.15277239364E-02 -0.44197151159E-01  0.71334805494E-01  0.51100000000E-03 0. -1.
         11    1    4    4    0    0 -0.41242939267E-01  0.20961535104E-01 -0.31218926788E-01  0.55814411258E-01  0.51100000000E-03 0.  1.
</event>
<event>
 8    1  0.1150863E+005  0.1043930E+01  0.7957747E-01            NaN
         13   -1    0    0    0    0  0.00000000000E+00  0.00000000000E+00  0.74505805969E-08  0.10566000000E+00  0.10566000000E+00 0. -1.
     999900   -1    0    0    0    0 -0.00000000000E+00 -0.00000000000E+00 -0.74505805969E-08  0.93827000000E+00  0.93827000000E+00 0.  1.
     999902    2    1    2    0    0  0.42986042237E-02 -0.15416839467E-01 -0.17755556944E-01  0.10200256753E+01  0.10197455376E+01 0.  0.
     999903    2    3    3    0    0 -0.29456875773E-01 -0.59918266637E-02 -0.12757266253E+00  0.13250775436E+00  0.19491311503E-01 0.  0.
         14    1    1    2    0    0 -0.42986042237E-02  0.15416839467E-01  0.17755556944E-01  0.23904324709E-01  0.00000000000E+00 0. -1.
     999901    1    3    3    0    0  0.33755479997E-01 -0.94250128036E-02  0.10981710558E+00  0.88751792093E+00  0.88000000000E+00 0. -1.
        -11    1    4    4    0    0 -0.14997457987E-01 -0.11499865220E-01 -0.88141923375E-01  0.90146716098E-01  0.51100000000E-03 0.  1.
         11    1    4    4    0    0 -0.14459417786E-01  0.55080385562E-02 -0.39430739152E-01  0.42361038261E-01  0.51100000000E-03 0. -1.
</event>
<event>
 8    1  0.1150863E+005  0.1043930E+01  0.7957747E-01            NaN
         13   -1    0    0    0    0  0.00000000000E+00  0.00000000000E+00  0.74505805969E-08  0.10566000000E+00  0.10566000000E+00 0. -1.
     999900   -1    0    0    0    0 -0.00000000000E+00 -0.00000000000E+00 -0.74505805969E-08  0.93827000000E+00  0.93827000000E+00 0.  1.
     999902    2    1    2    0    0 -0.11543667131E-01  0.20324098994E-01  0.10834072646E-01  0.10181675781E+01  0.10178415961E+01 0.  0.
     999903    2    3    3    0    0 -0.55155995813E-01  0.62863155618E-01 -0.96854078986E-01  0.12951222055E+00  0.19968536409E-01 0.  0.
         14    1    1    2    0    0  0.11543667131E-01 -0.20324098994E-01 -0.10834072646E-01  0.25762421875E-01  0.00000000000E+00 0.  1.
     999901    1    3    3    0    0  0.43612328681E-01 -0.42539056624E-01  0.10768815163E+00  0.88865535758E+00  0.88000000000E+00 0. -1.
        -11    1    4    4    0    0 -0.51690352850E-01  0.57164881201E-01 -0.78645884530E-01  0.11011427017E+00  0.51100000000E-03 0.  1.
         11    1    4    4    0    0 -0.34656429630E-02  0.56982744170E-02 -0.18208194456E-01  0.19397950377E-01  0.51100000000E-03 0. -1.
</event>
<event>
 8    1  0.1150863E+005  0.1043930E+01  0.7957747E-01            NaN
         13   -1    0    0    0    0  0.00000000000E+00  0.00000000000E+00  0.74505805969E-08  0.10566000000E+00  0.10566000000E+00 0. -1.
     999900   -1    0    0    0    0 -0.00000000000E+00 -0.00000000000E+00 -0.74505805969E-08  0.93827000000E+00  0.93827000000E+00 0.  1.
     999902    2    1    2    0    0  0.10816139751E-02 -0.11196618443E-01  0.21228523334E-01  0.10199053386E+01  0.10196223396E+01 0.  0.
     999903    2    3    3    0    0  0.11297589193E+00 -0.19160589027E-01  0.62012181324E-01  0.13184731062E+00  0.20187182935E-01 0.  0.
         14    1    1    2    0    0 -0.10816139751E-02  0.11196618443E-01 -0.21228523334E-01  0.24024661419E-01  0.00000000000E+00 0.  1.
     999901    1    3    3    0    0 -0.11189427796E+00  0.79639705839E-02 -0.40783657990E-01  0.88805802796E+00  0.88000000000E+00 0.  1.
        -11    1    4    4    0    0  0.70349666905E-01 -0.15008867469E-01  0.49165447315E-01  0.87131188830E-01  0.51100000000E-03 0.  1.
         11    1    4    4    0    0  0.42626225030E-01 -0.41517215577E-02  0.12846734009E-01  0.44716121790E-01  0.51100000000E-03 0. -1.
</event>
<event>
 8    1  0.1150863E+005  0.1043930E+01  0.7957747E-01            NaN
         13   -1    0    0    0    0  0.00000000000E+00  0.00000000000E+00  0.74505805969E-08  0.10566000000E+00  0.10566000000E+00 0. -1.
     999900   -1    0    0    0    0 -0.00000000000E+00 -0.00000000000E+00 -0.74505805969E-08  0.93827000000E+00  0.93827000000E+00 0. -1.
     999902    2    1    2    0    0 -0.13514283033E-01 -0.16325453799E-01 -0.10488156501E-01  0.10202834841E+01  0.10200094265E+01 0.  0.
     999903    2    3    3    0    0 -0.53017776900E-01 -0.98722790813E-02  0.11679359367E+00  0.13022572562E+00  0.20239800630E-01 0.  0.
         14    1    1    2    0    0  0.13514283033E-01  0.16325453799E-01  0.10488156501E-01  0.23646515905E-01  0.00000000000E+00 0. -1.
     999901    1    3    3    0    0  0.39503493868E-01 -0.64531747181E-02 -0.12728175017E+00  0.89005775847E+00  0.88000000000E+00 0. -1.
        -11    1    4    4    0    0 -0.21547354599E-01 -0.89654004008E-02  0.30786657810E-01  0.38636075301E-01  0.51100000000E-03 0. -1.
         11    1    4    4    0    0 -0.31470422302E-01 -0.90687868056E-03  0.86006935861E-01  0.91589650321E-01  0.51100000000E-03 0.  1.
</event>
<event>
 8    1  0.1150863E+005  0.1043930E+01  0.7957747E-01            NaN
         13   -1    0    0    0    0  0.00000000000E+00  0.00000000000E+00  0.74505805969E-08  0.10566000000E+00  0.10566000000E+00 0.  1.
     999900   -1    0    0    0    0 -0.00000000000E+00 -0.00000000000E+00 -0.74505805969E-08  0.93827000000E+00  0.93827000000E+00 0.  1.
     999902    2    1    2    0    0 -0.20739553245E-01 -0.85429299695E-02  0.38501896859E-02  0.10211718216E+01  0.10209181919E+01 0.  0.
     999903    2    3    3    0    0  0.29225643705E-02 -0.10968546538E+00 -0.70495106593E-01  0.13194916598E+00  0.20039452362E-01 0.  0.
         14    1    1    2    0    0  0.20739553245E-01  0.85429299695E-02 -0.38501896859E-02  0.22758178351E-01  0.00000000000E+00 0. -1.
     999901    1    3    3    0    0 -0.23662117615E-01  0.10114253541E+00  0.74345296279E-01  0.88922265567E+00  0.88000000000E+00 0. -1.
        -11    1    4    4    0    0  0.71348505941E-02 -0.83439573156E-01 -0.44802859390E-01  0.94976975062E-01  0.51100000000E-03 0.  1.
         11    1    4    4    0    0 -0.42122862236E-02 -0.26245892222E-01 -0.25692247203E-01  0.36972190916E-01  0.51100000000E-03 0. -1.
</event>
<event>
 8    1  0.1150863E+005  0.1043930E+01  0.7957747E-01            NaN
         13   -1    0    0    0    0  0.00000000000E+00  0.00000000000E+00  0.74505805969E-08  0.10566000000E+00  0.10566000000E+00 0. -1.
     999900   -1    0    0    0    0 -0.00000000000E+00 -0.00000000000E+00 -0.74505805969E-08  0.93827000000E+00  0.93827000000E+00 0. -1.
     999902    2    1    2    0    0 -0.22184612558E-01  0.89720918217E-03  0.34358333766E-02  0.10214629804E+01  0.10212158701E+01 0.  0.
     999903    2    3    3    0    0  0.24611229831E-01 -0.89827424538E-01 -0.89435391823E-01  0.13070719204E+00  0.20273181982E-01 0.  0.
         14    1    1    2    0    0  0.22184612558E-01 -0.89720918217E-03 -0.34358333766E-02  0.22467019599E-01  0.00000000000E+00 0. -1.
     999901    1    3    3    0    0 -0.46795842389E-01  0.90724633720E-01  0.92871225200E-01  0.89075578836E+00  0.88000000000E+00 0. -1.
        -11    1    4    4    0    0  0.23984174307E-01 -0.59923414930E-01 -0.52673078953E-01  0.83311287599E-01  0.51100000000E-03 0.  1.
         11    1    4    4    0    0  0.62705552419E-03 -0.29904009608E-01 -0.36762312870E-01  0.47395904442E-01  0.51100000000E-03 0. -1.
</event>
<event>
 8    1  0.1150863E+005  0.1043930E+01  0.7957747E-01            NaN
         13   -1    0    0    0    0  0.00000000000E+00  0.00000000000E+00  0.74505805969E-08  0.10566000000E+00  0.10566000000E+00 0.  1.
     999900   -1    0    0    0    0 -0.00000000000E+00 -0.00000000000E+00 -0.74505805969E-08  0.93827000000E+00  0.93827000000E+00 0.  1.
     999902    2    1    2    0    0  0.15435587275E-01 -0.17383805928E-01  0.60863377669E-02  0.10198988209E+01  0.10196156664E+01 0.  0.
     999903    2    3    3    0    0 -0.28183749429E-01 -0.95140785742E-01  0.84779848308E-01  0.13190024933E+00  0.19077742319E-01 0.  0.
         14    1    1    2    0    0 -0.15435587275E-01  0.17383805928E-01 -0.60863377669E-02  0.24031179132E-01  0.00000000000E+00 0. -1.
     999901    1    3    3    0    0  0.43619336704E-01  0.77756979814E-01 -0.78693510541E-01  0.88799857153E+00  0.88000000000E+00 0.  1.
        -11    1    4    4    0    0 -0.62119423131E-02 -0.20564387925E-01  0.29531026777E-01  0.36521568169E-01  0.51100000000E-03 0.  1.
         11    1    4    4    0    0 -0.21971807116E-01 -0.74576397817E-01  0.55248821530E-01  0.95378681165E-01  0.51100000000E-03 0. -1.
</event>
<event>
 8    1  0.1150863E+005  0.1043930E+01  0.7957747E-01            NaN
         13   -1    0    0    0    0  0.00000000000E+00  0.00000000000E+00  0.74505805969E-08  0.10566000000E+00  0.10566000000E+00 0. -1.
     999900   -1    0    0    0    0 -0.00000000000E+00 -0.00000000000E+00 -0.74505805969E-08  0.93827000000E+00  0.93827000000E+00 0. -1.
     999902    2    1    2    0    0  0.13922812025E-02  0.23671793242E-01 -0.43586864487E-03  0.10202132923E+01  0.10199375861E+01 0.  0.
     999903    2    3    3    0    0  0.42886426961E-01  0.72203199770E-03  0.12149436884E+00  0.13054175827E+00  0.20988140532E-01 0.  0.
         14    1    1    2    0    0 -0.13922812025E-02 -0.23671793242E-01  0.43586864487E-03  0.23716707691E-01  0.00000000000E+00 0.  1.
     999901    1    3    3    0    0 -0.41494145759E-01  0.22949761244E-01 -0.12193023749E+00  0.88967153404E+00  0.88000000000E+00 0. -1.
        -11    1    4    4    0    0  0.43624689608E-01  0.38822493490E-02  0.11732096770E+00  0.12523041158E+00  0.51100000000E-03 0.  1.
         11    1    4    4    0    0 -0.73826264652E-03 -0.31602173513E-02  0.41734011453E-02  0.53113466807E-02  0.51100000000E-03 0. -1.
</event>
<event>
 8    1  0.1150863E+005  0.1043930E+01  0.7957747E-01            NaN
         13   -1    0    0    0    0  0.00000000000E+00  0.00000000000E+00  0.74505805969E-08  0.10566000000E+00  0.10566000000E+00 0. -1.
     999900   -1    0    0    0    0 -0.00000000000E+00 -0.00000000000E+00 -0.74505805969E-08  0.93827000000E+00  0.93827000000E+00 0. -1.
     999902    2    1    2    0    0 -0.10142697310E-01  0.18761080284E-01 -0.10969218427E-01  0.10199471687E+01  0.10196651660E+01 0.  0.
     999903    2    3    3    0    0  0.30137383747E-01  0.10237329588E+00 -0.76262104791E-01  0.13266105450E+00  0.19861851475E-01 0.  0.
         14    1    1    2    0    0  0.10142697310E-01 -0.18761080284E-01  0.10969218427E-01  0.23982831256E-01  0.00000000000E+00 0.  1.
     999901    1    3    3    0    0 -0.40280081057E-01 -0.83612215598E-01  0.65292886364E-01  0.88728611425E+00  0.88000000000E+00 0.  1.
        -11    1    4    4    0    0  0.12434528896E-01  0.69477630766E-01 -0.43072031940E-01  0.82687482379E-01  0.51100000000E-03 0. -1.
         11    1    4    4    0    0  0.17702854851E-01  0.32895665116E-01 -0.33190072851E-01  0.49973572117E-01  0.51100000000E-03 0.  1.
</event>
<event>
 8    1  0.1150863E+005  0.1043930E+01  0.7957747E-01            NaN
         13   -1    0    0    0    0  0.00000000000E+00  0.00000000000E+00  0.74505805969E-08  0.10566000000E+00  0.10566000000E+00 0. -1.
     999900   -1    0    0    0    0 -0.00000000000E+00 -0.00000000000E+00 -0.74505805969E-08  0.93827000000E+00  0.93827000000E+00 0.  1.
     999902    2    1    2    0    0  0.31088131634E-02 -0.82276150952E-02 -0.21258279766E-01  0.10209240697E+01  0.10206648242E+01 0.  0.
     999903    2    3    3    0    0 -0.68443099671E-01 -0.68470830449E-01 -0.89542123526E-01  0.13333655035E+00  0.19701047132E-01 0.  0.
         14    1    1    2    0    0 -0.31088131634E-02  0.82276150952E-02  0.21258279766E-01  0.23005930280E-01  0.00000000000E+00 0. -1.
     999901    1    3    3    0    0  0.71551912834E-01  0.60243215354E-01  0.68283843760E-01  0.88758751937E+00  0.88000000000E+00 0. -1.
        -11    1    4    4    0    0 -0.36016451602E-01 -0.32430368976E-01 -0.57588421759E-01  0.75270187057E-01  0.51100000000E-03 0.  1.
         11    1    4    4    0    0 -0.32426648069E-01 -0.36040461472E-01 -0.31953701767E-01  0.58066363290E-01  0.51100000000E-03 0. -1.
</event>
<event>
 8    1  0.1150863E+005  0.1043930E+01  0.7957747E-01            NaN
         13   -1    0    0    0    0  0.00000000000E+00  0.00000000000E+00  0.74505805969E-08  0.10566000000E+00  0.10566000000E+00 0.  1.
     999900   -1    0    0    0    0 -0.00000000000E+00 -0.00000000000E+00 -0.74505805969E-08  0.93827000000E+00  0.93827000000E+00 0.  1.
     999902    2    1    2    0    0 -0.17339320176E-01 -0.79835225074E-02 -0.14724623426E-01  0.10198218439E+01  0.10195368508E+01 0.  0.
     999903    2    3    3    0    0  0.56622012697E-01  0.10605013059E+00 -0.33151769835E-01  0.12919649476E+00  0.33764062173E-01 0.  0.
         14    1    1    2    0    0  0.17339320176E-01  0.79835225074E-02  0.14724623426E-01  0.24108156106E-01  0.00000000000E+00 0. -1.
     999901    1    3    3    0    0 -0.73961332873E-01 -0.11403365310E+00  0.18427146409E-01  0.89062534914E+00  0.88000000000E+00 0. -1.
        -11    1    4    4    0    0  0.38219444041E-01  0.60232568439E-01 -0.35663576117E-01  0.79754874372E-01  0.51100000000E-03 0.  1.
         11    1    4    4    0    0  0.18402568656E-01  0.45817562151E-01  0.25118062819E-02  0.49441620386E-01  0.51100000000E-03 0. -1.
</event>
<event>
 8    1  0.1150863E+005  0.1043930E+01  0.7957747E-01            NaN
         13   -1    0    0    0    0  0.00000000000E+00  0.00000000000E+00  0.74505805969E-08  0.10566000000E+00  0.10566000000E+00 0. -1.
     999900   -1    0    0    0    0 -0.00000000000E+00 -0.00000000000E+00 -0.74505805969E-08  0.93827000000E+00  0.93827000000E+00 0.  1.
     999902    2    1    2    0    0  0.58732540033E-02  0.18330776518E-02 -0.21789080098E-01  0.10212889025E+01  0.10210379048E+01 0.  0.
     999903    2    3    3    0    0  0.60649222163E-02  0.12702334164E+00 -0.30265100007E-01  0.13238818706E+00  0.20950971092E-01 0.  0.
         14    1    1    2    0    0 -0.58732540033E-02 -0.18330776518E-02  0.21789080098E-01  0.22641097539E-01  0.00000000000E+00 0. -1.
     999901    1    3    3    0    0 -0.19166821309E-03 -0.12519026399E+00  0.84760199088E-02  0.88890071541E+00  0.88000000000E+00 0. -1.
        -11    1    4    4    0    0 -0.66284622609E-02  0.29814261287E-01 -0.33801011888E-02  0.30732928482E-01  0.51100000000E-03 0.  1.
         11    1    4    4    0    0  0.12693384477E-01  0.97209080356E-01 -0.26884998818E-01  0.10165525857E+00  0.51100000000E-03 0. -1.
</event>
<event>
 8    1  0.1150863E+005  0.1043930E+01  0.7957747E-01            NaN
         13   -1    0    0    0    0  0.00000000000E+00  0.00000000000E+00  0.74505805969E-08  0.10566000000E+00  0.10566000000E+00 0.  1.
     999900   -1    0    0    0    0 -0.00000000000E+00 -0.00000000000E+00 -0.74505805969E-08  0.93827000000E+00  0.93827000000E+00 0.  1.
     999902    2    1    2    0    0 -0.21798687419E-01 -0.96479418448E-02  0.44935014821E-02  0.10196718651E+01  0.10193832720E+01 0.  0.
     999903    2    3    3    0    0  0.98790721499E-01 -0.34016346498E-01 -0.71052568898E-01  0.12790797622E+00  0.19881256276E-01 0.  0.
         14    1    1    2    0    0  0.21798687419E-01  0.96479418448E-02 -0.44935014821E-02  0.24258134937E-01  0.00000000000E+00 0.  1.
     999901    1    3    3    0    0 -0.12058940892E+00  0.24368404653E-01  0.75546070380E-01  0.89176388884E+00  0.88000000000E+00 0. -1.
        -11    1    4    4    0    0  0.45449933492E-01 -0.19894986441E-01 -0.22793376164E-01  0.54601337510E-01  0.51100000000E-03 0. -1.
         11    1    4    4    0    0  0.53340788007E-01 -0.14121360057E-01 -0.48259192734E-01  0.73306638714E-01  0.51100000000E-03 0.  1.
</event>
<event>
 8    1  0.1150863E+005  0.1043930E+01  0.7957747E-01            NaN
         13   -1    0    0    0    0  0.00000000000E+00  0.00000000000E+00  0.74505805969E-08  0.10566000000E+00  0.10566000000E+00 0. -1.
     999900   -1    0    0    0    0 -0.00000000000E+00 -0.00000000000E+00 -0.74505805969E-08  0.93827000000E+00  0.93827000000E+00 0. -1.
     999902    2    1    2    0    0 -0.14083651926E-02  0.16715394550E-01  0.15705863643E-01  0.10209503990E+01  0.10206917533E+01 0.  0.
     999903    2    3    3    0    0  0.12402758742E+00 -0.15223941357E-01 -0.30953649659E-01  0.13025886458E+00  0.19865360372E-01 0.  0.
         14    1    1    2    0    0  0.14083651926E-02 -0.16715394550E-01 -0.15705863643E-01  0.22979600959E-01  0.00000000000E+00 0.  1.
     999901    1    3    3    0    0 -0.12543595261E+00  0.31939335907E-01  0.46659513302E-01  0.89069153446E+00  0.88000000000E+00 0.  1.
        -11    1    4    4    0    0  0.27677651018E-01 -0.64774764899E-02  0.77739294275E-03  0.28440737128E-01  0.51100000000E-03 0. -1.
         11    1    4    4    0    0  0.96349936398E-01 -0.87464648674E-02 -0.31731042602E-01  0.10181812745E+00  0.51100000000E-03 0.  1.
</event>
<event>
 8    1  0.1150863E+005  0.1043930E+01  0.7957747E-01            NaN
         13   -1    0    0    0    0  0.00000000000E+00  0.00000000000E+00  0.74505805969E-08  0.10566000000E+00  0.10566000000E+00 0.  1.
     999900   -1    0    0    0    0 -0.00000000000E+00 -0.00000000000E+00 -0.74505805969E-08  0.93827000000E+00  0.93827000000E+00 0.  1.
     999902    2    1    2    0    0  0.58730936328E-02  0.22989868826E-01  0.69716428258E-02  0.10191988233E+01  0.10188987243E+01 0.  0.
     999903    2    3    3    0    0 -0.49046066484E-02 -0.11932817701E+00 -0.37043841549E-01  0.12661384255E+00  0.19888437135E-01 0.  0.
         14    1    1    2    0    0 -0.58730936328E-02 -0.22989868826E-01 -0.69716428258E-02  0.24731176704E-01  0.00000000000E+00 0. -1.
     999901    1    3    3    0    0  0.10777700281E-01  0.14231804584E+00  0.44015484375E-01  0.89258498075E+00  0.88000000000E+00 0. -1.
        -11    1    4    4    0    0 -0.49938384666E-02 -0.10732382257E+00 -0.26578756843E-01  0.11067986605E+00  0.51100000000E-03 0. -1.
         11    1    4    4    0    0  0.89231818148E-04 -0.12004354449E-01 -0.10465084706E-01  0.15933976495E-01  0.51100000000E-03 0.  1.
</event>
<event>
 8    1  0.1150863E+005  0.1043930E+01  0.7957747E-01            NaN
         13   -1    0    0    0    0  0.00000000000E+00  0.00000000000E+00  0.74505805969E-08  0.10566000000E+00  0.10566000000E+00 0.  1.
     999900   -1    0    0    0    0 -0.00000000000E+00 -0.00000000000E+00 -0.74505805969E-08  0.93827000000E+00  0.93827000000E+00 0.  1.
     999902    2    1    2    0    0  0.52963041684E-02  0.65410721818E-02 -0.22122487094E-01  0.10202605915E+01  0.10199859968E+01 0.  0.
     999903    2    3    3    0    0  0.11208309257E+00 -0.44810529590E-01  0.43457003081E-01  0.12990051002E+00  0.20372240509E-01 0.  0.
         14    1    1    2    0    0 -0.52963041684E-02 -0.65410721818E-02  0.22122487094E-01  0.23669408492E-01  0.00000000000E+00 0.  1.
     999901    1    3    3    0    0 -0.10678678840E+00  0.51351601772E-01 -0.65579490175E-01  0.89036008149E+00  0.88000000000E+00 0.  1.
        -11    1    4    4    0    0  0.51643690265E-01 -0.27023642701E-01  0.12130639323E-01  0.59537900034E-01  0.51100000000E-03 0. -1.
         11    1    4    4    0    0  0.60439402305E-01 -0.17786886889E-01  0.31326363758E-01  0.70362609983E-01  0.51100000000E-03 0.  1.
</event>
<event>
 8    1  0.1150863E+005  0.1043930E+01  0.7957747E-01            NaN
         13   -1    0    0    0    0  0.00000000000E+00  0.00000000000E+00  0.74505805969E-08  0.10566000000E+00  0.10566000000E+00 0.  1.
     999900   -1    0    0    0    0 -0.00000000000E+00 -0.00000000000E+00 -0.74505805969E-08  0.93827000000E+00  0.93827000000E+00 0.  1.
     999902    2    1    2    0    0  0.13669501013E-01 -0.14503852784E-01 -0.98773036380E-02  0.10216863912E+01  0.10214442246E+01 0.  0.
     999903    2    3    3    0    0  0.21383349106E-01  0.11356557578E+00  0.55787198473E-01  0.12996159691E+00  0.20577111963E-01 0.  0.
         14    1    1    2    0    0 -0.13669501013E-01  0.14503852784E-01  0.98773036380E-02  0.22243608761E-01  0.00000000000E+00 0.  1.
     999901    1    3    3    0    0 -0.77138480928E-02 -0.12806942856E+00 -0.65664502111E-01  0.89172479433E+00  0.88000000000E+00 0.  1.
        -11    1    4    4    0    0  0.28070798639E-02  0.68625524799E-01  0.34760049371E-01  0.76979636947E-01  0.51100000000E-03 0. -1.
         11    1    4    4    0    0  0.18576269242E-01  0.44940050980E-01  0.21027149102E-01  0.52981959962E-01  0.51100000000E-03 0.  1.
</event>
<event>
 8    1  0.1150863E+005  0.1043930E+01  0.7957747E-01            NaN
         13   -1    0    0    0    0  0.00000000000E+00  0.00000000000E+00  0.74505805969E-08  0.10566000000E+00  0.10566000000E+00 0. -1.
     999900   -1    0    0    0    0 -0.00000000000E+00 -0.00000000000E+00 -0.74505805969E-08  0.93827000000E+00  0.93827000000E+00 0. -1.
     999902    2    1    2    0    0  0.10720273466E-01 -0.86488146139E-02 -0.16825323818E-01  0.10221856265E+01  0.10219543225E+01 0.  0.
     999903    2    3    3    0    0  0.73216272272E-01 -0.75022508284E-01 -0.82728502394E-01  0.13502473578E+00  0.19966844737E-01 0.  0.
         14    1    1    2    0    0 -0.10720273466E-01  0.86488146139E-02  0.16825323818E-01  0.21744373502E-01  0.00000000000E+00 0. -1.
     999901    1    3    3    0    0 -0.62495998806E-01  0.66373693670E-01  0.65903178576E-01  0.88716089072E+00  0.88000000000E+00 0. -1.
        -11    1    4    4    0    0  0.40097425793E-01 -0.51555000687E-01 -0.58925647880E-01  0.87967123121E-01  0.51100000000E-03 0.  1.
         11    1    4    4    0    0  0.33118846479E-01 -0.23467507597E-01 -0.23802854514E-01  0.47057612657E-01  0.51100000000E-03 0. -1.
</event>
<event>
 8    1  0.1150863E+005  0.1043930E+01  0.7957747E-01            NaN
         13   -1    0    0    0    0  0.00000000000E+00  0.00000000000E+00  0.74505805969E-08  0.10566000000E+00  0.10566000000E+00 0. -1.
     999900   -1    0    0    0    0 -0.00000000000E+00 -0.00000000000E+00 -0.74505805969E-08  0.93827000000E+00  0.93827000000E+00 0. -1.
     999902    2    1    2    0    0 -0.21235451174E-01 -0.37526822958E-02  0.29821141786E-02  0.10221602959E+01  0.10219284469E+01 0.  0.
     999903    2    3    3    0    0  0.11523332398E+00 -0.14230638078E-02  0.56712061079E-01  0.13001901736E+00  0.20197597311E-01 0.  0.
         14    1    1    2    0    0  0.21235451174E-01  0.37526822958E-02 -0.29821141786E-02  0.21769704085E-01  0.00000000000E+00 0. -1.
     999901    1    3    3    0    0 -0.13646877515E+00 -0.23296184880E-02 -0.53729946900E-01  0.89214127856E+00  0.88000000000E+00 0. -1.
        -11    1    4    4    0    0  0.75851563567E-01  0.82048353488E-02  0.40226112721E-01  0.86250682805E-01  0.51100000000E-03 0.  1.
         11    1    4    4    0    0  0.39381760410E-01 -0.96278991566E-02  0.16485948357E-01  0.43768334551E-01  0.51100000000E-03 0. -1.
</event>
<event>
 8    1  0.1150863E+005  0.1043930E+01  0.7957747E-01            NaN
         13   -1    0    0    0    0  0.00000000000E+00  0.00000000000E+00  0.74505805969E-08  0.10566000000E+00  0.10566000000E+00 0.  1.
     999900   -1    0    0    0    0 -0.00000000000E+00 -0.00000000000E+00 -0.74505805969E-08  0.93827000000E+00  0.93827000000E+00 0.  1.
     999902    2    1    2    0    0 -0.20493568768E-01 -0.13097133788E-01  0.23205489704E-02  0.10194983357E+01  0.10192055486E+01 0.  0.
     999903    2    3    3    0    0  0.44791097519E-01 -0.11953955234E+00  0.18363279184E-01  0.13053858106E+00  0.20178308487E-01 0.  0.
         14    1    1    2    0    0  0.20493568768E-01  0.13097133788E-01 -0.23205489704E-02  0.24431664328E-01  0.00000000000E+00 0.  1.
     999901    1    3    3    0    0 -0.65284666286E-01  0.10644241855E+00 -0.16042730214E-01  0.88895975461E+00  0.88000000000E+00 0. -1.
        -11    1    4    4    0    0  0.24267424687E-01 -0.57424597031E-01 -0.87066875908E-03  0.62349911229E-01  0.51100000000E-03 0.  1.
         11    1    4    4    0    0  0.20523672832E-01 -0.62114955308E-01  0.19233947944E-01  0.68188669836E-01  0.51100000000E-03 0. -1.
</event>
<event>
 8    1  0.1150863E+005  0.1043930E+01  0.7957747E-01            NaN
         13   -1    0    0    0    0  0.00000000000E+00  0.00000000000E+00  0.74505805969E-08  0.10566000000E+00  0.10566000000E+00 0.  1.
     999900   -1    0    0    0    0 -0.00000000000E+00 -0.00000000000E+00 -0.74505805969E-08  0.93827000000E+00  0.93827000000E+00 0. -1.
     999902    2    1    2    0    0 -0.13113568272E-01  0.93631311113E-02 -0.16102263728E-01  0.10211502547E+01  0.10208961387E+01 0.  0.
     999903    2    3    3    0    0  0.10565456992E+00  0.61903188862E-01  0.39010512986E-01  0.12991305484E+00  0.18991807699E-01 0.  0.
         14    1    1    2    0    0  0.13113568272E-01 -0.93631311113E-02  0.16102263728E-01  0.22779745261E-01  0.00000000000E+00 0.  1.
     999901    1    3    3    0    0 -0.11876813819E+00 -0.52540057751E-01 -0.55112776713E-01  0.89123719989E+00  0.88000000000E+00 0.  1.
        -11    1    4    4    0    0  0.23087721080E-01  0.22912628944E-01  0.12242796870E-01  0.34758863992E-01  0.51100000000E-03 0. -1.
         11    1    4    4    0    0  0.82566848838E-01  0.38990559919E-01  0.26767716116E-01  0.95154190853E-01  0.51100000000E-03 0.  1.
</event>
<event>
 8    1  0.1150863E+005  0.1043930E+01  0.7957747E-01            NaN
         13   -1    0    0    0    0  0.00000000000E+00  0.00000000000E+00  0.74505805969E-08  0.10566000000E+00  0.10566000000E+00 0.  1.
     999900   -1    0    0    0    0 -0.00000000000E+00 -0.00000000000E+00 -0.74505805969E-08  0.93827000000E+00  0.93827000000E+00 0. -1.
     999902    2    1    2    0    0  0.51273192285E-02  0.16900258228E-01 -0.15946544271E-01  0.10201350340E+01  0.10198574838E+01 0.  0.
     999903    2    3    3    0    0 -0.10443236473E+00  0.90884618937E-02 -0.76501231098E-01  0.13124177914E+00  0.19576702760E-01 0.  0.
         14    1    1    2    0    0 -0.51273192285E-02 -0.16900258228E-01  0.15946544271E-01  0.23794965956E-01  0.00000000000E+00 0.  1.
     999901    1    3    3    0    0  0.10955968396E+00  0.78117963347E-02  0.60554686827E-01  0.88889325490E+00  0.88000000000E+00 0.  1.
        -11    1    4    4    0    0 -0.44721099446E-01  0.13250217678E-01 -0.30234876484E-01  0.55587353608E-01  0.51100000000E-03 0. -1.
         11    1    4    4    0    0 -0.59711265283E-01 -0.41617557845E-02 -0.46266354614E-01  0.75654425536E-01  0.51100000000E-03 0.  1.
</event>
<event>
 8    1  0.1150863E+005  0.1043930E+01  0.7957747E-01            NaN
         13   -1    0    0    0    0  0.00000000000E+00  0.00000000000E+00  0.74505805969E-08  0.10566000000E+00  0.10566000000E+00 0.  1.
     999900   -1    0    0    0    0 -0.00000000000E+00 -0.00000000000E+00 -0.74505805969E-08  0.93827000000E+00  0.93827000000E+00 0. -1.
     999902    2    1    2    0    0  0.26369085309E-02  0.18334937977E-01 -0.13312014569E-01  0.10211191918E+01  0.10208643744E+01 0.  0.
     999903    2    3    3    0    0 -0.10569298713E-01 -0.62487124111E-01 -0.11383973855E+00  0.13161796479E+00  0.18640059718E-01 0.  0.
         14    1    1    2    0    0 -0.26369085309E-02 -0.18334937977E-01  0.13312014569E-01  0.22810808164E-01  0.00000000000E+00 0.  1.
     999901    1    3    3    0    0  0.13206207243E-01  0.80822062087E-01  0.10052772398E+00  0.88950122705E+00  0.88000000000E+00 0.  1.
        -11    1    4    4    0    0 -0.95397956074E-02 -0.18655484907E-01 -0.49539633785E-01  0.53790996030E-01  0.51100000000E-03 0.  1.
         11    1    4    4    0    0 -0.10295031052E-02 -0.43831639204E-01 -0.64300104768E-01  0.77826968758E-01  0.51100000000E-03 0. -1.
</event>
<event>
 8    1  0.1150863E+005  0.1043930E+01  0.7957747E-01            NaN
         13   -1    0    0    0    0  0.00000000000E+00  0.00000000000E+00  0.74505805969E-08  0.10566000000E+00  0.10566000000E+00 0. -1.
     999900   -1    0    0    0    0 -0.00000000000E+00 -0.00000000000E+00 -0.74505805969E-08  0.93827000000E+00  0.93827000000E+00 0.  1.
     999902    2    1    2    0    0  0.16171070510E-02 -0.22163406129E-01 -0.67173708445E-02  0.10207146026E+01  0.10204505599E+01 0.  0.
     999903    2    3    3    0    0 -0.93809424352E-01  0.82955010782E-01  0.23148853130E-01  0.12883563332E+00  0.19519454409E-01 0.  0.
         14    1    1    2    0    0 -0.16171070510E-02  0.22163406129E-01  0.67173708445E-02  0.23215397423E-01  0.00000000000E+00 0. -1.
     999901    1    3    3    0    0  0.95426531403E-01 -0.10511841691E+00 -0.29866223975E-01  0.89187896926E+00  0.88000000000E+00 0. -1.
        -11    1    4    4    0    0 -0.80384639601E-01  0.60660064684E-01  0.18787436443E-01  0.10244297253E+00  0.51100000000E-03 0. -1.
         11    1    4    4    0    0 -0.13424784751E-01  0.22294946098E-01  0.43614166868E-02  0.26392660791E-01  0.51100000000E-03 0.  1.
</event>
<event>
 8    1  0.1150863E+005  0.1043930E+01  0.7957747E-01            NaN
         13   -1    0    0    0    0  0.00000000000E+00  0.00000000000E+00  0.74505805969E-08  0.10566000000E+00  0.10566000000E+00 0.  1.
     999900   -1    0    0    0    0 -0.00000000000E+00 -0.00000000000E+00 -0.74505805969E-08  0.93827000000E+00  0.93827000000E+00 0. -1.
     999902    2    1    2    0    0 -0.12462967283E-01  0.97891151288E-02 -0.17973595998E-01  0.10199674776E+01  0.10196859579E+01 0.  0.
     999903    2    3    3    0    0  0.23498589408E-01  0.11403473926E+00 -0.58815303245E-01  0.13214518185E+00  0.21142462705E-01 0.  0.
         14    1    1    2    0    0  0.12462967283E-01 -0.97891151288E-02  0.17973595998E-01  0.23962522438E-01  0.00000000000E+00 0.  1.
     999901    1    3    3    0    0 -0.35961556691E-01 -0.10424562413E+00  0.40841707247E-01  0.88782229571E+00  0.88000000000E+00 0.  1.
        -11    1    4    4    0    0  0.22379739262E-01  0.59305679913E-01 -0.35401221748E-01  0.72605261666E-01  0.51100000000E-03 0. -1.
         11    1    4    4    0    0  0.11188501460E-02  0.54729059344E-01 -0.23414081497E-01  0.59539920185E-01  0.51100000000E-03 0.  1.
</event>
<event>
 8    1  0.1150863E+005  0.1043930E+01  0.7957747E-01            NaN
         13   -1    0    0    0    0  0.00000000000E+00  0.00000000000E+00  0.74505805969E-08  0.10566000000E+00  0.10566000000E+00 0.  1.
     999900   -1    0    0    0    0 -0.00000000000E+00 -0.00000000000E+00 -0.74505805969E-08  0.93827000000E+00  0.93827000000E+00 0.  1.
     999902    2    1    2    0    0  0.15906674089E-01 -0.11741921812E-01 -0.10356107721E-01  0.10216108608E+01  0.10213670285E+01 0.  0.
     999903    2    3    3    0    0  0.10199810072E+00 -0.81090194558E-01  0.24091789216E-01  0.13402561176E+00  0.20080291229E-01 0.  0.
         14    1    1    2    0    0 -0.15906674089E-01  0.11741921812E-01  0.10356107721E-01  0.22319139221E-01  0.00000000000E+00 0.  1.
     999901    1    3    3    0    0 -0.86091426633E-01  0.69348272746E-01 -0.34447896937E-01  0.88758524902E+00  0.88000000000E+00 0.  1.
        -11    1    4    4    0    0  0.61189958308E-02 -0.56384294616E-03  0.36281631487E-02  0.71543495637E-02  0.51100000000E-03 0. -1.
         11    1    4    4    0    0  0.95879104891E-01 -0.80526351612E-01  0.20463626067E-01  0.12687126220E+00  0.51100000000E-03 0.  1.
</event>
<event>
 8    1  0.1150863E+005  0.1043930E+01  0.7957747E-01            NaN
         13   -1    0    0    0    0  0.00000000000E+00  0.00000000000E+00  0.74505805969E-08  0.10566000000E+00  0.10566000000E+00 0.  1.
     999900   -1    0    0    0    0 -0.00000000000E+00 -0.00000000000E+00 -0.74505805969E-08  0.93827000000E+00  0.93827000000E+00 0.  1.
     999902    2    1    2    0    0 -0.41960942180E-02  0.11845289447E-01  0.18401018569E-01  0.10216473706E+01  0.10214043442E+01 0.  0.
     999903    2    3    3    0    0 -0.11289270805E+00 -0.46290229081E-01 -0.42935231150E-01  0.13094156737E+00  0.20364458036E-01 0.  0.
         14    1    1    2    0    0  0.41960942180E-02 -0.11845289447E-01 -0.18401018569E-01  0.22282629404E-01  0.00000000000E+00 0. -1.
     999901    1    3    3    0    0  0.10869661384E+00  0.58135518528E-01  0.61336249719E-01  0.89070580323E+00  0.88000000000E+00 0. -1.
        -11    1    4    4    0    0 -0.98760917372E-01 -0.32707384105E-01 -0.37569542379E-01  0.11061294414E+00  0.51100000000E-03 0. -1.
         11    1    4    4    0    0 -0.14131790681E-01 -0.13582844976E-01 -0.53656887714E-02  0.20328623231E-01  0.51100000000E-03 0.  1.
</event>
<event>
 8    1  0.1150863E+005  0.1043930E+01  0.7957747E-01            NaN
         13   -1    0    0    0    0  0.00000000000E+00  0.00000000000E+00  0.74505805969E-08  0.10566000000E+00  0.10566000000E+00 0. -1.
     999900   -1    0    0    0    0 -0.00000000000E+00 -0.00000000000E+00 -0.74505805969E-08  0.93827000000E+00  0.93827000000E+00 0. -1.
     999902    2    1    2    0    0 -0.99936576971E-02  0.20457220178E-02  0.21627302260E-01  0.10200176941E+01  0.10197373671E+01 0.  0.
     999903    2    3    3    0    0 -0.27445598752E-01 -0.81371076437E-01 -0.92812405536E-01  0.12852491268E+00  0.23021676470E-01 0.  0.
         14    1    1    2    0    0  0.99936576971E-02 -0.20457220178E-02 -0.21627302260E-01  0.23912305949E-01  0.00000000000E+00 0.  1.
     999901    1    3    3    0    0  0.17451941055E-01  0.83416798455E-01  0.11443970780E+00  0.89149278137E+00  0.88000000000E+00 0.  1.
        -11    1    4    4    0    0 -0.93801136111E-02 -0.45475508958E-01 -0.64017425453E-01  0.79085398962E-01  0.51100000000E-03 0. -1.
         11    1    4    4    0    0 -0.18065485141E-01 -0.35895567479E-01 -0.28794980082E-01  0.49439513721E-01  0.51100000000E-03 0.  1.
</event>
<event>
 8    1  0.1150863E+005  0.1043930E+01  0.7957747E-01            NaN
         13   -1    0    0    0    0  0.00000000000E+00  0.00000000000E+00  0.74505805969E-08  0.10566000000E+00  0.10566000000E+00 0. -1.
     999900   -1    0    0    0    0 -0.00000000000E+00 -0.00000000000E+00 -0.74505805969E-08  0.93827000000E+00  0.93827000000E+00 0.  1.
     999902    2    1    2    0    0  0.48766294851E-02 -0.24950325172E-01  0.43292727181E-02  0.10181415754E+01  0.10178149265E+01 0.  0.
     999903    2    3    3    0    0  0.13169421706E-01 -0.11826184609E+00 -0.51879476235E-01  0.13138612219E+00  0.20286328860E-01 0.  0.
         14    1    1    2    0    0 -0.48766294851E-02  0.24950325172E-01 -0.43292727181E-02  0.25788424604E-01  0.00000000000E+00 0. -1.
     999901    1    3    3    0    0 -0.82927922211E-02  0.93311520923E-01  0.56208748953E-01  0.88675545321E+00  0.88000000000E+00 0. -1.
        -11    1    4    4    0    0  0.89930799540E-02 -0.52273786611E-01 -0.12755227579E-01  0.54556220593E-01  0.51100000000E-03 0.  1.
         11    1    4    4    0    0  0.41763417522E-02 -0.65988059483E-01 -0.39124248656E-01  0.76829901592E-01  0.51100000000E-03 0. -1.
</event>
<event>
 8    1  0.1150863E+005  0.1043930E+01  0.7957747E-01            NaN
         13   -1    0    0    0    0  0.00000000000E+00  0.00000000000E+00  0.74505805969E-08  0.10566000000E+00  0.10566000000E+00 0.  1.
     999900   -1    0    0    0    0 -0.00000000000E+00 -0.00000000000E+00 -0.74505805969E-08  0.93827000000E+00  0.93827000000E+00 0. -1.
     999902    2    1    2    0    0 -0.17032946971E-01 -0.15656096500E-01 -0.22182195722E-02  0.10206887621E+01  0.10204241246E+01 0.  0.
     999903    2    3    3    0    0 -0.14942050514E-02  0.12488777469E+00 -0.25896625882E-01  0.12908644093E+00  0.19836458456E-01 0.  0.
         14    1    1    2    0    0  0.17032946971E-01  0.15656096500E-01  0.22182195722E-02  0.23241237881E-01  0.00000000000E+00 0.  1.
     999901    1    3    3    0    0 -0.15538741920E-01 -0.14054387119E+00  0.23678406310E-01  0.89160232119E+00  0.88000000000E+00 0. -1.
        -11    1    4    4    0    0  0.73822851161E-02  0.51594433404E-01 -0.16434185119E-01  0.54651873283E-01  0.51100000000E-03 0. -1.
         11    1    4    4    0    0 -0.88764901675E-02  0.73293341284E-01 -0.94624407627E-02  0.74434567644E-01  0.51100000000E-03 0.  1.
</event>
<event>
 8    1  0.1150863E+005  0.1043930E+01  0.7957747E-01            NaN
         13   -1    0    0    0    0  0.00000000000E+00  0.00000000000E+00  0.74505805969E-08  0.10566000000E+00  0.10566000000E+00 0. -1.
     999900   -1    0    0    0    0 -0.00000000000E+00 -0.00000000000E+00 -0.74505805969E-08  0.93827000000E+00  0.93827000000E+00 0.  1.
     999902    2    1    2    0    0  0.19055432971E-01  0.99825553826E-02  0.88296371204E-02  0.10206765394E+01  0.10204116202E+01 0.  0.
     999903    2    3    3    0    0 -0.46350861700E-01  0.61094718641E-01  0.10489664634E+00  0.13156501273E+00  0.20617447372E-01 0.  0.
         14    1    1    2    0    0 -0.19055432971E-01 -0.99825553826E-02 -0.88296371204E-02  0.23253460589E-01  0.00000000000E+00 0.  1.
     999901    1    3    3    0    0  0.65406294671E-01 -0.51112163258E-01 -0.96067009216E-01  0.88911152668E+00  0.88000000000E+00 0.  1.
        -11    1    4    4    0    0 -0.23061844596E-01  0.14763764837E-01  0.40359747695E-01  0.48774868358E-01  0.51100000000E-03 0. -1.
         11    1    4    4    0    0 -0.23289017105E-01  0.46330953804E-01  0.64536898641E-01  0.82790144373E-01  0.51100000000E-03 0.  1.
</event>
<event>
 8    1  0.1150863E+005  0.1043930E+01  0.7957747E-01            NaN
         13   -1    0    0    0    0  0.00000000000E+00  0.00000000000E+00  0.74505805969E-08  0.10566000000E+00  0.10566000000E+00 0. -1.
     999900   -1    0    0    0    0 -0.00000000000E+00 -0.00000000000E+00 -0.74505805969E-08  0.93827000000E+00  0.93827000000E+00 0. -1.
     999902    2    1    2    0    0 -0.54657130449E-03  0.24413649924E-01  0.80221242691E-02  0.10182263131E+01  0.10179018347E+01 0.  0.
     999903    2    3    3    0    0  0.11815814158E+00 -0.29875474682E-01  0.34629933854E-01  0.12820041828E+00  0.19550563118E-01 0.  0.
         14    1    1    2    0    0  0.54657130449E-03 -0.24413649924E-01 -0.80221242691E-02  0.25703686907E-01  0.00000000000E+00 0.  1.
     999901    1    3    3    0    0 -0.11870471289E+00  0.54289124606E-01 -0.26607809585E-01  0.89002589482E+00  0.88000000000E+00 0.  1.
        -11    1    4    4    0    0  0.43981828570E-01 -0.15408055506E-01  0.22149634476E-01  0.51601132228E-01  0.51100000000E-03 0.  1.
         11    1    4    4    0    0  0.74176313012E-01 -0.14467419176E-01  0.12480299378E-01  0.76599286049E-01  0.51100000000E-03 0. -1.
</event>
<event>
 8    1  0.1150863E+005  0.1043930E+01  0.7957747E-01            NaN
         13   -1    0    0    0    0  0.00000000000E+00  0.00000000000E+00  0.74505805969E-08  0.10566000000E+00  0.10566000000E+00 0.  1.
     999900   -1    0    0    0    0 -0.00000000000E+00 -0.00000000000E+00 -0.74505805969E-08  0.93827000000E+00  0.93827000000E+00 0.  1.
     999902    2    1    2    0    0 -0.18903674839E-01  0.97395833734E-03  0.13102464343E-01  0.10209088773E+01  0.10206492854E+01 0.  0.
     999903    2    3    3    0    0 -0.12577296911E-01  0.55259792037E-01 -0.11522185861E+00  0.12992396912E+00  0.19807272286E-01 0.  0.
         14    1    1    2    0    0  0.18903674839E-01 -0.97395833734E-03 -0.13102464343E-01  0.23021122673E-01  0.00000000000E+00 0.  1.
     999901    1    3    3    0    0 -0.63263779286E-02 -0.54285833700E-01  0.12832432295E+00  0.89098490821E+00  0.88000000000E+00 0. -1.
        -11    1    4    4    0    0  0.39256554741E-03  0.27910364767E-01 -0.39457024151E-01  0.48334878142E-01  0.51100000000E-03 0.  1.
         11    1    4    4    0    0 -0.12969862458E-01  0.27349427270E-01 -0.75764834460E-01  0.81589090974E-01  0.51100000000E-03 0. -1.
</event>
<event>
 8    1  0.1150863E+005  0.1043930E+01  0.7957747E-01            NaN
         13   -1    0    0    0    0  0.00000000000E+00  0.00000000000E+00  0.74505805969E-08  0.10566000000E+00  0.10566000000E+00 0. -1.
     999900   -1    0    0    0    0 -0.00000000000E+00 -0.00000000000E+00 -0.74505805969E-08  0.93827000000E+00  0.93827000000E+00 0.  1.
     999902    2    1    2    0    0  0.16293643707E-01  0.13706325379E-01  0.10795029405E-01  0.10200578648E+01  0.10197784900E+01 0.  0.
     999903    2    3    3    0    0 -0.73904996033E-01  0.87016351531E-01 -0.58309752740E-01  0.12972892249E+00  0.19894024055E-01 0.  0.
         14    1    1    2    0    0 -0.16293643707E-01 -0.13706325379E-01 -0.10795029405E-01  0.23872135232E-01  0.00000000000E+00 0. -1.
     999901    1    3    3    0    0  0.90198639741E-01 -0.73310026152E-01  0.69104782145E-01  0.89032894228E+00  0.88000000000E+00 0.  1.
        -11    1    4    4    0    0 -0.51875821489E-01  0.67624308596E-01 -0.34562281141E-01  0.91972606612E-01  0.51100000000E-03 0.  1.
         11    1    4    4    0    0 -0.22029174544E-01  0.19392042935E-01 -0.23747471598E-01  0.37756315877E-01  0.51100000000E-03 0. -1.
</event>
<event>
 8    1  0.1150863E+005  0.1043930E+01  0.7957747E-01            NaN
         13   -1    0    0    0    0  0.00000000000E+00  0.00000000000E+00  0.74505805969E-08  0.10566000000E+00  0.10566000000E+00 0. -1.
     999900   -1    0    0    0    0 -0.00000000000E+00 -0.00000000000E+00 -0.74505805969E-08  0.93827000000E+00  0.93827000000E+00 0. -1.
     999902    2    1    2    0    0  0.23168882439E-01 -0.20312721919E-02 -0.71798826073E-03  0.10206611649E+01  0.10203958912E+01 0.  0.
     999903    2    3    3    0    0  0.10233438547E+00  0.36244686566E-01  0.74534426622E-01  0.13308291379E+00  0.19226997570E-01 0.  0.
         14    1    1    2    0    0 -0.23168882439E-01  0.20312721919E-02  0.71798826073E-03  0.23268835110E-01  0.00000000000E+00 0. -1.
     999901    1    3    3    0    0 -0.79165503032E-01 -0.38275958758E-01 -0.75252414883E-01  0.88757825111E+00  0.88000000000E+00 0.  1.
        -11    1    4    4    0    0  0.71391177965E-01  0.25262824170E-01  0.40872175596E-01  0.86056414259E-01  0.51100000000E-03 0.  1.
         11    1    4    4    0    0  0.30943207507E-01  0.10981862397E-01  0.33662251026E-01  0.47026499526E-01  0.51100000000E-03 0. -1.
</event>
<event>
 8    1  0.1150863E+005  0.1043930E+01  0.7957747E-01            NaN
         13   -1    0    0    0    0  0.00000000000E+00  0.00000000000E+00  0.74505805969E-08  0.10566000000E+00  0.10566000000E+00 0. -1.
     999900   -1    0    0    0    0 -0.00000000000E+00 -0.00000000000E+00 -0.74505805969E-08  0.93827000000E+00  0.93827000000E+00 0. -1.
     999902    2    1    2    0    0  0.16295633366E-01  0.16352988246E-01  0.11820984583E-02  0.10208136584E+01  0.10205518899E+01 0.  0.
     999903    2    3    3    0    0  0.11620509092E+00  0.83897068242E-02 -0.60739232029E-01  0.13296256464E+00  0.20390658410E-01 0.  0.
         14    1    1    2    0    0 -0.16295633366E-01 -0.16352988246E-01 -0.11820984583E-02  0.23116341582E-01  0.00000000000E+00 0. -1.
     999901    1    3    3    0    0 -0.99909457555E-01  0.79632814221E-02  0.61921330488E-01  0.88785109378E+00  0.88000000000E+00 0.  1.
        -11    1    4    4    0    0  0.34264432519E-01 -0.66915854865E-02 -0.16283451016E-01  0.38525842628E-01  0.51100000000E-03 0. -1.
         11    1    4    4    0    0  0.81940658403E-01  0.15081292311E-01 -0.44455781013E-01  0.94436722008E-01  0.51100000000E-03 0.  1.
</event>
<event>
 8    1  0.1150863E+005  0.1043930E+01  0.7957747E-01            NaN
         13   -1    0    0    0    0  0.00000000000E+00  0.00000000000E+00  0.74505805969E-08  0.10566000000E+00  0.10566000000E+00 0. -1.
     999900   -1    0    0    0    0 -0.00000000000E+00 -0.00000000000E+00 -0.74505805969E-08  0.93827000000E+00  0.93827000000E+00 0.  1.
     999902    2    1    2    0    0 -0.12753878531E-01 -0.16777266944E-01 -0.10537977507E-01  0.10203675919E+01  0.10200955032E+01 0.  0.
     999903    2    3    3    0    0 -0.22263303598E-01  0.54492108325E-01 -0.11557073195E+00  0.13120976988E+00  0.19858627147E-01 0.  0.
         14    1    1    2    0    0  0.12753878531E-01  0.16777266944E-01  0.10537977507E-01  0.23562408061E-01  0.00000000000E+00 0. -1.
     999901    1    3    3    0    0  0.95094250677E-02 -0.71269375269E-01  0.10503275444E+00  0.88915782206E+00  0.88000000000E+00 0. -1.
        -11    1    4    4    0    0 -0.16921180499E-03  0.26176808336E-01 -0.46972247663E-01  0.53776454874E-01  0.51100000000E-03 0.  1.
         11    1    4    4    0    0 -0.22094091793E-01  0.28315299989E-01 -0.68598484289E-01  0.77433315010E-01  0.51100000000E-03 0. -1.
</event>
<event>
 8    1  0.1150863E+005  0.1043930E+01  0.7957747E-01            NaN
         13   -1    0    0    0    0  0.00000000000E+00  0.00000000000E+00  0.74505805969E-08  0.10566000000E+00  0.10566000000E+00 0.  1.
     999900   -1    0    0    0    0 -0.00000000000E+00 -0.00000000000E+00 -0.74505805969E-08  0.93827000000E+00  0.93827000000E+00 0. -1.
     999902    2    1    2    0    0 -0.35426507284E-02  0.20627911378E-02 -0.23616014696E-01  0.10199608191E+01  0.10196791412E+01 0.  0.
     999903    2    3    3    0    0 -0.38054966544E-01 -0.84945818349E-01  0.85818959991E-01  0.12825592862E+00  0.20511382198E-01 0.  0.
         14    1    1    2    0    0  0.35426507284E-02 -0.20627911378E-02  0.23616014696E-01  0.23969180870E-01  0.00000000000E+00 0.  1.
     999901    1    3    3    0    0  0.34512315815E-01  0.87008609487E-01 -0.10943497469E+00  0.89170489051E+00  0.88000000000E+00 0. -1.
        -11    1    4    4    0    0 -0.87663885228E-02 -0.32570445341E-01  0.20133380415E-01  0.39284826656E-01  0.51100000000E-03 0.  1.
         11    1    4    4    0    0 -0.29288578021E-01 -0.52375373008E-01  0.65685579575E-01  0.88971101968E-01  0.51100000000E-03 0. -1.
</event>
<event>
 8    1  0.1150863E+005  0.1043930E+01  0.7957747E-01            NaN
         13   -1    0    0    0    0  0.00000000000E+00  0.00000000000E+00  0.74505805969E-08  0.10566000000E+00  0.10566000000E+00 0.  1.
     999900   -1    0    0    0    0 -0.00000000000E+00 -0.00000000000E+00 -0.74505805969E-08  0.93827000000E+00  0.93827000000E+00 0.  1.
     999902    2    1    2    0    0 -0.45276682466E-02  0.40196880631E-02  0.22635473063E-01  0.10204987748E+01  0.10202297423E+01 0.  0.
     999903    2    3    3    0    0 -0.11004811174E+00  0.26611990776E-01  0.66820886952E-01  0.13280663961E+00  0.18809243535E-01 0.  0.
         14    1    1    2    0    0  0.45276682466E-02 -0.40196880631E-02 -0.22635473063E-01  0.23431225164E-01  0.00000000000E+00 0. -1.
     999901    1    3    3    0    0  0.10552044349E+00 -0.22592302713E-01 -0.44185413889E-01  0.88769213522E+00  0.88000000000E+00 0.  1.
        -11    1    4    4    0    0 -0.54934584710E-01  0.19763025013E-01  0.42288741959E-01  0.72090114249E-01  0.51100000000E-03 0. -1.
         11    1    4    4    0    0 -0.55113527027E-01  0.68489657629E-02  0.24532144993E-01  0.60716525364E-01  0.51100000000E-03 0.  1.
</event>
<event>
 8    1  0.1150863E+005  0.1043930E+01  0.7957747E-01            NaN
         13   -1    0    0    0    0  0.00000000000E+00  0.00000000000E+00  0.74505805969E-08  0.10566000000E+00  0.10566000000E+00 0. -1.
     999900   -1    0    0    0    0 -0.00000000000E+00 -0.00000000000E+00 -0.74505805969E-08  0.93827000000E+00  0.93827000000E+00 0. -1.
     999902    2    1    2    0    0 -0.12698658521E-01 -0.20631857521E-01 -0.31240620511E-04  0.10197033525E+01  0.10194155172E+01 0.  0.
     999903    2    3    3    0    0 -0.50869155176E-01 -0.56444053073E-01 -0.10598162314E+00  0.13180415568E+00  0.19147556893E-01 0.  0.
         14    1    1    2    0    0  0.12698658521E-01  0.20631857521E-01  0.31240620511E-04  0.24226647497E-01  0.00000000000E+00 0.  1.
     999901    1    3    3    0    0  0.38170496655E-01  0.35812195552E-01  0.10595038252E+00  0.88789919682E+00  0.88000000000E+00 0.  1.
        -11    1    4    4    0    0 -0.31022724942E-01 -0.47121853818E-01 -0.77132191490E-01  0.95564191281E-01  0.51100000000E-03 0. -1.
         11    1    4    4    0    0 -0.19846430234E-01 -0.93221992544E-02 -0.28849431651E-01  0.36239964398E-01  0.51100000000E-03 0.  1.
</event>
<event>
 8    1  0.1150863E+005  0.1043930E+01  0.7957747E-01            NaN
         13   -1    0    0    0    0  0.00000000000E+00  0.00000000000E+00  0.74505805969E-08  0.10566000000E+00  0.10566000000E+00 0. -1.
     999900   -1    0    0    0    0 -0.00000000000E+00 -0.00000000000E+00 -0.74505805969E-08  0.93827000000E+00  0.93827000000E+00 0.  1.
     999902    2    1    2    0    0  0.16325684275E-02 -0.18453753368E-01 -0.14669764267E-01  0.10202993361E+01  0.10200256501E+01 0.  0.
     999903    2    3    3    0    0  0.10090016023E+00 -0.80561918804E-01  0.17365552058E-01  0.13196508566E+00  0.21027513907E-01 0.  0.
         14    1    1    2    0    0 -0.16325684275E-02  0.18453753368E-01  0.14669764267E-01  0.23630663907E-01  0.00000000000E+00 0. -1.
     999901    1    3    3    0    0 -0.99267591797E-01  0.62108165436E-01 -0.32035316325E-01  0.88833425043E+00  0.88000000000E+00 0.  1.
        -11    1    4    4    0    0  0.50432389541E-01 -0.46467663240E-01  0.18564215821E-01  0.71046188299E-01  0.51100000000E-03 0.  1.
         11    1    4    4    0    0  0.50467770684E-01 -0.34094255563E-01 -0.11986637628E-02  0.60918897364E-01  0.51100000000E-03 0. -1.
</event>
<event>
 8    1  0.1150863E+005  0.1043930E+01  0.7957747E-01            NaN
         13   -1    0    0    0    0  0.00000000000E+00  0.00000000000E+00  0.74505805969E-08  0.10566000000E+00  0.10566000000E+00 0.  1.
     999900   -1    0    0    0    0 -0.00000000000E+00 -0.00000000000E+00 -0.74505805969E-08  0.93827000000E+00  0.93827000000E+00 0. -1.
     999902    2    1    2    0    0  0.12923185341E-01  0.19337724927E-01 -0.53039332299E-02  0.10200744339E+01  0.10197954514E+01 0.  0.
     999903    2    3    3    0    0  0.11794138247E+00  0.56773460754E-01 -0.24124006974E-02  0.13303519184E+00  0.23646290321E-01 0.  0.
         14    1    1    2    0    0 -0.12923185341E-01 -0.19337724927E-01  0.53039332299E-02  0.23855566068E-01  0.00000000000E+00 0. -1.
     999901    1    3    3    0    0 -0.10501819713E+00 -0.37435735827E-01 -0.28915325325E-02  0.88703924209E+00  0.88000000000E+00 0. -1.
        -11    1    4    4    0    0  0.38716963766E-01  0.10132052653E-01  0.69534609837E-02  0.40623558619E-01  0.51100000000E-03 0. -1.
         11    1    4    4    0    0  0.79224418707E-01  0.46641408101E-01 -0.93658616811E-02  0.92411633224E-01  0.51100000000E-03 0.  1.
</event>
<event>
 8    1  0.1150863E+005  0.1043930E+01  0.7957747E-01            NaN
         13   -1    0    0    0    0  0.00000000000E+00  0.00000000000E+00  0.74505805969E-08  0.10566000000E+00  0.10566000000E+00 0.  1.
     999900   -1    0    0    0    0 -0.00000000000E+00 -0.00000000000E+00 -0.74505805969E-08  0.93827000000E+00  0.93827000000E+00 0.  1.
     999902    2    1    2    0    0  0.16924172950E-01 -0.79648853993E-02  0.12606615430E-01  0.10213735423E+01  0.10211244387E+01 0.  0.
     999903    2    3    3    0    0 -0.12053390465E+00 -0.29369927921E-02  0.44324129268E-01  0.13012385595E+00  0.20749490504E-01 0.  0.
         14    1    1    2    0    0 -0.16924172950E-01  0.79648853993E-02 -0.12606615430E-01  0.22556457658E-01  0.00000000000E+00 0. -1.
     999901    1    3    3    0    0  0.13745807760E+00 -0.50278926072E-02 -0.31717513838E-01  0.89124968639E+00  0.88000000000E+00 0.  1.
        -11    1    4    4    0    0 -0.20725469054E-01  0.51144513394E-02  0.21167270800E-02  0.21457966692E-01  0.51100000000E-03 0. -1.
         11    1    4    4    0    0 -0.99808435596E-01 -0.80514441314E-02  0.42207402188E-01  0.10866588926E+00  0.51100000000E-03 0.  1.
</event>
<event>
 8    1  0.1150863E+005  0.1043930E+01  0.7957747E-01            NaN
         13   -1    0    0    0    0  0.00000000000E+00  0.00000000000E+00  0.74505805969E-08  0.10566000000E+00  0.10566000000E+00 0.  1.
     999900   -1    0    0    0    0 -0.00000000000E+00 -0.00000000000E+00 -0.74505805969E-08  0.93827000000E+00  0.93827000000E+00 0.  1.
     999902    2    1    2    0    0  0.97238145075E-02 -0.89679298576E-02 -0.13547140908E-01  0.10249958678E+01  0.10248209735E+01 0.  0.
     999903    2    3    3    0    0  0.33667698969E-01  0.43086235785E-01 -0.12314005112E+00  0.13634883343E+00  0.20918760008E-01 0.  0.
         14    1    1    2    0    0 -0.97238145075E-02  0.89679298576E-02  0.13547140908E-01  0.18934132177E-01  0.00000000000E+00 0.  1.
     999901    1    3    3    0    0 -0.23943884462E-01 -0.52054165643E-01  0.10959291021E+00  0.88864703439E+00  0.88000000000E+00 0. -1.
        -11    1    4    4    0    0  0.26641602967E-01  0.40069994458E-01 -0.87158168726E-01  0.99559966659E-01  0.51100000000E-03 0. -1.
         11    1    4    4    0    0  0.70260960016E-02  0.30162413275E-02 -0.35981882394E-01  0.36788866772E-01  0.51100000000E-03 0.  1.
</event>
<event>
 8    1  0.1150863E+005  0.1043930E+01  0.7957747E-01            NaN
         13   -1    0    0    0    0  0.00000000000E+00  0.00000000000E+00  0.74505805969E-08  0.10566000000E+00  0.10566000000E+00 0.  1.
     999900   -1    0    0    0    0 -0.00000000000E+00 -0.00000000000E+00 -0.74505805969E-08  0.93827000000E+00  0.93827000000E+00 0. -1.
     999902    2    1    2    0    0 -0.25100473699E-01 -0.10265589693E-01 -0.32802607438E-02  0.10166137736E+01  0.10162467164E+01 0.  0.
     999903    2    3    3    0    0  0.51557250595E-01  0.33226772132E-01 -0.10813555366E+00  0.12601699357E+00  0.20611070545E-01 0.  0.
         14    1    1    2    0    0  0.25100473699E-01  0.10265589693E-01  0.32802607438E-02  0.27316226353E-01  0.00000000000E+00 0.  1.
     999901    1    3    3    0    0 -0.76657724293E-01 -0.43492361825E-01  0.10485529291E+00  0.89059678008E+00  0.88000000000E+00 0.  1.
        -11    1    4    4    0    0  0.37435185049E-01  0.21095689382E-01 -0.55555498748E-01  0.70236000401E-01  0.51100000000E-03 0. -1.
         11    1    4    4    0    0  0.14122065546E-01  0.12131082750E-01 -0.52580054907E-01  0.55780993169E-01  0.51100000000E-03 0.  1.
</event>
<event>
 8    1  0.1150863E+005  0.1043930E+01  0.7957747E-01            NaN
         13   -1    0    0    0    0  0.00000000000E+00  0.00000000000E+00  0.74505805969E-08  0.10566000000E+00  0.10566000000E+00 0. -1.
     999900   -1    0    0    0    0 -0.00000000000E+00 -0.00000000000E+00 -0.74505805969E-08  0.93827000000E+00  0.93827000000E+00 0. -1.
     999902    2    1    2    0    0 -0.23122433067E-01  0.63639018346E-02  0.59356653908E-02  0.10192241650E+01  0.10189246882E+01 0.  0.
     999903    2    3    3    0    0 -0.87032712411E-01 -0.54711951784E-01  0.79985874095E-01  0.13170052191E+00  0.19472974075E-01 0.  0.
         14    1    1    2    0    0  0.23122433067E-01 -0.63639018346E-02 -0.59356653908E-02  0.24705834961E-01  0.00000000000E+00 0.  1.
     999901    1    3    3    0    0  0.63910279345E-01  0.61075853618E-01 -0.74050208704E-01  0.88752364313E+00  0.88000000000E+00 0. -1.
        -11    1    4    4    0    0 -0.58040601811E-01 -0.35057126479E-01  0.40787240836E-01  0.79130106227E-01  0.51100000000E-03 0. -1.
         11    1    4    4    0    0 -0.28992110601E-01 -0.19654825305E-01  0.39198633259E-01  0.52570415684E-01  0.51100000000E-03 0.  1.
</event>
<event>
 8    1  0.1150863E+005  0.1043930E+01  0.7957747E-01            NaN
         13   -1    0    0    0    0  0.00000000000E+00  0.00000000000E+00  0.74505805969E-08  0.10566000000E+00  0.10566000000E+00 0. -1.
     999900   -1    0    0    0    0 -0.00000000000E+00 -0.00000000000E+00 -0.74505805969E-08  0.93827000000E+00  0.93827000000E+00 0.  1.
     999902    2    1    2    0    0  0.14597560733E-01  0.30770522940E-01 -0.14320511229E-01  0.10069842167E+01  0.10063062266E+01 0.  0.
     999903    2    3    3    0    0 -0.80919578982E-02  0.70086982857E-02  0.11472138482E+00  0.11696666098E+00  0.20139563351E-01 0.  0.
         14    1    1    2    0    0 -0.14597560733E-01 -0.30770522940E-01  0.14320511229E-01  0.36945783294E-01  0.00000000000E+00 0. -1.
     999901    1    3    3    0    0  0.22689518632E-01  0.23761824654E-01 -0.12904189605E+00  0.89001755573E+00  0.88000000000E+00 0.  1.
        -11    1    4    4    0    0 -0.30783002189E-02  0.13502501282E-01  0.56868388043E-01  0.58532624687E-01  0.51100000000E-03 0.  1.
         11    1    4    4    0    0 -0.50136576793E-02 -0.64938029964E-02  0.57852996774E-01  0.58434036292E-01  0.51100000000E-03 0. -1.
</event>
<event>
 8    1  0.1150863E+005  0.1043930E+01  0.7957747E-01            NaN
         13   -1    0    0    0    0  0.00000000000E+00  0.00000000000E+00  0.74505805969E-08  0.10566000000E+00  0.10566000000E+00 0. -1.
     999900   -1    0    0    0    0 -0.00000000000E+00 -0.00000000000E+00 -0.74505805969E-08  0.93827000000E+00  0.93827000000E+00 0.  1.
     999902    2    1    2    0    0 -0.61755936722E-02 -0.45314561876E-02  0.20769593550E-01  0.10217929706E+01  0.10215531444E+01 0.  0.
     999903    2    3    3    0    0  0.42768595740E-01  0.11653454038E+00  0.39942565239E-01  0.13195022496E+00  0.20149478046E-01 0.  0.
         14    1    1    2    0    0  0.61755936722E-02  0.45314561876E-02 -0.20769593550E-01  0.22137029353E-01  0.00000000000E+00 0.  1.
     999901    1    3    3    0    0 -0.48944189412E-01 -0.12106599657E+00 -0.19172971689E-01  0.88984274568E+00  0.88000000000E+00 0. -1.
        -11    1    4    4    0    0  0.46001649201E-02  0.65285672898E-02 -0.18905006703E-02  0.82230664557E-02  0.51100000000E-03 0. -1.
         11    1    4    4    0    0  0.38168430820E-01  0.11000597309E+00  0.41833065909E-01  0.12372715851E+00  0.51100000000E-03 0.  1.
</event>
<event>
 8    1  0.1150863E+005  0.1043930E+01  0.7957747E-01            NaN
         13   -1    0    0    0    0  0.00000000000E+00  0.00000000000E+00  0.74505805969E-08  0.10566000000E+00  0.10566000000E+00 0.  1.
     999900   -1    0    0    0    0 -0.00000000000E+00 -0.00000000000E+00 -0.74505805969E-08  0.93827000000E+00  0.93827000000E+00 0. -1.
     999902    2    1    2    0    0  0.75641324503E-02 -0.20225363766E-01  0.10274537116E-01  0.10200166658E+01  0.10197363144E+01 0.  0.
     999903    2    3    3    0    0 -0.95105719761E-02  0.25639702538E-01  0.12656576191E+00  0.13101790383E+00  0.19973825629E-01 0.  0.
         14    1    1    2    0    0 -0.75641324503E-02  0.20225363766E-01 -0.10274537116E-01  0.23913334191E-01  0.00000000000E+00 0.  1.
     999901    1    3    3    0    0  0.17074704426E-01 -0.45865066304E-01 -0.11629122479E+00  0.88899876198E+00  0.88000000000E+00 0. -1.
        -11    1    4    4    0    0 -0.12073451487E-01  0.13143034986E-01  0.44220328027E-01  0.47688637339E-01  0.51100000000E-03 0. -1.
         11    1    4    4    0    0  0.25628795112E-02  0.12496667552E-01  0.82345433883E-01  0.83329266490E-01  0.51100000000E-03 0.  1.
</event>
<event>
 8    1  0.1150863E+005  0.1043930E+01  0.7957747E-01            NaN
         13   -1    0    0    0    0  0.00000000000E+00  0.00000000000E+00  0.74505805969E-08  0.10566000000E+00  0.10566000000E+00 0. -1.
     999900   -1    0    0    0    0 -0.00000000000E+00 -0.00000000000E+00 -0.74505805969E-08  0.93827000000E+00  0.93827000000E+00 0. -1.
     999902    2    1    2    0    0  0.13897337580E-01  0.10032992060E-01  0.16927775893E-01  0.10198396177E+01  0.10195550497E+01 0.  0.
     999903    2    3    3    0    0  0.92706455197E-01 -0.45332110080E-01 -0.76329938833E-01  0.12968616303E+00  0.18513624139E-01 0.  0.
         14    1    1    2    0    0 -0.13897337580E-01 -0.10032992060E-01 -0.16927775893E-01  0.24090382276E-01  0.00000000000E+00 0.  1.
     999901    1    3    3    0    0 -0.78809117616E-01  0.55365102140E-01  0.93257714727E-01  0.89015345470E+00  0.88000000000E+00 0.  1.
        -11    1    4    4    0    0  0.37448727099E-01 -0.91174790066E-02 -0.24040315083E-01  0.45428333175E-01  0.51100000000E-03 0. -1.
         11    1    4    4    0    0  0.55257728098E-01 -0.36214631073E-01 -0.52289623751E-01  0.84257829851E-01  0.51100000000E-03 0.  1.
</event>
<event>
 8    1  0.1150863E+005  0.1043930E+01  0.7957747E-01            NaN
         13   -1    0    0    0    0  0.00000000000E+00  0.00000000000E+00  0.74505805969E-08  0.10566000000E+00  0.10566000000E+00 0.  1.
     999900   -1    0    0    0    0 -0.00000000000E+00 -0.00000000000E+00 -0.74505805969E-08  0.93827000000E+00  0.93827000000E+00 0.  1.
     999902    2    1    2    0    0  0.15106782250E-01 -0.15594510410E-01 -0.48961620024E-02  0.10216729556E+01  0.10214304930E+01 0.  0.
     999903    2    3    3    0    0  0.13075931080E+00  0.15059393382E-01  0.10998265720E-01  0.13343436036E+00  0.18946872714E-01 0.  0.
         14    1    1    2    0    0 -0.15106782250E-01  0.15594510410E-01  0.48961620024E-02  0.22257044441E-01  0.00000000000E+00 0.  1.
     999901    1    3    3    0    0 -0.11565252855E+00 -0.30653903793E-01 -0.15894427723E-01  0.88823859520E+00  0.88000000000E+00 0. -1.
        -11    1    4    4    0    0  0.72130856851E-01  0.12717407379E-01  0.14444289495E-01  0.74655820808E-01  0.51100000000E-03 0. -1.
         11    1    4    4    0    0  0.58628453945E-01  0.23419860031E-02 -0.34460237752E-02  0.58778539547E-01  0.51100000000E-03 0.  1.
</event>
<event>
 8    1  0.1150863E+005  0.1043930E+01  0.7957747E-01            NaN
         13   -1    0    0    0    0  0.00000000000E+00  0.00000000000E+00  0.74505805969E-08  0.10566000000E+00  0.10566000000E+00 0. -1.
     999900   -1    0    0    0    0 -0.00000000000E+00 -0.00000000000E+00 -0.74505805969E-08  0.93827000000E+00  0.93827000000E+00 0. -1.
     999902    2    1    2    0    0 -0.29459425205E-02 -0.22598710904E-01  0.39533602589E-03  0.10211366544E+01  0.10208822314E+01 0.  0.
     999903    2    3    3    0    0 -0.20331246602E-02 -0.69446661011E-01 -0.11139407996E+00  0.13282790338E+00  0.20190060529E-01 0.  0.
         14    1    1    2    0    0  0.29459425205E-02  0.22598710904E-01 -0.39533602589E-03  0.22793345574E-01  0.00000000000E+00 0. -1.
     999901    1    3    3    0    0 -0.91281786033E-03  0.46847950107E-01  0.11178941598E+00  0.88830875105E+00  0.88000000000E+00 0.  1.
        -11    1    4    4    0    0  0.88530797089E-02 -0.39482323935E-01 -0.62329227755E-01  0.74313018221E-01  0.51100000000E-03 0. -1.
         11    1    4    4    0    0 -0.10886204369E-01 -0.29964337076E-01 -0.49064852204E-01  0.58514885156E-01  0.51100000000E-03 0.  1.
</event>
<event>
 8    1  0.1150863E+005  0.1043930E+01  0.7957747E-01            NaN
         13   -1    0    0    0    0  0.00000000000E+00  0.00000000000E+00  0.74505805969E-08  0.10566000000E+00  0.10566000000E+00 0.  1.
     999900   -1    0    0    0    0 -0.00000000000E+00 -0.00000000000E+00 -0.74505805969E-08  0.93827000000E+00  0.93827000000E+00 0. -1.
     999902    2    1    2    0    0 -0.96180207837E-02  0.14309467887E-01  0.20911806336E-01  0.10168270326E+01  0.10164657611E+01 0.  0.
     999903    2    3    3    0    0 -0.36137958582E-01 -0.73171916808E-01  0.97571189881E-01  0.12877694349E+00  0.20081897824E-01 0.  0.
         14    1    1    2    0    0  0.96180207837E-02 -0.14309467887E-01 -0.20911806336E-01  0.27102967351E-01  0.00000000000E+00 0. -1.
     999901    1    3    3    0    0  0.26519937798E-01  0.87481384694E-01 -0.76659383545E-01  0.88805008916E+00  0.88000000000E+00 0. -1.
        -11    1    4    4    0    0 -0.29877955737E-01 -0.67699406579E-01  0.78059822559E-01  0.10756160518E+00  0.51100000000E-03 0. -1.
         11    1    4    4    0    0 -0.62600028448E-02 -0.54725102289E-02  0.19511367322E-01  0.21215338310E-01  0.51100000000E-03 0.  1.
</event>
<event>
 8    1  0.1150863E+005  0.1043930E+01  0.7957747E-01            NaN
         13   -1    0    0    0    0  0.00000000000E+00  0.00000000000E+00  0.74505805969E-08  0.10566000000E+00  0.10566000000E+00 0.  1.
     999900   -1    0    0    0    0 -0.00000000000E+00 -0.00000000000E+00 -0.74505805969E-08  0.93827000000E+00  0.93827000000E+00 0.  1.
     999902    2    1    2    0    0 -0.14094855363E-01  0.17841143109E-01 -0.15686735716E-02  0.10211389475E+01  0.10208845763E+01 0.  0.
     999903    2    3    3    0    0  0.34438569255E-01  0.98153298880E-01 -0.80029764022E-01  0.13267866234E+00  0.19462250091E-01 0.  0.
         14    1    1    2    0    0  0.14094855363E-01 -0.17841143109E-01  0.15686735716E-02  0.22791052453E-01  0.00000000000E+00 0. -1.
     999901    1    3    3    0    0 -0.48533424618E-01 -0.80312155771E-01  0.78461090450E-01  0.88846028520E+00  0.88000000000E+00 0. -1.
        -11    1    4    4    0    0  0.34790795933E-01  0.96972589977E-01 -0.80978783206E-01  0.13104162369E+00  0.51100000000E-03 0.  1.
         11    1    4    4    0    0 -0.35222667812E-03  0.11807089024E-02  0.94901918397E-03  0.16370386546E-02  0.51100000000E-03 0. -1.
</event>
<event>
 8    1  0.1150863E+005  0.1043930E+01  0.7957747E-01            NaN
         13   -1    0    0    0    0  0.00000000000E+00  0.00000000000E+00  0.74505805969E-08  0.10566000000E+00  0.10566000000E+00 0.  1.
     999900   -1    0    0    0    0 -0.00000000000E+00 -0.00000000000E+00 -0.74505805969E-08  0.93827000000E+00  0.93827000000E+00 0. -1.
     999902    2    1    2    0    0  0.18651002543E-01 -0.11324709047E-01  0.92268333946E-02  0.10202394241E+01  0.10199643323E+01 0.  0.
     999903    2    3    3    0    0 -0.78539153421E-01  0.34982420110E-01 -0.92441850679E-01  0.12786797795E+00  0.20311466988E-01 0.  0.
         14    1    1    2    0    0 -0.18651002543E-01  0.11324709047E-01 -0.92268333946E-02  0.23690575876E-01  0.00000000000E+00 0. -1.
     999901    1    3    3    0    0  0.97190155963E-01 -0.46307129156E-01  0.10166868407E+00  0.89237144617E+00  0.88000000000E+00 0.  1.
        -11    1    4    4    0    0 -0.43732588114E-01  0.87862477892E-02 -0.42814104979E-01  0.61830786179E-01  0.51100000000E-03 0.  1.
         11    1    4    4    0    0 -0.34806565307E-01  0.26196172320E-01 -0.49627745699E-01  0.66037191770E-01  0.51100000000E-03 0. -1.
</event>
<event>
 8    1  0.1150863E+005  0.1043930E+01  0.7957747E-01            NaN
         13   -1    0    0    0    0  0.00000000000E+00  0.00000000000E+00  0.74505805969E-08  0.10566000000E+00  0.10566000000E+00 0.  1.
     999900   -1    0    0    0    0 -0.00000000000E+00 -0.00000000000E+00 -0.74505805969E-08  0.93827000000E+00  0.93827000000E+00 0. -1.
     999902    2    1    2    0    0 -0.74851081995E-02 -0.17178348064E-01  0.13860353581E-01  0.10206226645E+01  0.10203565021E+01 0.  0.
     999903    2    3    3    0    0  0.11597224884E+00  0.50746316039E-01 -0.14594425655E-01  0.12895840399E+00  0.19812158068E-01 0.  0.
         14    1    1    2    0    0  0.74851081995E-02  0.17178348064E-01 -0.13860353581E-01  0.23307335505E-01  0.00000000000E+00 0.  1.
     999901    1    3    3    0    0 -0.12345735704E+00 -0.67924664102E-01  0.28454779236E-01  0.89166426050E+00  0.88000000000E+00 0.  1.
        -11    1    4    4    0    0  0.76296162345E-01  0.31720071195E-01 -0.18838339974E-01  0.84749109017E-01  0.51100000000E-03 0.  1.
         11    1    4    4    0    0  0.39676086493E-01  0.19026244844E-01  0.42439143183E-02  0.44209294973E-01  0.51100000000E-03 0. -1.
</event>
<event>
 8    1  0.1150863E+005  0.1043930E+01  0.7957747E-01            NaN
         13   -1    0    0    0    0  0.00000000000E+00  0.00000000000E+00  0.74505805969E-08  0.10566000000E+00  0.10566000000E+00 0. -1.
     999900   -1    0    0    0    0 -0.00000000000E+00 -0.00000000000E+00 -0.74505805969E-08  0.93827000000E+00  0.93827000000E+00 0.  1.
     999902    2    1    2    0    0  0.10598890270E-01 -0.20465394446E-01 -0.62511143042E-02  0.10200501911E+01  0.10197706345E+01 0.  0.
     999903    2    3    3    0    0 -0.30239332047E-01 -0.84798282420E-01 -0.94932686404E-01  0.13231661498E+00  0.19756157210E-01 0.  0.
         14    1    1    2    0    0 -0.10598890270E-01  0.20465394446E-01  0.62511143042E-02  0.23879808936E-01  0.00000000000E+00 0.  1.
     999901    1    3    3    0    0  0.40838222317E-01  0.64332887974E-01  0.88681572100E-01  0.88773357608E+00  0.88000000000E+00 0. -1.
        -11    1    4    4    0    0 -0.41631746001E-02 -0.40799349601E-01 -0.41363282089E-01  0.58250331989E-01  0.51100000000E-03 0. -1.
         11    1    4    4    0    0 -0.26076157447E-01 -0.43998932819E-01 -0.53569404315E-01  0.74066282991E-01  0.51100000000E-03 0.  1.
</event>
<event>
 8    1  0.1150863E+005  0.1043930E+01  0.7957747E-01            NaN
         13   -1    0    0    0    0  0.00000000000E+00  0.00000000000E+00  0.74505805969E-08  0.10566000000E+00  0.10566000000E+00 0.  1.
     999900   -1    0    0    0    0 -0.00000000000E+00 -0.00000000000E+00 -0.74505805969E-08  0.93827000000E+00  0.93827000000E+00 0. -1.
     999902    2    1    2    0    0 -0.48876735076E-02 -0.16482216237E-01  0.18416703610E-01  0.10187361957E+01  0.10184246210E+01 0.  0.
     999903    2    3    3    0    0  0.45233716428E-01  0.88047938355E-01 -0.75594157958E-01  0.12616869176E+00  0.20137862689E-01 0.  0.
         14    1    1    2    0    0  0.48876735076E-02  0.16482216237E-01 -0.18416703610E-01  0.25193804323E-01  0.00000000000E+00 0. -1.
     999901    1    3    3    0    0 -0.50121389936E-01 -0.10453015459E+00  0.94010861568E-01  0.89256750391E+00  0.88000000000E+00 0.  1.
        -11    1    4    4    0    0  0.27390163104E-01  0.31743875201E-01 -0.30189849731E-01  0.51668005530E-01  0.51100000000E-03 0. -1.
         11    1    4    4    0    0  0.17843553324E-01  0.56304063154E-01 -0.45404308226E-01  0.74500686235E-01  0.51100000000E-03 0.  1.
</event>
<event>
 8    1  0.1150863E+005  0.1043930E+01  0.7957747E-01            NaN
         13   -1    0    0    0    0  0.00000000000E+00  0.00000000000E+00  0.74505805969E-08  0.10566000000E+00  0.10566000000E+00 0. -1.
     999900   -1    0    0    0    0 -0.00000000000E+00 -0.00000000000E+00 -0.74505805969E-08  0.93827000000E+00  0.93827000000E+00 0. -1.
     999902    2    1    2    0    0 -0.19269851844E-01 -0.41242555801E-02  0.88244214405E-02  0.10223381708E+01  0.10221101352E+01 0.  0.
     999903    2    3    3    0    0 -0.38394500760E-01  0.68333807691E-01  0.10635502112E+00  0.13378421015E+00  0.21051779145E-01 0.  0.
         14    1    1    2    0    0  0.19269851844E-01  0.41242555801E-02 -0.88244214405E-02  0.21591829193E-01  0.00000000000E+00 0.  1.
     999901    1    3    3    0    0  0.19124648917E-01 -0.72458063271E-01 -0.97530599679E-01  0.88855396066E+00  0.88000000000E+00 0. -1.
        -11    1    4    4    0    0 -0.50333696333E-02  0.21506404206E-01  0.18654180541E-01  0.28915390442E-01  0.51100000000E-03 0.  1.
         11    1    4    4    0    0 -0.33361131127E-01  0.46827403484E-01  0.87700840579E-01  0.10486881971E+00  0.51100000000E-03 0. -1.
</event>
<event>
 8    1  0.1150863E+005  0.1043930E+01  0.7957747E-01            NaN
         13   -1    0    0    0    0  0.00000000000E+00  0.00000000000E+00  0.74505805969E-08  0.10566000000E+00  0.10566000000E+00 0.  1.
     999900   -1    0    0    0    0 -0.00000000000E+00 -0.00000000000E+00 -0.74505805969E-08  0.93827000000E+00  0.93827000000E+00 0.  1.
     999902    2    1    2    0    0  0.23253531167E-01 -0.54764259081E-02  0.42104875625E-02  0.10196720908E+01  0.10193835032E+01 0.  0.
     999903    2    3    3    0    0 -0.92831981275E-01 -0.66741022056E-01  0.55115985503E-01  0.12848155751E+00  0.19939859302E-01 0.  0.
         14    1    1    2    0    0 -0.23253531167E-01  0.54764259081E-02 -0.42104875625E-02  0.24257909184E-01  0.00000000000E+00 0.  1.
     999901    1    3    3    0    0  0.11608551244E+00  0.61264596148E-01 -0.50905497941E-01  0.89119053331E+00  0.88000000000E+00 0.  1.
        -11    1    4    4    0    0 -0.26379411250E-01 -0.19147544412E-01  0.60813618596E-02  0.33162416649E-01  0.51100000000E-03 0.  1.
         11    1    4    4    0    0 -0.66452570025E-01 -0.47593477644E-01  0.49034623644E-01  0.95319140858E-01  0.51100000000E-03 0. -1.
</event>
<event>
 8    1  0.1150863E+005  0.1043930E+01  0.7957747E-01            NaN
         13   -1    0    0    0    0  0.00000000000E+00  0.00000000000E+00  0.74505805969E-08  0.10566000000E+00  0.10566000000E+00 0.  1.
     999900   -1    0    0    0    0 -0.00000000000E+00 -0.00000000000E+00 -0.74505805969E-08  0.93827000000E+00  0.93827000000E+00 0. -1.
     999902    2    1    2    0    0 -0.61265720277E-02 -0.52832118040E-02 -0.20203120490E-01  0.10221673419E+01  0.10219356445E+01 0.  0.
     999903    2    3    3    0    0  0.12030773076E+00  0.44890514568E-01 -0.22600700801E-01  0.13171308468E+00  0.18666457066E-01 0.  0.
         14    1    1    2    0    0  0.61265720277E-02  0.52832118040E-02  0.20203120490E-01  0.21762658140E-01  0.00000000000E+00 0.  1.
     999901    1    3    3    0    0 -0.12643430279E+00 -0.50173726372E-01  0.23975803108E-02  0.89045425718E+00  0.88000000000E+00 0. -1.
        -11    1    4    4    0    0  0.61082212633E-01  0.21571341981E-01 -0.20098983527E-02  0.64812501166E-01  0.51100000000E-03 0. -1.
         11    1    4    4    0    0  0.59225518131E-01  0.23319172587E-01 -0.20590802448E-01  0.66900583514E-01  0.51100000000E-03 0.  1.
</event>
<event>
 8    1  0.1150863E+005  0.1043930E+01  0.7957747E-01            NaN
         13   -1    0    0    0    0  0.00000000000E+00  0.00000000000E+00  0.74505805969E-08  0.10566000000E+00  0.10566000000E+00 0.  1.
     999900   -1    0    0    0    0 -0.00000000000E+00 -0.00000000000E+00 -0.74505805969E-08  0.93827000000E+00  0.93827000000E+00 0.  1.
     999902    2    1    2    0    0  0.60258327768E-02  0.22549936378E-01 -0.45649814416E-02  0.10201466162E+01  0.10198693392E+01 0.  0.
     999903    2    3    3    0    0 -0.12613777593E+00 -0.10188379631E-01 -0.20813823445E-01  0.12952714542E+00  0.18152811240E-01 0.  0.
         14    1    1    2    0    0 -0.60258327768E-02 -0.22549936378E-01  0.45649814416E-02  0.23783383840E-01  0.00000000000E+00 0. -1.
     999901    1    3    3    0    0  0.13216360871E+00  0.32738316009E-01  0.16248842004E-01  0.89061947074E+00  0.88000000000E+00 0.  1.
        -11    1    4    4    0    0 -0.92579498862E-01 -0.15140580398E-01 -0.12930797681E-01  0.94697768897E-01  0.51100000000E-03 0. -1.
         11    1    4    4    0    0 -0.33558277072E-01  0.49522007669E-02 -0.78830257641E-02  0.34829376518E-01  0.51100000000E-03 0.  1.
</event>
<event>
 8    1  0.1150863E+005  0.1043930E+01  0.7957747E-01            NaN
         13   -1    0    0    0    0  0.00000000000E+00  0.00000000000E+00  0.74505805969E-08  0.10566000000E+00  0.10566000000E+00 0.  1.
     999900   -1    0    0    0    0 -0.00000000000E+00 -0.00000000000E+00 -0.74505805969E-08  0.93827000000E+00  0.93827000000E+00 0. -1.
     999902    2    1    2    0    0  0.10419137848E-01 -0.21833730645E-01 -0.37967288769E-02  0.10194415256E+01  0.10191473587E+01 0.  0.
     999903    2    3    3    0    0 -0.30962824137E-02 -0.56527254396E-02 -0.12806940907E+00  0.13045997882E+00  0.24010253313E-01 0.  0.
         14    1    1    2    0    0 -0.10419137848E-01  0.21833730645E-01  0.37967288769E-02  0.24488474382E-01  0.00000000000E+00 0. -1.
     999901    1    3    3    0    0  0.13515420262E-01 -0.16181005205E-01  0.12427268019E+00  0.88898154680E+00  0.88000000000E+00 0.  1.
        -11    1    4    4    0    0 -0.94887947237E-02 -0.11510998146E-01 -0.59549330445E-01  0.61391564413E-01  0.51100000000E-03 0.  1.
         11    1    4    4    0    0  0.63925123100E-02  0.58582727064E-02 -0.68520078622E-01  0.69068414402E-01  0.51100000000E-03 0. -1.
</event>
<event>
 8    1  0.1150863E+005  0.1043930E+01  0.7957747E-01            NaN
         13   -1    0    0    0    0  0.00000000000E+00  0.00000000000E+00  0.74505805969E-08  0.10566000000E+00  0.10566000000E+00 0. -1.
     999900   -1    0    0    0    0 -0.00000000000E+00 -0.00000000000E+00 -0.74505805969E-08  0.93827000000E+00  0.93827000000E+00 0.  1.
     999902    2    1    2    0    0 -0.16831973770E-01  0.19708385072E-01 -0.27899170554E-02  0.10178624067E+01  0.10175285547E+01 0.  0.
     999903    2    3    3    0    0  0.96204453308E-01  0.67560626472E-01  0.46413958687E-01  0.12798146397E+00  0.20131181610E-01 0.  0.
         14    1    1    2    0    0  0.16831973770E-01 -0.19708385072E-01  0.27899170554E-02  0.26067593297E-01  0.00000000000E+00 0.  1.
     999901    1    3    3    0    0 -0.11303642708E+00 -0.47852241400E-01 -0.49203875742E-01  0.88988094273E+00  0.88000000000E+00 0.  1.
        -11    1    4    4    0    0  0.35823928663E-01  0.13826461026E-01  0.16424059230E-01  0.41767639770E-01  0.51100000000E-03 0.  1.
         11    1    4    4    0    0  0.60380524645E-01  0.53734165445E-01  0.29989899457E-01  0.86213824199E-01  0.51100000000E-03 0. -1.
</event>
<event>
 8    1  0.1150863E+005  0.1043930E+01  0.7957747E-01            NaN
         13   -1    0    0    0    0  0.00000000000E+00  0.00000000000E+00  0.74505805969E-08  0.10566000000E+00  0.10566000000E+00 0. -1.
     999900   -1    0    0    0    0 -0.00000000000E+00 -0.00000000000E+00 -0.74505805969E-08  0.93827000000E+00  0.93827000000E+00 0.  1.
     999902    2    1    2    0    0 -0.10444981962E-01 -0.97513705420E-02  0.17980489543E-01  0.10209629610E+01  0.10207046012E+01 0.  0.
     999903    2    3    3    0    0  0.11970673703E+00 -0.41841918188E-01 -0.20379529856E-01  0.12998554026E+00  0.20011657406E-01 0.  0.
         14    1    1    2    0    0  0.10444981962E-01  0.97513705420E-02 -0.17980489543E-01  0.22967038987E-01  0.00000000000E+00 0.  1.
     999901    1    3    3    0    0 -0.13015171899E+00  0.32090547646E-01  0.38360019399E-01  0.89097742075E+00  0.88000000000E+00 0. -1.
        -11    1    4    4    0    0  0.11003361996E+00 -0.32661763774E-01 -0.20721906801E-01  0.11663553008E+00  0.51100000000E-03 0. -1.
         11    1    4    4    0    0  0.96731170677E-02 -0.91801544139E-02  0.34237694508E-03  0.13350010181E-01  0.51100000000E-03 0.  1.
</event>
<event>
 8    1  0.1150863E+005  0.1043930E+01  0.7957747E-01            NaN
         13   -1    0    0    0    0  0.00000000000E+00  0.00000000000E+00  0.74505805969E-08  0.10566000000E+00  0.10566000000E+00 0.  1.
     999900   -1    0    0    0    0 -0.00000000000E+00 -0.00000000000E+00 -0.74505805969E-08  0.93827000000E+00  0.93827000000E+00 0.  1.
     999902    2    1    2    0    0  0.31853186479E-02 -0.22739008895E-01 -0.62375035303E-02  0.10201368239E+01  0.10198593159E+01 0.  0.
     999903    2    3    3    0    0  0.18041980461E-01  0.87779535251E-01  0.89271707821E-01  0.12797255734E+00  0.19410763717E-01 0.  0.
         14    1    1    2    0    0 -0.31853186479E-02  0.22739008895E-01  0.62375035303E-02  0.23793176138E-01  0.00000000000E+00 0.  1.
     999901    1    3    3    0    0 -0.14856661813E-01 -0.11051854415E+00 -0.95509211351E-01  0.89216426652E+00  0.88000000000E+00 0.  1.
        -11    1    4    4    0    0  0.27831999489E-02  0.55845078779E-01  0.48915317617E-01  0.74292586739E-01  0.51100000000E-03 0.  1.
         11    1    4    4    0    0  0.15258780512E-01  0.31934456472E-01  0.40356390204E-01  0.53679970605E-01  0.51100000000E-03 0. -1.
</event>
<event>
 8    1  0.1150863E+005  0.1043930E+01  0.7957747E-01            NaN
         13   -1    0    0    0    0  0.00000000000E+00  0.00000000000E+00  0.74505805969E-08  0.10566000000E+00  0.10566000000E+00 0.  1.
     999900   -1    0    0    0    0 -0.00000000000E+00 -0.00000000000E+00 -0.74505805969E-08  0.93827000000E+00  0.93827000000E+00 0. -1.
     999902    2    1    2    0    0 -0.15612869003E-01 -0.16251853837E-01 -0.70795230782E-02  0.10203078900E+01  0.10200344045E+01 0.  0.
     999903    2    3    3    0    0  0.10809416153E+00 -0.92740951055E-02  0.66113870251E-01  0.12861882353E+00  0.20035002619E-01 0.  0.
         14    1    1    2    0    0  0.15612869003E-01  0.16251853837E-01  0.70795230782E-02  0.23622109954E-01  0.00000000000E+00 0.  1.
     999901    1    3    3    0    0 -0.12370703053E+00 -0.69777587315E-02 -0.73193393329E-01  0.89168906652E+00  0.88000000000E+00 0.  1.
        -11    1    4    4    0    0  0.72818878201E-01 -0.78300738800E-02  0.55033634199E-01  0.91612559694E-01  0.51100000000E-03 0.  1.
         11    1    4    4    0    0  0.35275283327E-01 -0.14440212255E-02  0.11080236051E-01  0.37006263835E-01  0.51100000000E-03 0. -1.
</event>
<event>
 8    1  0.1150863E+005  0.1043930E+01  0.7957747E-01            NaN
         13   -1    0    0    0    0  0.00000000000E+00  0.00000000000E+00  0.74505805969E-08  0.10566000000E+00  0.10566000000E+00 0.  1.
     999900   -1    0    0    0    0 -0.00000000000E+00 -0.00000000000E+00 -0.74505805969E-08  0.93827000000E+00  0.93827000000E+00 0. -1.
     999902    2    1    2    0    0  0.70757462026E-02  0.16869296721E-01  0.14958573488E-01  0.10202995477E+01  0.10200258667E+01 0.  0.
     999903    2    3    3    0    0 -0.85315459074E-01 -0.96992481634E-02  0.97204387420E-01  0.13125151956E+00  0.20136173444E-01 0.  0.
         14    1    1    2    0    0 -0.70757462026E-02 -0.16869296721E-01 -0.14958573488E-01  0.23630452323E-01  0.00000000000E+00 0. -1.
     999901    1    3    3    0    0  0.92391205277E-01  0.26568544885E-01 -0.82245813933E-01  0.88904802812E+00  0.88000000000E+00 0. -1.
        -11    1    4    4    0    0 -0.78368195576E-01 -0.13347975182E-01  0.82459340653E-01  0.11454058888E+00  0.51100000000E-03 0. -1.
         11    1    4    4    0    0 -0.69472634979E-02  0.36487270182E-02  0.14745046768E-01  0.16710930679E-01  0.51100000000E-03 0.  1.
</event>
<event>
 8    1  0.1150863E+005  0.1043930E+01  0.7957747E-01            NaN
         13   -1    0    0    0    0  0.00000000000E+00  0.00000000000E+00  0.74505805969E-08  0.10566000000E+00  0.10566000000E+00 0. -1.
     999900   -1    0    0    0    0 -0.00000000000E+00 -0.00000000000E+00 -0.74505805969E-08  0.93827000000E+00  0.93827000000E+00 0.  1.
     999902    2    1    2    0    0  0.13926671986E-01  0.25368824803E-02 -0.22869470099E-01  0.10170338920E+01  0.10166781874E+01 0.  0.
     999903    2    3    3    0    0 -0.70427806554E-01  0.46528511072E-01  0.89685142129E-01  0.12477861337E+00  0.20032457575E-01 0.  0.
         14    1    1    2    0    0 -0.13926671986E-01 -0.25368824803E-02  0.22869470099E-01  0.26896108044E-01  0.00000000000E+00 0. -1.
     999901    1    3    3    0    0  0.84354478540E-01 -0.43991628592E-01 -0.11255461223E+00  0.89225527859E+00  0.88000000000E+00 0.  1.
        -11    1    4    4    0    0 -0.48920105347E-01  0.27863155898E-01  0.46370154233E-01  0.72938223782E-01  0.51100000000E-03 0. -1.
         11    1    4    4    0    0 -0.21507701207E-01  0.18665355174E-01  0.43314987895E-01  0.51840389586E-01  0.51100000000E-03 0.  1.
</event>
<event>
 7    1  0.1150863E+005  0.1043930E+01  0.7957747E-01            NaN
         13   -1    0    0    0    0  0.00000000000E+00  0.00000000000E+00  0.74505805969E-08  0.10566000000E+00  0.10566000000E+00 0. -1.
     999900   -1    0    0    0    0 -0.00000000000E+00 -0.00000000000E+00 -0.74505805969E-08  0.93827000000E+00  0.93827000000E+00 0. -1.
     999903    2    1    2    0    0 -0.24568269333E-01  0.73815973922E-01 -0.72067145855E-01  0.10848258820E+00  0.22856083792E-01 0.  0.
         14    1    1    2    0    0 -0.25057616235E-02 -0.45826534668E-01 -0.19447193943E-01  0.49845195087E-01  0.00000000000E+00 0.  1.
     999901    1    1    2    0    0  0.27074030956E-01 -0.27989439255E-01  0.91514339799E-01  0.88560221672E+00  0.88000000000E+00 0.  1.
        -11    1    3    3    0    0 -0.61364886485E-02  0.39700329048E-01 -0.24287436266E-01  0.46945854991E-01  0.51100000000E-03 0. -1.
         11    1    3    3    0    0 -0.18431780684E-01  0.34115644875E-01 -0.47779709589E-01  0.61536733207E-01  0.51100000000E-03 0.  1.
</event>
<event>
 8    1  0.1150863E+005  0.1043930E+01  0.7957747E-01            NaN
         13   -1    0    0    0    0  0.00000000000E+00  0.00000000000E+00  0.74505805969E-08  0.10566000000E+00  0.10566000000E+00 0.  1.
     999900   -1    0    0    0    0 -0.00000000000E+00 -0.00000000000E+00 -0.74505805969E-08  0.93827000000E+00  0.93827000000E+00 0.  1.
     999902    2    1    2    0    0  0.95030573006E-03 -0.19410793955E-01  0.16985303878E-01  0.10181194876E+01  0.10177922718E+01 0.  0.
     999903    2    3    3    0    0 -0.11403211304E+00 -0.57460237649E-01  0.10319722334E-01  0.12979907987E+00  0.20887861365E-01 0.  0.
         14    1    1    2    0    0 -0.95030573006E-03  0.19410793955E-01 -0.16985303878E-01  0.25810512408E-01  0.00000000000E+00 0. -1.
     999901    1    3    3    0    0  0.11498241877E+00  0.38049443693E-01  0.66655815435E-02  0.88832040772E+00  0.88000000000E+00 0.  1.
        -11    1    4    4    0    0 -0.97105199204E-01 -0.53833889694E-01  0.14527059840E-01  0.11197680108E+00  0.51100000000E-03 0. -1.
         11    1    4    4    0    0 -0.16926913834E-01 -0.36263479549E-02 -0.42073375055E-02  0.17822278791E-01  0.51100000000E-03 0.  1.
</event>
<event>
 8    1  0.1150863E+005  0.1043930E+01  0.7957747E-01            NaN
         13   -1    0    0    0    0  0.00000000000E+00  0.00000000000E+00  0.74505805969E-08  0.10566000000E+00  0.10566000000E+00 0.  1.
     999900   -1    0    0    0    0 -0.00000000000E+00 -0.00000000000E+00 -0.74505805969E-08  0.93827000000E+00  0.93827000000E+00 0. -1.
     999902    2    1    2    0    0  0.39928131996E-02  0.57122443560E-02 -0.21490854233E-01  0.10213373218E+01  0.10210874085E+01 0.  0.
     999903    2    3    3    0    0 -0.23372492360E-01  0.51446281742E-01 -0.12007719335E+00  0.13422981513E+00  0.20152359730E-01 0.  0.
         14    1    1    2    0    0 -0.39928131996E-02 -0.57122443560E-02  0.21490854233E-01  0.22592678205E-01  0.00000000000E+00 0.  1.
     999901    1    3    3    0    0  0.27365305560E-01 -0.45734037386E-01  0.98586339116E-01  0.88710750667E+00  0.88000000000E+00 0.  1.
        -11    1    4    4    0    0 -0.23903637429E-01  0.35359930764E-01 -0.74108342109E-01  0.85522021007E-01  0.51100000000E-03 0.  1.
         11    1    4    4    0    0  0.53114506875E-03  0.16086350978E-01 -0.45968851240E-01  0.48707794121E-01  0.51100000000E-03 0. -1.
</event>
<event>
 8    1  0.1150863E+005  0.1043930E+01  0.7957747E-01            NaN
         13   -1    0    0    0    0  0.00000000000E+00  0.00000000000E+00  0.74505805969E-08  0.10566000000E+00  0.10566000000E+00 0.  1.
     999900   -1    0    0    0    0 -0.00000000000E+00 -0.00000000000E+00 -0.74505805969E-08  0.93827000000E+00  0.93827000000E+00 0. -1.
     999902    2    1    2    0    0 -0.78699362738E-02 -0.91743767318E-02 -0.23969049916E-01  0.10170856256E+01  0.10167313063E+01 0.  0.
     999903    2    3    3    0    0 -0.76710089198E-01  0.83368647243E-01 -0.57973893629E-01  0.12890799280E+00  0.20531174744E-01 0.  0.
         14    1    1    2    0    0  0.78699362738E-02  0.91743767318E-02  0.23969049916E-01  0.26844374443E-01  0.00000000000E+00 0.  1.
     999901    1    3    3    0    0  0.68840152924E-01 -0.92543023975E-01  0.34004843713E-01  0.88817763276E+00  0.88000000000E+00 0.  1.
        -11    1    4    4    0    0 -0.21642366618E-01  0.12989824182E-01 -0.18027857093E-01  0.31022448606E-01  0.51100000000E-03 0.  1.
         11    1    4    4    0    0 -0.55067722580E-01  0.70378823061E-01 -0.39946036535E-01  0.97885544190E-01  0.51100000000E-03 0. -1.
</event>
<event>
 8    1  0.1150863E+005  0.1043930E+01  0.7957747E-01            NaN
         13   -1    0    0    0    0  0.00000000000E+00  0.00000000000E+00  0.74505805969E-08  0.10566000000E+00  0.10566000000E+00 0. -1.
     999900   -1    0    0    0    0 -0.00000000000E+00 -0.00000000000E+00 -0.74505805969E-08  0.93827000000E+00  0.93827000000E+00 0. -1.
     999902    2    1    2    0    0  0.79773900449E-02 -0.13468190311E-01 -0.16004115955E-01  0.10215433381E+01  0.10212980119E+01 0.  0.
     999903    2    3    3    0    0 -0.24758544605E-01 -0.11592303247E+00 -0.59102429547E-01  0.13394765273E+00  0.19943457715E-01 0.  0.
         14    1    1    2    0    0 -0.79773900449E-02  0.13468190311E-01  0.16004115955E-01  0.22386661870E-01  0.00000000000E+00 0. -1.
     999901    1    3    3    0    0  0.32735934649E-01  0.10245484216E+00  0.43098313592E-01  0.88759568540E+00  0.88000000000E+00 0.  1.
        -11    1    4    4    0    0 -0.70074696841E-02 -0.53744397182E-01 -0.36930661334E-01  0.65587344263E-01  0.51100000000E-03 0. -1.
         11    1    4    4    0    0 -0.17751074920E-01 -0.62178635291E-01 -0.22171768213E-01  0.68360308471E-01  0.51100000000E-03 0.  1.
</event>
<event>
 8    1  0.1150863E+005  0.1043930E+01  0.7957747E-01            NaN
         13   -1    0    0    0    0  0.00000000000E+00  0.00000000000E+00  0.74505805969E-08  0.10566000000E+00  0.10566000000E+00 0. -1.
     999900   -1    0    0    0    0 -0.00000000000E+00 -0.00000000000E+00 -0.74505805969E-08  0.93827000000E+00  0.93827000000E+00 0. -1.
     999902    2    1    2    0    0  0.57504286958E-02 -0.18537757150E-01 -0.14033836576E-01  0.10199787069E+01  0.10196974542E+01 0.  0.
     999903    2    3    3    0    0 -0.12007867348E-01  0.12299771929E+00 -0.27948878600E-01  0.12838391301E+00  0.20704141500E-01 0.  0.
         14    1    1    2    0    0 -0.57504286958E-02  0.18537757150E-01  0.14033836576E-01  0.23951293062E-01  0.00000000000E+00 0. -1.
     999901    1    3    3    0    0  0.17758296044E-01 -0.14153547644E+00  0.13915042024E-01  0.89159479393E+00  0.88000000000E+00 0.  1.
        -11    1    4    4    0    0 -0.13849276387E-01  0.41481427446E-01 -0.11117329273E-01  0.45126127804E-01  0.51100000000E-03 0. -1.
         11    1    4    4    0    0  0.18414090384E-02  0.81516291844E-01 -0.16831549327E-01  0.83257785203E-01  0.51100000000E-03 0.  1.
</event>
<event>
 8    1  0.1150863E+005  0.1043930E+01  0.7957747E-01            NaN
         13   -1    0    0    0    0  0.00000000000E+00  0.00000000000E+00  0.74505805969E-08  0.10566000000E+00  0.10566000000E+00 0.  1.
     999900   -1    0    0    0    0 -0.00000000000E+00 -0.00000000000E+00 -0.74505805969E-08  0.93827000000E+00  0.93827000000E+00 0.  1.
     999902    2    1    2    0    0 -0.12249999486E-01  0.15421999754E-01  0.15126247164E-01  0.10190964759E+01  0.10187938571E+01 0.  0.
     999903    2    3    3    0    0 -0.10851411368E+00 -0.38896267998E-01  0.59027278865E-01  0.13109616374E+00  0.20340893863E-01 0.  0.
         14    1    1    2    0    0  0.12249999486E-01 -0.15421999754E-01 -0.15126247164E-01  0.24833524057E-01  0.00000000000E+00 0. -1.
     999901    1    3    3    0    0  0.96264114199E-01  0.54318267753E-01 -0.43901031701E-01  0.88800031221E+00  0.88000000000E+00 0.  1.
        -11    1    4    4    0    0 -0.60242877281E-01 -0.27249004817E-01  0.43172883538E-01  0.78967534599E-01  0.51100000000E-03 0.  1.
         11    1    4    4    0    0 -0.48271236404E-01 -0.11647263182E-01  0.15854395327E-01  0.52128629138E-01  0.51100000000E-03 0. -1.
</event>
<event>
 8    1  0.1150863E+005  0.1043930E+01  0.7957747E-01            NaN
         13   -1    0    0    0    0  0.00000000000E+00  0.00000000000E+00  0.74505805969E-08  0.10566000000E+00  0.10566000000E+00 0. -1.
     999900   -1    0    0    0    0 -0.00000000000E+00 -0.00000000000E+00 -0.74505805969E-08  0.93827000000E+00  0.93827000000E+00 0.  1.
     999902    2    1    2    0    0 -0.10020085156E-01  0.12722231326E-01  0.18136922544E-01  0.10196152877E+01  0.10193253306E+01 0.  0.
     999903    2    3    3    0    0  0.89762435028E-01  0.58945569166E-01 -0.67707428993E-01  0.12862572489E+00  0.20697978042E-01 0.  0.
         14    1    1    2    0    0  0.10020085156E-01 -0.12722231326E-01 -0.18136922544E-01  0.24314712332E-01  0.00000000000E+00 0.  1.
     999901    1    3    3    0    0 -0.99782520184E-01 -0.46223337840E-01  0.85844351537E-01  0.89098956278E+00  0.88000000000E+00 0. -1.
        -11    1    4    4    0    0  0.47209082334E-01  0.41538621547E-01 -0.32993221830E-01  0.71013860215E-01  0.51100000000E-03 0. -1.
         11    1    4    4    0    0  0.42553352693E-01  0.17406947619E-01 -0.34714207163E-01  0.57611864671E-01  0.51100000000E-03 0.  1.
</event>
<event>
 8    1  0.1150863E+005  0.1043930E+01  0.7957747E-01            NaN
         13   -1    0    0    0    0  0.00000000000E+00  0.00000000000E+00  0.74505805969E-08  0.10566000000E+00  0.10566000000E+00 0.  1.
     999900   -1    0    0    0    0 -0.00000000000E+00 -0.00000000000E+00 -0.74505805969E-08  0.93827000000E+00  0.93827000000E+00 0. -1.
     999902    2    1    2    0    0  0.94298603257E-03 -0.16084713156E-01  0.17363178900E-01  0.10202427207E+01  0.10199677063E+01 0.  0.
     999903    2    3    3    0    0  0.74370671342E-01  0.37281881459E-01 -0.96135899106E-01  0.12832251175E+00  0.17424709011E-01 0.  0.
         14    1    1    2    0    0 -0.94298603257E-03  0.16084713156E-01 -0.17363178900E-01  0.23687279318E-01  0.00000000000E+00 0.  1.
     999901    1    3    3    0    0 -0.73427685310E-01 -0.53366594615E-01  0.11349907801E+00  0.89192020893E+00  0.88000000000E+00 0.  1.
        -11    1    4    4    0    0  0.36828318283E-01  0.92392460501E-02 -0.46988582384E-01  0.60414209343E-01  0.51100000000E-03 0. -1.
         11    1    4    4    0    0  0.37542353060E-01  0.28042635409E-01 -0.49147316722E-01  0.67908302408E-01  0.51100000000E-03 0.  1.
</event>
<event>
 8    1  0.1150863E+005  0.1043930E+01  0.7957747E-01            NaN
         13   -1    0    0    0    0  0.00000000000E+00  0.00000000000E+00  0.74505805969E-08  0.10566000000E+00  0.10566000000E+00 0.  1.
     999900   -1    0    0    0    0 -0.00000000000E+00 -0.00000000000E+00 -0.74505805969E-08  0.93827000000E+00  0.93827000000E+00 0.  1.
     999902    2    1    2    0    0 -0.14969045501E-01  0.90520505127E-02 -0.16073970375E-01  0.10201732227E+01  0.10198965732E+01 0.  0.
     999903    2    3    3    0    0 -0.10210719864E+00  0.82214161124E-01  0.42170658813E-02  0.13261619455E+00  0.19601609831E-01 0.  0.
         14    1    1    2    0    0  0.14969045501E-01 -0.90520505127E-02  0.16073970375E-01  0.23756777250E-01  0.00000000000E+00 0.  1.
     999901    1    3    3    0    0  0.87138153138E-01 -0.73162110611E-01 -0.20291036256E-01  0.88755702820E+00  0.88000000000E+00 0.  1.
        -11    1    4    4    0    0 -0.73346637696E-01  0.55895751211E-01 -0.56723552682E-02  0.92393186979E-01  0.51100000000E-03 0.  1.
         11    1    4    4    0    0 -0.28760560943E-01  0.26318409913E-01  0.98894211494E-02  0.40223007567E-01  0.51100000000E-03 0. -1.
</event>
<event>
 8    1  0.1150863E+005  0.1043930E+01  0.7957747E-01            NaN
         13   -1    0    0    0    0  0.00000000000E+00  0.00000000000E+00  0.74505805969E-08  0.10566000000E+00  0.10566000000E+00 0. -1.
     999900   -1    0    0    0    0 -0.00000000000E+00 -0.00000000000E+00 -0.74505805969E-08  0.93827000000E+00  0.93827000000E+00 0. -1.
     999902    2    1    2    0    0 -0.15286777947E-01  0.16517055211E-01 -0.86760236539E-02  0.10198100481E+01  0.10195247727E+01 0.  0.
     999903    2    3    3    0    0 -0.54082411193E-02 -0.75114329900E-01  0.10179067764E+00  0.12812804856E+00  0.19597018735E-01 0.  0.
         14    1    1    2    0    0  0.15286777947E-01 -0.16517055211E-01  0.86760236539E-02  0.24119951892E-01  0.00000000000E+00 0. -1.
     999901    1    3    3    0    0 -0.98785368277E-02  0.91631385112E-01 -0.11046670130E+00  0.89168199955E+00  0.88000000000E+00 0. -1.
        -11    1    4    4    0    0 -0.76608431943E-03 -0.61146755569E-01  0.91900033454E-01  0.11038745342E+00  0.51100000000E-03 0.  1.
         11    1    4    4    0    0 -0.46421567998E-02 -0.13967574331E-01  0.98906441901E-02  0.17740595141E-01  0.51100000000E-03 0. -1.
</event>
<event>
 8    1  0.1150863E+005  0.1043930E+01  0.7957747E-01            NaN
         13   -1    0    0    0    0  0.00000000000E+00  0.00000000000E+00  0.74505805969E-08  0.10566000000E+00  0.10566000000E+00 0.  1.
     999900   -1    0    0    0    0 -0.00000000000E+00 -0.00000000000E+00 -0.74505805969E-08  0.93827000000E+00  0.93827000000E+00 0. -1.
     999902    2    1    2    0    0 -0.13293902887E-01 -0.19460779068E-01 -0.19241143741E-02  0.10202836051E+01  0.10200095504E+01 0.  0.
     999903    2    3    3    0    0 -0.59740331582E-01 -0.22509366575E-01  0.11312984510E+00  0.13157444107E+00  0.20925890445E-01 0.  0.
         14    1    1    2    0    0  0.13293902887E-01  0.19460779068E-01  0.19241143741E-02  0.23646394905E-01  0.00000000000E+00 0. -1.
     999901    1    3    3    0    0  0.46446428696E-01  0.30485875074E-02 -0.11505395947E+00  0.88870916402E+00  0.88000000000E+00 0. -1.
        -11    1    4    4    0    0 -0.86587689913E-02 -0.50464102435E-02  0.36382702148E-01  0.37741259563E-01  0.51100000000E-03 0.  1.
         11    1    4    4    0    0 -0.51081562591E-01 -0.17462956332E-01  0.76747142950E-01  0.93833181511E-01  0.51100000000E-03 0. -1.
</event>
<event>
 8    1  0.1150863E+005  0.1043930E+01  0.7957747E-01            NaN
         13   -1    0    0    0    0  0.00000000000E+00  0.00000000000E+00  0.74505805969E-08  0.10566000000E+00  0.10566000000E+00 0. -1.
     999900   -1    0    0    0    0 -0.00000000000E+00 -0.00000000000E+00 -0.74505805969E-08  0.93827000000E+00  0.93827000000E+00 0. -1.
     999902    2    1    2    0    0 -0.10535403344E-01  0.26192356550E-01 -0.10480759051E-01  0.10138155421E+01  0.10133681823E+01 0.  0.
     999903    2    3    3    0    0  0.42637489015E-02 -0.38605531357E-01  0.11462665442E+00  0.12248527440E+00  0.18836293021E-01 0.  0.
         14    1    1    2    0    0  0.10535403344E-01 -0.26192356550E-01  0.10480759051E-01  0.30114457915E-01  0.00000000000E+00 0. -1.
     999901    1    3    3    0    0 -0.14799152245E-01  0.64797887907E-01 -0.12510741347E+00  0.89133026768E+00  0.88000000000E+00 0. -1.
        -11    1    4    4    0    0 -0.73261148301E-02 -0.12211626421E-01  0.41629791314E-01  0.44001095716E-01  0.51100000000E-03 0. -1.
         11    1    4    4    0    0  0.11589863732E-01 -0.26393904937E-01  0.72996863108E-01  0.78484178685E-01  0.51100000000E-03 0.  1.
</event>
<event>
 8    1  0.1150863E+005  0.1043930E+01  0.7957747E-01            NaN
         13   -1    0    0    0    0  0.00000000000E+00  0.00000000000E+00  0.74505805969E-08  0.10566000000E+00  0.10566000000E+00 0.  1.
     999900   -1    0    0    0    0 -0.00000000000E+00 -0.00000000000E+00 -0.74505805969E-08  0.93827000000E+00  0.93827000000E+00 0.  1.
     999902    2    1    2    0    0 -0.34530209290E-03  0.57448367316E-02 -0.22455770248E-01  0.10207484556E+01  0.10204851913E+01 0.  0.
     999903    2    3    3    0    0  0.76641351664E-01  0.99447446320E-01 -0.35894124359E-01  0.13232979684E+00  0.21426516365E-01 0.  0.
         14    1    1    2    0    0  0.34530209290E-03 -0.57448367316E-02  0.22455770248E-01  0.23181544385E-01  0.00000000000E+00 0.  1.
     999901    1    3    3    0    0 -0.76986653757E-01 -0.93702609589E-01  0.13438354110E-01  0.88841865878E+00  0.88000000000E+00 0.  1.
        -11    1    4    4    0    0  0.52590737385E-01  0.50918528744E-01 -0.20910617348E-01  0.76131447293E-01  0.51100000000E-03 0. -1.
         11    1    4    4    0    0  0.24050614279E-01  0.48528917576E-01 -0.14983507011E-01  0.56198349546E-01  0.51100000000E-03 0.  1.
</event>
<event>
 8    1  0.1150863E+005  0.1043930E+01  0.7957747E-01            NaN
         13   -1    0    0    0    0  0.00000000000E+00  0.00000000000E+00  0.74505805969E-08  0.10566000000E+00  0.10566000000E+00 0. -1.
     999900   -1    0    0    0    0 -0.00000000000E+00 -0.00000000000E+00 -0.74505805969E-08  0.93827000000E+00  0.93827000000E+00 0. -1.
     999902    2    1    2    0    0 -0.21062972439E-01  0.90085142929E-02  0.55151579652E-02  0.10203669122E+01  0.10200948076E+01 0.  0.
     999903    2    3    3    0    0  0.93367073207E-01 -0.80970456748E-01 -0.24149776580E-01  0.12791497576E+00  0.22481194119E-01 0.  0.
         14    1    1    2    0    0  0.21062972439E-01 -0.90085142929E-02 -0.55151579652E-02  0.23563087767E-01  0.00000000000E+00 0. -1.
     999901    1    3    3    0    0 -0.11443004565E+00  0.89978971041E-01  0.29664934545E-01  0.89245193647E+00  0.88000000000E+00 0.  1.
        -11    1    4    4    0    0  0.55970071129E-01 -0.51160204574E-01 -0.25686758210E-01  0.80063013074E-01  0.51100000000E-03 0. -1.
         11    1    4    4    0    0  0.37397002078E-01 -0.29810252174E-01  0.15369816302E-02  0.47851962684E-01  0.51100000000E-03 0.  1.
</event>
<event>
 8    1  0.1150863E+005  0.1043930E+01  0.7957747E-01            NaN
         13   -1    0    0    0    0  0.00000000000E+00  0.00000000000E+00  0.74505805969E-08  0.10566000000E+00  0.10566000000E+00 0.  1.
     999900   -1    0    0    0    0 -0.00000000000E+00 -0.00000000000E+00 -0.74505805969E-08  0.93827000000E+00  0.93827000000E+00 0.  1.
     999902    2    1    2    0    0  0.57701437209E-02  0.16420312633E-01 -0.16526517247E-01  0.10199290209E+01  0.10196465862E+01 0.  0.
     999903    2    3    3    0    0  0.17977622850E-01 -0.80674402117E-01 -0.99168644441E-01  0.13065621272E+00  0.20126395649E-01 0.  0.
         14    1    1    2    0    0 -0.57701437209E-02 -0.16420312633E-01  0.16526517247E-01  0.24000979101E-01  0.00000000000E+00 0.  1.
     999901    1    3    3    0    0 -0.12207479130E-01  0.97094714749E-01  0.82642127194E-01  0.88927280818E+00  0.88000000000E+00 0.  1.
        -11    1    4    4    0    0  0.25398697439E-02 -0.31910919367E-01 -0.25298147089E-01  0.40804596313E-01  0.51100000000E-03 0.  1.
         11    1    4    4    0    0  0.15437753106E-01 -0.48763482750E-01 -0.73870497352E-01  0.89851616406E-01  0.51100000000E-03 0. -1.
</event>
<event>
 8    1  0.1150863E+005  0.1043930E+01  0.7957747E-01            NaN
         13   -1    0    0    0    0  0.00000000000E+00  0.00000000000E+00  0.74505805969E-08  0.10566000000E+00  0.10566000000E+00 0.  1.
     999900   -1    0    0    0    0 -0.00000000000E+00 -0.00000000000E+00 -0.74505805969E-08  0.93827000000E+00  0.93827000000E+00 0. -1.
     999902    2    1    2    0    0 -0.19898871816E-01  0.10174171707E-01 -0.66491539589E-02  0.10206128364E+01  0.10203464469E+01 0.  0.
     999903    2    3    3    0    0 -0.13359150433E-01 -0.86713021089E-01 -0.94626603511E-01  0.13091067967E+00  0.22040803806E-01 0.  0.
         14    1    1    2    0    0  0.19898871816E-01 -0.10174171707E-01  0.66491539589E-02  0.23317163589E-01  0.00000000000E+00 0.  1.
     999901    1    3    3    0    0 -0.65397213828E-02  0.96887192796E-01  0.87977449552E-01  0.88970215674E+00  0.88000000000E+00 0.  1.
        -11    1    4    4    0    0 -0.43033825444E-02 -0.66933852560E-01 -0.81287857547E-01  0.10538802885E+00  0.51100000000E-03 0.  1.
         11    1    4    4    0    0 -0.90557678885E-02 -0.19779168529E-01 -0.13338745964E-01  0.25522650815E-01  0.51100000000E-03 0. -1.
</event>
<event>
 8    1  0.1150863E+005  0.1043930E+01  0.7957747E-01            NaN
         13   -1    0    0    0    0  0.00000000000E+00  0.00000000000E+00  0.74505805969E-08  0.10566000000E+00  0.10566000000E+00 0. -1.
     999900   -1    0    0    0    0 -0.00000000000E+00 -0.00000000000E+00 -0.74505805969E-08  0.93827000000E+00  0.93827000000E+00 0.  1.
     999902    2    1    2    0    0 -0.66430277361E-02  0.16152718470E-01 -0.15901412915E-01  0.10203101976E+01  0.10200367662E+01 0.  0.
     999903    2    3    3    0    0  0.60898789244E-01  0.53130070290E-01 -0.10325790407E+00  0.13263887437E+00  0.19985228069E-01 0.  0.
         14    1    1    2    0    0  0.66430277361E-02 -0.16152718470E-01  0.15901412915E-01  0.23619802373E-01  0.00000000000E+00 0. -1.
     999901    1    3    3    0    0 -0.67541816980E-01 -0.36977351820E-01  0.87356491153E-01  0.88767132326E+00  0.88000000000E+00 0. -1.
        -11    1    4    4    0    0  0.31001594326E-01  0.30365741864E-01 -0.39786542653E-01  0.58876202552E-01  0.51100000000E-03 0.  1.
         11    1    4    4    0    0  0.29897194918E-01  0.22764328426E-01 -0.63471361415E-01  0.73762671816E-01  0.51100000000E-03 0. -1.
</event>
<event>
 8    1  0.1150863E+005  0.1043930E+01  0.7957747E-01            NaN
         13   -1    0    0    0    0  0.00000000000E+00  0.00000000000E+00  0.74505805969E-08  0.10566000000E+00  0.10566000000E+00 0. -1.
     999900   -1    0    0    0    0 -0.00000000000E+00 -0.00000000000E+00 -0.74505805969E-08  0.93827000000E+00  0.93827000000E+00 0.  1.
     999902    2    1    2    0    0  0.21002360049E-01  0.73910261237E-02 -0.76162352931E-02  0.10203984587E+01  0.10201270907E+01 0.  0.
     999903    2    3    3    0    0  0.45793824760E-01  0.93744988077E-01  0.78023394818E-01  0.13168828678E+00  0.19208268035E-01 0.  0.
         14    1    1    2    0    0 -0.21002360049E-01 -0.73910261237E-02  0.76162352931E-02  0.23531541276E-01  0.00000000000E+00 0.  1.
     999901    1    3    3    0    0 -0.24791464711E-01 -0.86353961954E-01 -0.85639630111E-01  0.88871017194E+00  0.88000000000E+00 0.  1.
        -11    1    4    4    0    0  0.43176560695E-01  0.84729846438E-01  0.63367552406E-01  0.11427628840E+00  0.51100000000E-03 0. -1.
         11    1    4    4    0    0  0.26172640654E-02  0.90151416391E-02  0.14655842412E-01  0.17411998385E-01  0.51100000000E-03 0.  1.
</event>
<event>
 8    1  0.1150863E+005  0.1043930E+01  0.7957747E-01            NaN
         13   -1    0    0    0    0  0.00000000000E+00  0.00000000000E+00  0.74505805969E-08  0.10566000000E+00  0.10566000000E+00 0. -1.
     999900   -1    0    0    0    0 -0.00000000000E+00 -0.00000000000E+00 -0.74505805969E-08  0.93827000000E+00  0.93827000000E+00 0. -1.
     999902    2    1    2    0    0 -0.91472147674E-02 -0.21225956036E-01  0.24895747243E-02  0.10206832641E+01  0.10204184999E+01 0.  0.
     999903    2    3    3    0    0  0.16347609329E-01  0.12035765402E+00  0.36374242300E-01  0.12835816898E+00  0.19988117189E-01 0.  0.
         14    1    1    2    0    0  0.91472147674E-02  0.21225956036E-01 -0.24895747243E-02  0.23246735898E-01  0.00000000000E+00 0.  1.
     999901    1    3    3    0    0 -0.25494824097E-01 -0.14158361005E+00 -0.33884667575E-01  0.89232509512E+00  0.88000000000E+00 0. -1.
        -11    1    4    4    0    0  0.20487336495E-01  0.10935831561E+00  0.31598094758E-01  0.11566189028E+00  0.51100000000E-03 0. -1.
         11    1    4    4    0    0 -0.41397271652E-02  0.10999338404E-01  0.47761475419E-02  0.12696278694E-01  0.51100000000E-03 0.  1.
</event>
<event>
 8    1  0.1150863E+005  0.1043930E+01  0.7957747E-01            NaN
         13   -1    0    0    0    0  0.00000000000E+00  0.00000000000E+00  0.74505805969E-08  0.10566000000E+00  0.10566000000E+00 0.  1.
     999900   -1    0    0    0    0 -0.00000000000E+00 -0.00000000000E+00 -0.74505805969E-08  0.93827000000E+00  0.93827000000E+00 0.  1.
     999902    2    1    2    0    0 -0.51896026597E-02  0.90502190964E-03  0.21016017070E-01  0.10222638048E+01  0.10220341788E+01 0.  0.
     999903    2    3    3    0    0  0.24546812934E-01 -0.99726826537E-01  0.83299084825E-01  0.13384374433E+00  0.20674245035E-01 0.  0.
         14    1    1    2    0    0  0.51896026597E-02 -0.90502190964E-03 -0.21016017070E-01  0.21666195187E-01  0.00000000000E+00 0. -1.
     999901    1    3    3    0    0 -0.29736415594E-01  0.10063184845E+00 -0.62283067756E-01  0.88842006048E+00  0.88000000000E+00 0. -1.
        -11    1    4    4    0    0  0.74217321014E-02 -0.45130740332E-01  0.49450217327E-01  0.67360603805E-01  0.51100000000E-03 0.  1.
         11    1    4    4    0    0  0.17125080833E-01 -0.54596086205E-01  0.33848867498E-01  0.66483140528E-01  0.51100000000E-03 0. -1.
</event>
<event>
 8    1  0.1150863E+005  0.1043930E+01  0.7957747E-01            NaN
         13   -1    0    0    0    0  0.00000000000E+00  0.00000000000E+00  0.74505805969E-08  0.10566000000E+00  0.10566000000E+00 0. -1.
     999900   -1    0    0    0    0 -0.00000000000E+00 -0.00000000000E+00 -0.74505805969E-08  0.93827000000E+00  0.93827000000E+00 0.  1.
     999902    2    1    2    0    0 -0.10051673465E-01 -0.23061438531E-02  0.21838626457E-01  0.10197788086E+01  0.10194927849E+01 0.  0.
     999903    2    3    3    0    0  0.70243072994E-01 -0.10369106916E+00  0.29819453649E-01  0.13029027976E+00  0.20010748543E-01 0.  0.
         14    1    1    2    0    0  0.10051673465E-01  0.23061438531E-02 -0.21838626457E-01  0.24151191368E-01  0.00000000000E+00 0.  1.
     999901    1    3    3    0    0 -0.80294746459E-01  0.10138492531E+00 -0.79808271911E-02  0.88948852887E+00  0.88000000000E+00 0. -1.
        -11    1    4    4    0    0  0.46389595194E-01 -0.57241429888E-01  0.25185144824E-01  0.77866093254E-01  0.51100000000E-03 0. -1.
         11    1    4    4    0    0  0.23853477799E-01 -0.46449639273E-01  0.46343088249E-02  0.52424186508E-01  0.51100000000E-03 0.  1.
</event>
<event>
 8    1  0.1150863E+005  0.1043930E+01  0.7957747E-01            NaN
         13   -1    0    0    0    0  0.00000000000E+00  0.00000000000E+00  0.74505805969E-08  0.10566000000E+00  0.10566000000E+00 0.  1.
     999900   -1    0    0    0    0 -0.00000000000E+00 -0.00000000000E+00 -0.74505805969E-08  0.93827000000E+00  0.93827000000E+00 0.  1.
     999902    2    1    2    0    0 -0.60121341207E-02  0.20120901395E-01  0.12161537852E-01  0.10196627498E+01  0.10193739372E+01 0.  0.
     999903    2    3    3    0    0 -0.24869542194E-01 -0.12037022329E+00  0.29983662430E-01  0.12814102483E+00  0.20337587072E-01 0.  0.
         14    1    1    2    0    0  0.60121341207E-02 -0.20120901395E-01 -0.12161537852E-01  0.24267250206E-01  0.00000000000E+00 0.  1.
     999901    1    3    3    0    0  0.18857408073E-01  0.14049112469E+00 -0.17822124578E-01  0.89152172496E+00  0.88000000000E+00 0. -1.
        -11    1    4    4    0    0 -0.15500686498E-01 -0.34239752293E-01  0.46617209069E-02  0.37876439666E-01  0.51100000000E-03 0.  1.
         11    1    4    4    0    0 -0.93688556959E-02 -0.86130470999E-01  0.25321941523E-01  0.90264585165E-01  0.51100000000E-03 0. -1.
</event>
<event>
 8    1  0.1150863E+005  0.1043930E+01  0.7957747E-01            NaN
         13   -1    0    0    0    0  0.00000000000E+00  0.00000000000E+00  0.74505805969E-08  0.10566000000E+00  0.10566000000E+00 0.  1.
     999900   -1    0    0    0    0 -0.00000000000E+00 -0.00000000000E+00 -0.74505805969E-08  0.93827000000E+00  0.93827000000E+00 0. -1.
     999902    2    1    2    0    0  0.15047879687E-01 -0.57112995055E-02 -0.16636041870E-01  0.10207823108E+01  0.10205198237E+01 0.  0.
     999903    2    3    3    0    0 -0.57968796922E-01 -0.11459510575E+00  0.13293049665E-01  0.13056724195E+00  0.19459697395E-01 0.  0.
         14    1    1    2    0    0 -0.15047879687E-01  0.57112995055E-02  0.16636041870E-01  0.23147689177E-01  0.00000000000E+00 0.  1.
     999901    1    3    3    0    0  0.73016676609E-01  0.10888380625E+00 -0.29929091534E-01  0.89021506887E+00  0.88000000000E+00 0. -1.
        -11    1    4    4    0    0 -0.20195813654E-01 -0.57317169679E-01  0.52343790746E-03  0.60775520873E-01  0.51100000000E-03 0. -1.
         11    1    4    4    0    0 -0.37772983267E-01 -0.57277936073E-01  0.12769611757E-01  0.69791721079E-01  0.51100000000E-03 0.  1.
</event>
<event>
 8    1  0.1150863E+005  0.1043930E+01  0.7957747E-01            NaN
         13   -1    0    0    0    0  0.00000000000E+00  0.00000000000E+00  0.74505805969E-08  0.10566000000E+00  0.10566000000E+00 0.  1.
     999900   -1    0    0    0    0 -0.00000000000E+00 -0.00000000000E+00 -0.74505805969E-08  0.93827000000E+00  0.93827000000E+00 0. -1.
     999902    2    1    2    0    0 -0.88270194605E-02  0.18308117343E-01 -0.12482117537E-01  0.10200782350E+01  0.10197993425E+01 0.  0.
     999903    2    3    3    0    0 -0.96298910595E-02 -0.10719972713E+00  0.65445410500E-01  0.12776351296E+00  0.21351749076E-01 0.  0.
         14    1    1    2    0    0  0.88270194605E-02 -0.18308117343E-01  0.12482117537E-01  0.23851764954E-01  0.00000000000E+00 0. -1.
     999901    1    3    3    0    0  0.80287159905E-03  0.12550784448E+00 -0.77927528038E-01  0.89231472209E+00  0.88000000000E+00 0.  1.
        -11    1    4    4    0    0  0.22803740994E-02 -0.79934188504E-01  0.47297259878E-01  0.92908376968E-01  0.51100000000E-03 0.  1.
         11    1    4    4    0    0 -0.11910265159E-01 -0.27265538630E-01  0.18148150622E-01  0.34855135991E-01  0.51100000000E-03 0. -1.
</event>
<event>
 8    1  0.1150863E+005  0.1043930E+01  0.7957747E-01            NaN
         13   -1    0    0    0    0  0.00000000000E+00  0.00000000000E+00  0.74505805969E-08  0.10566000000E+00  0.10566000000E+00 0.  1.
     999900   -1    0    0    0    0 -0.00000000000E+00 -0.00000000000E+00 -0.74505805969E-08  0.93827000000E+00  0.93827000000E+00 0.  1.
     999902    2    1    2    0    0 -0.93928168033E-02  0.18441803475E-01 -0.11949100492E-01  0.10200321732E+01  0.10197521896E+01 0.  0.
     999903    2    3    3    0    0  0.26829965517E-01 -0.12275495483E+00 -0.14525218482E-01  0.12803707742E+00  0.19846542208E-01 0.  0.
         14    1    1    2    0    0  0.93928168033E-02 -0.18441803475E-01  0.11949100492E-01  0.23897826794E-01  0.00000000000E+00 0.  1.
     999901    1    3    3    0    0 -0.36222782320E-01  0.14119675831E+00  0.25761179894E-02  0.89199509578E+00  0.88000000000E+00 0.  1.
        -11    1    4    4    0    0  0.10508271845E-02 -0.38336110651E-01  0.12283941004E-02  0.38373580634E-01  0.51100000000E-03 0.  1.
         11    1    4    4    0    0  0.25779138332E-01 -0.84418844181E-01 -0.15753612582E-01  0.89663496789E-01  0.51100000000E-03 0. -1.
</event>
<event>
 8    1  0.1150863E+005  0.1043930E+01  0.7957747E-01            NaN
         13   -1    0    0    0    0  0.00000000000E+00  0.00000000000E+00  0.74505805969E-08  0.10566000000E+00  0.10566000000E+00 0.  1.
     999900   -1    0    0    0    0 -0.00000000000E+00 -0.00000000000E+00 -0.74505805969E-08  0.93827000000E+00  0.93827000000E+00 0. -1.
     999902    2    1    2    0    0 -0.16372511595E-01  0.48121773410E-02  0.17188668062E-01  0.10197088007E+01  0.10194210964E+01 0.  0.
     999903    2    3    3    0    0 -0.86042257868E-01 -0.72198101634E-01 -0.62084598706E-01  0.13006353012E+00  0.21123173327E-01 0.  0.
         14    1    1    2    0    0  0.16372511595E-01 -0.48121773410E-02 -0.17188668062E-01  0.24221199319E-01  0.00000000000E+00 0. -1.
     999901    1    3    3    0    0  0.69669746273E-01  0.77010278975E-01  0.79273266767E-01  0.88964527056E+00  0.88000000000E+00 0.  1.
        -11    1    4    4    0    0 -0.29186814786E-01 -0.19773444454E-01 -0.30152094355E-01  0.46392555200E-01  0.51100000000E-03 0.  1.
         11    1    4    4    0    0 -0.56855443082E-01 -0.52424657181E-01 -0.31932504350E-01  0.83670974917E-01  0.51100000000E-03 0. -1.
</event>
<event>
 8    1  0.1150863E+005  0.1043930E+01  0.7957747E-01            NaN
         13   -1    0    0    0    0  0.00000000000E+00  0.00000000000E+00  0.74505805969E-08  0.10566000000E+00  0.10566000000E+00 0.  1.
     999900   -1    0    0    0    0 -0.00000000000E+00 -0.00000000000E+00 -0.74505805969E-08  0.93827000000E+00  0.93827000000E+00 0. -1.
     999902    2    1    2    0    0  0.54862761145E-02 -0.24583392090E-01 -0.31688250565E-02  0.10185433136E+01  0.10182268892E+01 0.  0.
     999903    2    3    3    0    0 -0.18573478411E-01  0.11309065758E+00  0.48823971014E-01  0.12599848754E+00  0.18904173751E-01 0.  0.
         14    1    1    2    0    0 -0.54862761145E-02  0.24583392090E-01  0.31688250565E-02  0.25386686363E-01  0.00000000000E+00 0. -1.
     999901    1    3    3    0    0  0.24059754525E-01 -0.13767404967E+00 -0.51992796071E-01  0.89254482609E+00  0.88000000000E+00 0.  1.
        -11    1    4    4    0    0 -0.52809098192E-02  0.38912548873E-01  0.26583398639E-01  0.47423756415E-01  0.51100000000E-03 0. -1.
         11    1    4    4    0    0 -0.13292568592E-01  0.74178108710E-01  0.22240572375E-01  0.78574731130E-01  0.51100000000E-03 0.  1.
</event>
<event>
 8    1  0.1150863E+005  0.1043930E+01  0.7957747E-01            NaN
         13   -1    0    0    0    0  0.00000000000E+00  0.00000000000E+00  0.74505805969E-08  0.10566000000E+00  0.10566000000E+00 0. -1.
     999900   -1    0    0    0    0 -0.00000000000E+00 -0.00000000000E+00 -0.74505805969E-08  0.93827000000E+00  0.93827000000E+00 0. -1.
     999902    2    1    2    0    0  0.28762994182E-02  0.99174967474E-02  0.19035043866E-01  0.10222744526E+01  0.10220450546E+01 0.  0.
     999903    2    3    3    0    0 -0.11796025442E+00 -0.51682382484E-01  0.20245949753E-01  0.13188269375E+00  0.19936302218E-01 0.  0.
         14    1    1    2    0    0 -0.28762994182E-02 -0.99174967474E-02 -0.19035043866E-01  0.21655547443E-01  0.00000000000E+00 0. -1.
     999901    1    3    3    0    0  0.12083655384E+00  0.61599879232E-01 -0.12109058876E-02  0.89039175881E+00  0.88000000000E+00 0.  1.
        -11    1    4    4    0    0 -0.58247279113E-01 -0.21795742589E-01  0.19228512634E-01  0.65098362024E-01  0.51100000000E-03 0.  1.
         11    1    4    4    0    0 -0.59712975308E-01 -0.29886639895E-01  0.10174371193E-02  0.66784331723E-01  0.51100000000E-03 0. -1.
</event>
<event>
 8    1  0.1150863E+005  0.1043930E+01  0.7957747E-01            NaN
         13   -1    0    0    0    0  0.00000000000E+00  0.00000000000E+00  0.74505805969E-08  0.10566000000E+00  0.10566000000E+00 0. -1.
     999900   -1    0    0    0    0 -0.00000000000E+00 -0.00000000000E+00 -0.74505805969E-08  0.93827000000E+00  0.93827000000E+00 0. -1.
     999902    2    1    2    0    0 -0.10378328617E-02  0.23794094483E-01 -0.61557939312E-03  0.10201053286E+01  0.10198270767E+01 0.  0.
     999903    2    3    3    0    0  0.12773980640E-01 -0.11036434238E+00 -0.60004363757E-01  0.12785184439E+00  0.20052625633E-01 0.  0.
         14    1    1    2    0    0  0.10378328617E-02 -0.23794094483E-01  0.61557939312E-03  0.23824671400E-01  0.00000000000E+00 0. -1.
     999901    1    3    3    0    0 -0.13811813502E-01  0.13415843686E+00  0.59388784363E-01  0.89225348421E+00  0.88000000000E+00 0.  1.
        -11    1    4    4    0    0  0.15237587146E-01 -0.51526865528E-01 -0.33048396424E-01  0.63084542959E-01  0.51100000000E-03 0. -1.
         11    1    4    4    0    0 -0.24636065059E-02 -0.58837476850E-01 -0.26955967332E-01  0.64767301433E-01  0.51100000000E-03 0.  1.
</event>
<event>
 8    1  0.1150863E+005  0.1043930E+01  0.7957747E-01            NaN
         13   -1    0    0    0    0  0.00000000000E+00  0.00000000000E+00  0.74505805969E-08  0.10566000000E+00  0.10566000000E+00 0. -1.
     999900   -1    0    0    0    0 -0.00000000000E+00 -0.00000000000E+00 -0.74505805969E-08  0.93827000000E+00  0.93827000000E+00 0.  1.
     999902    2    1    2    0    0  0.45529572186E-02 -0.20482672701E-01  0.10348350684E-01  0.10205343239E+01  0.10202661165E+01 0.  0.
     999903    2    3    3    0    0  0.12094670623E+00  0.39625777884E-01 -0.17596987995E-01  0.13039867543E+00  0.22267746803E-01 0.  0.
         14    1    1    2    0    0 -0.45529572186E-02  0.20482672701E-01 -0.10348350684E-01  0.23395676145E-01  0.00000000000E+00 0.  1.
     999901    1    3    3    0    0 -0.11639374901E+00 -0.60108450585E-01  0.27945338679E-01  0.89013564842E+00  0.88000000000E+00 0.  1.
        -11    1    4    4    0    0  0.83519929663E-01  0.21700682887E-01 -0.28044771599E-02  0.86340167372E-01  0.51100000000E-03 0.  1.
         11    1    4    4    0    0  0.37426776564E-01  0.17925094997E-01 -0.14792510835E-01  0.44058508059E-01  0.51100000000E-03 0. -1.
</event>
<event>
 8    1  0.1150863E+005  0.1043930E+01  0.7957747E-01            NaN
         13   -1    0    0    0    0  0.00000000000E+00  0.00000000000E+00  0.74505805969E-08  0.10566000000E+00  0.10566000000E+00 0.  1.
     999900   -1    0    0    0    0 -0.00000000000E+00 -0.00000000000E+00 -0.74505805969E-08  0.93827000000E+00  0.93827000000E+00 0. -1.
     999902    2    1    2    0    0 -0.11010801539E-01 -0.20110659054E-01 -0.68481363593E-02  0.10200014955E+01  0.10197207840E+01 0.  0.
     999903    2    3    3    0    0  0.72456949402E-01  0.86826919299E-01  0.55279462477E-01  0.12744205786E+00  0.19918225504E-01 0.  0.
         14    1    1    2    0    0  0.11010801539E-01  0.20110659054E-01  0.68481363593E-02  0.23928504544E-01  0.00000000000E+00 0.  1.
     999901    1    3    3    0    0 -0.83467750941E-01 -0.10693757835E+00 -0.62127598836E-01  0.89255943760E+00  0.88000000000E+00 0.  1.
        -11    1    4    4    0    0  0.30419517997E-01  0.50367558343E-01  0.23523667757E-01  0.63370829838E-01  0.51100000000E-03 0. -1.
         11    1    4    4    0    0  0.42037431405E-01  0.36459360956E-01  0.31755794720E-01  0.64071228018E-01  0.51100000000E-03 0.  1.
</event>
<event>
 8    1  0.1150863E+005  0.1043930E+01  0.7957747E-01            NaN
         13   -1    0    0    0    0  0.00000000000E+00  0.00000000000E+00  0.74505805969E-08  0.10566000000E+00  0.10566000000E+00 0. -1.
     999900   -1    0    0    0    0 -0.00000000000E+00 -0.00000000000E+00 -0.74505805969E-08  0.93827000000E+00  0.93827000000E+00 0.  1.
     999902    2    1    2    0    0 -0.82791312883E-02 -0.81966610244E-02  0.21895222021E-01  0.10191281853E+01  0.10188263483E+01 0.  0.
     999903    2    3    3    0    0 -0.93988313644E-01  0.60902090126E-01 -0.59744612265E-01  0.12851841444E+00  0.20117069154E-01 0.  0.
         14    1    1    2    0    0  0.82791312883E-02  0.81966610244E-02 -0.21895222021E-01  0.24801814736E-01  0.00000000000E+00 0.  1.
     999901    1    3    3    0    0  0.85709182355E-01 -0.69098751151E-01  0.81639834286E-01  0.89060977083E+00  0.88000000000E+00 0. -1.
        -11    1    4    4    0    0 -0.54543213737E-01  0.29266985547E-01 -0.23103947120E-01  0.66072476125E-01  0.51100000000E-03 0. -1.
         11    1    4    4    0    0 -0.39445099906E-01  0.31635104580E-01 -0.36640665144E-01  0.62445938312E-01  0.51100000000E-03 0.  1.
</event>
<event>
 8    1  0.1150863E+005  0.1043930E+01  0.7957747E-01            NaN
         13   -1    0    0    0    0  0.00000000000E+00  0.00000000000E+00  0.74505805969E-08  0.10566000000E+00  0.10566000000E+00 0.  1.
     999900   -1    0    0    0    0 -0.00000000000E+00 -0.00000000000E+00 -0.74505805969E-08  0.93827000000E+00  0.93827000000E+00 0.  1.
     999902    2    1    2    0    0  0.89789078524E-02  0.95508304454E-02  0.20271613693E-01  0.10197892156E+01  0.10195034413E+01 0.  0.
     999903    2    3    3    0    0  0.10040768788E+00  0.80669861761E-01 -0.16983469717E-01  0.13141706406E+00  0.19816056656E-01 0.  0.
         14    1    1    2    0    0 -0.89789078524E-02 -0.95508304454E-02 -0.20271613693E-01  0.24140784373E-01  0.00000000000E+00 0. -1.
     999901    1    3    3    0    0 -0.91428780029E-01 -0.71119031316E-01  0.37255083411E-01  0.88837215156E+00  0.88000000000E+00 0. -1.
        -11    1    4    4    0    0  0.47398890992E-01  0.25715339584E-01 -0.56042005198E-02  0.54218094227E-01  0.51100000000E-03 0.  1.
         11    1    4    4    0    0  0.53008796889E-01  0.54954522178E-01 -0.11379269198E-01  0.77198969837E-01  0.51100000000E-03 0. -1.
</event>
<event>
 8    1  0.1150863E+005  0.1043930E+01  0.7957747E-01            NaN
         13   -1    0    0    0    0  0.00000000000E+00  0.00000000000E+00  0.74505805969E-08  0.10566000000E+00  0.10566000000E+00 0. -1.
     999900   -1    0    0    0    0 -0.00000000000E+00 -0.00000000000E+00 -0.74505805969E-08  0.93827000000E+00  0.93827000000E+00 0. -1.
     999902    2    1    2    0    0  0.14742224282E-02 -0.42077875987E-02 -0.23370416957E-01  0.10201380855E+01  0.10198606073E+01 0.  0.
     999903    2    3    3    0    0 -0.71389494848E-01 -0.21082969361E-01 -0.10832221265E+00  0.13288913470E+00  0.19618073178E-01 0.  0.
         14    1    1    2    0    0 -0.14742224282E-02  0.42077875987E-02  0.23370416957E-01  0.23791914530E-01  0.00000000000E+00 0. -1.
     999901    1    3    3    0    0  0.72863717276E-01  0.16875181762E-01  0.84951795694E-01  0.88724895077E+00  0.88000000000E+00 0.  1.
        -11    1    4    4    0    0 -0.34465346399E-01 -0.16088163028E-02 -0.40058840406E-01  0.52871733544E-01  0.51100000000E-03 0.  1.
         11    1    4    4    0    0 -0.36924148450E-01 -0.19474153058E-01 -0.68263372246E-01  0.80017401154E-01  0.51100000000E-03 0. -1.
</event>
<event>
 8    1  0.1150863E+005  0.1043930E+01  0.7957747E-01            NaN
         13   -1    0    0    0    0  0.00000000000E+00  0.00000000000E+00  0.74505805969E-08  0.10566000000E+00  0.10566000000E+00 0.  1.
     999900   -1    0    0    0    0 -0.00000000000E+00 -0.00000000000E+00 -0.74505805969E-08  0.93827000000E+00  0.93827000000E+00 0. -1.
     999902    2    1    2    0    0 -0.18887164837E-01 -0.14480447396E-01  0.21285706947E-02  0.10200356667E+01  0.10197557659E+01 0.  0.
     999903    2    3    3    0    0 -0.11584825502E-01  0.99516805842E-01  0.78982766861E-01  0.12933074057E+00  0.21221690971E-01 0.  0.
         14    1    1    2    0    0  0.18887164837E-01  0.14480447396E-01 -0.21285706947E-02  0.23894333336E-01  0.00000000000E+00 0.  1.
     999901    1    3    3    0    0 -0.73023393351E-02 -0.11399725324E+00 -0.76854196166E-01  0.89070492610E+00  0.88000000000E+00 0.  1.
        -11    1    4    4    0    0 -0.17542884890E-01  0.63300525783E-01  0.51783435112E-01  0.83645051543E-01  0.51100000000E-03 0.  1.
         11    1    4    4    0    0  0.59580593881E-02  0.36216280060E-01  0.27199331749E-01  0.45685689024E-01  0.51100000000E-03 0. -1.
</event>
<event>
 8    1  0.1150863E+005  0.1043930E+01  0.7957747E-01            NaN
         13   -1    0    0    0    0  0.00000000000E+00  0.00000000000E+00  0.74505805969E-08  0.10566000000E+00  0.10566000000E+00 0. -1.
     999900   -1    0    0    0    0 -0.00000000000E+00 -0.00000000000E+00 -0.74505805969E-08  0.93827000000E+00  0.93827000000E+00 0.  1.
     999902    2    1    2    0    0 -0.20508418822E-01 -0.75769230820E-03  0.10809793214E-01  0.10207347210E+01  0.10204711410E+01 0.  0.
     999903    2    3    3    0    0 -0.30131833394E-02 -0.12878590781E+00 -0.12652924930E-01  0.13098879859E+00  0.20076840455E-01 0.  0.
         14    1    1    2    0    0  0.20508418822E-01  0.75769230820E-03 -0.10809793214E-01  0.23195279036E-01  0.00000000000E+00 0.  1.
     999901    1    3    3    0    0 -0.17495235483E-01  0.12802821551E+00  0.23462718144E-01  0.88974592237E+00  0.88000000000E+00 0. -1.
        -11    1    4    4    0    0 -0.67202217377E-02 -0.24039586956E-01 -0.74172984457E-02  0.26044971846E-01  0.51100000000E-03 0. -1.
         11    1    4    4    0    0  0.37070383983E-02 -0.10474632086E+00 -0.52356264839E-02  0.10494382675E+00  0.51100000000E-03 0.  1.
</event>
<event>
 8    1  0.1150863E+005  0.1043930E+01  0.7957747E-01            NaN
         13   -1    0    0    0    0  0.00000000000E+00  0.00000000000E+00  0.74505805969E-08  0.10566000000E+00  0.10566000000E+00 0. -1.
     999900   -1    0    0    0    0 -0.00000000000E+00 -0.00000000000E+00 -0.74505805969E-08  0.93827000000E+00  0.93827000000E+00 0.  1.
     999902    2    1    2    0    0  0.15874060137E-01  0.95602574040E-02 -0.84547823472E-02  0.10235616998E+01  0.10233590209E+01 0.  0.
     999903    2    3    3    0    0 -0.66011391643E-01  0.38407718927E-01 -0.10782189733E+00  0.13372394677E+00  0.20588241706E-01 0.  0.
         14    1    1    2    0    0 -0.15874060137E-01 -0.95602574040E-02  0.84547823472E-02  0.20368300160E-01  0.00000000000E+00 0. -1.
     999901    1    3    3    0    0  0.81885451780E-01 -0.28847461523E-01  0.99367114980E-01  0.88983775307E+00  0.88000000000E+00 0. -1.
        -11    1    4    4    0    0 -0.33814510995E-01  0.31056169401E-01 -0.66790493843E-01  0.81050219003E-01  0.51100000000E-03 0.  1.
         11    1    4    4    0    0 -0.32196880648E-01  0.73515495264E-02 -0.41031403484E-01  0.52673727767E-01  0.51100000000E-03 0. -1.
</event>
<event>
 8    1  0.1150863E+005  0.1043930E+01  0.7957747E-01            NaN
         13   -1    0    0    0    0  0.00000000000E+00  0.00000000000E+00  0.74505805969E-08  0.10566000000E+00  0.10566000000E+00 0.  1.
     999900   -1    0    0    0    0 -0.00000000000E+00 -0.00000000000E+00 -0.74505805969E-08  0.93827000000E+00  0.93827000000E+00 0. -1.
     999902    2    1    2    0    0  0.18678951471E-01 -0.15469008496E-02 -0.14390954996E-01  0.10202996019E+01  0.10200259221E+01 0.  0.
     999903    2    3    3    0    0 -0.74126038964E-01 -0.10297061581E+00 -0.16983301465E-01  0.12962218750E+00  0.20392684741E-01 0.  0.
         14    1    1    2    0    0 -0.18678951471E-01  0.15469008496E-02  0.14390954996E-01  0.23630398135E-01  0.00000000000E+00 0.  1.
     999901    1    3    3    0    0  0.92804990435E-01  0.10142371496E+00  0.25923464688E-02  0.89067741437E+00  0.88000000000E+00 0. -1.
        -11    1    4    4    0    0 -0.44983798781E-01 -0.64416546471E-01 -0.20382809154E-01  0.81171137986E-01  0.51100000000E-03 0.  1.
         11    1    4    4    0    0 -0.29142240183E-01 -0.38554069335E-01  0.33995076885E-02  0.48451049511E-01  0.51100000000E-03 0. -1.
</event>
<event>
 8    1  0.1150863E+005  0.1043930E+01  0.7957747E-01            NaN
         13   -1    0    0    0    0  0.00000000000E+00  0.00000000000E+00  0.74505805969E-08  0.10566000000E+00  0.10566000000E+00 0.  1.
     999900   -1    0    0    0    0 -0.00000000000E+00 -0.00000000000E+00 -0.74505805969E-08  0.93827000000E+00  0.93827000000E+00 0. -1.
     999902    2    1    2    0    0 -0.14310550911E-01  0.14212978918E-01  0.16422455475E-01  0.10179204310E+01  0.10175880827E+01 0.  0.
     999903    2    3    3    0    0 -0.77656649050E-01 -0.52806185446E-01  0.87646291859E-01  0.13023967112E+00  0.21481412767E-01 0.  0.
         14    1    1    2    0    0  0.14310550911E-01 -0.14212978918E-01 -0.16422455475E-01  0.26009569026E-01  0.00000000000E+00 0. -1.
     999901    1    3    3    0    0  0.63346098139E-01  0.67019164364E-01 -0.71223836385E-01  0.88768075985E+00  0.88000000000E+00 0. -1.
        -11    1    4    4    0    0 -0.41146141220E-01 -0.39592089678E-01  0.57923660698E-01  0.81338490839E-01  0.51100000000E-03 0.  1.
         11    1    4    4    0    0 -0.36510507829E-01 -0.13214095768E-01  0.29722631162E-01  0.48901180283E-01  0.51100000000E-03 0. -1.
</event>
<event>
 8    1  0.1150863E+005  0.1043930E+01  0.7957747E-01            NaN
         13   -1    0    0    0    0  0.00000000000E+00  0.00000000000E+00  0.74505805969E-08  0.10566000000E+00  0.10566000000E+00 0. -1.
     999900   -1    0    0    0    0 -0.00000000000E+00 -0.00000000000E+00 -0.74505805969E-08  0.93827000000E+00  0.93827000000E+00 0. -1.
     999902    2    1    2    0    0 -0.23658718369E-01  0.19810668757E-02  0.52056060088E-02  0.10196244880E+01  0.10193347529E+01 0.  0.
     999903    2    3    3    0    0 -0.81125129301E-01 -0.10175004625E+00  0.28974349857E-03  0.13165675325E+00  0.19976441313E-01 0.  0.
         14    1    1    2    0    0  0.23658718369E-01 -0.19810668757E-02 -0.52056060088E-02  0.24305512024E-01  0.00000000000E+00 0.  1.
     999901    1    3    3    0    0  0.57466410932E-01  0.10373111313E+00  0.49158625103E-02  0.88796773473E+00  0.88000000000E+00 0. -1.
        -11    1    4    4    0    0 -0.71927019125E-03 -0.67386895555E-02  0.22902356524E-02  0.71717213329E-02  0.51100000000E-03 0. -1.
         11    1    4    4    0    0 -0.80405859110E-01 -0.95011356698E-01 -0.20004921538E-02  0.12448503191E+00  0.51100000000E-03 0.  1.
</event>
<event>
 8    1  0.1150863E+005  0.1043930E+01  0.7957747E-01            NaN
         13   -1    0    0    0    0  0.00000000000E+00  0.00000000000E+00  0.74505805969E-08  0.10566000000E+00  0.10566000000E+00 0. -1.
     999900   -1    0    0    0    0 -0.00000000000E+00 -0.00000000000E+00 -0.74505805969E-08  0.93827000000E+00  0.93827000000E+00 0. -1.
     999902    2    1    2    0    0 -0.12295811944E-01 -0.23453239200E-02 -0.19761079460E-01  0.10205379544E+01  0.10202698313E+01 0.  0.
     999903    2    3    3    0    0 -0.65298330890E-01 -0.74426102971E-01  0.81637335486E-01  0.13020849613E+00  0.22056316513E-01 0.  0.
         14    1    1    2    0    0  0.12295811944E-01  0.23453239200E-02  0.19761079460E-01  0.23392045594E-01  0.00000000000E+00 0. -1.
     999901    1    3    3    0    0  0.53002518946E-01  0.72080779051E-01 -0.10139841495E+00  0.89032945828E+00  0.88000000000E+00 0. -1.
        -11    1    4    4    0    0 -0.27406095165E-01 -0.46274160567E-01  0.37366932227E-01  0.65490004837E-01  0.51100000000E-03 0.  1.
         11    1    4    4    0    0 -0.37892235724E-01 -0.28151942404E-01  0.44270403259E-01  0.64718491291E-01  0.51100000000E-03 0. -1.
</event>
<event>
 8    1  0.1150863E+005  0.1043930E+01  0.7957747E-01            NaN
         13   -1    0    0    0    0  0.00000000000E+00  0.00000000000E+00  0.74505805969E-08  0.10566000000E+00  0.10566000000E+00 0. -1.
     999900   -1    0    0    0    0 -0.00000000000E+00 -0.00000000000E+00 -0.74505805969E-08  0.93827000000E+00  0.93827000000E+00 0. -1.
     999902    2    1    2    0    0  0.63120252803E-02 -0.21807408901E-01 -0.53558892423E-02  0.10206042568E+01  0.10203376690E+01 0.  0.
     999903    2    3    3    0    0  0.98766611892E-01  0.27641057310E-01  0.78132748356E-01  0.13045631741E+00  0.19880963579E-01 0.  0.
         14    1    1    2    0    0 -0.63120252803E-02  0.21807408901E-01  0.53558892423E-02  0.23325743197E-01  0.00000000000E+00 0. -1.
     999901    1    3    3    0    0 -0.92454586612E-01 -0.49448466210E-01 -0.83488637599E-01  0.89014793939E+00  0.88000000000E+00 0.  1.
        -11    1    4    4    0    0  0.74732090118E-01  0.29424112779E-01  0.61726932080E-01  0.10129728018E+00  0.51100000000E-03 0. -1.
         11    1    4    4    0    0  0.24034521775E-01 -0.17830554691E-02  0.16405816276E-01  0.29159037234E-01  0.51100000000E-03 0.  1.
</event>
<event>
 8    1  0.1150863E+005  0.1043930E+01  0.7957747E-01            NaN
         13   -1    0    0    0    0  0.00000000000E+00  0.00000000000E+00  0.74505805969E-08  0.10566000000E+00  0.10566000000E+00 0. -1.
     999900   -1    0    0    0    0 -0.00000000000E+00 -0.00000000000E+00 -0.74505805969E-08  0.93827000000E+00  0.93827000000E+00 0. -1.
     999902    2    1    2    0    0  0.11618237949E-01 -0.14666952383E-02 -0.21022916525E-01  0.10198655518E+01  0.10195816034E+01 0.  0.
     999903    2    3    3    0    0 -0.74257686410E-01  0.25563796814E-01 -0.10343903431E+00  0.13144125094E+00  0.20235042177E-01 0.  0.
         14    1    1    2    0    0 -0.11618237949E-01  0.14666952383E-02  0.21022916525E-01  0.24064448200E-01  0.00000000000E+00 0. -1.
     999901    1    3    3    0    0  0.85875924359E-01 -0.27030492053E-01  0.82416117784E-01  0.88842430086E+00  0.88000000000E+00 0.  1.
        -11    1    4    4    0    0 -0.49682355807E-01  0.75521233220E-02 -0.70364286112E-01  0.86468288558E-01  0.51100000000E-03 0. -1.
         11    1    4    4    0    0 -0.24575330603E-01  0.18011673492E-01 -0.33074748197E-01  0.44972962383E-01  0.51100000000E-03 0.  1.
</event>
<event>
 8    1  0.1150863E+005  0.1043930E+01  0.7957747E-01            NaN
         13   -1    0    0    0    0  0.00000000000E+00  0.00000000000E+00  0.74505805969E-08  0.10566000000E+00  0.10566000000E+00 0. -1.
     999900   -1    0    0    0    0 -0.00000000000E+00 -0.00000000000E+00 -0.74505805969E-08  0.93827000000E+00  0.93827000000E+00 0. -1.
     999902    2    1    2    0    0 -0.20863094419E-01  0.11652706608E-01  0.54299287989E-02  0.10194241149E+01  0.10191295244E+01 0.  0.
     999903    2    3    3    0    0 -0.98700296442E-01 -0.16914489803E-04 -0.84160657283E-01  0.13138060061E+00  0.20882939896E-01 0.  0.
         14    1    1    2    0    0  0.20863094419E-01 -0.11652706608E-01 -0.54299287989E-02  0.24505885146E-01  0.00000000000E+00 0.  1.
     999901    1    3    3    0    0  0.77837202023E-01  0.11669621098E-01  0.89590586082E-01  0.88804351424E+00  0.88000000000E+00 0.  1.
        -11    1    4    4    0    0 -0.82913201411E-01 -0.52779662537E-02 -0.62016895529E-01  0.10367647924E+00  0.51100000000E-03 0.  1.
         11    1    4    4    0    0 -0.15787095030E-01  0.52610517639E-02 -0.22143761754E-01  0.27704121368E-01  0.51100000000E-03 0. -1.
</event>
<event>
 8    1  0.1150863E+005  0.1043930E+01  0.7957747E-01            NaN
         13   -1    0    0    0    0  0.00000000000E+00  0.00000000000E+00  0.74505805969E-08  0.10566000000E+00  0.10566000000E+00 0.  1.
     999900   -1    0    0    0    0 -0.00000000000E+00 -0.00000000000E+00 -0.74505805969E-08  0.93827000000E+00  0.93827000000E+00 0. -1.
     999902    2    1    2    0    0 -0.58056043883E-02 -0.20612412813E-01  0.11147575040E-01  0.10197878163E+01  0.10195020085E+01 0.  0.
     999903    2    3    3    0    0  0.13182167579E-01  0.12167203967E+00 -0.28529377924E-01  0.12727470071E+00  0.20175957407E-01 0.  0.
         14    1    1    2    0    0  0.58056043883E-02  0.20612412813E-01 -0.11147575040E-01  0.24142183695E-01  0.00000000000E+00 0. -1.
     999901    1    3    3    0    0 -0.18987771967E-01 -0.14228445249E+00  0.39676952964E-01  0.89251311559E+00  0.88000000000E+00 0. -1.
        -11    1    4    4    0    0 -0.26018831100E-02  0.34446076685E-01 -0.14754702776E-01  0.37566798769E-01  0.51100000000E-03 0.  1.
         11    1    4    4    0    0  0.15784050689E-01  0.87225962987E-01 -0.13774675147E-01  0.89707901946E-01  0.51100000000E-03 0. -1.
</event>
<event>
 8    1  0.1150863E+005  0.1043930E+01  0.7957747E-01            NaN
         13   -1    0    0    0    0  0.00000000000E+00  0.00000000000E+00  0.74505805969E-08  0.10566000000E+00  0.10566000000E+00 0. -1.
     999900   -1    0    0    0    0 -0.00000000000E+00 -0.00000000000E+00 -0.74505805969E-08  0.93827000000E+00  0.93827000000E+00 0. -1.
     999902    2    1    2    0    0 -0.58018530978E-02  0.23267752506E-01  0.59064628655E-03  0.10199425310E+01  0.10196604179E+01 0.  0.
     999903    2    3    3    0    0  0.12344314950E+00 -0.30905112047E-01  0.17961674543E-02  0.12885307240E+00  0.20163108369E-01 0.  0.
         14    1    1    2    0    0  0.58018530978E-02 -0.23267752506E-01 -0.59064628655E-03  0.23987469001E-01  0.00000000000E+00 0. -1.
     999901    1    3    3    0    0 -0.12924500260E+00  0.54172864553E-01 -0.12055211678E-02  0.89108945860E+00  0.88000000000E+00 0.  1.
        -11    1    4    4    0    0  0.73858647530E-01 -0.18511305400E-01 -0.88067334255E-02  0.76652383637E-01  0.51100000000E-03 0. -1.
         11    1    4    4    0    0  0.49584501971E-01 -0.12393806647E-01  0.10602900880E-01  0.52200688760E-01  0.51100000000E-03 0.  1.
</event>
<event>
 8    1  0.1150863E+005  0.1043930E+01  0.7957747E-01            NaN
         13   -1    0    0    0    0  0.00000000000E+00  0.00000000000E+00  0.74505805969E-08  0.10566000000E+00  0.10566000000E+00 0.  1.
     999900   -1    0    0    0    0 -0.00000000000E+00 -0.00000000000E+00 -0.74505805969E-08  0.93827000000E+00  0.93827000000E+00 0.  1.
     999902    2    1    2    0    0  0.14256917850E-01 -0.14853943292E-01  0.13882828791E-01  0.10190979185E+01  0.10187953353E+01 0.  0.
     999903    2    3    3    0    0  0.98376060100E-01 -0.81632875994E-01 -0.26381147683E-01  0.13165403644E+00  0.17176865680E-01 0.  0.
         14    1    1    2    0    0 -0.14256917850E-01  0.14853943292E-01 -0.13882828791E-01  0.24832081531E-01  0.00000000000E+00 0. -1.
     999901    1    3    3    0    0 -0.84119142250E-01  0.66778932702E-01  0.40263976474E-01  0.88744388203E+00  0.88000000000E+00 0. -1.
        -11    1    4    4    0    0  0.83106802636E-01 -0.71906740569E-01 -0.28181195280E-01  0.11345378298E+00  0.51100000000E-03 0.  1.
         11    1    4    4    0    0  0.15269257464E-01 -0.97261354254E-02  0.18000475968E-02  0.18200253465E-01  0.51100000000E-03 0. -1.
</event>
<event>
 8    1  0.1150863E+005  0.1043930E+01  0.7957747E-01            NaN
         13   -1    0    0    0    0  0.00000000000E+00  0.00000000000E+00  0.74505805969E-08  0.10566000000E+00  0.10566000000E+00 0.  1.
     999900   -1    0    0    0    0 -0.00000000000E+00 -0.00000000000E+00 -0.74505805969E-08  0.93827000000E+00  0.93827000000E+00 0.  1.
     999902    2    1    2    0    0  0.14580471803E-02 -0.20656454584E-02  0.19741545773E-01  0.10240272006E+01  0.10238337688E+01 0.  0.
     999903    2    3    3    0    0  0.39018317840E-01 -0.32820292080E-01  0.12481052644E+00  0.13644840813E+00  0.20997615852E-01 0.  0.
         14    1    1    2    0    0 -0.14580471803E-02  0.20656454584E-02 -0.19741545773E-01  0.19902799357E-01  0.00000000000E+00 0. -1.
     999901    1    3    3    0    0 -0.37560270660E-01  0.30754646622E-01 -0.10506898067E+00  0.88757879251E+00  0.88000000000E+00 0.  1.
        -11    1    4    4    0    0  0.87884406847E-02  0.19390859165E-02  0.22825150417E-01  0.24540687774E-01  0.51100000000E-03 0. -1.
         11    1    4    4    0    0  0.30229877156E-01 -0.34759377997E-01  0.10198537602E+00  0.11190772036E+00  0.51100000000E-03 0.  1.
</event>
<event>
 8    1  0.1150863E+005  0.1043930E+01  0.7957747E-01            NaN
         13   -1    0    0    0    0  0.00000000000E+00  0.00000000000E+00  0.74505805969E-08  0.10566000000E+00  0.10566000000E+00 0. -1.
     999900   -1    0    0    0    0 -0.00000000000E+00 -0.00000000000E+00 -0.74505805969E-08  0.93827000000E+00  0.93827000000E+00 0.  1.
     999902    2    1    2    0    0 -0.87277355166E-02  0.17795114176E-01  0.11729093304E-01  0.10208993447E+01  0.10206395352E+01 0.  0.
     999903    2    3    3    0    0  0.12087585647E+00  0.19599381676E-01 -0.38707907329E-01  0.12997609461E+00  0.20009363877E-01 0.  0.
         14    1    1    2    0    0  0.87277355166E-02 -0.17795114176E-01 -0.11729093304E-01  0.23030655343E-01  0.00000000000E+00 0. -1.
     999901    1    3    3    0    0 -0.12960359198E+00 -0.18042674998E-02  0.50437000633E-01  0.89092325004E+00  0.88000000000E+00 0. -1.
        -11    1    4    4    0    0  0.11491704028E+00  0.15522294243E-01 -0.32472700814E-01  0.12042261077E+00  0.51100000000E-03 0.  1.
         11    1    4    4    0    0  0.59588161839E-02  0.40770874323E-02 -0.62352065150E-02  0.95534838425E-02  0.51100000000E-03 0. -1.
</event>
<event>
 8    1  0.1150863E+005  0.1043930E+01  0.7957747E-01            NaN
         13   -1    0    0    0    0  0.00000000000E+00  0.00000000000E+00  0.74505805969E-08  0.10566000000E+00  0.10566000000E+00 0.  1.
     999900   -1    0    0    0    0 -0.00000000000E+00 -0.00000000000E+00 -0.74505805969E-08  0.93827000000E+00  0.93827000000E+00 0.  1.
     999902    2    1    2    0    0 -0.90209570520E-03 -0.11534516645E-01  0.19925752757E-01  0.10208888526E+01  0.10206288037E+01 0.  0.
     999903    2    3    3    0    0  0.30471086523E-01 -0.11866790454E+00 -0.43777941050E-01  0.13155202103E+00  0.19464517318E-01 0.  0.
         14    1    1    2    0    0  0.90209570520E-03  0.11534516645E-01 -0.19925752757E-01  0.23041147407E-01  0.00000000000E+00 0. -1.
     999901    1    3    3    0    0 -0.31373182228E-01  0.10713338789E+00  0.63703693807E-01  0.88933683156E+00  0.88000000000E+00 0.  1.
        -11    1    4    4    0    0  0.19709379727E-01 -0.59398710451E-01 -0.31530177642E-01  0.70079095853E-01  0.51100000000E-03 0.  1.
         11    1    4    4    0    0  0.10761706796E-01 -0.59269194086E-01 -0.12247763408E-01  0.61472925180E-01  0.51100000000E-03 0. -1.
</event>
<event>
 8    1  0.1150863E+005  0.1043930E+01  0.7957747E-01            NaN
         13   -1    0    0    0    0  0.00000000000E+00  0.00000000000E+00  0.74505805969E-08  0.10566000000E+00  0.10566000000E+00 0. -1.
     999900   -1    0    0    0    0 -0.00000000000E+00 -0.00000000000E+00 -0.74505805969E-08  0.93827000000E+00  0.93827000000E+00 0.  1.
     999902    2    1    2    0    0  0.94891901706E-02 -0.20806994655E-01 -0.25163228221E-02  0.10209233132E+01  0.10206640504E+01 0.  0.
     999903    2    3    3    0    0  0.10410827063E+00 -0.62032341851E-01 -0.52866155022E-01  0.13346209983E+00  0.18186761571E-01 0.  0.
         14    1    1    2    0    0 -0.94891901706E-02  0.20806994655E-01  0.25163228221E-02  0.23006686793E-01  0.00000000000E+00 0. -1.
     999901    1    3    3    0    0 -0.94619080459E-01  0.41225347196E-01  0.50349832200E-01  0.88746121337E+00  0.88000000000E+00 0. -1.
        -11    1    4    4    0    0  0.65915000668E-01 -0.48370370288E-01 -0.31552366583E-01  0.87637280839E-01  0.51100000000E-03 0.  1.
         11    1    4    4    0    0  0.38193269962E-01 -0.13661971563E-01 -0.21313788439E-01  0.45824818996E-01  0.51100000000E-03 0. -1.
</event>
<event>
 8    1  0.1150863E+005  0.1043930E+01  0.7957747E-01            NaN
         13   -1    0    0    0    0  0.00000000000E+00  0.00000000000E+00  0.74505805969E-08  0.10566000000E+00  0.10566000000E+00 0.  1.
     999900   -1    0    0    0    0 -0.00000000000E+00 -0.00000000000E+00 -0.74505805969E-08  0.93827000000E+00  0.93827000000E+00 0. -1.
     999902    2    1    2    0    0  0.55679734986E-02 -0.22709465798E-01 -0.21824818235E-02  0.10204462739E+01  0.10201760203E+01 0.  0.
     999903    2    3    3    0    0 -0.60357635348E-01  0.32821364015E-01  0.10798737507E+00  0.12939787097E+00  0.19032859863E-01 0.  0.
         14    1    1    2    0    0 -0.55679734986E-02  0.22709465798E-01  0.21824818235E-02  0.23483726123E-01  0.00000000000E+00 0.  1.
     999901    1    3    3    0    0  0.65925608846E-01 -0.55530829813E-01 -0.11016985690E+00  0.89104840291E+00  0.88000000000E+00 0. -1.
        -11    1    4    4    0    0 -0.16321178418E-01  0.18747682147E-01  0.33273796398E-01  0.41536286528E-01  0.51100000000E-03 0.  1.
         11    1    4    4    0    0 -0.44036456930E-01  0.14073681868E-01  0.74713578677E-01  0.87861584438E-01  0.51100000000E-03 0. -1.
</event>
<event>
 8    1  0.1150863E+005  0.1043930E+01  0.7957747E-01            NaN
         13   -1    0    0    0    0  0.00000000000E+00  0.00000000000E+00  0.74505805969E-08  0.10566000000E+00  0.10566000000E+00 0.  1.
     999900   -1    0    0    0    0 -0.00000000000E+00 -0.00000000000E+00 -0.74505805969E-08  0.93827000000E+00  0.93827000000E+00 0. -1.
     999902    2    1    2    0    0 -0.13944731161E-01  0.16524387241E-01  0.10036121645E-01  0.10200923273E+01  0.10198137681E+01 0.  0.
     999903    2    3    3    0    0  0.96602360568E-01 -0.78281204014E-01  0.23716725920E-01  0.12801838501E+00  0.19137942506E-01 0.  0.
         14    1    1    2    0    0  0.13944731161E-01 -0.16524387241E-01 -0.10036121645E-01  0.23837672674E-01  0.00000000000E+00 0.  1.
     999901    1    3    3    0    0 -0.11054709173E+00  0.94805591255E-01 -0.13680604275E-01  0.89207394231E+00  0.88000000000E+00 0. -1.
        -11    1    4    4    0    0  0.36097455729E-01 -0.40491399970E-01  0.13963997064E-01  0.56016373648E-01  0.51100000000E-03 0.  1.
         11    1    4    4    0    0  0.60504904840E-01 -0.37789804044E-01  0.97527288562E-02  0.72002011364E-01  0.51100000000E-03 0. -1.
</event>
<event>
 8    1  0.1150863E+005  0.1043930E+01  0.7957747E-01            NaN
         13   -1    0    0    0    0  0.00000000000E+00  0.00000000000E+00  0.74505805969E-08  0.10566000000E+00  0.10566000000E+00 0.  1.
     999900   -1    0    0    0    0 -0.00000000000E+00 -0.00000000000E+00 -0.74505805969E-08  0.93827000000E+00  0.93827000000E+00 0.  1.
     999902    2    1    2    0    0 -0.47851163452E-02  0.22636694609E-01  0.22751540055E-02  0.10206814816E+01  0.10204166763E+01 0.  0.
     999903    2    3    3    0    0  0.83726116587E-01  0.97133915660E-01 -0.27356991746E-01  0.13261496476E+00  0.19830877710E-01 0.  0.
         14    1    1    2    0    0  0.47851163452E-02 -0.22636694609E-01 -0.22751540055E-02  0.23248518383E-01  0.00000000000E+00 0.  1.
     999901    1    3    3    0    0 -0.88511232932E-01 -0.74497221051E-01  0.29632145752E-01  0.88806651686E+00  0.88000000000E+00 0.  1.
        -11    1    4    4    0    0  0.71790210123E-02  0.16996218211E-01  0.32834605444E-04  0.18457301408E-01  0.51100000000E-03 0.  1.
         11    1    4    4    0    0  0.76547095575E-01  0.80137697449E-01 -0.27389826352E-01  0.11415766335E+00  0.51100000000E-03 0. -1.
</event>
<event>
 8    1  0.1150863E+005  0.1043930E+01  0.7957747E-01            NaN
         13   -1    0    0    0    0  0.00000000000E+00  0.00000000000E+00  0.74505805969E-08  0.10566000000E+00  0.10566000000E+00 0.  1.
     999900   -1    0    0    0    0 -0.00000000000E+00 -0.00000000000E+00 -0.74505805969E-08  0.93827000000E+00  0.93827000000E+00 0.  1.
     999902    2    1    2    0    0  0.94433929038E-02  0.16817584589E-01 -0.14923886881E-01  0.10195428882E+01  0.10192511809E+01 0.  0.
     999903    2    3    3    0    0 -0.11843494259E+00  0.35318306345E-01 -0.34674669808E-01  0.12988832672E+00  0.19860168740E-01 0.  0.
         14    1    1    2    0    0 -0.94433929038E-02 -0.16817584589E-01  0.14923886881E-01  0.24387111772E-01  0.00000000000E+00 0.  1.
     999901    1    3    3    0    0  0.12787833549E+00 -0.18500721757E-01  0.19750782927E-01  0.88965456151E+00  0.88000000000E+00 0.  1.
        -11    1    4    4    0    0 -0.47438212009E-01  0.52795663989E-02 -0.85715586642E-02  0.48497324864E-01  0.51100000000E-03 0.  1.
         11    1    4    4    0    0 -0.70996730576E-01  0.30038739947E-01 -0.26103111144E-01  0.81391001852E-01  0.51100000000E-03 0. -1.
</event>
<event>
 8    1  0.1150863E+005  0.1043930E+01  0.7957747E-01            NaN
         13   -1    0    0    0    0  0.00000000000E+00  0.00000000000E+00  0.74505805969E-08  0.10566000000E+00  0.10566000000E+00 0.  1.
     999900   -1    0    0    0    0 -0.00000000000E+00 -0.00000000000E+00 -0.74505805969E-08  0.93827000000E+00  0.93827000000E+00 0.  1.
     999902    2    1    2    0    0  0.55369914089E-02 -0.10414228686E-01  0.20666270946E-01  0.10201348495E+01  0.10198572949E+01 0.  0.
     999903    2    3    3    0    0 -0.96214154386E-01 -0.62444336829E-01 -0.56880099750E-01  0.12936334824E+00  0.18522187098E-01 0.  0.
         14    1    1    2    0    0 -0.55369914089E-02  0.10414228686E-01 -0.20666270946E-01  0.23795150510E-01  0.00000000000E+00 0. -1.
     999901    1    3    3    0    0  0.10175114580E+00  0.52030108143E-01  0.77546370697E-01  0.89077150125E+00  0.88000000000E+00 0. -1.
        -11    1    4    4    0    0 -0.83708587835E-01 -0.55723261781E-01 -0.42573728470E-01  0.10920161655E+00  0.51100000000E-03 0.  1.
         11    1    4    4    0    0 -0.12505566551E-01 -0.67210750476E-02 -0.14306371280E-01  0.20161731690E-01  0.51100000000E-03 0. -1.
</event>
<event>
 8    1  0.1150863E+005  0.1043930E+01  0.7957747E-01            NaN
         13   -1    0    0    0    0  0.00000000000E+00  0.00000000000E+00  0.74505805969E-08  0.10566000000E+00  0.10566000000E+00 0. -1.
     999900   -1    0    0    0    0 -0.00000000000E+00 -0.00000000000E+00 -0.74505805969E-08  0.93827000000E+00  0.93827000000E+00 0. -1.
     999902    2    1    2    0    0 -0.67500909033E-02 -0.88124222735E-02  0.20860482172E-01  0.10202998872E+01  0.10200262142E+01 0.  0.
     999903    2    3    3    0    0  0.87050631638E-01 -0.95193432381E-01  0.12100261347E-01  0.13106594954E+00  0.19805675120E-01 0.  0.
         14    1    1    2    0    0  0.67500909033E-02  0.88124222735E-02 -0.20860482172E-01  0.23630112779E-01  0.00000000000E+00 0.  1.
     999901    1    3    3    0    0 -0.93800722541E-01  0.86381010107E-01  0.87602208241E-02  0.88923393768E+00  0.88000000000E+00 0. -1.
        -11    1    4    4    0    0  0.34280838882E-01 -0.46732483873E-01 -0.22147837821E-02  0.58002304709E-01  0.51100000000E-03 0. -1.
         11    1    4    4    0    0  0.52769792756E-01 -0.48460948508E-01  0.14315045130E-01  0.73063644830E-01  0.51100000000E-03 0.  1.
</event>
<event>
 8    1  0.1150863E+005  0.1043930E+01  0.7957747E-01            NaN
         13   -1    0    0    0    0  0.00000000000E+00  0.00000000000E+00  0.74505805969E-08  0.10566000000E+00  0.10566000000E+00 0. -1.
     999900   -1    0    0    0    0 -0.00000000000E+00 -0.00000000000E+00 -0.74505805969E-08  0.93827000000E+00  0.93827000000E+00 0. -1.
     999902    2    1    2    0    0 -0.16601665326E-01  0.36802734753E-02  0.16302104267E-01  0.10203732959E+01  0.10201013404E+01 0.  0.
     999903    2    3    3    0    0 -0.47994994125E-02 -0.10290731072E+00 -0.75151610950E-01  0.12915840248E+00  0.20522634049E-01 0.  0.
         14    1    1    2    0    0  0.16601665326E-01 -0.36802734753E-02 -0.16302104267E-01  0.23556704098E-01  0.00000000000E+00 0. -1.
     999901    1    3    3    0    0 -0.11802165914E-01  0.10658758420E+00  0.91453715217E-01  0.89121489342E+00  0.88000000000E+00 0.  1.
        -11    1    4    4    0    0  0.42308896588E-02 -0.61036798322E-02 -0.27476487668E-02  0.79351137071E-02  0.51100000000E-03 0.  1.
         11    1    4    4    0    0 -0.90303890713E-02 -0.96803630891E-01 -0.72403962184E-01  0.12122328877E+00  0.51100000000E-03 0. -1.
</event>
<event>
 7    1  0.1150863E+005  0.1043930E+01  0.7957747E-01            NaN
         13   -1    0    0    0    0  0.00000000000E+00  0.00000000000E+00  0.74505805969E-08  0.10566000000E+00  0.10566000000E+00 0.  1.
     999900   -1    0    0    0    0 -0.00000000000E+00 -0.00000000000E+00 -0.74505805969E-08  0.93827000000E+00  0.93827000000E+00 0. -1.
     999903    2    1    2    0    0 -0.81100945439E-01  0.60135051726E-01 -0.10445005927E-02  0.10270790792E+00  0.18821146888E-01 0.  0.
         14    1    1    2    0    0  0.52642566533E-02  0.43845914121E-01 -0.26376584533E-01  0.51438320296E-01  0.00000000000E+00 0. -1.
     999901    1    1    2    0    0  0.75836688785E-01 -0.10398096585E+00  0.27421085126E-01  0.88978377179E+00  0.88000000000E+00 0. -1.
        -11    1    3    3    0    0 -0.76100711637E-01  0.49096151828E-01 -0.13426320083E-02  0.90574909427E-01  0.51100000000E-03 0. -1.
         11    1    3    3    0    0 -0.50002338017E-02  0.11038899899E-01  0.29813141553E-03  0.12132998491E-01  0.51100000000E-03 0.  1.
</event>
<event>
 8    1  0.1150863E+005  0.1043930E+01  0.7957747E-01            NaN
         13   -1    0    0    0    0  0.00000000000E+00  0.00000000000E+00  0.74505805969E-08  0.10566000000E+00  0.10566000000E+00 0. -1.
     999900   -1    0    0    0    0 -0.00000000000E+00 -0.00000000000E+00 -0.74505805969E-08  0.93827000000E+00  0.93827000000E+00 0.  1.
     999902    2    1    2    0    0 -0.14828416008E-01  0.11381320621E-01  0.14947800361E-01  0.10199956499E+01  0.10197147997E+01 0.  0.
     999903    2    3    3    0    0 -0.58868740876E-01 -0.57075152075E-01  0.10147114840E+00  0.13201359565E+00  0.20201332669E-01 0.  0.
         14    1    1    2    0    0  0.14828416008E-01 -0.11381320621E-01 -0.14947800361E-01  0.23934350127E-01  0.00000000000E+00 0.  1.
     999901    1    3    3    0    0  0.44040324869E-01  0.68456472695E-01 -0.86523348040E-01  0.88798205422E+00  0.88000000000E+00 0.  1.
        -11    1    4    4    0    0 -0.10417366035E-01 -0.11083817064E-01  0.33055328669E-01  0.36390773421E-01  0.51100000000E-03 0. -1.
         11    1    4    4    0    0 -0.48451374841E-01 -0.45991335011E-01  0.68415819732E-01  0.95622822227E-01  0.51100000000E-03 0.  1.
</event>
<event>
 8    1  0.1150863E+005  0.1043930E+01  0.7957747E-01            NaN
         13   -1    0    0    0    0  0.00000000000E+00  0.00000000000E+00  0.74505805969E-08  0.10566000000E+00  0.10566000000E+00 0. -1.
     999900   -1    0    0    0    0 -0.00000000000E+00 -0.00000000000E+00 -0.74505805969E-08  0.93827000000E+00  0.93827000000E+00 0. -1.
     999902    2    1    2    0    0  0.16682093298E-01 -0.15118074292E-01 -0.68266568345E-02  0.10204044469E+01  0.10201332185E+01 0.  0.
     999903    2    3    3    0    0 -0.73903861722E-03 -0.11722379287E+00  0.56443812365E-01  0.13207330034E+00  0.22704380942E-01 0.  0.
         14    1    1    2    0    0 -0.16682093298E-01  0.15118074292E-01  0.68266568345E-02  0.23525553142E-01  0.00000000000E+00 0. -1.
     999901    1    3    3    0    0  0.17421131915E-01  0.10210571858E+00 -0.63270469199E-01  0.88833114652E+00  0.88000000000E+00 0. -1.
        -11    1    4    4    0    0 -0.64434720147E-02 -0.61496265366E-01  0.18990190599E-01  0.64685372733E-01  0.51100000000E-03 0. -1.
         11    1    4    4    0    0  0.57044333975E-02 -0.55727527509E-01  0.37453621765E-01  0.67387927605E-01  0.51100000000E-03 0.  1.
</event>
<event>
 8    1  0.1150863E+005  0.1043930E+01  0.7957747E-01            NaN
         13   -1    0    0    0    0  0.00000000000E+00  0.00000000000E+00  0.74505805969E-08  0.10566000000E+00  0.10566000000E+00 0.  1.
     999900   -1    0    0    0    0 -0.00000000000E+00 -0.00000000000E+00 -0.74505805969E-08  0.93827000000E+00  0.93827000000E+00 0. -1.
     999902    2    1    2    0    0  0.22537931398E-01  0.76414251082E-02 -0.77504329579E-02  0.10189016373E+01  0.10185941918E+01 0.  0.
     999903    2    3    3    0    0  0.77682448325E-01  0.25277654040E-01 -0.10163638294E+00  0.13201577883E+00  0.20607982716E-01 0.  0.
         14    1    1    2    0    0 -0.22537931398E-01 -0.76414251082E-02  0.77504329579E-02  0.25028362720E-01  0.00000000000E+00 0.  1.
     999901    1    3    3    0    0 -0.55144516927E-01 -0.17636228932E-01  0.93885949979E-01  0.88688585845E+00  0.88000000000E+00 0.  1.
        -11    1    4    4    0    0  0.34492408750E-01  0.17181287137E-01 -0.34203196094E-01  0.51527105810E-01  0.51100000000E-03 0. -1.
         11    1    4    4    0    0  0.43190039575E-01  0.80963669023E-02 -0.67433186843E-01  0.80488673018E-01  0.51100000000E-03 0.  1.
</event>
<event>
 8    1  0.1150863E+005  0.1043930E+01  0.7957747E-01            NaN
         13   -1    0    0    0    0  0.00000000000E+00  0.00000000000E+00  0.74505805969E-08  0.10566000000E+00  0.10566000000E+00 0. -1.
     999900   -1    0    0    0    0 -0.00000000000E+00 -0.00000000000E+00 -0.74505805969E-08  0.93827000000E+00  0.93827000000E+00 0. -1.
     999902    2    1    2    0    0  0.18343947650E-01 -0.82937557439E-02 -0.15815396795E-01  0.10183289536E+01  0.10180070944E+01 0.  0.
     999903    2    3    3    0    0  0.10133657298E+00  0.64435433381E-01 -0.48520644962E-01  0.13083419642E+00  0.18501563890E-01 0.  0.
         14    1    1    2    0    0 -0.18343947650E-01  0.82937557439E-02  0.15815396795E-01  0.25601046375E-01  0.00000000000E+00 0. -1.
     999901    1    3    3    0    0 -0.82992625333E-01 -0.72729189125E-01  0.32705248167E-01  0.88749475721E+00  0.88000000000E+00 0.  1.
        -11    1    4    4    0    0  0.36182343656E-02  0.74989285866E-02 -0.44457044300E-02  0.94525636073E-02  0.51100000000E-03 0. -1.
         11    1    4    4    0    0  0.97718338617E-01  0.56936504795E-01 -0.44074940532E-01  0.12138163281E+00  0.51100000000E-03 0.  1.
</event>
<event>
 8    1  0.1150863E+005  0.1043930E+01  0.7957747E-01            NaN
         13   -1    0    0    0    0  0.00000000000E+00  0.00000000000E+00  0.74505805969E-08  0.10566000000E+00  0.10566000000E+00 0.  1.
     999900   -1    0    0    0    0 -0.00000000000E+00 -0.00000000000E+00 -0.74505805969E-08  0.93827000000E+00  0.93827000000E+00 0. -1.
     999902    2    1    2    0    0  0.16598524542E-01  0.68765389508E-02  0.10168538197E-01  0.10232854614E+01  0.10230771909E+01 0.  0.
     999903    2    3    3    0    0  0.14328703452E-01 -0.12909702436E+00  0.19347199428E-01  0.13279222177E+00  0.19700421234E-01 0.  0.
         14    1    1    2    0    0 -0.16598524542E-01 -0.68765389508E-02 -0.10168538197E-01  0.20644538600E-01  0.00000000000E+00 0. -1.
     999901    1    3    3    0    0  0.22698210901E-02  0.13597356331E+00 -0.91786612313E-02  0.89049323963E+00  0.88000000000E+00 0. -1.
        -11    1    4    4    0    0 -0.35970398935E-02 -0.55680583290E-01  0.79183484541E-02  0.56358028841E-01  0.51100000000E-03 0.  1.
         11    1    4    4    0    0  0.17925743346E-01 -0.73416441065E-01  0.11428850974E-01  0.76434192929E-01  0.51100000000E-03 0. -1.
</event>
<event>
 8    1  0.1150863E+005  0.1043930E+01  0.7957747E-01            NaN
         13   -1    0    0    0    0  0.00000000000E+00  0.00000000000E+00  0.74505805969E-08  0.10566000000E+00  0.10566000000E+00 0.  1.
     999900   -1    0    0    0    0 -0.00000000000E+00 -0.00000000000E+00 -0.74505805969E-08  0.93827000000E+00  0.93827000000E+00 0.  1.
     999902    2    1    2    0    0 -0.53838660219E-02  0.11117797855E-02 -0.22508313979E-01  0.10207600568E+01  0.10204970590E+01 0.  0.
     999903    2    3    3    0    0  0.80855732180E-01  0.54771316657E-01 -0.87595031598E-01  0.13252985301E+00  0.18807600147E-01 0.  0.
         14    1    1    2    0    0  0.53838660219E-02 -0.11117797855E-02  0.22508313979E-01  0.23169943155E-01  0.00000000000E+00 0.  1.
     999901    1    3    3    0    0 -0.86239598202E-01 -0.53659536871E-01  0.65086717619E-01  0.88823020384E+00  0.88000000000E+00 0. -1.
        -11    1    4    4    0    0  0.36499690821E-01  0.30502186860E-01 -0.53257175372E-01  0.71408673723E-01  0.51100000000E-03 0.  1.
         11    1    4    4    0    0  0.44356041359E-01  0.24269129797E-01 -0.34337856226E-01  0.61121179286E-01  0.51100000000E-03 0. -1.
</event>
<event>
 7    1  0.1150863E+005  0.1043930E+01  0.7957747E-01            NaN
         13   -1    0    0    0    0  0.00000000000E+00  0.00000000000E+00  0.74505805969E-08  0.10566000000E+00  0.10566000000E+00 0. -1.
     999900   -1    0    0    0    0 -0.00000000000E+00 -0.00000000000E+00 -0.74505805969E-08  0.93827000000E+00  0.93827000000E+00 0. -1.
     999903    2    1    2    0    0  0.55581259483E-01  0.91646689591E-01 -0.22885268486E-01  0.11135952959E+00  0.19718448171E-01 0.  0.
         14    1    1    2    0    0  0.13327603137E-01 -0.73255919983E-02 -0.40831696349E-01  0.43571971842E-01  0.00000000000E+00 0.  1.
     999901    1    1    2    0    0 -0.68908862620E-01 -0.84321097593E-01  0.63716964835E-01  0.88899849857E+00  0.88000000000E+00 0. -1.
        -11    1    3    3    0    0  0.21562759214E-01  0.18979669139E-01 -0.68459069435E-02  0.29534860563E-01  0.51100000000E-03 0.  1.
         11    1    3    3    0    0  0.34018500268E-01  0.72667020452E-01 -0.16039361543E-01  0.81824669028E-01  0.51100000000E-03 0. -1.
</event>
<event>
 8    1  0.1150863E+005  0.1043930E+01  0.7957747E-01            NaN
         13   -1    0    0    0    0  0.00000000000E+00  0.00000000000E+00  0.74505805969E-08  0.10566000000E+00  0.10566000000E+00 0. -1.
     999900   -1    0    0    0    0 -0.00000000000E+00 -0.00000000000E+00 -0.74505805969E-08  0.93827000000E+00  0.93827000000E+00 0.  1.
     999902    2    1    2    0    0 -0.96892991717E-02  0.14117744911E-01  0.15916147167E-01  0.10205522974E+01  0.10202845067E+01 0.  0.
     999903    2    3    3    0    0  0.11135540602E+00 -0.61471224260E-01  0.53566397575E-02  0.12899354097E+00  0.20782255869E-01 0.  0.
         14    1    1    2    0    0  0.96892991717E-02 -0.14117744911E-01 -0.15916147167E-01  0.23377702634E-01  0.00000000000E+00 0. -1.
     999901    1    3    3    0    0 -0.12104470519E+00  0.75588969171E-01  0.10559507409E-01  0.89155875640E+00  0.88000000000E+00 0.  1.
        -11    1    4    4    0    0  0.80444903402E-01 -0.38251679295E-01  0.11597822753E-01  0.89829527806E-01  0.51100000000E-03 0. -1.
         11    1    4    4    0    0  0.30910502621E-01 -0.23219544964E-01 -0.62411829953E-02  0.39164013161E-01  0.51100000000E-03 0.  1.
</event>
<event>
 8    1  0.1150863E+005  0.1043930E+01  0.7957747E-01            NaN
         13   -1    0    0    0    0  0.00000000000E+00  0.00000000000E+00  0.74505805969E-08  0.10566000000E+00  0.10566000000E+00 0.  1.
     999900   -1    0    0    0    0 -0.00000000000E+00 -0.00000000000E+00 -0.74505805969E-08  0.93827000000E+00  0.93827000000E+00 0. -1.
     999902    2    1    2    0    0 -0.14630822167E-01 -0.17358829286E-01  0.86041534704E-02  0.10196519983E+01  0.10193629266E+01 0.  0.
     999903    2    3    3    0    0 -0.12375360378E+00 -0.43441545081E-02  0.39161140205E-01  0.13229023851E+00  0.25165177836E-01 0.  0.
         14    1    1    2    0    0  0.14630822167E-01  0.17358829286E-01 -0.86041534704E-02  0.24278001738E-01  0.00000000000E+00 0. -1.
     999901    1    3    3    0    0  0.10912278162E+00 -0.13014674778E-01 -0.30556986734E-01  0.88736175975E+00  0.88000000000E+00 0. -1.
        -11    1    4    4    0    0 -0.67097830691E-01  0.97083004540E-02  0.17443351552E-01  0.70006439814E-01  0.51100000000E-03 0.  1.
         11    1    4    4    0    0 -0.56655773094E-01 -0.14052454962E-01  0.21717788652E-01  0.62283798698E-01  0.51100000000E-03 0. -1.
</event>
<event>
 8    1  0.1150863E+005  0.1043930E+01  0.7957747E-01            NaN
         13   -1    0    0    0    0  0.00000000000E+00  0.00000000000E+00  0.74505805969E-08  0.10566000000E+00  0.10566000000E+00 0. -1.
     999900   -1    0    0    0    0 -0.00000000000E+00 -0.00000000000E+00 -0.74505805969E-08  0.93827000000E+00  0.93827000000E+00 0.  1.
     999902    2    1    2    0    0 -0.17658838093E-02  0.10385702777E-01 -0.21437357131E-01  0.10200439905E+01  0.10197642871E+01 0.  0.
     999903    2    3    3    0    0 -0.54560602982E-01  0.76320806155E-01  0.86874747314E-01  0.12938904488E+00  0.19813590414E-01 0.  0.
         14    1    1    2    0    0  0.17658838093E-02 -0.10385702777E-01  0.21437357131E-01  0.23886009473E-01  0.00000000000E+00 0. -1.
     999901    1    3    3    0    0  0.52794719173E-01 -0.65935103378E-01 -0.10831210444E+00  0.89065494564E+00  0.88000000000E+00 0.  1.
        -11    1    4    4    0    0 -0.22865138558E-01  0.29387075427E-01  0.47747824309E-01  0.60551883626E-01  0.51100000000E-03 0.  1.
         11    1    4    4    0    0 -0.31695464425E-01  0.46933730728E-01  0.39126923004E-01  0.68837161257E-01  0.51100000000E-03 0. -1.
</event>
<event>
 8    1  0.1150863E+005  0.1043930E+01  0.7957747E-01            NaN
         13   -1    0    0    0    0  0.00000000000E+00  0.00000000000E+00  0.74505805969E-08  0.10566000000E+00  0.10566000000E+00 0. -1.
     999900   -1    0    0    0    0 -0.00000000000E+00 -0.00000000000E+00 -0.74505805969E-08  0.93827000000E+00  0.93827000000E+00 0.  1.
     999902    2    1    2    0    0 -0.84071081356E-02 -0.15678047908E-01  0.16134620093E-01  0.10199132013E+01  0.10196303897E+01 0.  0.
     999903    2    3    3    0    0 -0.15496894112E-01  0.96836193221E-02 -0.12549503600E+00  0.12819999702E+00  0.18769895195E-01 0.  0.
         14    1    1    2    0    0  0.84071081356E-02  0.15678047908E-01 -0.16134620093E-01  0.24016798683E-01  0.00000000000E+00 0.  1.
     999901    1    3    3    0    0  0.70897859765E-02 -0.25361667231E-01  0.14162965609E+00  0.89171320430E+00  0.88000000000E+00 0. -1.
        -11    1    4    4    0    0 -0.19667613476E-02  0.55663103694E-02 -0.86735376394E-01  0.86937555754E-01  0.51100000000E-03 0.  1.
         11    1    4    4    0    0 -0.13530132765E-01  0.41173089527E-02 -0.38759659606E-01  0.41262441268E-01  0.51100000000E-03 0. -1.
</event>
<event>
 8    1  0.1150863E+005  0.1043930E+01  0.7957747E-01            NaN
         13   -1    0    0    0    0  0.00000000000E+00  0.00000000000E+00  0.74505805969E-08  0.10566000000E+00  0.10566000000E+00 0.  1.
     999900   -1    0    0    0    0 -0.00000000000E+00 -0.00000000000E+00 -0.74505805969E-08  0.93827000000E+00  0.93827000000E+00 0. -1.
     999902    2    1    2    0    0  0.83815195797E-02  0.20173432799E-01  0.84219853487E-02  0.10205174585E+01  0.10202488599E+01 0.  0.
     999903    2    3    3    0    0  0.13339868296E-01  0.13115953219E+00  0.93473810420E-02  0.13353191420E+00  0.19042678521E-01 0.  0.
         14    1    1    2    0    0 -0.83815195797E-02 -0.20173432799E-01 -0.84219853487E-02  0.23412541481E-01  0.00000000000E+00 0.  1.
     999901    1    3    3    0    0 -0.49583487159E-02 -0.11098609939E+00 -0.92539569331E-03  0.88698554432E+00  0.88000000000E+00 0. -1.
        -11    1    4    4    0    0  0.57275595953E-02  0.19697538477E-01 -0.43404102334E-02  0.20973751285E-01  0.51100000000E-03 0. -1.
         11    1    4    4    0    0  0.76123087003E-02  0.11146199372E+00  0.13687791275E-01  0.11255816291E+00  0.51100000000E-03 0.  1.
</event>
<event>
 8    1  0.1150863E+005  0.1043930E+01  0.7957747E-01            NaN
         13   -1    0    0    0    0  0.00000000000E+00  0.00000000000E+00  0.74505805969E-08  0.10566000000E+00  0.10566000000E+00 0. -1.
     999900   -1    0    0    0    0 -0.00000000000E+00 -0.00000000000E+00 -0.74505805969E-08  0.93827000000E+00  0.93827000000E+00 0. -1.
     999902    2    1    2    0    0  0.11486715422E-01  0.19700425163E-01  0.70592140537E-02  0.10200577591E+01  0.10197783818E+01 0.  0.
     999903    2    3    3    0    0 -0.12624644538E+00 -0.13371469291E-01  0.87780287838E-02  0.12872890390E+00  0.19419468245E-01 0.  0.
         14    1    1    2    0    0 -0.11486715422E-01 -0.19700425163E-01 -0.70592140537E-02  0.23872240905E-01  0.00000000000E+00 0. -1.
     999901    1    3    3    0    0  0.13773316080E+00  0.33071894454E-01 -0.17188147302E-02  0.89132885520E+00  0.88000000000E+00 0. -1.
        -11    1    4    4    0    0 -0.49032190671E-01 -0.13975894456E-01 -0.21965631715E-03  0.50988142914E-01  0.51100000000E-03 0.  1.
         11    1    4    4    0    0 -0.77214254708E-01  0.60442516461E-03  0.89976851010E-02  0.77740760982E-01  0.51100000000E-03 0. -1.
</event>
<event>
 8    1  0.1150863E+005  0.1043930E+01  0.7957747E-01            NaN
         13   -1    0    0    0    0  0.00000000000E+00  0.00000000000E+00  0.74505805969E-08  0.10566000000E+00  0.10566000000E+00 0.  1.
     999900   -1    0    0    0    0 -0.00000000000E+00 -0.00000000000E+00 -0.74505805969E-08  0.93827000000E+00  0.93827000000E+00 0.  1.
     999902    2    1    2    0    0  0.19676533594E-01  0.49517937908E-02  0.13573863315E-01  0.10195181995E+01  0.10192258941E+01 0.  0.
     999903    2    3    3    0    0 -0.11009739198E+00  0.49031613433E-01  0.39975831815E-01  0.12851799405E+00  0.19831107568E-01 0.  0.
         14    1    1    2    0    0 -0.19676533594E-01 -0.49517937908E-02 -0.13573863315E-01  0.24411800452E-01  0.00000000000E+00 0. -1.
     999901    1    3    3    0    0  0.12977392558E+00 -0.44079819643E-01 -0.26401968500E-01  0.89100020550E+00  0.88000000000E+00 0. -1.
        -11    1    4    4    0    0 -0.22970833327E-01  0.48615291987E-02  0.14371265491E-01  0.27533398677E-01  0.51100000000E-03 0.  1.
         11    1    4    4    0    0 -0.87126558657E-01  0.44170084235E-01  0.25604566324E-01  0.10098459537E+00  0.51100000000E-03 0. -1.
</event>
<event>
 8    1  0.1150863E+005  0.1043930E+01  0.7957747E-01            NaN
         13   -1    0    0    0    0  0.00000000000E+00  0.00000000000E+00  0.74505805969E-08  0.10566000000E+00  0.10566000000E+00 0. -1.
     999900   -1    0    0    0    0 -0.00000000000E+00 -0.00000000000E+00 -0.74505805969E-08  0.93827000000E+00  0.93827000000E+00 0.  1.
     999902    2    1    2    0    0 -0.56148285025E-02  0.11889458258E-01  0.19931753110E-01  0.10200519704E+01  0.10197724560E+01 0.  0.
     999903    2    3    3    0    0 -0.48379179327E-01  0.10584174955E+00  0.61351094240E-01  0.13305062620E+00  0.19886966280E-01 0.  0.
         14    1    1    2    0    0  0.56148285025E-02 -0.11889458258E-01 -0.19931753110E-01  0.23878029626E-01  0.00000000000E+00 0.  1.
     999901    1    3    3    0    0  0.42764350825E-01 -0.93952291295E-01 -0.41419341130E-01  0.88700134417E+00  0.88000000000E+00 0.  1.
        -11    1    4    4    0    0 -0.43560746470E-01  0.91048981191E-01  0.45114906659E-01  0.11055800076E+00  0.51100000000E-03 0. -1.
         11    1    4    4    0    0 -0.48184328575E-02  0.14792768362E-01  0.16236187581E-01  0.22492625440E-01  0.51100000000E-03 0.  1.
</event>
<event>
 8    1  0.1150863E+005  0.1043930E+01  0.7957747E-01            NaN
         13   -1    0    0    0    0  0.00000000000E+00  0.00000000000E+00  0.74505805969E-08  0.10566000000E+00  0.10566000000E+00 0.  1.
     999900   -1    0    0    0    0 -0.00000000000E+00 -0.00000000000E+00 -0.74505805969E-08  0.93827000000E+00  0.93827000000E+00 0.  1.
     999902    2    1    2    0    0  0.56430735311E-04 -0.41895868749E-02 -0.24497218432E-01  0.10190770418E+01  0.10187739433E+01 0.  0.
     999903    2    3    3    0    0  0.10564789407E+00 -0.42400921567E-01  0.55724037549E-01  0.12832168076E+00  0.20049182591E-01 0.  0.
         14    1    1    2    0    0 -0.56430735311E-04  0.41895868749E-02  0.24497218432E-01  0.24852958245E-01  0.00000000000E+00 0.  1.
     999901    1    3    3    0    0 -0.10559146333E+00  0.38211334692E-01 -0.80221255981E-01  0.89075536099E+00  0.88000000000E+00 0.  1.
        -11    1    4    4    0    0  0.17761290416E-01 -0.29105376675E-02  0.16050862647E-01  0.24121069202E-01  0.51100000000E-03 0.  1.
         11    1    4    4    0    0  0.87886603649E-01 -0.39490383900E-01  0.39673174902E-01  0.10420061156E+00  0.51100000000E-03 0. -1.
</event>
<event>
 8    1  0.1150863E+005  0.1043930E+01  0.7957747E-01            NaN
         13   -1    0    0    0    0  0.00000000000E+00  0.00000000000E+00  0.74505805969E-08  0.10566000000E+00  0.10566000000E+00 0.  1.
     999900   -1    0    0    0    0 -0.00000000000E+00 -0.00000000000E+00 -0.74505805969E-08  0.93827000000E+00  0.93827000000E+00 0.  1.
     999902    2    1    2    0    0 -0.90328588823E-02 -0.15446293255E-01 -0.12736338791E-01  0.10219665112E+01  0.10217304709E+01 0.  0.
     999903    2    3    3    0    0 -0.19531949709E-01  0.92948981250E-01 -0.89407374372E-01  0.13194504283E+00  0.19869714663E-01 0.  0.
         14    1    1    2    0    0  0.90328588823E-02  0.15446293255E-01  0.12736338791E-01  0.21963488810E-01  0.00000000000E+00 0.  1.
     999901    1    3    3    0    0  0.10499090827E-01 -0.10839527450E+00  0.76671035580E-01  0.89002146836E+00  0.88000000000E+00 0. -1.
        -11    1    4    4    0    0 -0.69120009513E-02  0.53286193419E-01 -0.62295347658E-01  0.82268861832E-01  0.51100000000E-03 0. -1.
         11    1    4    4    0    0 -0.12619948758E-01  0.39662787830E-01 -0.27112026714E-01  0.49676180999E-01  0.51100000000E-03 0.  1.
</event>
<event>
 8    1  0.1150863E+005  0.1043930E+01  0.7957747E-01            NaN
         13   -1    0    0    0    0  0.00000000000E+00  0.00000000000E+00  0.74505805969E-08  0.10566000000E+00  0.10566000000E+00 0.  1.
     999900   -1    0    0    0    0 -0.00000000000E+00 -0.00000000000E+00 -0.74505805969E-08  0.93827000000E+00  0.93827000000E+00 0. -1.
     999902    2    1    2    0    0 -0.52328368368E-02  0.23983095428E-01  0.66636464312E-03  0.10193736263E+01  0.10190778059E+01 0.  0.
     999903    2    3    3    0    0  0.33554119155E-01  0.10372250097E+00 -0.71405800289E-01  0.13198577552E+00  0.20909818355E-01 0.  0.
         14    1    1    2    0    0  0.52328368368E-02 -0.23983095428E-01 -0.66636464312E-03  0.24556373704E-01  0.00000000000E+00 0. -1.
     999901    1    3    3    0    0 -0.38786955992E-01 -0.79739405544E-01  0.72072164933E-01  0.88738785078E+00  0.88000000000E+00 0.  1.
        -11    1    4    4    0    0  0.31653646771E-01  0.90179621237E-01 -0.53767054597E-01  0.10966072552E+00  0.51100000000E-03 0.  1.
         11    1    4    4    0    0  0.19004723847E-02  0.13542879735E-01 -0.17638745692E-01  0.22325049998E-01  0.51100000000E-03 0. -1.
</event>
<event>
 8    1  0.1150863E+005  0.1043930E+01  0.7957747E-01            NaN
         13   -1    0    0    0    0  0.00000000000E+00  0.00000000000E+00  0.74505805969E-08  0.10566000000E+00  0.10566000000E+00 0.  1.
     999900   -1    0    0    0    0 -0.00000000000E+00 -0.00000000000E+00 -0.74505805969E-08  0.93827000000E+00  0.93827000000E+00 0. -1.
     999902    2    1    2    0    0 -0.14509518848E-01  0.12575411809E-01 -0.15323859620E-01  0.10193640115E+01  0.10190679565E+01 0.  0.
     999903    2    3    3    0    0  0.47164582691E-02 -0.96100905890E-01 -0.84560042653E-01  0.12977206609E+00  0.20802865958E-01 0.  0.
         14    1    1    2    0    0  0.14509518848E-01 -0.12575411809E-01  0.15323859620E-01  0.24565988542E-01  0.00000000000E+00 0.  1.
     999901    1    3    3    0    0 -0.19225977117E-01  0.10867631770E+00  0.69236183032E-01  0.88959194537E+00  0.88000000000E+00 0.  1.
        -11    1    4    4    0    0  0.62954012448E-02 -0.23289909330E-01 -0.31415221486E-01  0.39613497895E-01  0.51100000000E-03 0. -1.
         11    1    4    4    0    0 -0.15789429757E-02 -0.72810996561E-01 -0.53144821166E-01  0.90158568194E-01  0.51100000000E-03 0.  1.
</event>
<event>
 8    1  0.1150863E+005  0.1043930E+01  0.7957747E-01            NaN
         13   -1    0    0    0    0  0.00000000000E+00  0.00000000000E+00  0.74505805969E-08  0.10566000000E+00  0.10566000000E+00 0.  1.
     999900   -1    0    0    0    0 -0.00000000000E+00 -0.00000000000E+00 -0.74505805969E-08  0.93827000000E+00  0.93827000000E+00 0. -1.
     999902    2    1    2    0    0 -0.19505081128E-01 -0.88976726471E-02 -0.10708187827E-01  0.10199658172E+01  0.10196842581E+01 0.  0.
     999903    2    3    3    0    0  0.92152026676E-01 -0.42557777999E-01 -0.78269315249E-01  0.12970472164E+00  0.19851161625E-01 0.  0.
         14    1    1    2    0    0  0.19505081128E-01  0.88976726471E-02  0.10708187827E-01  0.23964182750E-01  0.00000000000E+00 0. -1.
     999901    1    3    3    0    0 -0.11165710780E+00  0.33660105352E-01  0.67561127421E-01  0.89026109561E+00  0.88000000000E+00 0. -1.
        -11    1    4    4    0    0  0.72086428213E-02 -0.71756938546E-02 -0.24530792084E-02  0.10475391746E-01  0.51100000000E-03 0. -1.
         11    1    4    4    0    0  0.84943383855E-01 -0.35382084144E-01 -0.75816236040E-01  0.11922932990E+00  0.51100000000E-03 0.  1.
</event>
<event>
 8    1  0.1150863E+005  0.1043930E+01  0.7957747E-01            NaN
         13   -1    0    0    0    0  0.00000000000E+00  0.00000000000E+00  0.74505805969E-08  0.10566000000E+00  0.10566000000E+00 0.  1.
     999900   -1    0    0    0    0 -0.00000000000E+00 -0.00000000000E+00 -0.74505805969E-08  0.93827000000E+00  0.93827000000E+00 0.  1.
     999902    2    1    2    0    0 -0.17750684197E-01 -0.56477790038E-02  0.14804943254E-01  0.10201356616E+01  0.10198581261E+01 0.  0.
     999903    2    3    3    0    0  0.18807418813E-01  0.10758648147E+00  0.68551932782E-01  0.13050246101E+00  0.20073735127E-01 0.  0.
         14    1    1    2    0    0  0.17750684197E-01  0.56477790038E-02 -0.14804943254E-01  0.23794338442E-01  0.00000000000E+00 0. -1.
     999901    1    3    3    0    0 -0.36558103010E-01 -0.11323426048E+00 -0.53746989528E-01  0.88963320055E+00  0.88000000000E+00 0. -1.
        -11    1    4    4    0    0  0.13083696190E-02  0.27100032465E-01  0.80621034509E-02  0.28308695196E-01  0.51100000000E-03 0. -1.
         11    1    4    4    0    0  0.17499049194E-01  0.80486449010E-01  0.60489829331E-01  0.10219376581E+00  0.51100000000E-03 0.  1.
</event>
<event>
 8    1  0.1150863E+005  0.1043930E+01  0.7957747E-01            NaN
         13   -1    0    0    0    0  0.00000000000E+00  0.00000000000E+00  0.74505805969E-08  0.10566000000E+00  0.10566000000E+00 0. -1.
     999900   -1    0    0    0    0 -0.00000000000E+00 -0.00000000000E+00 -0.74505805969E-08  0.93827000000E+00  0.93827000000E+00 0.  1.
     999902    2    1    2    0    0 -0.92163348949E-02  0.15927346466E-01 -0.14445004093E-01  0.10205359978E+01  0.10202678293E+01 0.  0.
     999903    2    3    3    0    0 -0.23558218895E-01  0.50017370252E-01 -0.11983580120E+00  0.13347622562E+00  0.19963881214E-01 0.  0.
         14    1    1    2    0    0  0.92163348949E-02 -0.15927346466E-01  0.14445004093E-01  0.23394002171E-01  0.00000000000E+00 0. -1.
     999901    1    3    3    0    0  0.14341884000E-01 -0.34090023786E-01  0.10539079710E+00  0.88705977221E+00  0.88000000000E+00 0. -1.
        -11    1    4    4    0    0 -0.17926458067E-01  0.47629467897E-01 -0.93703860287E-01  0.10663300926E+00  0.51100000000E-03 0.  1.
         11    1    4    4    0    0 -0.56317608276E-02  0.23879023544E-02 -0.26131940908E-01  0.26843216356E-01  0.51100000000E-03 0. -1.
</event>
<event>
 8    1  0.1150863E+005  0.1043930E+01  0.7957747E-01            NaN
         13   -1    0    0    0    0  0.00000000000E+00  0.00000000000E+00  0.74505805969E-08  0.10566000000E+00  0.10566000000E+00 0.  1.
     999900   -1    0    0    0    0 -0.00000000000E+00 -0.00000000000E+00 -0.74505805969E-08  0.93827000000E+00  0.93827000000E+00 0. -1.
     999902    2    1    2    0    0  0.15687663000E-01  0.23819575116E-01  0.40536562077E-02  0.10151218925E+01  0.10147130380E+01 0.  0.
     999903    2    3    3    0    0  0.11204161219E+00  0.34665895129E-01 -0.48207671062E-01  0.12825495067E+00  0.19243328080E-01 0.  0.
         14    1    1    2    0    0 -0.15687663000E-01 -0.23819575116E-01 -0.40536562077E-02  0.28808107501E-01  0.00000000000E+00 0. -1.
     999901    1    3    3    0    0 -0.96353949187E-01 -0.10846320013E-01  0.52261327269E-01  0.88686694183E+00  0.88000000000E+00 0.  1.
        -11    1    4    4    0    0  0.17295454152E-01  0.10285378414E-01 -0.14379019535E-01  0.24737402193E-01  0.51100000000E-03 0.  1.
         11    1    4    4    0    0  0.94746158035E-01  0.24380516715E-01 -0.33828651527E-01  0.10351754848E+00  0.51100000000E-03 0. -1.
</event>
<event>
 8    1  0.1150863E+005  0.1043930E+01  0.7957747E-01            NaN
         13   -1    0    0    0    0  0.00000000000E+00  0.00000000000E+00  0.74505805969E-08  0.10566000000E+00  0.10566000000E+00 0. -1.
     999900   -1    0    0    0    0 -0.00000000000E+00 -0.00000000000E+00 -0.74505805969E-08  0.93827000000E+00  0.93827000000E+00 0. -1.
     999902    2    1    2    0    0  0.17516829268E-01 -0.14808971942E-01  0.71656536280E-02  0.10198989461E+01  0.10196157947E+01 0.  0.
     999903    2    3    3    0    0 -0.17188923039E-01 -0.70133131397E-01 -0.10567178898E+00  0.13029367395E+00  0.24409000201E-01 0.  0.
         14    1    1    2    0    0 -0.17516829268E-01  0.14808971942E-01 -0.71656536280E-02  0.24031053858E-01  0.00000000000E+00 0.  1.
     999901    1    3    3    0    0  0.34705752307E-01  0.55324159454E-01  0.11283744260E+00  0.88960527219E+00  0.88000000000E+00 0.  1.
        -11    1    4    4    0    0 -0.12518469368E-01 -0.35420615941E-01 -0.74348349637E-01  0.83302282824E-01  0.51100000000E-03 0. -1.
         11    1    4    4    0    0 -0.46704536712E-02 -0.34712515456E-01 -0.31323439339E-01  0.46991391124E-01  0.51100000000E-03 0.  1.
</event>
<event>
 8    1  0.1150863E+005  0.1043930E+01  0.7957747E-01            NaN
         13   -1    0    0    0    0  0.00000000000E+00  0.00000000000E+00  0.74505805969E-08  0.10566000000E+00  0.10566000000E+00 0.  1.
     999900   -1    0    0    0    0 -0.00000000000E+00 -0.00000000000E+00 -0.74505805969E-08  0.93827000000E+00  0.93827000000E+00 0. -1.
     999902    2    1    2    0    0  0.19315208642E-01 -0.13565260166E-01 -0.10610771086E-01  0.10180517846E+01  0.10177228278E+01 0.  0.
     999903    2    3    3    0    0 -0.58033351270E-01 -0.42193117115E-01 -0.10542993375E+00  0.12912376306E+00  0.20232307446E-01 0.  0.
         14    1    1    2    0    0 -0.19315208642E-01  0.13565260166E-01  0.10610771086E-01  0.25878215381E-01  0.00000000000E+00 0.  1.
     999901    1    3    3    0    0  0.77348559911E-01  0.28627856949E-01  0.94819162659E-01  0.88892802156E+00  0.88000000000E+00 0.  1.
        -11    1    4    4    0    0 -0.53232550824E-01 -0.33607080738E-01 -0.99128726424E-01  0.11743042990E+00  0.51100000000E-03 0.  1.
         11    1    4    4    0    0 -0.48008004454E-02 -0.85860363769E-02 -0.63012073210E-02  0.11693333155E-01  0.51100000000E-03 0. -1.
</event>
<event>
 8    1  0.1150863E+005  0.1043930E+01  0.7957747E-01            NaN
         13   -1    0    0    0    0  0.00000000000E+00  0.00000000000E+00  0.74505805969E-08  0.10566000000E+00  0.10566000000E+00 0.  1.
     999900   -1    0    0    0    0 -0.00000000000E+00 -0.00000000000E+00 -0.74505805969E-08  0.93827000000E+00  0.93827000000E+00 0.  1.
     999902    2    1    2    0    0  0.18132065718E-02 -0.22408230196E-01  0.92452806919E-02  0.10196217357E+01  0.10193319342E+01 0.  0.
     999903    2    3    3    0    0 -0.59432492423E-01  0.10672210224E+00 -0.28562081756E-01  0.12729047710E+00  0.21569533709E-01 0.  0.
         14    1    1    2    0    0 -0.18132065718E-02  0.22408230196E-01 -0.92452806919E-02  0.24308264308E-01  0.00000000000E+00 0.  1.
     999901    1    3    3    0    0  0.61245698995E-01 -0.12913033244E+00  0.37807362447E-01  0.89233125859E+00  0.88000000000E+00 0. -1.
        -11    1    4    4    0    0 -0.46923652735E-01  0.63474079178E-01 -0.20436171163E-01  0.81539475877E-01  0.51100000000E-03 0.  1.
         11    1    4    4    0    0 -0.12508839688E-01  0.43248023062E-01 -0.81259105928E-02  0.45751001225E-01  0.51100000000E-03 0. -1.
</event>
<event>
 8    1  0.1150863E+005  0.1043930E+01  0.7957747E-01            NaN
         13   -1    0    0    0    0  0.00000000000E+00  0.00000000000E+00  0.74505805969E-08  0.10566000000E+00  0.10566000000E+00 0. -1.
     999900   -1    0    0    0    0 -0.00000000000E+00 -0.00000000000E+00 -0.74505805969E-08  0.93827000000E+00  0.93827000000E+00 0. -1.
     999902    2    1    2    0    0  0.21331916204E-01  0.37392544055E-02 -0.61339120420E-02  0.10214209452E+01  0.10211728990E+01 0.  0.
     999903    2    3    3    0    0 -0.32872848546E-01 -0.12287099954E+00  0.19709826381E-01  0.13033384968E+00  0.20506789520E-01 0.  0.
         14    1    1    2    0    0 -0.21331916204E-01 -0.37392544055E-02  0.61339120420E-02  0.22509054831E-01  0.00000000000E+00 0. -1.
     999901    1    3    3    0    0  0.54204764750E-01  0.12661025395E+00 -0.25843738423E-01  0.89108709549E+00  0.88000000000E+00 0. -1.
        -11    1    4    4    0    0 -0.27573569039E-01 -0.92212229870E-01  0.63122336550E-02  0.96454665319E-01  0.51100000000E-03 0. -1.
         11    1    4    4    0    0 -0.52992795072E-02 -0.30658769675E-01  0.13397592726E-01  0.33879184363E-01  0.51100000000E-03 0.  1.
</event>
<event>
 8    1  0.1150863E+005  0.1043930E+01  0.7957747E-01            NaN
         13   -1    0    0    0    0  0.00000000000E+00  0.00000000000E+00  0.74505805969E-08  0.10566000000E+00  0.10566000000E+00 0.  1.
     999900   -1    0    0    0    0 -0.00000000000E+00 -0.00000000000E+00 -0.74505805969E-08  0.93827000000E+00  0.93827000000E+00 0.  1.
     999902    2    1    2    0    0 -0.19553084206E-01  0.11308676155E-01  0.73983841930E-02  0.10201614210E+01  0.10198844933E+01 0.  0.
     999903    2    3    3    0    0  0.53809247145E-01  0.14991638410E-01  0.11621132731E+00  0.13042221627E+00  0.19613709511E-01 0.  0.
         14    1    1    2    0    0  0.19553084206E-01 -0.11308676155E-01 -0.73983841930E-02  0.23768578986E-01  0.00000000000E+00 0. -1.
     999901    1    3    3    0    0 -0.73362331351E-01 -0.36829622553E-02 -0.10881294312E+00  0.88973920475E+00  0.88000000000E+00 0.  1.
        -11    1    4    4    0    0  0.22226441612E-01  0.16720804500E-02  0.28053640969E-01  0.35834040414E-01  0.51100000000E-03 0. -1.
         11    1    4    4    0    0  0.31582805533E-01  0.13319557960E-01  0.88157686340E-01  0.94588175854E-01  0.51100000000E-03 0.  1.
</event>
<event>
 8    1  0.1150863E+005  0.1043930E+01  0.7957747E-01            NaN
         13   -1    0    0    0    0  0.00000000000E+00  0.00000000000E+00  0.74505805969E-08  0.10566000000E+00  0.10566000000E+00 0.  1.
     999900   -1    0    0    0    0 -0.00000000000E+00 -0.00000000000E+00 -0.74505805969E-08  0.93827000000E+00  0.93827000000E+00 0.  1.
     999902    2    1    2    0    0 -0.16327150066E-01  0.72469313395E-02  0.13753311644E-01  0.10213856565E+01  0.10211368233E+01 0.  0.
     999903    2    3    3    0    0 -0.91866241604E-01  0.49065080757E-01 -0.79065543516E-01  0.13230171678E+00  0.20139404070E-01 0.  0.
         14    1    1    2    0    0  0.16327150066E-01 -0.72469313395E-02 -0.13753311644E-01  0.22544343510E-01  0.00000000000E+00 0. -1.
     999901    1    3    3    0    0  0.75539091538E-01 -0.41818149418E-01  0.92818855159E-01  0.88908393971E+00  0.88000000000E+00 0.  1.
        -11    1    4    4    0    0 -0.75035946049E-01  0.31028993377E-01 -0.64018907580E-01  0.10340151487E+00  0.51100000000E-03 0.  1.
         11    1    4    4    0    0 -0.16830295555E-01  0.18036087380E-01 -0.15046635936E-01  0.28900201910E-01  0.51100000000E-03 0. -1.
</event>
<event>
 8    1  0.1150863E+005  0.1043930E+01  0.7957747E-01            NaN
         13   -1    0    0    0    0  0.00000000000E+00  0.00000000000E+00  0.74505805969E-08  0.10566000000E+00  0.10566000000E+00 0.  1.
     999900   -1    0    0    0    0 -0.00000000000E+00 -0.00000000000E+00 -0.74505805969E-08  0.93827000000E+00  0.93827000000E+00 0.  1.
     999902    2    1    2    0    0 -0.24046369878E-01 -0.65934583373E-02  0.52107513228E-02  0.10184573966E+01  0.10181387995E+01 0.  0.
     999903    2    3    3    0    0  0.11450045974E+00 -0.49630059690E-01 -0.61607957494E-02  0.12650634120E+00  0.19809110399E-01 0.  0.
         14    1    1    2    0    0  0.24046369878E-01  0.65934583373E-02 -0.52107513228E-02  0.25472603449E-01  0.00000000000E+00 0.  1.
     999901    1    3    3    0    0 -0.13854682962E+00  0.43036601353E-01  0.11371547072E-01  0.89195105535E+00  0.88000000000E+00 0. -1.
        -11    1    4    4    0    0  0.41573002425E-01 -0.28082238377E-01 -0.53506716300E-02  0.50456094288E-01  0.51100000000E-03 0.  1.
         11    1    4    4    0    0  0.72927457315E-01 -0.21547821313E-01 -0.81012411940E-03  0.76050246915E-01  0.51100000000E-03 0. -1.
</event>
<event>
 8    1  0.1150863E+005  0.1043930E+01  0.7957747E-01            NaN
         13   -1    0    0    0    0  0.00000000000E+00  0.00000000000E+00  0.74505805969E-08  0.10566000000E+00  0.10566000000E+00 0. -1.
     999900   -1    0    0    0    0 -0.00000000000E+00 -0.00000000000E+00 -0.74505805969E-08  0.93827000000E+00  0.93827000000E+00 0. -1.
     999902    2    1    2    0    0  0.17632743685E-01 -0.12916191475E-01 -0.84271375922E-02  0.10205044093E+01  0.10202355077E+01 0.  0.
     999903    2    3    3    0    0  0.61418041086E-01 -0.10847358389E+00  0.42312983641E-01  0.13279785450E+00  0.17498211423E-01 0.  0.
         14    1    1    2    0    0 -0.17632743685E-01  0.12916191475E-01  0.84271375922E-02  0.23425590710E-01  0.00000000000E+00 0. -1.
     999901    1    3    3    0    0 -0.43785297400E-01  0.95557392414E-01 -0.50740121233E-01  0.88770655479E+00  0.88000000000E+00 0.  1.
        -11    1    4    4    0    0  0.19783189661E-01 -0.44179965029E-01  0.24036898550E-01  0.54048843800E-01  0.51100000000E-03 0.  1.
         11    1    4    4    0    0  0.41634851425E-01 -0.64293618860E-01  0.18276085090E-01  0.78749010702E-01  0.51100000000E-03 0. -1.
</event>
<event>
 8    1  0.1150863E+005  0.1043930E+01  0.7957747E-01            NaN
         13   -1    0    0    0    0  0.00000000000E+00  0.00000000000E+00  0.74505805969E-08  0.10566000000E+00  0.10566000000E+00 0.  1.
     999900   -1    0    0    0    0 -0.00000000000E+00 -0.00000000000E+00 -0.74505805969E-08  0.93827000000E+00  0.93827000000E+00 0. -1.
     999902    2    1    2    0    0  0.22496355895E-01 -0.31141546214E-03  0.10185094134E-01  0.10192334587E+01  0.10189342100E+01 0.  0.
     999903    2    3    3    0    0  0.11551128719E+00 -0.40455702629E-01 -0.44454605937E-01  0.13173763448E+00  0.19976761631E-01 0.  0.
         14    1    1    2    0    0 -0.22496355895E-01  0.31141546214E-03 -0.10185094134E-01  0.24696541269E-01  0.00000000000E+00 0. -1.
     999901    1    3    3    0    0 -0.93014931299E-01  0.40144287167E-01  0.54639700071E-01  0.88749582425E+00  0.88000000000E+00 0.  1.
        -11    1    4    4    0    0  0.49176897987E-01 -0.17467534268E-01 -0.29521267216E-01  0.59960390159E-01  0.51100000000E-03 0.  1.
         11    1    4    4    0    0  0.66334389207E-01 -0.22988168361E-01 -0.14933338721E-01  0.71777244322E-01  0.51100000000E-03 0. -1.
</event>
<event>
 8    1  0.1150863E+005  0.1043930E+01  0.7957747E-01            NaN
         13   -1    0    0    0    0  0.00000000000E+00  0.00000000000E+00  0.74505805969E-08  0.10566000000E+00  0.10566000000E+00 0. -1.
     999900   -1    0    0    0    0 -0.00000000000E+00 -0.00000000000E+00 -0.74505805969E-08  0.93827000000E+00  0.93827000000E+00 0.  1.
     999902    2    1    2    0    0  0.24241415803E-01 -0.49462044152E-02  0.17317555083E-02  0.10191285856E+01  0.10188267585E+01 0.  0.
     999903    2    3    3    0    0 -0.27231897973E-01 -0.12410471551E+00 -0.14832075235E-01  0.12945301931E+00  0.19862957289E-01 0.  0.
         14    1    1    2    0    0 -0.24241415803E-01  0.49462044152E-02 -0.17317555083E-02  0.24801414383E-01  0.00000000000E+00 0. -1.
     999901    1    3    3    0    0  0.51473313776E-01  0.11915851110E+00  0.16563830743E-01  0.88967556631E+00  0.88000000000E+00 0. -1.
        -11    1    4    4    0    0 -0.26558382026E-02 -0.98418716423E-02 -0.68734337595E-02  0.12305329196E-01  0.51100000000E-03 0.  1.
         11    1    4    4    0    0 -0.24576059771E-01 -0.11426284387E+00 -0.79586414754E-02  0.11714769011E+00  0.51100000000E-03 0. -1.
</event>
<event>
 8    1  0.1150863E+005  0.1043930E+01  0.7957747E-01            NaN
         13   -1    0    0    0    0  0.00000000000E+00  0.00000000000E+00  0.74505805969E-08  0.10566000000E+00  0.10566000000E+00 0. -1.
     999900   -1    0    0    0    0 -0.00000000000E+00 -0.00000000000E+00 -0.74505805969E-08  0.93827000000E+00  0.93827000000E+00 0.  1.
     999902    2    1    2    0    0  0.16136894445E-02  0.23489025401E-01 -0.46968677946E-02  0.10199216915E+01  0.10196390822E+01 0.  0.
     999903    2    3    3    0    0 -0.82657403401E-01  0.91802874584E-01  0.41861597918E-01  0.13203876581E+00  0.20538456055E-01 0.  0.
         14    1    1    2    0    0 -0.16136894445E-02 -0.23489025401E-01  0.46968677946E-02  0.24008308457E-01  0.00000000000E+00 0. -1.
     999901    1    3    3    0    0  0.84271092846E-01 -0.68313849184E-01 -0.46558465713E-01  0.88788292573E+00  0.88000000000E+00 0. -1.
        -11    1    4    4    0    0 -0.20666993395E-01  0.32562871156E-01  0.57451294921E-02  0.38996574565E-01  0.51100000000E-03 0.  1.
         11    1    4    4    0    0 -0.61990410006E-01  0.59240003428E-01  0.36116468426E-01  0.93042191244E-01  0.51100000000E-03 0. -1.
</event>
<event>
 8    1  0.1150863E+005  0.1043930E+01  0.7957747E-01            NaN
         13   -1    0    0    0    0  0.00000000000E+00  0.00000000000E+00  0.74505805969E-08  0.10566000000E+00  0.10566000000E+00 0.  1.
     999900   -1    0    0    0    0 -0.00000000000E+00 -0.00000000000E+00 -0.74505805969E-08  0.93827000000E+00  0.93827000000E+00 0.  1.
     999902    2    1    2    0    0  0.60014515580E-02 -0.22651546929E-01  0.25858561200E-03  0.10204954771E+01  0.10202263679E+01 0.  0.
     999903    2    3    3    0    0  0.17282054230E-01  0.62913987520E-01 -0.10993149621E+00  0.12943399387E+00  0.20282644934E-01 0.  0.
         14    1    1    2    0    0 -0.60014515580E-02  0.22651546929E-01 -0.25858561200E-03  0.23434522944E-01  0.00000000000E+00 0. -1.
     999901    1    3    3    0    0 -0.11280602672E-01 -0.85565534450E-01  0.11019008183E+00  0.89106148318E+00  0.88000000000E+00 0. -1.
        -11    1    4    4    0    0 -0.32974892012E-02  0.66825207997E-02 -0.20387328474E-01  0.21712526398E-01  0.51100000000E-03 0. -1.
         11    1    4    4    0    0  0.20579543431E-01  0.56231466721E-01 -0.89544167740E-01  0.10772146747E+00  0.51100000000E-03 0.  1.
</event>
<event>
 8    1  0.1150863E+005  0.1043930E+01  0.7957747E-01            NaN
         13   -1    0    0    0    0  0.00000000000E+00  0.00000000000E+00  0.74505805969E-08  0.10566000000E+00  0.10566000000E+00 0.  1.
     999900   -1    0    0    0    0 -0.00000000000E+00 -0.00000000000E+00 -0.74505805969E-08  0.93827000000E+00  0.93827000000E+00 0.  1.
     999902    2    1    2    0    0  0.15519576113E-01 -0.16729059846E-01  0.74418738417E-02  0.10199279132E+01  0.10196454520E+01 0.  0.
     999903    2    3    3    0    0  0.44175188621E-01 -0.89512931527E-01 -0.83563586435E-01  0.13178342610E+00  0.20493565254E-01 0.  0.
         14    1    1    2    0    0 -0.15519576113E-01  0.16729059846E-01 -0.74418738417E-02  0.24002086833E-01  0.00000000000E+00 0. -1.
     999901    1    3    3    0    0 -0.28655612507E-01  0.72783871681E-01  0.91005460277E-01  0.88814448707E+00  0.88000000000E+00 0.  1.
        -11    1    4    4    0    0  0.36374573818E-01 -0.56876555449E-01 -0.47692084594E-01  0.82661044235E-01  0.51100000000E-03 0.  1.
         11    1    4    4    0    0  0.78006148026E-02 -0.32636376078E-01 -0.35871501842E-01  0.49122381866E-01  0.51100000000E-03 0. -1.
</event>
<event>
 8    1  0.1150863E+005  0.1043930E+01  0.7957747E-01            NaN
         13   -1    0    0    0    0  0.00000000000E+00  0.00000000000E+00  0.74505805969E-08  0.10566000000E+00  0.10566000000E+00 0.  1.
     999900   -1    0    0    0    0 -0.00000000000E+00 -0.00000000000E+00 -0.74505805969E-08  0.93827000000E+00  0.93827000000E+00 0. -1.
     999902    2    1    2    0    0 -0.16816306414E-01 -0.14858957533E-01  0.69316220666E-02  0.10204433194E+01  0.10201729971E+01 0.  0.
     999903    2    3    3    0    0  0.28653740518E-01 -0.95896707076E-01  0.84380413241E-01  0.13216804830E+00  0.18196801349E-01 0.  0.
         14    1    1    2    0    0  0.16816306414E-01  0.14858957533E-01 -0.69316220666E-02  0.23486680584E-01  0.00000000000E+00 0.  1.
     999901    1    3    3    0    0 -0.45470046932E-01  0.81037749543E-01 -0.77448791175E-01  0.88827527111E+00  0.88000000000E+00 0. -1.
        -11    1    4    4    0    0  0.84820746205E-02 -0.41340768219E-01  0.46270164360E-01  0.62627421611E-01  0.51100000000E-03 0.  1.
         11    1    4    4    0    0  0.20171665897E-01 -0.54555938857E-01  0.38110248882E-01  0.69540626690E-01  0.51100000000E-03 0. -1.
</event>
<event>
 8    1  0.1150863E+005  0.1043930E+01  0.7957747E-01            NaN
         13   -1    0    0    0    0  0.00000000000E+00  0.00000000000E+00  0.74505805969E-08  0.10566000000E+00  0.10566000000E+00 0. -1.
     999900   -1    0    0    0    0 -0.00000000000E+00 -0.00000000000E+00 -0.74505805969E-08  0.93827000000E+00  0.93827000000E+00 0. -1.
     999902    2    1    2    0    0  0.10727995523E-01 -0.16674467864E-02  0.20981532397E-01  0.10203059663E+01  0.10200324357E+01 0.  0.
     999903    2    3    3    0    0  0.12127117373E+00  0.28964485460E-01 -0.35299715861E-01  0.13107838664E+00  0.19744227222E-01 0.  0.
         14    1    1    2    0    0 -0.10727995523E-01  0.16674467864E-02 -0.20981532397E-01  0.23624033704E-01  0.00000000000E+00 0.  1.
     999901    1    3    3    0    0 -0.11054317820E+00 -0.30631932246E-01  0.56281248257E-01  0.88922757966E+00  0.88000000000E+00 0.  1.
        -11    1    4    4    0    0  0.86730642086E-01  0.12164388505E-01 -0.20776625956E-01  0.90011698859E-01  0.51100000000E-03 0. -1.
         11    1    4    4    0    0  0.34540531641E-01  0.16800096955E-01 -0.14523089905E-01  0.41066687779E-01  0.51100000000E-03 0.  1.
</event>
<event>
 8    1  0.1150863E+005  0.1043930E+01  0.7957747E-01            NaN
         13   -1    0    0    0    0  0.00000000000E+00  0.00000000000E+00  0.74505805969E-08  0.10566000000E+00  0.10566000000E+00 0.  1.
     999900   -1    0    0    0    0 -0.00000000000E+00 -0.00000000000E+00 -0.74505805969E-08  0.93827000000E+00  0.93827000000E+00 0.  1.
     999902    2    1    2    0    0  0.22664206166E-01 -0.21668525360E-03  0.72755332261E-02  0.10201256605E+01  0.10198478890E+01 0.  0.
     999903    2    3    3    0    0 -0.83340424412E-01  0.65132509187E-01  0.71104971084E-01  0.12906915500E+00  0.20373015621E-01 0.  0.
         14    1    1    2    0    0 -0.22664206166E-01  0.21668525360E-03 -0.72755332261E-02  0.23804339465E-01  0.00000000000E+00 0. -1.
     999901    1    3    3    0    0  0.10600463058E+00 -0.65349194440E-01 -0.63829437858E-01  0.89105650553E+00  0.88000000000E+00 0.  1.
        -11    1    4    4    0    0 -0.92406550449E-02  0.12785844126E-01  0.18014810883E-01  0.23951243138E-01  0.51100000000E-03 0. -1.
         11    1    4    4    0    0 -0.74099769367E-01  0.52346665060E-01  0.53090160201E-01  0.10511791186E+00  0.51100000000E-03 0.  1.
</event>
<event>
 8    1  0.1150863E+005  0.1043930E+01  0.7957747E-01            NaN
         13   -1    0    0    0    0  0.00000000000E+00  0.00000000000E+00  0.74505805969E-08  0.10566000000E+00  0.10566000000E+00 0. -1.
     999900   -1    0    0    0    0 -0.00000000000E+00 -0.00000000000E+00 -0.74505805969E-08  0.93827000000E+00  0.93827000000E+00 0. -1.
     999902    2    1    2    0    0 -0.13084827695E-01  0.56276921299E-02 -0.18776938328E-01  0.10203618637E+01  0.10200896411E+01 0.  0.
     999903    2    3    3    0    0  0.17102717058E-01 -0.62174133341E-01  0.10905717451E+00  0.12803348482E+00  0.18465647470E-01 0.  0.
         14    1    1    2    0    0  0.13084827695E-01 -0.56276921299E-02  0.18776938328E-01  0.23568136275E-01  0.00000000000E+00 0. -1.
     999901    1    3    3    0    0 -0.30187544753E-01  0.67801825471E-01 -0.12783411283E+00  0.89232837891E+00  0.88000000000E+00 0. -1.
        -11    1    4    4    0    0  0.41751743800E-02 -0.18025399784E-01  0.49008095333E-01  0.52387037020E-01  0.51100000000E-03 0. -1.
         11    1    4    4    0    0  0.12927542678E-01 -0.44148733557E-01  0.60049079172E-01  0.75646447800E-01  0.51100000000E-03 0.  1.
</event>
<event>
 8    1  0.1150863E+005  0.1043930E+01  0.7957747E-01            NaN
         13   -1    0    0    0    0  0.00000000000E+00  0.00000000000E+00  0.74505805969E-08  0.10566000000E+00  0.10566000000E+00 0. -1.
     999900   -1    0    0    0    0 -0.00000000000E+00 -0.00000000000E+00 -0.74505805969E-08  0.93827000000E+00  0.93827000000E+00 0.  1.
     999902    2    1    2    0    0 -0.19681830793E-01 -0.12055073142E-01  0.92757534985E-02  0.10190555381E+01  0.10187519084E+01 0.  0.
     999903    2    3    3    0    0  0.11173356244E+00  0.14211232747E-01 -0.54278622413E-01  0.12664359113E+00  0.20151481608E-01 0.  0.
         14    1    1    2    0    0  0.19681830793E-01  0.12055073142E-01 -0.92757534985E-02  0.24874461900E-01  0.00000000000E+00 0.  1.
     999901    1    3    3    0    0 -0.13141539323E+00 -0.26266305889E-01  0.63554375912E-01  0.89241194697E+00  0.88000000000E+00 0.  1.
        -11    1    4    4    0    0  0.98901648969E-01  0.10330874681E-01 -0.40381084943E-01  0.10732733241E+00  0.51100000000E-03 0.  1.
         11    1    4    4    0    0  0.12831913469E-01  0.38803580658E-02 -0.13897537470E-01  0.19316258715E-01  0.51100000000E-03 0. -1.
</event>
<event>
 8    1  0.1150863E+005  0.1043930E+01  0.7957747E-01            NaN
         13   -1    0    0    0    0  0.00000000000E+00  0.00000000000E+00  0.74505805969E-08  0.10566000000E+00  0.10566000000E+00 0.  1.
     999900   -1    0    0    0    0 -0.00000000000E+00 -0.00000000000E+00 -0.74505805969E-08  0.93827000000E+00  0.93827000000E+00 0. -1.
     999902    2    1    2    0    0  0.15836442842E-01  0.17771552779E-01 -0.12629270613E-01  0.10169833956E+01  0.10166263362E+01 0.  0.
     999903    2    3    3    0    0  0.25429743927E-01 -0.11953753033E+00 -0.22504130699E-01  0.12622903636E+00  0.22168461567E-01 0.  0.
         14    1    1    2    0    0 -0.15836442842E-01 -0.17771552779E-01  0.12629270613E-01  0.26946604355E-01  0.00000000000E+00 0.  1.
     999901    1    3    3    0    0 -0.95933010857E-02  0.13730908311E+00  0.98748600862E-02  0.89075435929E+00  0.88000000000E+00 0.  1.
        -11    1    4    4    0    0 -0.16913187716E-02 -0.27923206371E-01 -0.10706781746E-01  0.29957675304E-01  0.51100000000E-03 0.  1.
         11    1    4    4    0    0  0.27121062699E-01 -0.91614323955E-01 -0.11797348953E-01  0.96271361053E-01  0.51100000000E-03 0. -1.
</event>
<event>
 8    1  0.1150863E+005  0.1043930E+01  0.7957747E-01            NaN
         13   -1    0    0    0    0  0.00000000000E+00  0.00000000000E+00  0.74505805969E-08  0.10566000000E+00  0.10566000000E+00 0. -1.
     999900   -1    0    0    0    0 -0.00000000000E+00 -0.00000000000E+00 -0.74505805969E-08  0.93827000000E+00  0.93827000000E+00 0.  1.
     999902    2    1    2    0    0 -0.93513891502E-03 -0.30922101922E-02  0.25020499038E-01  0.10187018090E+01  0.10183893725E+01 0.  0.
     999903    2    3    3    0    0  0.81758546735E-01 -0.83132808694E-01  0.54954983343E-01  0.13070360157E+00  0.21630012123E-01 0.  0.
         14    1    1    2    0    0  0.93513891502E-03  0.30922101922E-02 -0.25020499038E-01  0.25228190993E-01  0.00000000000E+00 0.  1.
     999901    1    3    3    0    0 -0.82693685650E-01  0.80040598502E-01 -0.29934484304E-01  0.88799820743E+00  0.88000000000E+00 0.  1.
        -11    1    4    4    0    0  0.11700626137E-01 -0.47674045293E-02  0.11026205848E-01  0.16777101488E-01  0.51100000000E-03 0. -1.
         11    1    4    4    0    0  0.70057920598E-01 -0.78365404165E-01  0.43928777494E-01  0.11392650008E+00  0.51100000000E-03 0.  1.
</event>
<event>
 8    1  0.1150863E+005  0.1043930E+01  0.7957747E-01            NaN
         13   -1    0    0    0    0  0.00000000000E+00  0.00000000000E+00  0.74505805969E-08  0.10566000000E+00  0.10566000000E+00 0. -1.
     999900   -1    0    0    0    0 -0.00000000000E+00 -0.00000000000E+00 -0.74505805969E-08  0.93827000000E+00  0.93827000000E+00 0. -1.
     999902    2    1    2    0    0  0.10733147971E-01  0.10721897634E-01  0.18107803146E-01  0.10203068739E+01  0.10200333645E+01 0.  0.
     999903    2    3    3    0    0  0.91507084123E-02  0.58986180258E-01  0.11755153852E+00  0.13339030416E+00  0.20285564050E-01 0.  0.
         14    1    1    2    0    0 -0.10733147971E-01 -0.10721897634E-01 -0.18107803146E-01  0.23623126149E-01  0.00000000000E+00 0.  1.
     999901    1    3    3    0    0  0.15824395583E-02 -0.48264282623E-01 -0.99443735374E-01  0.88691656969E+00  0.88000000000E+00 0.  1.
        -11    1    4    4    0    0 -0.77841784830E-03  0.17012423130E-01  0.53667716468E-01  0.56307312020E-01  0.51100000000E-03 0. -1.
         11    1    4    4    0    0  0.99291262606E-02  0.41973757128E-01  0.63883822053E-01  0.77082992138E-01  0.51100000000E-03 0.  1.
</event>
<event>
 8    1  0.1150863E+005  0.1043930E+01  0.7957747E-01            NaN
         13   -1    0    0    0    0  0.00000000000E+00  0.00000000000E+00  0.74505805969E-08  0.10566000000E+00  0.10566000000E+00 0. -1.
     999900   -1    0    0    0    0 -0.00000000000E+00 -0.00000000000E+00 -0.74505805969E-08  0.93827000000E+00  0.93827000000E+00 0. -1.
     999902    2    1    2    0    0  0.21001632826E-02  0.21541966157E-01 -0.99143184741E-02  0.10201232635E+01  0.10198454354E+01 0.  0.
     999903    2    3    3    0    0 -0.93383539886E-01 -0.82220021696E-02 -0.89720982739E-01  0.13086956796E+00  0.16997124251E-01 0.  0.
         14    1    1    2    0    0 -0.21001632826E-02 -0.21541966157E-01  0.99143184741E-02  0.23806736495E-01  0.00000000000E+00 0. -1.
     999901    1    3    3    0    0  0.95483703169E-01  0.29763968327E-01  0.79806664265E-01  0.88925369555E+00  0.88000000000E+00 0. -1.
        -11    1    4    4    0    0 -0.77017823532E-01 -0.66480251225E-03 -0.69104293633E-01  0.10347874962E+00  0.51100000000E-03 0.  1.
         11    1    4    4    0    0 -0.16365716355E-01 -0.75571996574E-02 -0.20616689105E-01  0.27390818336E-01  0.51100000000E-03 0. -1.
</event>
<event>
 8    1  0.1150863E+005  0.1043930E+01  0.7957747E-01            NaN
         13   -1    0    0    0    0  0.00000000000E+00  0.00000000000E+00  0.74505805969E-08  0.10566000000E+00  0.10566000000E+00 0.  1.
     999900   -1    0    0    0    0 -0.00000000000E+00 -0.00000000000E+00 -0.74505805969E-08  0.93827000000E+00  0.93827000000E+00 0. -1.
     999902    2    1    2    0    0  0.20425603184E-01  0.10809569121E-03 -0.10447325961E-01  0.10209873853E+01  0.10207295809E+01 0.  0.
     999903    2    3    3    0    0  0.12331045952E+00  0.35063682110E-01  0.30541964800E-01  0.13335722095E+00  0.20406017155E-01 0.  0.
         14    1    1    2    0    0 -0.20425603184E-01 -0.10809569121E-03  0.10447325961E-01  0.22942614712E-01  0.00000000000E+00 0.  1.
     999901    1    3    3    0    0 -0.10288485633E+00 -0.34955586419E-01 -0.40989290761E-01  0.88763016434E+00  0.88000000000E+00 0. -1.
        -11    1    4    4    0    0  0.39471047951E-01  0.14577109685E-01  0.19389006382E-01  0.46331959192E-01  0.51100000000E-03 0. -1.
         11    1    4    4    0    0  0.83839411567E-01  0.20486572425E-01  0.11152958419E-01  0.87025261758E-01  0.51100000000E-03 0.  1.
</event>
<event>
 8    1  0.1150863E+005  0.1043930E+01  0.7957747E-01            NaN
         13   -1    0    0    0    0  0.00000000000E+00  0.00000000000E+00  0.74505805969E-08  0.10566000000E+00  0.10566000000E+00 0.  1.
     999900   -1    0    0    0    0 -0.00000000000E+00 -0.00000000000E+00 -0.74505805969E-08  0.93827000000E+00  0.93827000000E+00 0. -1.
     999902    2    1    2    0    0  0.11959952670E-01 -0.22117805281E-01  0.13624556164E-01  0.10153316380E+01  0.10149287999E+01 0.  0.
     999903    2    3    3    0    0 -0.42716270325E-01  0.75410718677E-01  0.87622327568E-01  0.12517604906E+00  0.21906956170E-01 0.  0.
         14    1    1    2    0    0 -0.11959952670E-01  0.22117805281E-01 -0.13624556164E-01  0.28598361998E-01  0.00000000000E+00 0. -1.
     999901    1    3    3    0    0  0.54676222996E-01 -0.97528523958E-01 -0.73997771404E-01  0.89015558894E+00  0.88000000000E+00 0. -1.
        -11    1    4    4    0    0 -0.41640135738E-01  0.55234828440E-01  0.67045670107E-01  0.96333639909E-01  0.51100000000E-03 0.  1.
         11    1    4    4    0    0 -0.10761345873E-02  0.20175890237E-01  0.20576657461E-01  0.28842409154E-01  0.51100000000E-03 0. -1.
</event>
<event>
 8    1  0.1150863E+005  0.1043930E+01  0.7957747E-01            NaN
         13   -1    0    0    0    0  0.00000000000E+00  0.00000000000E+00  0.74505805969E-08  0.10566000000E+00  0.10566000000E+00 0. -1.
     999900   -1    0    0    0    0 -0.00000000000E+00 -0.00000000000E+00 -0.74505805969E-08  0.93827000000E+00  0.93827000000E+00 0.  1.
     999902    2    1    2    0    0  0.14960775541E-01 -0.10324063914E-01  0.15582494152E-01  0.10199878776E+01  0.10197068428E+01 0.  0.
     999903    2    3    3    0    0  0.59141674198E-01 -0.80107377357E-01  0.86285051768E-01  0.13329711173E+00  0.20200997588E-01 0.  0.
         14    1    1    2    0    0 -0.14960775541E-01  0.10324063914E-01 -0.15582494152E-01  0.23942122389E-01  0.00000000000E+00 0. -1.
     999901    1    3    3    0    0 -0.44180898657E-01  0.69783313443E-01 -0.70702557616E-01  0.88669076588E+00  0.88000000000E+00 0.  1.
        -11    1    4    4    0    0  0.13168601778E-01 -0.17765458580E-01  0.31202907863E-01  0.38247956435E-01  0.51100000000E-03 0. -1.
         11    1    4    4    0    0  0.45973072420E-01 -0.62341918777E-01  0.55082143905E-01  0.95049155297E-01  0.51100000000E-03 0.  1.
</event>
<event>
 8    1  0.1150863E+005  0.1043930E+01  0.7957747E-01            NaN
         13   -1    0    0    0    0  0.00000000000E+00  0.00000000000E+00  0.74505805969E-08  0.10566000000E+00  0.10566000000E+00 0.  1.
     999900   -1    0    0    0    0 -0.00000000000E+00 -0.00000000000E+00 -0.74505805969E-08  0.93827000000E+00  0.93827000000E+00 0.  1.
     999902    2    1    2    0    0  0.19012645512E-01  0.38297844764E-02  0.14210109821E-01  0.10198868064E+01  0.10196033654E+01 0.  0.
     999903    2    3    3    0    0  0.68105577993E-01  0.73105503987E-01  0.85552323314E-01  0.13292629273E+00  0.19168067426E-01 0.  0.
         14    1    1    2    0    0 -0.19012645512E-01 -0.38297844764E-02 -0.14210109821E-01  0.24043193624E-01  0.00000000000E+00 0. -1.
     999901    1    3    3    0    0 -0.49092932481E-01 -0.69275719510E-01 -0.71342213493E-01  0.88696051364E+00  0.88000000000E+00 0. -1.
        -11    1    4    4    0    0  0.25813721987E-01  0.41596393424E-01  0.42962362610E-01  0.65135504225E-01  0.51100000000E-03 0. -1.
         11    1    4    4    0    0  0.42291856006E-01  0.31509110563E-01  0.42589960704E-01  0.67790788509E-01  0.51100000000E-03 0.  1.
</event>
<event>
 8    1  0.1150863E+005  0.1043930E+01  0.7957747E-01            NaN
         13   -1    0    0    0    0  0.00000000000E+00  0.00000000000E+00  0.74505805969E-08  0.10566000000E+00  0.10566000000E+00 0. -1.
     999900   -1    0    0    0    0 -0.00000000000E+00 -0.00000000000E+00 -0.74505805969E-08  0.93827000000E+00  0.93827000000E+00 0.  1.
     999902    2    1    2    0    0 -0.22443098308E-01  0.33489743921E-02  0.12342424466E-02  0.10212048675E+01  0.10209519821E+01 0.  0.
     999903    2    3    3    0    0 -0.53664519705E-01 -0.11141669258E+00 -0.41902934186E-01  0.13215663967E+00  0.20395133111E-01 0.  0.
         14    1    1    2    0    0  0.22443098308E-01 -0.33489743921E-02 -0.12342424466E-02  0.22725132465E-01  0.00000000000E+00 0. -1.
     999901    1    3    3    0    0  0.31221421397E-01  0.11476566697E+00  0.43137176632E-01  0.88904822787E+00  0.88000000000E+00 0. -1.
        -11    1    4    4    0    0 -0.29099947867E-01 -0.56876777809E-01 -0.32233587428E-01  0.71561442825E-01  0.51100000000E-03 0. -1.
         11    1    4    4    0    0 -0.24564571838E-01 -0.54539914768E-01 -0.96693467579E-02  0.60595196841E-01  0.51100000000E-03 0.  1.
</event>
<event>
 8    1  0.1150863E+005  0.1043930E+01  0.7957747E-01            NaN
         13   -1    0    0    0    0  0.00000000000E+00  0.00000000000E+00  0.74505805969E-08  0.10566000000E+00  0.10566000000E+00 0. -1.
     999900   -1    0    0    0    0 -0.00000000000E+00 -0.00000000000E+00 -0.74505805969E-08  0.93827000000E+00  0.93827000000E+00 0. -1.
     999902    2    1    2    0    0 -0.62973173761E-02  0.13547131037E-01 -0.15860161214E-01  0.10221417995E+01  0.10219095521E+01 0.  0.
     999903    2    3    3    0    0 -0.12423663246E+00  0.38246226963E-01 -0.24259978273E-01  0.13389054888E+00  0.20990898284E-01 0.  0.
         14    1    1    2    0    0  0.62973173761E-02 -0.13547131037E-01  0.15860161214E-01  0.21788200458E-01  0.00000000000E+00 0. -1.
     999901    1    3    3    0    0  0.11793931508E+00 -0.24699095927E-01  0.83998170589E-02  0.88825125067E+00  0.88000000000E+00 0.  1.
        -11    1    4    4    0    0 -0.37538379994E-01  0.81547379294E-02 -0.16431927913E-01  0.41783957438E-01  0.51100000000E-03 0. -1.
         11    1    4    4    0    0 -0.86698252466E-01  0.30091489034E-01 -0.78280503602E-02  0.92106591438E-01  0.51100000000E-03 0.  1.
</event>
<event>
 8    1  0.1150863E+005  0.1043930E+01  0.7957747E-01            NaN
         13   -1    0    0    0    0  0.00000000000E+00  0.00000000000E+00  0.74505805969E-08  0.10566000000E+00  0.10566000000E+00 0. -1.
     999900   -1    0    0    0    0 -0.00000000000E+00 -0.00000000000E+00 -0.74505805969E-08  0.93827000000E+00  0.93827000000E+00 0. -1.
     999902    2    1    2    0    0  0.30243026401E-02 -0.11535011783E-01  0.20106272727E-01  0.10205534069E+01  0.10202856420E+01 0.  0.
     999903    2    3    3    0    0 -0.90264203902E-01 -0.89224318223E-01 -0.25809002724E-01  0.13103298198E+00  0.19872903050E-01 0.  0.
         14    1    1    2    0    0 -0.30243026401E-02  0.11535011783E-01 -0.20106272727E-01  0.23376593128E-01  0.00000000000E+00 0.  1.
     999901    1    3    3    0    0  0.93288506542E-01  0.77689306440E-01  0.45915275451E-01  0.88952042490E+00  0.88000000000E+00 0. -1.
        -11    1    4    4    0    0 -0.22417836561E-01 -0.34782762822E-01 -0.10640553384E-01  0.42730346159E-01  0.51100000000E-03 0. -1.
         11    1    4    4    0    0 -0.67846367341E-01 -0.54441555401E-01 -0.15168449340E-01  0.88302635817E-01  0.51100000000E-03 0.  1.
</event>
<event>
 8    1  0.1150863E+005  0.1043930E+01  0.7957747E-01            NaN
         13   -1    0    0    0    0  0.00000000000E+00  0.00000000000E+00  0.74505805969E-08  0.10566000000E+00  0.10566000000E+00 0. -1.
     999900   -1    0    0    0    0 -0.00000000000E+00 -0.00000000000E+00 -0.74505805969E-08  0.93827000000E+00  0.93827000000E+00 0. -1.
     999902    2    1    2    0    0  0.19057797958E-01  0.60698813169E-02 -0.14265170756E-01  0.10193629851E+01  0.10190669052E+01 0.  0.
     999903    2    3    3    0    0  0.38379890074E-01 -0.31996993402E-01  0.11683134523E+00  0.12862804887E+00  0.19969681519E-01 0.  0.
         14    1    1    2    0    0 -0.19057797958E-01 -0.60698813169E-02  0.14265170756E-01  0.24567014855E-01  0.00000000000E+00 0.  1.
     999901    1    3    3    0    0 -0.19322092116E-01  0.38066874719E-01 -0.13109651598E+00  0.89073493627E+00  0.88000000000E+00 0. -1.
        -11    1    4    4    0    0  0.30604298832E-01 -0.16638693169E-01  0.61544906545E-01  0.70721325356E-01  0.51100000000E-03 0. -1.
         11    1    4    4    0    0  0.77755912425E-02 -0.15358300233E-01  0.55286438682E-01  0.57906723516E-01  0.51100000000E-03 0.  1.
</event>
<event>
 8    1  0.1150863E+005  0.1043930E+01  0.7957747E-01            NaN
         13   -1    0    0    0    0  0.00000000000E+00  0.00000000000E+00  0.74505805969E-08  0.10566000000E+00  0.10566000000E+00 0.  1.
     999900   -1    0    0    0    0 -0.00000000000E+00 -0.00000000000E+00 -0.74505805969E-08  0.93827000000E+00  0.93827000000E+00 0.  1.
     999902    2    1    2    0    0  0.17876808959E-01  0.15156784513E-01  0.59920376771E-02  0.10197388254E+01  0.10194518424E+01 0.  0.
     999903    2    3    3    0    0  0.10505910681E+00  0.73880950607E-01 -0.24301692427E-01  0.13296546602E+00  0.24360462066E-01 0.  0.
         14    1    1    2    0    0 -0.17876808959E-01 -0.15156784513E-01 -0.59920376771E-02  0.24191174648E-01  0.00000000000E+00 0.  1.
     999901    1    3    3    0    0 -0.87182297851E-01 -0.58724166094E-01  0.30293730104E-01  0.88677335933E+00  0.88000000000E+00 0. -1.
        -11    1    4    4    0    0  0.99896394694E-01  0.75558932280E-01 -0.23735021993E-01  0.12748354525E+00  0.51100000000E-03 0.  1.
         11    1    4    4    0    0  0.51627121160E-02 -0.16779816733E-02 -0.56667043376E-03  0.54819207646E-02  0.51100000000E-03 0. -1.
</event>
<event>
 8    1  0.1150863E+005  0.1043930E+01  0.7957747E-01            NaN
         13   -1    0    0    0    0  0.00000000000E+00  0.00000000000E+00  0.74505805969E-08  0.10566000000E+00  0.10566000000E+00 0. -1.
     999900   -1    0    0    0    0 -0.00000000000E+00 -0.00000000000E+00 -0.74505805969E-08  0.93827000000E+00  0.93827000000E+00 0.  1.
     999902    2    1    2    0    0 -0.12507223140E-01  0.68241241276E-02 -0.20938424101E-01  0.10186037902E+01  0.10182888905E+01 0.  0.
     999903    2    3    3    0    0 -0.81946097099E-01  0.91898849012E-01 -0.41707798507E-01  0.13153511585E+00  0.20034594251E-01 0.  0.
         14    1    1    2    0    0  0.12507223140E-01 -0.68241241276E-02  0.20938424101E-01  0.25326209835E-01  0.00000000000E+00 0. -1.
     999901    1    3    3    0    0  0.69438873958E-01 -0.85074724885E-01  0.20769374406E-01  0.88706867431E+00  0.88000000000E+00 0. -1.
        -11    1    4    4    0    0 -0.31782353733E-01  0.44591419814E-01 -0.26890067873E-01  0.61006963545E-01  0.51100000000E-03 0. -1.
         11    1    4    4    0    0 -0.50163743366E-01  0.47307429199E-01 -0.14817730634E-01  0.70528152308E-01  0.51100000000E-03 0.  1.
</event>
<event>
 8    1  0.1150863E+005  0.1043930E+01  0.7957747E-01            NaN
         13   -1    0    0    0    0  0.00000000000E+00  0.00000000000E+00  0.74505805969E-08  0.10566000000E+00  0.10566000000E+00 0.  1.
     999900   -1    0    0    0    0 -0.00000000000E+00 -0.00000000000E+00 -0.74505805969E-08  0.93827000000E+00  0.93827000000E+00 0. -1.
     999902    2    1    2    0    0 -0.21754793501E-01  0.81900528999E-02 -0.42542729386E-02  0.10202985200E+01  0.10200248150E+01 0.  0.
     999903    2    3    3    0    0  0.83410946309E-01 -0.68419361060E-01  0.65735250141E-01  0.12798278642E+00  0.20490865662E-01 0.  0.
         14    1    1    2    0    0  0.21754793501E-01 -0.81900528999E-02  0.42542729386E-02  0.23631479958E-01  0.00000000000E+00 0. -1.
     999901    1    3    3    0    0 -0.10516573981E+00  0.76609413959E-01 -0.69989523080E-01  0.89231573363E+00  0.88000000000E+00 0. -1.
        -11    1    4    4    0    0  0.58212418879E-01 -0.40209138909E-01  0.51725657829E-01  0.87642828357E-01  0.51100000000E-03 0. -1.
         11    1    4    4    0    0  0.25198527430E-01 -0.28210222150E-01  0.14009592312E-01  0.40339958058E-01  0.51100000000E-03 0.  1.
</event>
<event>
 8    1  0.1150863E+005  0.1043930E+01  0.7957747E-01            NaN
         13   -1    0    0    0    0  0.00000000000E+00  0.00000000000E+00  0.74505805969E-08  0.10566000000E+00  0.10566000000E+00 0. -1.
     999900   -1    0    0    0    0 -0.00000000000E+00 -0.00000000000E+00 -0.74505805969E-08  0.93827000000E+00  0.93827000000E+00 0. -1.
     999902    2    1    2    0    0  0.94970166449E-02  0.19729478345E-01 -0.10206972226E-01  0.10197716076E+01  0.10194854113E+01 0.  0.
     999903    2    3    3    0    0  0.35262856523E-01  0.12558807943E+00  0.14156639101E-01  0.13271833554E+00  0.19947716995E-01 0.  0.
         14    1    1    2    0    0 -0.94970166449E-02 -0.19729478345E-01  0.10206972226E-01  0.24158392391E-01  0.00000000000E+00 0. -1.
     999901    1    3    3    0    0 -0.25765839878E-01 -0.10585860108E+00 -0.24363611326E-01  0.88705327207E+00  0.88000000000E+00 0. -1.
        -11    1    4    4    0    0  0.10528085508E-01  0.13356660810E-01  0.26113667615E-02  0.17213986459E-01  0.51100000000E-03 0. -1.
         11    1    4    4    0    0  0.24734771016E-01  0.11223141862E+00  0.11545272339E-01  0.11550434908E+00  0.51100000000E-03 0.  1.
</event>
<event>
 8    1  0.1150863E+005  0.1043930E+01  0.7957747E-01            NaN
         13   -1    0    0    0    0  0.00000000000E+00  0.00000000000E+00  0.74505805969E-08  0.10566000000E+00  0.10566000000E+00 0.  1.
     999900   -1    0    0    0    0 -0.00000000000E+00 -0.00000000000E+00 -0.74505805969E-08  0.93827000000E+00  0.93827000000E+00 0. -1.
     999902    2    1    2    0    0 -0.19889464278E-01  0.23709287058E-01  0.14050194021E-01  0.10099428107E+01  0.10093707703E+01 0.  0.
     999903    2    3    3    0    0 -0.86317386827E-01  0.46054368965E-01  0.74603430449E-01  0.12508199342E+00  0.22541895962E-01 0.  0.
         14    1    1    2    0    0  0.19889464278E-01 -0.23709287058E-01 -0.14050194021E-01  0.33987189265E-01  0.00000000000E+00 0. -1.
     999901    1    3    3    0    0  0.66427922549E-01 -0.22345081907E-01 -0.60553236428E-01  0.88486081732E+00  0.88000000000E+00 0.  1.
        -11    1    4    4    0    0 -0.15672888002E-01  0.42279594124E-02  0.22842009127E-01  0.28027371641E-01  0.51100000000E-03 0.  1.
         11    1    4    4    0    0 -0.70644498825E-01  0.41826409553E-01  0.51761421321E-01  0.97054621778E-01  0.51100000000E-03 0. -1.
</event>
<event>
 8    1  0.1150863E+005  0.1043930E+01  0.7957747E-01            NaN
         13   -1    0    0    0    0  0.00000000000E+00  0.00000000000E+00  0.74505805969E-08  0.10566000000E+00  0.10566000000E+00 0. -1.
     999900   -1    0    0    0    0 -0.00000000000E+00 -0.00000000000E+00 -0.74505805969E-08  0.93827000000E+00  0.93827000000E+00 0. -1.
     999902    2    1    2    0    0  0.18570099953E-01 -0.12161349045E-01 -0.63360511392E-02  0.10208455341E+01  0.10205844952E+01 0.  0.
     999903    2    3    3    0    0  0.11655333665E+00 -0.22235853038E-01 -0.58459625238E-01  0.13381730607E+00  0.20259076420E-01 0.  0.
         14    1    1    2    0    0 -0.18570099953E-01  0.12161349045E-01  0.63360511392E-02  0.23084465922E-01  0.00000000000E+00 0.  1.
     999901    1    3    3    0    0 -0.97983236694E-01  0.10074503993E-01  0.52123574099E-01  0.88702822801E+00  0.88000000000E+00 0. -1.
        -11    1    4    4    0    0  0.48817634814E-01 -0.56147336028E-02 -0.13970893739E-01  0.51089467556E-01  0.51100000000E-03 0.  1.
         11    1    4    4    0    0  0.67735701833E-01 -0.16621119435E-01 -0.44488731499E-01  0.82727838515E-01  0.51100000000E-03 0. -1.
</event>
<event>
 8    1  0.1150863E+005  0.1043930E+01  0.7957747E-01            NaN
         13   -1    0    0    0    0  0.00000000000E+00  0.00000000000E+00  0.74505805969E-08  0.10566000000E+00  0.10566000000E+00 0. -1.
     999900   -1    0    0    0    0 -0.00000000000E+00 -0.00000000000E+00 -0.74505805969E-08  0.93827000000E+00  0.93827000000E+00 0. -1.
     999902    2    1    2    0    0 -0.36286996269E-02  0.14807285893E-01  0.67770316835E-02  0.10272461355E+01  0.10271106423E+01 0.  0.
     999903    2    3    3    0    0  0.76776298385E-01 -0.92201463851E-01 -0.57906566229E-01  0.13477775842E+00  0.20400093707E-01 0.  0.
         14    1    1    2    0    0  0.36286996269E-02 -0.14807285893E-01 -0.67770316835E-02  0.16683864509E-01  0.00000000000E+00 0.  1.
     999901    1    3    3    0    0 -0.80404998012E-01  0.10700874974E+00  0.64683597913E-01  0.89246837707E+00  0.88000000000E+00 0.  1.
        -11    1    4    4    0    0  0.54649507779E-01 -0.50108818413E-01 -0.35490912232E-01  0.82202970477E-01  0.51100000000E-03 0.  1.
         11    1    4    4    0    0  0.22126790606E-01 -0.42092645438E-01 -0.22415653997E-01  0.52574787946E-01  0.51100000000E-03 0. -1.
</event>
<event>
 8    1  0.1150863E+005  0.1043930E+01  0.7957747E-01            NaN
         13   -1    0    0    0    0  0.00000000000E+00  0.00000000000E+00  0.74505805969E-08  0.10566000000E+00  0.10566000000E+00 0.  1.
     999900   -1    0    0    0    0 -0.00000000000E+00 -0.00000000000E+00 -0.74505805969E-08  0.93827000000E+00  0.93827000000E+00 0. -1.
     999902    2    1    2    0    0 -0.66444777618E-02 -0.21997672844E-01 -0.45652079263E-02  0.10205016450E+01  0.10202326791E+01 0.  0.
     999903    2    3    3    0    0  0.12198688575E-01 -0.45243272137E-01  0.12086288703E+00  0.13110430419E+00  0.19614776069E-01 0.  0.
         14    1    1    2    0    0  0.66444777618E-02  0.21997672844E-01  0.45652079263E-02  0.23428355015E-01  0.00000000000E+00 0. -1.
     999901    1    3    3    0    0 -0.18843166337E-01  0.23245599293E-01 -0.12542809496E+00  0.88939734079E+00  0.88000000000E+00 0. -1.
        -11    1    4    4    0    0  0.75802912074E-02 -0.29190924247E-02  0.16803737628E-01  0.18671064101E-01  0.51100000000E-03 0. -1.
         11    1    4    4    0    0  0.46183973674E-02 -0.42324179713E-01  0.10405914940E+00  0.11243324009E+00  0.51100000000E-03 0.  1.
</event>
<event>
 8    1  0.1150863E+005  0.1043930E+01  0.7957747E-01            NaN
         13   -1    0    0    0    0  0.00000000000E+00  0.00000000000E+00  0.74505805969E-08  0.10566000000E+00  0.10566000000E+00 0. -1.
     999900   -1    0    0    0    0 -0.00000000000E+00 -0.00000000000E+00 -0.74505805969E-08  0.93827000000E+00  0.93827000000E+00 0.  1.
     999902    2    1    2    0    0  0.18949005372E-01 -0.12849516492E-02 -0.14041696620E-01  0.10203104075E+01  0.10200369810E+01 0.  0.
     999903    2    3    3    0    0  0.69870661798E-03  0.11470827043E+00  0.57230880778E-01  0.12965487294E+00  0.19404557867E-01 0.  0.
         14    1    1    2    0    0 -0.18949005372E-01  0.12849516492E-02  0.14041696620E-01  0.23619592488E-01  0.00000000000E+00 0. -1.
     999901    1    3    3    0    0  0.18250298754E-01 -0.11599322208E+00 -0.71272577397E-01  0.89065553457E+00  0.88000000000E+00 0.  1.
        -11    1    4    4    0    0  0.96292512894E-02  0.51655001037E-01  0.23097274980E-01  0.57399536976E-01  0.51100000000E-03 0.  1.
         11    1    4    4    0    0 -0.89305446715E-02  0.63053269396E-01  0.34133605797E-01  0.72255335965E-01  0.51100000000E-03 0. -1.
</event>
<event>
 8    1  0.1150863E+005  0.1043930E+01  0.7957747E-01            NaN
         13   -1    0    0    0    0  0.00000000000E+00  0.00000000000E+00  0.74505805969E-08  0.10566000000E+00  0.10566000000E+00 0. -1.
     999900   -1    0    0    0    0 -0.00000000000E+00 -0.00000000000E+00 -0.74505805969E-08  0.93827000000E+00  0.93827000000E+00 0.  1.
     999902    2    1    2    0    0 -0.52149936170E-02 -0.14708926373E-01 -0.17108530893E-01  0.10207729168E+01  0.10205102141E+01 0.  0.
     999903    2    3    3    0    0  0.11015605183E+00 -0.67141701743E-01 -0.17807127922E-01  0.13169465134E+00  0.19596518036E-01 0.  0.
         14    1    1    2    0    0  0.52149936170E-02  0.14708926373E-01  0.17108530893E-01  0.23157083210E-01  0.00000000000E+00 0. -1.
     999901    1    3    3    0    0 -0.11537104545E+00  0.52432775370E-01  0.69859702916E-03  0.88907826545E+00  0.88000000000E+00 0.  1.
        -11    1    4    4    0    0  0.94241859586E-01 -0.51406048486E-01 -0.93261288482E-02  0.10775596373E+00  0.51100000000E-03 0.  1.
         11    1    4    4    0    0  0.15914192243E-01 -0.15735653257E-01 -0.84809990736E-02  0.23938687609E-01  0.51100000000E-03 0. -1.
</event>
<event>
 8    1  0.1150863E+005  0.1043930E+01  0.7957747E-01            NaN
         13   -1    0    0    0    0  0.00000000000E+00  0.00000000000E+00  0.74505805969E-08  0.10566000000E+00  0.10566000000E+00 0. -1.
     999900   -1    0    0    0    0 -0.00000000000E+00 -0.00000000000E+00 -0.74505805969E-08  0.93827000000E+00  0.93827000000E+00 0.  1.
     999902    2    1    2    0    0  0.22822562499E-01 -0.11651446373E-02 -0.11493613118E-02  0.10210488297E+01  0.10207924200E+01 0.  0.
     999903    2    3    3    0    0 -0.92065658824E-01 -0.71051107258E-01 -0.52809656714E-01  0.12933579446E+00  0.20360317005E-01 0.  0.
         14    1    1    2    0    0 -0.22822562499E-01  0.11651446373E-02  0.11493613118E-02  0.22881170260E-01  0.00000000000E+00 0. -1.
     999901    1    3    3    0    0  0.11488822132E+00  0.69885962621E-01  0.51660295402E-01  0.89171303528E+00  0.88000000000E+00 0.  1.
        -11    1    4    4    0    0 -0.11466754097E-01 -0.10904134748E-01 -0.19045196225E-03  0.15833003413E-01  0.51100000000E-03 0. -1.
         11    1    4    4    0    0 -0.80598904727E-01 -0.60146972510E-01 -0.52619204751E-01  0.11350279104E+00  0.51100000000E-03 0.  1.
</event>
<event>
 8    1  0.1150863E+005  0.1043930E+01  0.7957747E-01            NaN
         13   -1    0    0    0    0  0.00000000000E+00  0.00000000000E+00  0.74505805969E-08  0.10566000000E+00  0.10566000000E+00 0.  1.
     999900   -1    0    0    0    0 -0.00000000000E+00 -0.00000000000E+00 -0.74505805969E-08  0.93827000000E+00  0.93827000000E+00 0. -1.
     999902    2    1    2    0    0 -0.11536227209E-02  0.17169285227E-01  0.17954354837E-01  0.10190608613E+01  0.10187573632E+01 0.  0.
     999903    2    3    3    0    0 -0.40325569063E-01  0.85892390231E-01  0.90329567756E-01  0.13255340057E+00  0.20182144864E-01 0.  0.
         14    1    1    2    0    0  0.11536227209E-02 -0.17169285227E-01 -0.17954354837E-01  0.24869138670E-01  0.00000000000E+00 0. -1.
     999901    1    3    3    0    0  0.39171946342E-01 -0.68723105004E-01 -0.72375212919E-01  0.88650746076E+00  0.88000000000E+00 0. -1.
        -11    1    4    4    0    0 -0.14958378208E-01  0.30339226396E-01  0.45942161961E-01  0.57054054225E-01  0.51100000000E-03 0. -1.
         11    1    4    4    0    0 -0.25367190855E-01  0.55553163835E-01  0.44387405795E-01  0.75499346343E-01  0.51100000000E-03 0.  1.
</event>
<event>
 8    1  0.1150863E+005  0.1043930E+01  0.7957747E-01            NaN
         13   -1    0    0    0    0  0.00000000000E+00  0.00000000000E+00  0.74505805969E-08  0.10566000000E+00  0.10566000000E+00 0. -1.
     999900   -1    0    0    0    0 -0.00000000000E+00 -0.00000000000E+00 -0.74505805969E-08  0.93827000000E+00  0.93827000000E+00 0.  1.
     999902    2    1    2    0    0  0.20968589766E-02  0.17662934740E-01  0.14584863264E-01  0.10209279497E+01  0.10206687926E+01 0.  0.
     999903    2    3    3    0    0 -0.41444909830E-01 -0.96705353912E-01  0.74906297921E-01  0.13041424035E+00  0.18091837698E-01 0.  0.
         14    1    1    2    0    0 -0.20968589766E-02 -0.17662934740E-01 -0.14584863264E-01  0.23002050292E-01  0.00000000000E+00 0.  1.
     999901    1    3    3    0    0  0.43541768806E-01  0.11436828865E+00 -0.60321434657E-01  0.89051370936E+00  0.88000000000E+00 0.  1.
        -11    1    4    4    0    0 -0.10267327142E-01 -0.42580612063E-01  0.24804203562E-01  0.50339211015E-01  0.51100000000E-03 0. -1.
         11    1    4    4    0    0 -0.31177582688E-01 -0.54124741849E-01  0.50102094359E-01  0.80075029332E-01  0.51100000000E-03 0.  1.
</event>
<event>
 8    1  0.1150863E+005  0.1043930E+01  0.7957747E-01            NaN
         13   -1    0    0    0    0  0.00000000000E+00  0.00000000000E+00  0.74505805969E-08  0.10566000000E+00  0.10566000000E+00 0. -1.
     999900   -1    0    0    0    0 -0.00000000000E+00 -0.00000000000E+00 -0.74505805969E-08  0.93827000000E+00  0.93827000000E+00 0.  1.
     999902    2    1    2    0    0  0.15017484002E-01  0.12704314065E-01  0.11610078571E-01  0.10210888453E+01  0.10208333418E+01 0.  0.
     999903    2    3    3    0    0 -0.11150071663E+00 -0.12516652111E-01  0.63026790928E-01  0.13019792579E+00  0.19749610551E-01 0.  0.
         14    1    1    2    0    0 -0.15017484002E-01 -0.12704314065E-01 -0.11610078571E-01  0.22841154657E-01  0.00000000000E+00 0.  1.
     999901    1    3    3    0    0  0.12651820063E+00  0.25220966177E-01 -0.51416712357E-01  0.89089091955E+00  0.88000000000E+00 0.  1.
        -11    1    4    4    0    0 -0.63854547979E-01 -0.10569525016E-01  0.25711964896E-01  0.69645419207E-01  0.51100000000E-03 0. -1.
         11    1    4    4    0    0 -0.47646168652E-01 -0.19471270957E-02  0.37314826032E-01  0.60552506587E-01  0.51100000000E-03 0.  1.
</event>
<event>
 8    1  0.1150863E+005  0.1043930E+01  0.7957747E-01            NaN
         13   -1    0    0    0    0  0.00000000000E+00  0.00000000000E+00  0.74505805969E-08  0.10566000000E+00  0.10566000000E+00 0.  1.
     999900   -1    0    0    0    0 -0.00000000000E+00 -0.00000000000E+00 -0.74505805969E-08  0.93827000000E+00  0.93827000000E+00 0. -1.
     999902    2    1    2    0    0 -0.12803169783E-01  0.12518833718E-01 -0.16067280481E-01  0.10198717404E+01  0.10195879398E+01 0.  0.
     999903    2    3    3    0    0  0.38396715327E-01 -0.11696008970E-01 -0.12319336894E+00  0.13156785900E+00  0.22855874470E-01 0.  0.
         14    1    1    2    0    0  0.12803169783E-01 -0.12518833718E-01  0.16067280481E-01  0.24058259626E-01  0.00000000000E+00 0.  1.
     999901    1    3    3    0    0 -0.51199885111E-01  0.24214842688E-01  0.10712608845E+00  0.88830388138E+00  0.88000000000E+00 0.  1.
        -11    1    4    4    0    0  0.91487475768E-02 -0.70303979127E-02 -0.67556777138E-01  0.68536890324E-01  0.51100000000E-03 0.  1.
         11    1    4    4    0    0  0.29247967751E-01 -0.46656110569E-02 -0.55636591797E-01  0.63030968673E-01  0.51100000000E-03 0. -1.
</event>
<event>
 8    1  0.1150863E+005  0.1043930E+01  0.7957747E-01            NaN
         13   -1    0    0    0    0  0.00000000000E+00  0.00000000000E+00  0.74505805969E-08  0.10566000000E+00  0.10566000000E+00 0.  1.
     999900   -1    0    0    0    0 -0.00000000000E+00 -0.00000000000E+00 -0.74505805969E-08  0.93827000000E+00  0.93827000000E+00 0. -1.
     999902    2    1    2    0    0 -0.20877816336E-01 -0.10596168466E-01  0.28314503418E-02  0.10203465500E+01  0.10200739694E+01 0.  0.
     999903    2    3    3    0    0 -0.11692444988E+00  0.57216351975E-01  0.12553577410E-01  0.13247380381E+00  0.21134769374E-01 0.  0.
         14    1    1    2    0    0  0.20877816336E-01  0.10596168466E-01 -0.28314503418E-02  0.23583449963E-01  0.00000000000E+00 0.  1.
     999901    1    3    3    0    0  0.96046633543E-01 -0.67812520441E-01 -0.97221270678E-02  0.88787274623E+00  0.88000000000E+00 0. -1.
        -11    1    4    4    0    0 -0.47640429896E-01  0.12019510691E-01  0.57227925778E-02  0.49468077321E-01  0.51100000000E-03 0. -1.
         11    1    4    4    0    0 -0.69284019983E-01  0.45196841284E-01  0.68307848318E-02  0.83005726486E-01  0.51100000000E-03 0.  1.
</event>
<event>
 7    1  0.1150863E+005  0.1043930E+01  0.7957747E-01            NaN
         13   -1    0    0    0    0  0.00000000000E+00  0.00000000000E+00  0.74505805969E-08  0.10566000000E+00  0.10566000000E+00 0.  1.
     999900   -1    0    0    0    0 -0.00000000000E+00 -0.00000000000E+00 -0.74505805969E-08  0.93827000000E+00  0.93827000000E+00 0.  1.
     999903    2    1    2    0    0 -0.85267210006E-01  0.56560601266E-01  0.30570386644E-01  0.10879219627E+00  0.20774857669E-01 0.  0.
         14    1    1    2    0    0 -0.43131798358E-01 -0.23918493529E-02 -0.76951907495E-02  0.43878114518E-01  0.00000000000E+00 0. -1.
     999901    1    1    2    0    0  0.12839900836E+00 -0.54168751913E-01 -0.22875195894E-01  0.89125968922E+00  0.88000000000E+00 0.  1.
        -11    1    3    3    0    0 -0.23863346303E-01  0.55167619006E-02  0.56255160689E-02  0.25135662129E-01  0.51100000000E-03 0.  1.
         11    1    3    3    0    0 -0.61403863703E-01  0.51043839366E-01  0.24944870575E-01  0.83656534138E-01  0.51100000000E-03 0. -1.
</event>
<event>
 8    1  0.1150863E+005  0.1043930E+01  0.7957747E-01            NaN
         13   -1    0    0    0    0  0.00000000000E+00  0.00000000000E+00  0.74505805969E-08  0.10566000000E+00  0.10566000000E+00 0.  1.
     999900   -1    0    0    0    0 -0.00000000000E+00 -0.00000000000E+00 -0.74505805969E-08  0.93827000000E+00  0.93827000000E+00 0. -1.
     999902    2    1    2    0    0 -0.16811819757E-02  0.16163182131E-01  0.17957911005E-01  0.10197109704E+01  0.10194233182E+01 0.  0.
     999903    2    3    3    0    0  0.64257614740E-01 -0.10880137291E+00 -0.73953943963E-02  0.12807940125E+00  0.19566843549E-01 0.  0.
         14    1    1    2    0    0  0.16811819757E-02 -0.16163182131E-01 -0.17957911005E-01  0.24219029648E-01  0.00000000000E+00 0. -1.
     999901    1    3    3    0    0 -0.65938796716E-01  0.12496455504E+00  0.25353305402E-01  0.89163156910E+00  0.88000000000E+00 0. -1.
        -11    1    4    4    0    0  0.36411411558E-01 -0.72421051561E-01  0.29281570007E-02  0.81113715395E-01  0.51100000000E-03 0. -1.
         11    1    4    4    0    0  0.27846203182E-01 -0.36380321349E-01 -0.10323551397E-01  0.46965685852E-01  0.51100000000E-03 0.  1.
</event>
<event>
 8    1  0.1150863E+005  0.1043930E+01  0.7957747E-01            NaN
         13   -1    0    0    0    0  0.00000000000E+00  0.00000000000E+00  0.74505805969E-08  0.10566000000E+00  0.10566000000E+00 0. -1.
     999900   -1    0    0    0    0 -0.00000000000E+00 -0.00000000000E+00 -0.74505805969E-08  0.93827000000E+00  0.93827000000E+00 0. -1.
     999902    2    1    2    0    0  0.11218922731E-02  0.49063823267E-02  0.18547886117E-01  0.10247113812E+01  0.10245311413E+01 0.  0.
     999903    2    3    3    0    0  0.12708380396E+00 -0.33166374472E-01 -0.23282397945E-01  0.13394445843E+00  0.12196157838E-01 0.  0.
         14    1    1    2    0    0 -0.11218922731E-02 -0.49063823267E-02 -0.18547886117E-01  0.19218618817E-01  0.00000000000E+00 0.  1.
     999901    1    3    3    0    0 -0.12596191169E+00  0.38072756799E-01  0.41830284062E-01  0.89076692275E+00  0.88000000000E+00 0. -1.
        -11    1    4    4    0    0  0.48032477396E-01 -0.15404220587E-01 -0.36536284715E-02  0.50576862484E-01  0.51100000000E-03 0. -1.
         11    1    4    4    0    0  0.79051326562E-01 -0.17762153886E-01 -0.19628769473E-01  0.83367595946E-01  0.51100000000E-03 0.  1.
</event>
<event>
 8    1  0.1150863E+005  0.1043930E+01  0.7957747E-01            NaN
         13   -1    0    0    0    0  0.00000000000E+00  0.00000000000E+00  0.74505805969E-08  0.10566000000E+00  0.10566000000E+00 0. -1.
     999900   -1    0    0    0    0 -0.00000000000E+00 -0.00000000000E+00 -0.74505805969E-08  0.93827000000E+00  0.93827000000E+00 0. -1.
     999902    2    1    2    0    0  0.15006646109E-01  0.33947617741E-02  0.19319499845E-01  0.10192324918E+01  0.10189332194E+01 0.  0.
     999903    2    3    3    0    0 -0.30351212943E-01 -0.12069162706E+00 -0.24162009937E-01  0.12830858434E+00  0.19789520495E-01 0.  0.
         14    1    1    2    0    0 -0.15006646109E-01 -0.33947617741E-02 -0.19319499845E-01  0.24697508158E-01  0.00000000000E+00 0. -1.
     999901    1    3    3    0    0  0.45357859052E-01  0.12408638883E+00  0.43481509782E-01  0.89092390751E+00  0.88000000000E+00 0.  1.
        -11    1    4    4    0    0 -0.18872844506E-01 -0.37591386146E-01 -0.98795401287E-02  0.43210681623E-01  0.51100000000E-03 0. -1.
         11    1    4    4    0    0 -0.11478368437E-01 -0.83100240911E-01 -0.14282469808E-01  0.85097902714E-01  0.51100000000E-03 0.  1.
</event>
<event>
 8    1  0.1150863E+005  0.1043930E+01  0.7957747E-01            NaN
         13   -1    0    0    0    0  0.00000000000E+00  0.00000000000E+00  0.74505805969E-08  0.10566000000E+00  0.10566000000E+00 0.  1.
     999900   -1    0    0    0    0 -0.00000000000E+00 -0.00000000000E+00 -0.74505805969E-08  0.93827000000E+00  0.93827000000E+00 0. -1.
     999902    2    1    2    0    0 -0.14962625753E-01 -0.14560935399E-01 -0.93251876690E-02  0.10210638649E+01  0.10208077959E+01 0.  0.
     999903    2    3    3    0    0 -0.10705626237E+00 -0.61231929813E-01  0.46181989618E-01  0.13329110887E+00  0.20575495089E-01 0.  0.
         14    1    1    2    0    0  0.14962625753E-01  0.14560935399E-01  0.93251876690E-02  0.22866135095E-01  0.00000000000E+00 0. -1.
     999901    1    3    3    0    0  0.92093636616E-01  0.46670994414E-01 -0.55507177287E-01  0.88777275603E+00  0.88000000000E+00 0. -1.
        -11    1    4    4    0    0 -0.28497206087E-01 -0.12732092631E-01  0.29817955095E-02  0.31358398603E-01  0.51100000000E-03 0. -1.
         11    1    4    4    0    0 -0.78559056282E-01 -0.48499837182E-01  0.43200194109E-01  0.10193271027E+00  0.51100000000E-03 0.  1.
</event>
<event>
 8    1  0.1150863E+005  0.1043930E+01  0.7957747E-01            NaN
         13   -1    0    0    0    0  0.00000000000E+00  0.00000000000E+00  0.74505805969E-08  0.10566000000E+00  0.10566000000E+00 0. -1.
     999900   -1    0    0    0    0 -0.00000000000E+00 -0.00000000000E+00 -0.74505805969E-08  0.93827000000E+00  0.93827000000E+00 0. -1.
     999902    2    1    2    0    0  0.23263698544E-01  0.37412570826E-02  0.25896812089E-04  0.10203673740E+01  0.10200952801E+01 0.  0.
     999903    2    3    3    0    0  0.61195356008E-01 -0.61506166647E-01 -0.97098668949E-01  0.13181280716E+00  0.20459337387E-01 0.  0.
         14    1    1    2    0    0 -0.23263698544E-01 -0.37412570826E-02 -0.25896812089E-04  0.23562626024E-01  0.00000000000E+00 0. -1.
     999901    1    3    3    0    0 -0.37931657464E-01  0.65247423730E-01  0.97124565761E-01  0.88855456682E+00  0.88000000000E+00 0.  1.
        -11    1    4    4    0    0  0.18653330922E-01 -0.29423271786E-01 -0.48322856937E-01  0.59573780312E-01  0.51100000000E-03 0. -1.
         11    1    4    4    0    0  0.42542025086E-01 -0.32082894861E-01 -0.48775812012E-01  0.72239026845E-01  0.51100000000E-03 0.  1.
</event>
<event>
 8    1  0.1150863E+005  0.1043930E+01  0.7957747E-01            NaN
         13   -1    0    0    0    0  0.00000000000E+00  0.00000000000E+00  0.74505805969E-08  0.10566000000E+00  0.10566000000E+00 0. -1.
     999900   -1    0    0    0    0 -0.00000000000E+00 -0.00000000000E+00 -0.74505805969E-08  0.93827000000E+00  0.93827000000E+00 0.  1.
     999902    2    1    2    0    0  0.13080484224E-01 -0.23644455863E-02 -0.19353523904E-01  0.10204513169E+01  0.10201811808E+01 0.  0.
     999903    2    3    3    0    0 -0.95406070505E-01 -0.53603123032E-01 -0.68890741885E-01  0.13092972047E+00  0.20519363980E-01 0.  0.
         14    1    1    2    0    0 -0.13080484224E-01  0.23644455863E-02  0.19353523904E-01  0.23478683054E-01  0.00000000000E+00 0. -1.
     999901    1    3    3    0    0  0.10848655473E+00  0.51238677445E-01  0.49537217982E-01  0.88952159647E+00  0.88000000000E+00 0.  1.
        -11    1    4    4    0    0 -0.27185378129E-01 -0.23752916840E-01 -0.15448447793E-01  0.39270364177E-01  0.51100000000E-03 0.  1.
         11    1    4    4    0    0 -0.68220692377E-01 -0.29850206191E-01 -0.53442294092E-01  0.91659356298E-01  0.51100000000E-03 0. -1.
</event>
<event>
 8    1  0.1150863E+005  0.1043930E+01  0.7957747E-01            NaN
         13   -1    0    0    0    0  0.00000000000E+00  0.00000000000E+00  0.74505805969E-08  0.10566000000E+00  0.10566000000E+00 0.  1.
     999900   -1    0    0    0    0 -0.00000000000E+00 -0.00000000000E+00 -0.74505805969E-08  0.93827000000E+00  0.93827000000E+00 0. -1.
     999902    2    1    2    0    0 -0.27215733919E-02 -0.12891025583E-02 -0.23737607059E-01  0.10200021347E+01  0.10197214385E+01 0.  0.
     999903    2    3    3    0    0 -0.48271201093E-01  0.70533744706E-01  0.93535728674E-01  0.12815779560E+00  0.19245000339E-01 0.  0.
         14    1    1    2    0    0  0.27215733919E-02  0.12891025583E-02  0.23737607059E-01  0.23927865263E-01  0.00000000000E+00 0.  1.
     999901    1    3    3    0    0  0.45549627701E-01 -0.71822847264E-01 -0.11727333573E+00  0.89184433913E+00  0.88000000000E+00 0. -1.
        -11    1    4    4    0    0 -0.43883648855E-01  0.63357079346E-01  0.73843081562E-01  0.10673779066E+00  0.51100000000E-03 0.  1.
         11    1    4    4    0    0 -0.43875522373E-02  0.71766653592E-02  0.19692647112E-01  0.21420004939E-01  0.51100000000E-03 0. -1.
</event>
<event>
 8    1  0.1150863E+005  0.1043930E+01  0.7957747E-01            NaN
         13   -1    0    0    0    0  0.00000000000E+00  0.00000000000E+00  0.74505805969E-08  0.10566000000E+00  0.10566000000E+00 0.  1.
     999900   -1    0    0    0    0 -0.00000000000E+00 -0.00000000000E+00 -0.74505805969E-08  0.93827000000E+00  0.93827000000E+00 0.  1.
     999902    2    1    2    0    0 -0.16096129925E-01  0.12163713371E-01  0.10630326575E-01  0.10211255012E+01  0.10208708263E+01 0.  0.
     999903    2    3    3    0    0  0.10193690977E+00  0.68553332585E-01  0.40418874870E-01  0.13095757031E+00  0.20627816006E-01 0.  0.
         14    1    1    2    0    0  0.16096129925E-01 -0.12163713371E-01 -0.10630326575E-01  0.22804498780E-01  0.00000000000E+00 0. -1.
     999901    1    3    3    0    0 -0.11803303969E+00 -0.56389619214E-01 -0.29788548295E-01  0.89016793091E+00  0.88000000000E+00 0.  1.
        -11    1    4    4    0    0  0.63068428760E-01  0.46661830857E-01  0.35373008977E-01  0.86060815998E-01  0.51100000000E-03 0.  1.
         11    1    4    4    0    0  0.38868481010E-01  0.21891501728E-01  0.50458658935E-02  0.44896754310E-01  0.51100000000E-03 0. -1.
</event>
<event>
 8    1  0.1150863E+005  0.1043930E+01  0.7957747E-01            NaN
         13   -1    0    0    0    0  0.00000000000E+00  0.00000000000E+00  0.74505805969E-08  0.10566000000E+00  0.10566000000E+00 0.  1.
     999900   -1    0    0    0    0 -0.00000000000E+00 -0.00000000000E+00 -0.74505805969E-08  0.93827000000E+00  0.93827000000E+00 0.  1.
     999902    2    1    2    0    0 -0.23903270774E-01  0.48169236648E-02 -0.64307441431E-02  0.10187124748E+01  0.10184003057E+01 0.  0.
     999903    2    3    3    0    0 -0.32563779957E-01  0.11211568642E+00 -0.55458072777E-01  0.13079822901E+00  0.20056220237E-01 0.  0.
         14    1    1    2    0    0  0.23903270774E-01 -0.48169236648E-02  0.64307441431E-02  0.25217525206E-01  0.00000000000E+00 0. -1.
     999901    1    3    3    0    0  0.86605091823E-02 -0.10729876275E+00  0.49027328634E-01  0.88791424578E+00  0.88000000000E+00 0. -1.
        -11    1    4    4    0    0 -0.12365650176E-01  0.59425394488E-01 -0.38473836518E-01  0.71866431884E-01  0.51100000000E-03 0. -1.
         11    1    4    4    0    0 -0.20198129781E-01  0.52690291932E-01 -0.16984236260E-01  0.58931797129E-01  0.51100000000E-03 0.  1.
</event>
<event>
 8    1  0.1150863E+005  0.1043930E+01  0.7957747E-01            NaN
         13   -1    0    0    0    0  0.00000000000E+00  0.00000000000E+00  0.74505805969E-08  0.10566000000E+00  0.10566000000E+00 0.  1.
     999900   -1    0    0    0    0 -0.00000000000E+00 -0.00000000000E+00 -0.74505805969E-08  0.93827000000E+00  0.93827000000E+00 0. -1.
     999902    2    1    2    0    0  0.14629019430E-01 -0.21186989527E-02  0.18424428765E-01  0.10203088935E+01  0.10200354315E+01 0.  0.
     999903    2    3    3    0    0  0.62437556681E-01  0.62898027457E-01 -0.92123107284E-01  0.12972841505E+00  0.22094896116E-01 0.  0.
         14    1    1    2    0    0 -0.14629019430E-01  0.21186989527E-02 -0.18424428765E-01  0.23621106453E-01  0.00000000000E+00 0. -1.
     999901    1    3    3    0    0 -0.47808537251E-01 -0.65016726410E-01  0.11054753605E+00  0.89058047849E+00  0.88000000000E+00 0.  1.
        -11    1    4    4    0    0  0.46989632729E-01  0.33679223504E-01 -0.64801391927E-01  0.86843521327E-01  0.51100000000E-03 0. -1.
         11    1    4    4    0    0  0.15447923952E-01  0.29218803953E-01 -0.27321715357E-01  0.42884893727E-01  0.51100000000E-03 0.  1.
</event>
<event>
 8    1  0.1150863E+005  0.1043930E+01  0.7957747E-01            NaN
         13   -1    0    0    0    0  0.00000000000E+00  0.00000000000E+00  0.74505805969E-08  0.10566000000E+00  0.10566000000E+00 0.  1.
     999900   -1    0    0    0    0 -0.00000000000E+00 -0.00000000000E+00 -0.74505805969E-08  0.93827000000E+00  0.93827000000E+00 0. -1.
     999902    2    1    2    0    0  0.88382859919E-02  0.48090004962E-02  0.22292558752E-01  0.10194718733E+01  0.10191784439E+01 0.  0.
     999903    2    3    3    0    0  0.63403202596E-01  0.16924308125E-01  0.11372141918E+00  0.13297125441E+00  0.21033188378E-01 0.  0.
         14    1    1    2    0    0 -0.88382859919E-02 -0.48090004962E-02 -0.22292558752E-01  0.24458126682E-01  0.00000000000E+00 0. -1.
     999901    1    3    3    0    0 -0.54564916604E-01 -0.12115307629E-01 -0.91428860433E-01  0.88650061891E+00  0.88000000000E+00 0. -1.
        -11    1    4    4    0    0  0.35039133019E-01  0.16177245002E-01  0.49578305923E-01  0.62830833496E-01  0.51100000000E-03 0. -1.
         11    1    4    4    0    0  0.28364069577E-01  0.74706312290E-03  0.64143113261E-01  0.70140420915E-01  0.51100000000E-03 0.  1.
</event>
<event>
 8    1  0.1150863E+005  0.1043930E+01  0.7957747E-01            NaN
         13   -1    0    0    0    0  0.00000000000E+00  0.00000000000E+00  0.74505805969E-08  0.10566000000E+00  0.10566000000E+00 0. -1.
     999900   -1    0    0    0    0 -0.00000000000E+00 -0.00000000000E+00 -0.74505805969E-08  0.93827000000E+00  0.93827000000E+00 0. -1.
     999902    2    1    2    0    0  0.12822749442E-02 -0.22842285492E-01 -0.66452644173E-03  0.10210421030E+01  0.10207855407E+01 0.  0.
     999903    2    3    3    0    0  0.88304187060E-01 -0.71132007189E-01  0.66294510506E-01  0.13290460063E+00  0.20280011029E-01 0.  0.
         14    1    1    2    0    0 -0.12822749442E-02  0.22842285492E-01  0.66452644173E-03  0.22887897040E-01  0.00000000000E+00 0.  1.
     999901    1    3    3    0    0 -0.87021912116E-01  0.48289721697E-01 -0.66959036948E-01  0.88813750233E+00  0.88000000000E+00 0. -1.
        -11    1    4    4    0    0  0.73736062838E-01 -0.64416341641E-01  0.49644164105E-01  0.10977830471E+00  0.51100000000E-03 0. -1.
         11    1    4    4    0    0  0.14568124222E-01 -0.67156655479E-02  0.16650346401E-01  0.23126295928E-01  0.51100000000E-03 0.  1.
</event>
<event>
 8    1  0.1150863E+005  0.1043930E+01  0.7957747E-01            NaN
         13   -1    0    0    0    0  0.00000000000E+00  0.00000000000E+00  0.74505805969E-08  0.10566000000E+00  0.10566000000E+00 0.  1.
     999900   -1    0    0    0    0 -0.00000000000E+00 -0.00000000000E+00 -0.74505805969E-08  0.93827000000E+00  0.93827000000E+00 0. -1.
     999902    2    1    2    0    0 -0.16844527784E-01  0.71348082122E-02 -0.10471102329E-01  0.10228518694E+01  0.10226346656E+01 0.  0.
     999903    2    3    3    0    0 -0.11354221573E+00  0.64031077920E-01 -0.31316479423E-01  0.13548376198E+00  0.19578411188E-01 0.  0.
         14    1    1    2    0    0  0.16844527784E-01 -0.71348082122E-02  0.10471102329E-01  0.21078130574E-01  0.00000000000E+00 0.  1.
     999901    1    3    3    0    0  0.96697687947E-01 -0.56896269708E-01  0.20845377094E-01  0.88736810744E+00  0.88000000000E+00 0.  1.
        -11    1    4    4    0    0 -0.31105328728E-01  0.14624404675E-01  0.79995239593E-04  0.34375604833E-01  0.51100000000E-03 0. -1.
         11    1    4    4    0    0 -0.82436887003E-01  0.49406673246E-01 -0.31396474663E-01  0.10110815715E+00  0.51100000000E-03 0.  1.
</event>
<event>
 8    1  0.1150863E+005  0.1043930E+01  0.7957747E-01            NaN
         13   -1    0    0    0    0  0.00000000000E+00  0.00000000000E+00  0.74505805969E-08  0.10566000000E+00  0.10566000000E+00 0. -1.
     999900   -1    0    0    0    0 -0.00000000000E+00 -0.00000000000E+00 -0.74505805969E-08  0.93827000000E+00  0.93827000000E+00 0.  1.
     999902    2    1    2    0    0 -0.21444987770E-01 -0.49481158353E-02 -0.89294115577E-02  0.10201790897E+01  0.10199025783E+01 0.  0.
     999903    2    3    3    0    0  0.27345048113E-01  0.27611710232E-01  0.12128385842E+00  0.12866571032E+00  0.18301161181E-01 0.  0.
         14    1    1    2    0    0  0.21444987770E-01  0.49481158353E-02  0.89294115577E-02  0.23750910330E-01  0.00000000000E+00 0. -1.
     999901    1    3    3    0    0 -0.48790035882E-01 -0.32559826068E-01 -0.13021326998E+00  0.89151337935E+00  0.88000000000E+00 0.  1.
        -11    1    4    4    0    0  0.20292385145E-01  0.11345135941E-01  0.49006524135E-01  0.54243834057E-01  0.51100000000E-03 0.  1.
         11    1    4    4    0    0  0.70526629678E-02  0.16266574292E-01  0.72277334289E-01  0.74421876266E-01  0.51100000000E-03 0. -1.
</event>
<event>
 8    1  0.1150863E+005  0.1043930E+01  0.7957747E-01            NaN
         13   -1    0    0    0    0  0.00000000000E+00  0.00000000000E+00  0.74505805969E-08  0.10566000000E+00  0.10566000000E+00 0. -1.
     999900   -1    0    0    0    0 -0.00000000000E+00 -0.00000000000E+00 -0.74505805969E-08  0.93827000000E+00  0.93827000000E+00 0.  1.
     999902    2    1    2    0    0 -0.64150670306E-02 -0.11473790541E-01  0.18876107052E-01  0.10209276442E+01  0.10206684801E+01 0.  0.
     999903    2    3    3    0    0 -0.88536928987E-01 -0.90736674860E-01  0.36382564911E-01  0.13338436014E+00  0.19893831709E-01 0.  0.
         14    1    1    2    0    0  0.64150670306E-02  0.11473790541E-01 -0.18876107052E-01  0.23002355789E-01  0.00000000000E+00 0.  1.
     999901    1    3    3    0    0  0.82121861957E-01  0.79262884318E-01 -0.17506457859E-01  0.88754328408E+00  0.88000000000E+00 0. -1.
        -11    1    4    4    0    0 -0.45395076430E-01 -0.47846769313E-01  0.29180710241E-01  0.72123513981E-01  0.51100000000E-03 0.  1.
         11    1    4    4    0    0 -0.43141852557E-01 -0.42889905546E-01  0.72018546703E-02  0.61260846154E-01  0.51100000000E-03 0. -1.
</event>
<event>
 8    1  0.1150863E+005  0.1043930E+01  0.7957747E-01            NaN
         13   -1    0    0    0    0  0.00000000000E+00  0.00000000000E+00  0.74505805969E-08  0.10566000000E+00  0.10566000000E+00 0. -1.
     999900   -1    0    0    0    0 -0.00000000000E+00 -0.00000000000E+00 -0.74505805969E-08  0.93827000000E+00  0.93827000000E+00 0.  1.
     999902    2    1    2    0    0 -0.53990458987E-02  0.22672868658E-01  0.41489050992E-02  0.10202567644E+01  0.10199820799E+01 0.  0.
     999903    2    3    3    0    0  0.18939340649E-01  0.11481112838E+00 -0.60579697926E-01  0.13274811205E+00  0.20294522109E-01 0.  0.
         14    1    1    2    0    0  0.53990458987E-02 -0.22672868658E-01 -0.41489050992E-02  0.23673235590E-01  0.00000000000E+00 0.  1.
     999901    1    3    3    0    0 -0.24338386548E-01 -0.92138259723E-01  0.64728603025E-01  0.88750865236E+00  0.88000000000E+00 0. -1.
        -11    1    4    4    0    0  0.98820608725E-02  0.96807914648E-01 -0.44711616354E-01  0.10709256381E+00  0.51100000000E-03 0.  1.
         11    1    4    4    0    0  0.90572797768E-02  0.18003213733E-01 -0.15868081572E-01  0.25655548239E-01  0.51100000000E-03 0. -1.
</event>
<event>
 8    1  0.1150863E+005  0.1043930E+01  0.7957747E-01            NaN
         13   -1    0    0    0    0  0.00000000000E+00  0.00000000000E+00  0.74505805969E-08  0.10566000000E+00  0.10566000000E+00 0. -1.
     999900   -1    0    0    0    0 -0.00000000000E+00 -0.00000000000E+00 -0.74505805969E-08  0.93827000000E+00  0.93827000000E+00 0.  1.
     999902    2    1    2    0    0 -0.59468874327E-02  0.86873330081E-02 -0.21932659234E-01  0.10196014825E+01  0.10193111921E+01 0.  0.
     999903    2    3    3    0    0  0.15788658331E-02 -0.85289770049E-01 -0.97895691783E-01  0.13131171263E+00  0.19554071480E-01 0.  0.
         14    1    1    2    0    0  0.59468874327E-02 -0.86873330081E-02  0.21932659234E-01  0.24328517546E-01  0.00000000000E+00 0. -1.
     999901    1    3    3    0    0 -0.75257532658E-02  0.93977103057E-01  0.75963032550E-01  0.88828976982E+00  0.88000000000E+00 0. -1.
        -11    1    4    4    0    0  0.78287435298E-02 -0.60924939974E-01 -0.77705352448E-01  0.99053119366E-01  0.51100000000E-03 0.  1.
         11    1    4    4    0    0 -0.62498776967E-02 -0.24364830076E-01 -0.20190339335E-01  0.32258593263E-01  0.51100000000E-03 0. -1.
</event>
<event>
 8    1  0.1150863E+005  0.1043930E+01  0.7957747E-01            NaN
         13   -1    0    0    0    0  0.00000000000E+00  0.00000000000E+00  0.74505805969E-08  0.10566000000E+00  0.10566000000E+00 0. -1.
     999900   -1    0    0    0    0 -0.00000000000E+00 -0.00000000000E+00 -0.74505805969E-08  0.93827000000E+00  0.93827000000E+00 0.  1.
     999902    2    1    2    0    0 -0.11642847289E-01  0.50420638968E-02  0.18831588815E-01  0.10212230178E+01  0.10209705408E+01 0.  0.
     999903    2    3    3    0    0  0.99654976928E-01  0.37734786042E-01 -0.70068107017E-01  0.12916966985E+00  0.20499645921E-01 0.  0.
         14    1    1    2    0    0  0.11642847289E-01 -0.50420638968E-02 -0.18831588815E-01  0.22706982156E-01  0.00000000000E+00 0. -1.
     999901    1    3    3    0    0 -0.11129782422E+00 -0.32692722145E-01  0.88899695832E-01  0.89205334800E+00  0.88000000000E+00 0.  1.
        -11    1    4    4    0    0  0.74275381823E-01  0.18180684425E-01 -0.49102581245E-01  0.90877358220E-01  0.51100000000E-03 0.  1.
         11    1    4    4    0    0  0.25379595106E-01  0.19554101617E-01 -0.20965525771E-01  0.38292311626E-01  0.51100000000E-03 0. -1.
</event>
<event>
 8    1  0.1150863E+005  0.1043930E+01  0.7957747E-01            NaN
         13   -1    0    0    0    0  0.00000000000E+00  0.00000000000E+00  0.74505805969E-08  0.10566000000E+00  0.10566000000E+00 0. -1.
     999900   -1    0    0    0    0 -0.00000000000E+00 -0.00000000000E+00 -0.74505805969E-08  0.93827000000E+00  0.93827000000E+00 0. -1.
     999902    2    1    2    0    0 -0.26004411747E-01  0.21730747704E-02  0.40858537560E-02  0.10175170129E+01  0.10171741374E+01 0.  0.
     999903    2    3    3    0    0  0.20284274509E-01 -0.11464260184E+00  0.47918143773E-01  0.12751149924E+00  0.20215241459E-01 0.  0.
         14    1    1    2    0    0  0.26004411747E-01 -0.21730747704E-02 -0.40858537560E-02  0.26412987056E-01  0.00000000000E+00 0.  1.
     999901    1    3    3    0    0 -0.46288686257E-01  0.11681567661E+00 -0.43832290017E-01  0.89000551370E+00  0.88000000000E+00 0.  1.
        -11    1    4    4    0    0  0.14014350193E-01 -0.29456103350E-01  0.15865672678E-01  0.36277330751E-01  0.51100000000E-03 0. -1.
         11    1    4    4    0    0  0.62699243161E-02 -0.85186498487E-01  0.32052471095E-01  0.91234168488E-01  0.51100000000E-03 0.  1.
</event>
<event>
 8    1  0.1150863E+005  0.1043930E+01  0.7957747E-01            NaN
         13   -1    0    0    0    0  0.00000000000E+00  0.00000000000E+00  0.74505805969E-08  0.10566000000E+00  0.10566000000E+00 0.  1.
     999900   -1    0    0    0    0 -0.00000000000E+00 -0.00000000000E+00 -0.74505805969E-08  0.93827000000E+00  0.93827000000E+00 0. -1.
     999902    2    1    2    0    0  0.17723253749E-01 -0.16228322861E-01 -0.35585875403E-03  0.10198967143E+01  0.10196135096E+01 0.  0.
     999903    2    3    3    0    0 -0.29761324307E-01 -0.83836882988E-01  0.94476193054E-01  0.13095418488E+00  0.17575212931E-01 0.  0.
         14    1    1    2    0    0 -0.17723253749E-01  0.16228322861E-01  0.35585875403E-03  0.24033285704E-01  0.00000000000E+00 0. -1.
     999901    1    3    3    0    0  0.47484578055E-01  0.67608560128E-01 -0.94832051808E-01  0.88894252942E+00  0.88000000000E+00 0. -1.
        -11    1    4    4    0    0 -0.22406710454E-01 -0.37495141734E-01  0.42897419738E-01  0.61224146121E-01  0.51100000000E-03 0.  1.
         11    1    4    4    0    0 -0.73546138522E-02 -0.46341741254E-01  0.51578773317E-01  0.69730038758E-01  0.51100000000E-03 0. -1.
</event>
<event>
 8    1  0.1150863E+005  0.1043930E+01  0.7957747E-01            NaN
         13   -1    0    0    0    0  0.00000000000E+00  0.00000000000E+00  0.74505805969E-08  0.10566000000E+00  0.10566000000E+00 0.  1.
     999900   -1    0    0    0    0 -0.00000000000E+00 -0.00000000000E+00 -0.74505805969E-08  0.93827000000E+00  0.93827000000E+00 0.  1.
     999902    2    1    2    0    0  0.23663667023E-01  0.32994390134E-02  0.11678631968E-01  0.10173359052E+01  0.10169882487E+01 0.  0.
     999903    2    3    3    0    0 -0.10422491090E+00  0.42547622252E-01  0.53326548199E-01  0.12625203866E+00  0.20560260473E-01 0.  0.
         14    1    1    2    0    0 -0.23663667023E-01 -0.32994390134E-02 -0.11678631968E-01  0.26594094822E-01  0.00000000000E+00 0. -1.
     999901    1    3    3    0    0  0.12788857792E+00 -0.39248183239E-01 -0.41647916231E-01  0.89108386652E+00  0.88000000000E+00 0.  1.
        -11    1    4    4    0    0 -0.36742110346E-01  0.23429537532E-01  0.13651019714E-01  0.45667683999E-01  0.51100000000E-03 0.  1.
         11    1    4    4    0    0 -0.67482800553E-01  0.19118084721E-01  0.39675528485E-01  0.80584354657E-01  0.51100000000E-03 0. -1.
</event>
<event>
 8    1  0.1150863E+005  0.1043930E+01  0.7957747E-01            NaN
         13   -1    0    0    0    0  0.00000000000E+00  0.00000000000E+00  0.74505805969E-08  0.10566000000E+00  0.10566000000E+00 0.  1.
     999900   -1    0    0    0    0 -0.00000000000E+00 -0.00000000000E+00 -0.74505805969E-08  0.93827000000E+00  0.93827000000E+00 0.  1.
     999902    2    1    2    0    0  0.16833552884E-02 -0.20749260144E-01  0.70336531572E-02  0.10219564305E+01  0.10217201711E+01 0.  0.
     999903    2    3    3    0    0 -0.97354236830E-01  0.34376075519E-01  0.79287964770E-01  0.13174975062E+00  0.20294172425E-01 0.  0.
         14    1    1    2    0    0 -0.16833552884E-02  0.20749260144E-01 -0.70336531572E-02  0.21973569539E-01  0.00000000000E+00 0.  1.
     999901    1    3    3    0    0  0.99037592118E-01 -0.55125335663E-01 -0.72254311613E-01  0.89020667984E+00  0.88000000000E+00 0.  1.
        -11    1    4    4    0    0 -0.71223111845E-02 -0.27415542204E-02  0.55247106134E-02  0.94354112000E-02  0.51100000000E-03 0. -1.
         11    1    4    4    0    0 -0.90231925645E-01  0.37117629739E-01  0.73763254157E-01  0.12231433942E+00  0.51100000000E-03 0.  1.
</event>
<event>
 8    1  0.1150863E+005  0.1043930E+01  0.7957747E-01            NaN
         13   -1    0    0    0    0  0.00000000000E+00  0.00000000000E+00  0.74505805969E-08  0.10566000000E+00  0.10566000000E+00 0.  1.
     999900   -1    0    0    0    0 -0.00000000000E+00 -0.00000000000E+00 -0.74505805969E-08  0.93827000000E+00  0.93827000000E+00 0. -1.
     999902    2    1    2    0    0  0.24363471549E-01  0.16100933753E-02 -0.90368535133E-03  0.10194966663E+01  0.10192038387E+01 0.  0.
     999903    2    3    3    0    0 -0.91458609304E-01 -0.64787502769E-01  0.57333769632E-01  0.12752413517E+00  0.20325997665E-01 0.  0.
         14    1    1    2    0    0 -0.24363471549E-01 -0.16100933753E-02  0.90368535133E-03  0.24433333662E-01  0.00000000000E+00 0.  1.
     999901    1    3    3    0    0  0.11582208085E+00  0.66397596144E-01 -0.58237454983E-01  0.89197253116E+00  0.88000000000E+00 0. -1.
        -11    1    4    4    0    0 -0.56195024717E-01 -0.44202627090E-01  0.26099488413E-01  0.76113057099E-01  0.51100000000E-03 0.  1.
         11    1    4    4    0    0 -0.35263584587E-01 -0.20584875679E-01  0.31234281218E-01  0.51411078076E-01  0.51100000000E-03 0. -1.
</event>
<event>
 8    1  0.1150863E+005  0.1043930E+01  0.7957747E-01            NaN
         13   -1    0    0    0    0  0.00000000000E+00  0.00000000000E+00  0.74505805969E-08  0.10566000000E+00  0.10566000000E+00 0.  1.
     999900   -1    0    0    0    0 -0.00000000000E+00 -0.00000000000E+00 -0.74505805969E-08  0.93827000000E+00  0.93827000000E+00 0.  1.
     999902    2    1    2    0    0 -0.55240250796E-02  0.20644631723E-01 -0.12144837699E-01  0.10193492605E+01  0.10190528456E+01 0.  0.
     999903    2    3    3    0    0 -0.86746752004E-01 -0.15624532826E-01  0.91712978989E-01  0.12878818468E+00  0.20149466208E-01 0.  0.
         14    1    1    2    0    0  0.55240250796E-02 -0.20644631723E-01  0.12144837699E-01  0.24580739508E-01  0.00000000000E+00 0.  1.
     999901    1    3    3    0    0  0.81222726925E-01  0.36269164548E-01 -0.10385781669E+00  0.89056107581E+00  0.88000000000E+00 0.  1.
        -11    1    4    4    0    0 -0.52775017190E-01 -0.13811855376E-01  0.68636847487E-01  0.87676951032E-01  0.51100000000E-03 0. -1.
         11    1    4    4    0    0 -0.33971734815E-01 -0.18126774494E-02  0.23076131502E-01  0.41111233647E-01  0.51100000000E-03 0.  1.
</event>
<event>
 8    1  0.1150863E+005  0.1043930E+01  0.7957747E-01            NaN
         13   -1    0    0    0    0  0.00000000000E+00  0.00000000000E+00  0.74505805969E-08  0.10566000000E+00  0.10566000000E+00 0. -1.
     999900   -1    0    0    0    0 -0.00000000000E+00 -0.00000000000E+00 -0.74505805969E-08  0.93827000000E+00  0.93827000000E+00 0.  1.
     999902    2    1    2    0    0  0.45419459557E-02  0.10133738708E-01  0.20205952108E-01  0.10208734948E+01  0.10206130951E+01 0.  0.
     999903    2    3    3    0    0  0.83739812678E-01 -0.66173642927E-01  0.74909426513E-01  0.13234235366E+00  0.22622315253E-01 0.  0.
         14    1    1    2    0    0 -0.45419459557E-02 -0.10133738708E-01 -0.20205952108E-01  0.23056505240E-01  0.00000000000E+00 0.  1.
     999901    1    3    3    0    0 -0.79197866722E-01  0.76307381635E-01 -0.54703474404E-01  0.88853114110E+00  0.88000000000E+00 0.  1.
        -11    1    4    4    0    0  0.31104737608E-01 -0.22337846961E-01  0.14309890733E-01  0.40884204802E-01  0.51100000000E-03 0. -1.
         11    1    4    4    0    0  0.52635075070E-01 -0.43835795965E-01  0.60599535779E-01  0.91458148862E-01  0.51100000000E-03 0.  1.
</event>
<event>
 8    1  0.1150863E+005  0.1043930E+01  0.7957747E-01            NaN
         13   -1    0    0    0    0  0.00000000000E+00  0.00000000000E+00  0.74505805969E-08  0.10566000000E+00  0.10566000000E+00 0. -1.
     999900   -1    0    0    0    0 -0.00000000000E+00 -0.00000000000E+00 -0.74505805969E-08  0.93827000000E+00  0.93827000000E+00 0.  1.
     999902    2    1    2    0    0  0.15204135236E-01 -0.93420738337E-02 -0.16177968200E-01  0.10198433496E+01  0.10195588708E+01 0.  0.
     999903    2    3    3    0    0 -0.11351137067E+00 -0.45555860416E-01  0.33550473587E-01  0.12835468579E+00  0.19726210884E-01 0.  0.
         14    1    1    2    0    0 -0.15204135236E-01  0.93420738337E-02  0.16177968200E-01  0.24086650387E-01  0.00000000000E+00 0. -1.
     999901    1    3    3    0    0  0.12871550591E+00  0.36213786582E-01 -0.49728441787E-01  0.89148866382E+00  0.88000000000E+00 0.  1.
        -11    1    4    4    0    0 -0.10294283569E-01  0.20230017653E-03  0.67149630092E-02  0.12303050385E-01  0.51100000000E-03 0.  1.
         11    1    4    4    0    0 -0.10321708711E+00 -0.45758160593E-01  0.26835510578E-01  0.11605163541E+00  0.51100000000E-03 0. -1.
</event>
<event>
 8    1  0.1150863E+005  0.1043930E+01  0.7957747E-01            NaN
         13   -1    0    0    0    0  0.00000000000E+00  0.00000000000E+00  0.74505805969E-08  0.10566000000E+00  0.10566000000E+00 0. -1.
     999900   -1    0    0    0    0 -0.00000000000E+00 -0.00000000000E+00 -0.74505805969E-08  0.93827000000E+00  0.93827000000E+00 0.  1.
     999902    2    1    2    0    0 -0.18437104406E-01  0.72558333681E-02 -0.14092061689E-01  0.10196162150E+01  0.10193262804E+01 0.  0.
     999903    2    3    3    0    0  0.11686704985E+00 -0.16495619094E-02  0.46238929192E-01  0.12718899185E+00  0.19451804034E-01 0.  0.
         14    1    1    2    0    0  0.18437104406E-01 -0.72558333681E-02  0.14092061689E-01  0.24313784966E-01  0.00000000000E+00 0. -1.
     999901    1    3    3    0    0 -0.13530415425E+00  0.89053952775E-02 -0.60330990881E-01  0.89242722319E+00  0.88000000000E+00 0.  1.
        -11    1    4    4    0    0  0.43289943859E-01 -0.66263004814E-02  0.95780631070E-02  0.44832215105E-01  0.51100000000E-03 0.  1.
         11    1    4    4    0    0  0.73577105988E-01  0.49767385720E-02  0.36660866085E-01  0.82356776743E-01  0.51100000000E-03 0. -1.
</event>
<event>
 8    1  0.1150863E+005  0.1043930E+01  0.7957747E-01            NaN
         13   -1    0    0    0    0  0.00000000000E+00  0.00000000000E+00  0.74505805969E-08  0.10566000000E+00  0.10566000000E+00 0. -1.
     999900   -1    0    0    0    0 -0.00000000000E+00 -0.00000000000E+00 -0.74505805969E-08  0.93827000000E+00  0.93827000000E+00 0. -1.
     999902    2    1    2    0    0 -0.81376177303E-02 -0.17575212692E-01  0.14249397185E-01  0.10198851618E+01  0.10196016816E+01 0.  0.
     999903    2    3    3    0    0 -0.11450972591E+00  0.42957254902E-01 -0.38145786126E-01  0.12987142019E+00  0.21299805300E-01 0.  0.
         14    1    1    2    0    0  0.81376177303E-02  0.17575212692E-01 -0.14249397185E-01  0.24044838191E-01  0.00000000000E+00 0. -1.
     999901    1    3    3    0    0  0.10637210818E+00 -0.60532467594E-01  0.52395183312E-01  0.89001374162E+00  0.88000000000E+00 0. -1.
        -11    1    4    4    0    0 -0.20478327389E-01  0.12172095717E-01 -0.15321927082E-01  0.28329214202E-01  0.51100000000E-03 0.  1.
         11    1    4    4    0    0 -0.94031398525E-01  0.30785159186E-01 -0.22823859044E-01  0.10154220599E+00  0.51100000000E-03 0. -1.
</event>
<event>
 8    1  0.1150863E+005  0.1043930E+01  0.7957747E-01            NaN
         13   -1    0    0    0    0  0.00000000000E+00  0.00000000000E+00  0.74505805969E-08  0.10566000000E+00  0.10566000000E+00 0. -1.
     999900   -1    0    0    0    0 -0.00000000000E+00 -0.00000000000E+00 -0.74505805969E-08  0.93827000000E+00  0.93827000000E+00 0. -1.
     999902    2    1    2    0    0 -0.10955871303E-01 -0.16830664217E-01  0.36274107424E-02  0.10235226366E+01  0.10233191716E+01 0.  0.
     999903    2    3    3    0    0  0.21955454719E-01 -0.11243263254E+00  0.68771889289E-01  0.13534095761E+00  0.21551408267E-01 0.  0.
         14    1    1    2    0    0  0.10955871303E-01  0.16830664217E-01 -0.36274107424E-02  0.20407363443E-01  0.00000000000E+00 0. -1.
     999901    1    3    3    0    0 -0.32911326022E-01  0.95601968326E-01 -0.65144478547E-01  0.88818167894E+00  0.88000000000E+00 0. -1.
        -11    1    4    4    0    0  0.42826686830E-02 -0.31835412019E-01  0.87208463637E-02  0.33288871891E-01  0.51100000000E-03 0.  1.
         11    1    4    4    0    0  0.17672786036E-01 -0.80597220525E-01  0.60051042926E-01  0.10205208572E+00  0.51100000000E-03 0. -1.
</event>
<event>
 8    1  0.1150863E+005  0.1043930E+01  0.7957747E-01            NaN
         13   -1    0    0    0    0  0.00000000000E+00  0.00000000000E+00  0.74505805969E-08  0.10566000000E+00  0.10566000000E+00 0.  1.
     999900   -1    0    0    0    0 -0.00000000000E+00 -0.00000000000E+00 -0.74505805969E-08  0.93827000000E+00  0.93827000000E+00 0. -1.
     999902    2    1    2    0    0  0.16603441240E-01  0.15915247002E-01  0.63866687406E-02  0.10200603773E+01  0.10197810621E+01 0.  0.
     999903    2    3    3    0    0  0.10032193742E+00  0.83789938029E-01  0.18989754994E-01  0.13339550375E+00  0.18668282813E-01 0.  0.
         14    1    1    2    0    0 -0.16603441240E-01 -0.15915247002E-01 -0.63866687406E-02  0.23869622656E-01  0.00000000000E+00 0. -1.
     999901    1    3    3    0    0 -0.83718496180E-01 -0.67874691027E-01 -0.12603086253E-01  0.88666487360E+00  0.88000000000E+00 0.  1.
        -11    1    4    4    0    0  0.14146371407E-01  0.16735308565E-01 -0.26544830851E-02  0.22079351852E-01  0.51100000000E-03 0. -1.
         11    1    4    4    0    0  0.86175566012E-01  0.67054629463E-01  0.21644238079E-01  0.11131615190E+00  0.51100000000E-03 0.  1.
</event>
<event>
 8    1  0.1150863E+005  0.1043930E+01  0.7957747E-01            NaN
         13   -1    0    0    0    0  0.00000000000E+00  0.00000000000E+00  0.74505805969E-08  0.10566000000E+00  0.10566000000E+00 0. -1.
     999900   -1    0    0    0    0 -0.00000000000E+00 -0.00000000000E+00 -0.74505805969E-08  0.93827000000E+00  0.93827000000E+00 0. -1.
     999902    2    1    2    0    0  0.20398269474E-01  0.73370791984E-02  0.92063039152E-02  0.10203783937E+01  0.10201065572E+01 0.  0.
     999903    2    3    3    0    0 -0.78675645278E-01  0.10078806566E+00  0.11253346628E-01  0.12989935527E+00  0.19977821430E-01 0.  0.
         14    1    1    2    0    0 -0.20398269474E-01 -0.73370791984E-02 -0.92063039152E-02  0.23551606325E-01  0.00000000000E+00 0.  1.
     999901    1    3    3    0    0  0.99073914752E-01 -0.93450986465E-01 -0.20470427123E-02  0.89047903841E+00  0.88000000000E+00 0.  1.
        -11    1    4    4    0    0 -0.44725545279E-01  0.69784123777E-01  0.12922765629E-01  0.83889554322E-01  0.51100000000E-03 0. -1.
         11    1    4    4    0    0 -0.33950100000E-01  0.31003941886E-01 -0.16694190020E-02  0.46009800948E-01  0.51100000000E-03 0.  1.
</event>
<event>
 8    1  0.1150863E+005  0.1043930E+01  0.7957747E-01            NaN
         13   -1    0    0    0    0  0.00000000000E+00  0.00000000000E+00  0.74505805969E-08  0.10566000000E+00  0.10566000000E+00 0. -1.
     999900   -1    0    0    0    0 -0.00000000000E+00 -0.00000000000E+00 -0.74505805969E-08  0.93827000000E+00  0.93827000000E+00 0.  1.
     999902    2    1    2    0    0 -0.55836430399E-02  0.16684322338E-01 -0.15067818053E-01  0.10207657426E+01  0.10205028752E+01 0.  0.
     999903    2    3    3    0    0 -0.45526777107E-01 -0.11931594683E+00 -0.50791366554E-02  0.12936723408E+00  0.20027506687E-01 0.  0.
         14    1    1    2    0    0  0.55836430399E-02 -0.16684322338E-01  0.15067818053E-01  0.23164257431E-01  0.00000000000E+00 0. -1.
     999901    1    3    3    0    0  0.39943134067E-01  0.13600026917E+00 -0.99886813971E-02  0.89139850848E+00  0.88000000000E+00 0.  1.
        -11    1    4    4    0    0 -0.13203749144E-01 -0.62146148159E-01 -0.43915224865E-02  0.63686963448E-01  0.51100000000E-03 0.  1.
         11    1    4    4    0    0 -0.32323027963E-01 -0.57169798669E-01 -0.68761416890E-03  0.65680270636E-01  0.51100000000E-03 0. -1.
</event>
<event>
 8    1  0.1150863E+005  0.1043930E+01  0.7957747E-01            NaN
         13   -1    0    0    0    0  0.00000000000E+00  0.00000000000E+00  0.74505805969E-08  0.10566000000E+00  0.10566000000E+00 0. -1.
     999900   -1    0    0    0    0 -0.00000000000E+00 -0.00000000000E+00 -0.74505805969E-08  0.93827000000E+00  0.93827000000E+00 0. -1.
     999902    2    1    2    0    0 -0.36447281308E-02 -0.22848141363E-01  0.82867817447E-03  0.10207781466E+01  0.10205155640E+01 0.  0.
     999903    2    3    3    0    0 -0.71753451263E-01  0.10172485822E+00 -0.19870486313E-01  0.12915844866E+00  0.28116971508E-01 0.  0.
         14    1    1    2    0    0  0.36447281308E-02  0.22848141363E-01 -0.82867817447E-03  0.23151853369E-01  0.00000000000E+00 0.  1.
     999901    1    3    3    0    0  0.68108723132E-01 -0.12457299958E+00  0.20699164487E-01  0.89161969797E+00  0.88000000000E+00 0.  1.
        -11    1    4    4    0    0 -0.13495891546E-01  0.29063060033E-01  0.57616736654E-02  0.32561611624E-01  0.51100000000E-03 0. -1.
         11    1    4    4    0    0 -0.58257559717E-01  0.72661798188E-01 -0.25632159978E-01  0.96596837041E-01  0.51100000000E-03 0.  1.
</event>
<event>
 8    1  0.1150863E+005  0.1043930E+01  0.7957747E-01            NaN
         13   -1    0    0    0    0  0.00000000000E+00  0.00000000000E+00  0.74505805969E-08  0.10566000000E+00  0.10566000000E+00 0. -1.
     999900   -1    0    0    0    0 -0.00000000000E+00 -0.00000000000E+00 -0.74505805969E-08  0.93827000000E+00  0.93827000000E+00 0.  1.
     999902    2    1    2    0    0 -0.16432083518E-01 -0.13423112889E-02  0.16614764500E-01  0.10205234717E+01  0.10202550126E+01 0.  0.
     999903    2    3    3    0    0  0.57959536482E-01 -0.80207495222E-02 -0.11165807807E+00  0.12809272546E+00  0.22728388097E-01 0.  0.
         14    1    1    2    0    0  0.16432083518E-01  0.13423112889E-02 -0.16614764500E-01  0.23406528314E-01  0.00000000000E+00 0.  1.
     999901    1    3    3    0    0 -0.74391619999E-01  0.66784382333E-02  0.12827284257E+00  0.89243074622E+00  0.88000000000E+00 0. -1.
        -11    1    4    4    0    0  0.53338090023E-01 -0.61180125259E-02 -0.82008919661E-01  0.98020946483E-01  0.51100000000E-03 0. -1.
         11    1    4    4    0    0  0.46214464589E-02 -0.19027369963E-02 -0.29649158412E-01  0.30071778979E-01  0.51100000000E-03 0.  1.
</event>
<event>
 8    1  0.1150863E+005  0.1043930E+01  0.7957747E-01            NaN
         13   -1    0    0    0    0  0.00000000000E+00  0.00000000000E+00  0.74505805969E-08  0.10566000000E+00  0.10566000000E+00 0. -1.
     999900   -1    0    0    0    0 -0.00000000000E+00 -0.00000000000E+00 -0.74505805969E-08  0.93827000000E+00  0.93827000000E+00 0.  1.
     999902    2    1    2    0    0  0.26639278901E-01 -0.99883816084E-03 -0.63640200440E-02  0.10165228913E+01  0.10161533540E+01 0.  0.
     999903    2    3    3    0    0 -0.53976062896E-01  0.11006219055E+00  0.18503659990E-01  0.12553928483E+00  0.19764246697E-01 0.  0.
         14    1    1    2    0    0 -0.26639278901E-01  0.99883816084E-03  0.63640200440E-02  0.27407108734E-01  0.00000000000E+00 0. -1.
     999901    1    3    3    0    0  0.80615341797E-01 -0.11106102871E+00 -0.24867680034E-01  0.89098360644E+00  0.88000000000E+00 0.  1.
        -11    1    4    4    0    0 -0.30841418805E-01  0.47883618430E-01  0.11843539468E-02  0.56971026348E-01  0.51100000000E-03 0.  1.
         11    1    4    4    0    0 -0.23134644091E-01  0.62178572120E-01  0.17319306043E-01  0.68568258480E-01  0.51100000000E-03 0. -1.
</event>
<event>
 8    1  0.1150863E+005  0.1043930E+01  0.7957747E-01            NaN
         13   -1    0    0    0    0  0.00000000000E+00  0.00000000000E+00  0.74505805969E-08  0.10566000000E+00  0.10566000000E+00 0.  1.
     999900   -1    0    0    0    0 -0.00000000000E+00 -0.00000000000E+00 -0.74505805969E-08  0.93827000000E+00  0.93827000000E+00 0. -1.
     999902    2    1    2    0    0  0.12548726181E-01 -0.54619728801E-02 -0.18871816153E-01  0.10206180048E+01  0.10203517347E+01 0.  0.
     999903    2    3    3    0    0 -0.12712745185E-01 -0.12830768119E+00  0.12920296616E-01  0.13115752312E+00  0.20270344422E-01 0.  0.
         14    1    1    2    0    0 -0.12548726181E-01  0.54619728801E-02  0.18871816153E-01  0.23311995226E-01  0.00000000000E+00 0.  1.
     999901    1    3    3    0    0  0.25261471365E-01  0.12284570831E+00 -0.31792112769E-01  0.88946048165E+00  0.88000000000E+00 0.  1.
        -11    1    4    4    0    0 -0.75443797296E-03 -0.15657889371E-01  0.83799980571E-02  0.17782692840E-01  0.51100000000E-03 0.  1.
         11    1    4    4    0    0 -0.11958307212E-01 -0.11264979182E+00  0.45402985587E-02  0.11337483028E+00  0.51100000000E-03 0. -1.
</event>
<event>
 8    1  0.1150863E+005  0.1043930E+01  0.7957747E-01            NaN
         13   -1    0    0    0    0  0.00000000000E+00  0.00000000000E+00  0.74505805969E-08  0.10566000000E+00  0.10566000000E+00 0. -1.
     999900   -1    0    0    0    0 -0.00000000000E+00 -0.00000000000E+00 -0.74505805969E-08  0.93827000000E+00  0.93827000000E+00 0. -1.
     999902    2    1    2    0    0 -0.20802243718E-01 -0.65603798898E-02 -0.32179449038E-02  0.10218817099E+01  0.10216438234E+01 0.  0.
     999903    2    3    3    0    0 -0.93449471632E-01 -0.63405185769E-01  0.69897519717E-01  0.13404454978E+00  0.18145432832E-01 0.  0.
         14    1    1    2    0    0  0.20802243718E-01  0.65603798898E-02  0.32179449038E-02  0.22048290125E-01  0.00000000000E+00 0. -1.
     999901    1    3    3    0    0  0.72647227913E-01  0.56844805879E-01 -0.73115464620E-01  0.88783716009E+00  0.88000000000E+00 0. -1.
        -11    1    4    4    0    0 -0.71603621965E-01 -0.40228947503E-01  0.45278633092E-01  0.93786260355E-01  0.51100000000E-03 0. -1.
         11    1    4    4    0    0 -0.21845849666E-01 -0.23176238265E-01  0.24618886625E-01  0.40258289425E-01  0.51100000000E-03 0.  1.
</event>
<event>
 8    1  0.1150863E+005  0.1043930E+01  0.7957747E-01            NaN
         13   -1    0    0    0    0  0.00000000000E+00  0.00000000000E+00  0.74505805969E-08  0.10566000000E+00  0.10566000000E+00 0.  1.
     999900   -1    0    0    0    0 -0.00000000000E+00 -0.00000000000E+00 -0.74505805969E-08  0.93827000000E+00  0.93827000000E+00 0.  1.
     999902    2    1    2    0    0  0.28700669134E-03  0.21109165490E-01  0.97484056471E-02  0.10206768141E+01  0.10204119013E+01 0.  0.
     999903    2    3    3    0    0  0.46090245158E-01 -0.11670224369E+00  0.20400535685E-01  0.12871078954E+00  0.20163360494E-01 0.  0.
         14    1    1    2    0    0 -0.28700669134E-03 -0.21109165490E-01 -0.97484056471E-02  0.23253185872E-01  0.00000000000E+00 0. -1.
     999901    1    3    3    0    0 -0.45803238467E-01  0.13781140918E+00 -0.10652130038E-01  0.89196602459E+00  0.88000000000E+00 0.  1.
        -11    1    4    4    0    0  0.11941663038E-02 -0.21942161739E-01  0.53738176807E-03  0.21987141586E-01  0.51100000000E-03 0.  1.
         11    1    4    4    0    0  0.44896078855E-01 -0.94760081948E-01  0.19863153917E-01  0.10672364795E+00  0.51100000000E-03 0. -1.
</event>
<event>
 8    1  0.1150863E+005  0.1043930E+01  0.7957747E-01            NaN
         13   -1    0    0    0    0  0.00000000000E+00  0.00000000000E+00  0.74505805969E-08  0.10566000000E+00  0.10566000000E+00 0.  1.
     999900   -1    0    0    0    0 -0.00000000000E+00 -0.00000000000E+00 -0.74505805969E-08  0.93827000000E+00  0.93827000000E+00 0.  1.
     999902    2    1    2    0    0 -0.95169271056E-02 -0.16095258365E-01 -0.15276852984E-01  0.10197843693E+01  0.10194984789E+01 0.  0.
     999903    2    3    3    0    0  0.57958918852E-01 -0.48749588065E-01  0.10235541881E+00  0.12879803587E+00  0.19404733291E-01 0.  0.
         14    1    1    2    0    0  0.95169271056E-02  0.16095258365E-01  0.15276852984E-01  0.24145630671E-01  0.00000000000E+00 0. -1.
     999901    1    3    3    0    0 -0.67475845958E-01  0.32654329700E-01 -0.11763227180E+00  0.89098633345E+00  0.88000000000E+00 0.  1.
        -11    1    4    4    0    0  0.46244509726E-01 -0.27827529725E-01  0.75247004497E-01  0.92602909767E-01  0.51100000000E-03 0.  1.
         11    1    4    4    0    0  0.11714409126E-01 -0.20922058340E-01  0.27108414314E-01  0.36195126108E-01  0.51100000000E-03 0. -1.
</event>
<event>
 7    1  0.1150863E+005  0.1043930E+01  0.7957747E-01            NaN
         13   -1    0    0    0    0  0.00000000000E+00  0.00000000000E+00  0.74505805969E-08  0.10566000000E+00  0.10566000000E+00 0.  1.
     999900   -1    0    0    0    0 -0.00000000000E+00 -0.00000000000E+00 -0.74505805969E-08  0.93827000000E+00  0.93827000000E+00 0. -1.
     999903    2    1    2    0    0 -0.37518584743E-01 -0.78846506419E-01 -0.70324733328E-01  0.11393352361E+00  0.20269778192E-01 0.  0.
         14    1    1    2    0    0 -0.33763765457E-01 -0.15122381512E-01 -0.10498406175E-01  0.38456401452E-01  0.00000000000E+00 0.  1.
     999901    1    1    2    0    0  0.71282350200E-01  0.93968887931E-01  0.80823139502E-01  0.89154007494E+00  0.88000000000E+00 0.  1.
        -11    1    3    3    0    0 -0.13611993098E-01 -0.50814182624E-01 -0.37723114089E-01  0.64735322425E-01  0.51100000000E-03 0. -1.
         11    1    3    3    0    0 -0.23906591646E-01 -0.28032323795E-01 -0.32601619238E-01  0.49198201181E-01  0.51100000000E-03 0.  1.
</event>
<event>
 8    1  0.1150863E+005  0.1043930E+01  0.7957747E-01            NaN
         13   -1    0    0    0    0  0.00000000000E+00  0.00000000000E+00  0.74505805969E-08  0.10566000000E+00  0.10566000000E+00 0.  1.
     999900   -1    0    0    0    0 -0.00000000000E+00 -0.00000000000E+00 -0.74505805969E-08  0.93827000000E+00  0.93827000000E+00 0. -1.
     999902    2    1    2    0    0  0.39432750457E-03  0.55040383830E-02 -0.21790142615E-01  0.10214520053E+01  0.10212046508E+01 0.  0.
     999903    2    3    3    0    0 -0.32116979393E-01 -0.11910319843E+00 -0.41670155075E-01  0.13185706179E+00  0.20804102451E-01 0.  0.
         14    1    1    2    0    0 -0.39432750457E-03 -0.55040383830E-02  0.21790142615E-01  0.22477994748E-01  0.00000000000E+00 0.  1.
     999901    1    3    3    0    0  0.32511306898E-01  0.12460723681E+00  0.19880012459E-01  0.88959494346E+00  0.88000000000E+00 0. -1.
        -11    1    4    4    0    0 -0.27370382234E-01 -0.74204492462E-01 -0.33854114671E-01  0.86033753413E-01  0.51100000000E-03 0. -1.
         11    1    4    4    0    0 -0.47465971588E-02 -0.44898705964E-01 -0.78160404035E-02  0.45823308375E-01  0.51100000000E-03 0.  1.
</event>
<event>
 8    1  0.1150863E+005  0.1043930E+01  0.7957747E-01            NaN
         13   -1    0    0    0    0  0.00000000000E+00  0.00000000000E+00  0.74505805969E-08  0.10566000000E+00  0.10566000000E+00 0. -1.
     999900   -1    0    0    0    0 -0.00000000000E+00 -0.00000000000E+00 -0.74505805969E-08  0.93827000000E+00  0.93827000000E+00 0.  1.
     999902    2    1    2    0    0  0.21305796579E-01  0.59195061491E-02  0.10302511336E-02  0.10217931769E+01  0.10215533551E+01 0.  0.
     999903    2    3    3    0    0  0.88743341885E-01  0.65788411142E-01  0.73701860752E-01  0.13420471866E+00  0.19376440918E-01 0.  0.
         14    1    1    2    0    0 -0.21305796579E-01 -0.59195061491E-02 -0.10302511336E-02  0.22136823131E-01  0.00000000000E+00 0.  1.
     999901    1    3    3    0    0 -0.67437545306E-01 -0.59868904993E-01 -0.72671609619E-01  0.88758845821E+00  0.88000000000E+00 0.  1.
        -11    1    4    4    0    0  0.36536869018E-01  0.15643223745E-01  0.24986544520E-01  0.46949353295E-01  0.51100000000E-03 0.  1.
         11    1    4    4    0    0  0.52206472867E-01  0.50145187397E-01  0.48715316232E-01  0.87255365365E-01  0.51100000000E-03 0. -1.
</event>
<event>
 8    1  0.1150863E+005  0.1043930E+01  0.7957747E-01            NaN
         13   -1    0    0    0    0  0.00000000000E+00  0.00000000000E+00  0.74505805969E-08  0.10566000000E+00  0.10566000000E+00 0. -1.
     999900   -1    0    0    0    0 -0.00000000000E+00 -0.00000000000E+00 -0.74505805969E-08  0.93827000000E+00  0.93827000000E+00 0.  1.
     999902    2    1    2    0    0 -0.14147110883E-01 -0.19469643937E-01 -0.32334342709E-02  0.10196470249E+01  0.10193578334E+01 0.  0.
     999903    2    3    3    0    0 -0.15063944711E-01 -0.48936464263E-01 -0.11950269962E+00  0.13150983048E+00  0.19805058284E-01 0.  0.
         14    1    1    2    0    0  0.14147110883E-01  0.19469643937E-01  0.32334342709E-02  0.24282975076E-01  0.00000000000E+00 0. -1.
     999901    1    3    3    0    0  0.91683382812E-03  0.29466820326E-01  0.11626926534E+00  0.88813719444E+00  0.88000000000E+00 0. -1.
        -11    1    4    4    0    0 -0.89211718161E-02 -0.32741622575E-01 -0.54217026198E-01  0.63963647536E-01  0.51100000000E-03 0.  1.
         11    1    4    4    0    0 -0.61427728947E-02 -0.16194841688E-01 -0.65285673418E-01  0.67546182948E-01  0.51100000000E-03 0. -1.
</event>
<event>
 8    1  0.1150863E+005  0.1043930E+01  0.7957747E-01            NaN
         13   -1    0    0    0    0  0.00000000000E+00  0.00000000000E+00  0.74505805969E-08  0.10566000000E+00  0.10566000000E+00 0.  1.
     999900   -1    0    0    0    0 -0.00000000000E+00 -0.00000000000E+00 -0.74505805969E-08  0.93827000000E+00  0.93827000000E+00 0.  1.
     999902    2    1    2    0    0  0.91680122686E-02 -0.14887724880E-01 -0.15544822550E-01  0.10205347375E+01  0.10202665397E+01 0.  0.
     999903    2    3    3    0    0 -0.82091896250E-01  0.95606160526E-01  0.13882767418E-01  0.12845668445E+00  0.20706790881E-01 0.  0.
         14    1    1    2    0    0 -0.91680122686E-02  0.14887724880E-01  0.15544822550E-01  0.23395262537E-01  0.00000000000E+00 0.  1.
     999901    1    3    3    0    0  0.91259908518E-01 -0.11049388541E+00 -0.29427589968E-01  0.89207805301E+00  0.88000000000E+00 0.  1.
        -11    1    4    4    0    0 -0.51438285519E-02  0.15582208372E-01 -0.98676259814E-03  0.16446854147E-01  0.51100000000E-03 0. -1.
         11    1    4    4    0    0 -0.76948067698E-01  0.80023952154E-01  0.14869530016E-01  0.11200983030E+00  0.51100000000E-03 0.  1.
</event>
<event>
 8    1  0.1150863E+005  0.1043930E+01  0.7957747E-01            NaN
         13   -1    0    0    0    0  0.00000000000E+00  0.00000000000E+00  0.74505805969E-08  0.10566000000E+00  0.10566000000E+00 0. -1.
     999900   -1    0    0    0    0 -0.00000000000E+00 -0.00000000000E+00 -0.74505805969E-08  0.93827000000E+00  0.93827000000E+00 0.  1.
     999902    2    1    2    0    0  0.20377271131E-01 -0.68859390848E-03 -0.13077643157E-01  0.10197074466E+01  0.10194197098E+01 0.  0.
     999903    2    3    3    0    0  0.69800535223E-01  0.73330606993E-01 -0.83028622203E-01  0.13245627556E+00  0.20035473284E-01 0.  0.
         14    1    1    2    0    0 -0.20377271131E-01  0.68859390848E-03  0.13077643157E-01  0.24222553351E-01  0.00000000000E+00 0. -1.
     999901    1    3    3    0    0 -0.49423264092E-01 -0.74019200902E-01  0.69950979046E-01  0.88725117109E+00  0.88000000000E+00 0.  1.
        -11    1    4    4    0    0  0.17110740614E-01  0.30246828888E-01 -0.33570822971E-01  0.48320900013E-01  0.51100000000E-03 0. -1.
         11    1    4    4    0    0  0.52689794610E-01  0.43083778105E-01 -0.49457799232E-01  0.84135375543E-01  0.51100000000E-03 0.  1.
</event>
<event>
 8    1  0.1150863E+005  0.1043930E+01  0.7957747E-01            NaN
         13   -1    0    0    0    0  0.00000000000E+00  0.00000000000E+00  0.74505805969E-08  0.10566000000E+00  0.10566000000E+00 0.  1.
     999900   -1    0    0    0    0 -0.00000000000E+00 -0.00000000000E+00 -0.74505805969E-08  0.93827000000E+00  0.93827000000E+00 0.  1.
     999902    2    1    2    0    0 -0.20923954191E-01  0.90462474716E-02 -0.32478358884E-02  0.10209040388E+01  0.10206443364E+01 0.  0.
     999903    2    3    3    0    0 -0.65690923958E-01 -0.11094037409E+00 -0.17401418823E-01  0.13152155927E+00  0.19288522093E-01 0.  0.
         14    1    1    2    0    0  0.20923954191E-01 -0.90462474716E-02  0.32478358884E-02  0.23025961223E-01  0.00000000000E+00 0. -1.
     999901    1    3    3    0    0  0.44766969767E-01  0.11998662156E+00  0.14153582934E-01  0.88938247950E+00  0.88000000000E+00 0.  1.
        -11    1    4    4    0    0 -0.33044723216E-01 -0.72617237751E-01 -0.68124707854E-02  0.80074264469E-01  0.51100000000E-03 0. -1.
         11    1    4    4    0    0 -0.32646200742E-01 -0.38323136334E-01 -0.10588948037E-01  0.51447294806E-01  0.51100000000E-03 0.  1.
</event>
<event>
 8    1  0.1150863E+005  0.1043930E+01  0.7957747E-01            NaN
         13   -1    0    0    0    0  0.00000000000E+00  0.00000000000E+00  0.74505805969E-08  0.10566000000E+00  0.10566000000E+00 0.  1.
     999900   -1    0    0    0    0 -0.00000000000E+00 -0.00000000000E+00 -0.74505805969E-08  0.93827000000E+00  0.93827000000E+00 0.  1.
     999902    2    1    2    0    0 -0.53988655783E-02 -0.21992210284E-01 -0.49782303364E-02  0.10207440594E+01  0.10204806941E+01 0.  0.
     999903    2    3    3    0    0 -0.56655623234E-02 -0.81991734871E-01 -0.10262134348E+00  0.13331282738E+00  0.22055081565E-01 0.  0.
         14    1    1    2    0    0  0.53988655783E-02  0.21992210284E-01  0.49782303364E-02  0.23185940567E-01  0.00000000000E+00 0. -1.
     999901    1    3    3    0    0  0.26669674505E-03  0.59999524587E-01  0.97643113144E-01  0.88743123205E+00  0.88000000000E+00 0. -1.
        -11    1    4    4    0    0  0.67398289946E-02 -0.53924238501E-01 -0.67924781842E-01  0.86990148305E-01  0.51100000000E-03 0. -1.
         11    1    4    4    0    0 -0.12405391318E-01 -0.28067496369E-01 -0.34696561639E-01  0.46322679076E-01  0.51100000000E-03 0.  1.
</event>
<event>
 8    1  0.1150863E+005  0.1043930E+01  0.7957747E-01            NaN
         13   -1    0    0    0    0  0.00000000000E+00  0.00000000000E+00  0.74505805969E-08  0.10566000000E+00  0.10566000000E+00 0.  1.
     999900   -1    0    0    0    0 -0.00000000000E+00 -0.00000000000E+00 -0.74505805969E-08  0.93827000000E+00  0.93827000000E+00 0.  1.
     999902    2    1    2    0    0 -0.20067778442E-01 -0.21006989475E-02  0.12735650148E-01  0.10200694583E+01  0.10197903580E+01 0.  0.
     999903    2    3    3    0    0 -0.15947176686E-01  0.77421788529E-01 -0.10021977799E+00  0.12928343787E+00  0.20536738384E-01 0.  0.
         14    1    1    2    0    0  0.20067778442E-01  0.21006989475E-02 -0.12735650148E-01  0.23860541745E-01  0.00000000000E+00 0. -1.
     999901    1    3    3    0    0 -0.41206017567E-02 -0.79522487476E-01  0.11295542814E+00  0.89078602039E+00  0.88000000000E+00 0. -1.
        -11    1    4    4    0    0 -0.17305656560E-01  0.33519509501E-01 -0.47672943604E-01  0.60794851254E-01  0.51100000000E-03 0.  1.
         11    1    4    4    0    0  0.13584798741E-02  0.43902279028E-01 -0.52546834384E-01  0.68488586613E-01  0.51100000000E-03 0. -1.
</event>
<event>
 8    1  0.1150863E+005  0.1043930E+01  0.7957747E-01            NaN
         13   -1    0    0    0    0  0.00000000000E+00  0.00000000000E+00  0.74505805969E-08  0.10566000000E+00  0.10566000000E+00 0.  1.
     999900   -1    0    0    0    0 -0.00000000000E+00 -0.00000000000E+00 -0.74505805969E-08  0.93827000000E+00  0.93827000000E+00 0.  1.
     999902    2    1    2    0    0 -0.69412045887E-02  0.20035180507E-01  0.10112149408E-01  0.10204386325E+01  0.10201682011E+01 0.  0.
     999903    2    3    3    0    0  0.12236646608E+00  0.16037675290E-01 -0.35011211636E-01  0.12983626816E+00  0.20022800528E-01 0.  0.
         14    1    1    2    0    0  0.69412045887E-02 -0.20035180507E-01 -0.10112149408E-01  0.23491367452E-01  0.00000000000E+00 0. -1.
     999901    1    3    3    0    0 -0.12930767067E+00  0.39975052175E-02  0.45123361044E-01  0.89060236439E+00  0.88000000000E+00 0. -1.
        -11    1    4    4    0    0  0.21099553020E-01 -0.46381411257E-02 -0.75865447101E-02  0.22902407567E-01  0.51100000000E-03 0.  1.
         11    1    4    4    0    0  0.10126691306E+00  0.20675816415E-01 -0.27424666925E-01  0.10693386059E+00  0.51100000000E-03 0. -1.
</event>
<event>
 8    1  0.1150863E+005  0.1043930E+01  0.7957747E-01            NaN
         13   -1    0    0    0    0  0.00000000000E+00  0.00000000000E+00  0.74505805969E-08  0.10566000000E+00  0.10566000000E+00 0.  1.
     999900   -1    0    0    0    0 -0.00000000000E+00 -0.00000000000E+00 -0.74505805969E-08  0.93827000000E+00  0.93827000000E+00 0.  1.
     999902    2    1    2    0    0  0.83059183543E-02  0.19121806187E-01  0.80624682051E-02  0.10215774801E+01  0.10213329098E+01 0.  0.
     999903    2    3    3    0    0 -0.11487871728E+00  0.25936208710E-01  0.55631660719E-01  0.13169899481E+00  0.19491971470E-01 0.  0.
         14    1    1    2    0    0 -0.83059183543E-02 -0.19121806187E-01 -0.80624682051E-02  0.22352519883E-01  0.00000000000E+00 0.  1.
     999901    1    3    3    0    0  0.12318463564E+00 -0.68144025227E-02 -0.47569192514E-01  0.88987848531E+00  0.88000000000E+00 0.  1.
        -11    1    4    4    0    0 -0.43644779714E-01  0.36232707439E-02  0.28590281817E-01  0.52303539293E-01  0.51100000000E-03 0.  1.
         11    1    4    4    0    0 -0.71233937571E-01  0.22312937966E-01  0.27041378901E-01  0.79395455515E-01  0.51100000000E-03 0. -1.
</event>
<event>
 8    1  0.1150863E+005  0.1043930E+01  0.7957747E-01            NaN
         13   -1    0    0    0    0  0.00000000000E+00  0.00000000000E+00  0.74505805969E-08  0.10566000000E+00  0.10566000000E+00 0.  1.
     999900   -1    0    0    0    0 -0.00000000000E+00 -0.00000000000E+00 -0.74505805969E-08  0.93827000000E+00  0.93827000000E+00 0.  1.
     999902    2    1    2    0    0 -0.23108673002E-02  0.23613565060E-01  0.13061328006E-02  0.10201677075E+01  0.10198909279E+01 0.  0.
     999903    2    3    3    0    0  0.12787890128E+00  0.60650141514E-02  0.14220295392E-01  0.13032271926E+00  0.19798903085E-01 0.  0.
         14    1    1    2    0    0  0.23108673002E-02 -0.23613565060E-01 -0.13061328006E-02  0.23762292512E-01  0.00000000000E+00 0.  1.
     999901    1    3    3    0    0 -0.13018976858E+00  0.17548550909E-01 -0.12914162591E-01  0.88984498823E+00  0.88000000000E+00 0. -1.
        -11    1    4    4    0    0  0.51175743415E-03  0.44682516832E-03 -0.16407201018E-02  0.18478722507E-02  0.51100000000E-03 0. -1.
         11    1    4    4    0    0  0.12736714385E+00  0.56181889831E-02  0.15861015493E-01  0.12847484701E+00  0.51100000000E-03 0.  1.
</event>
<event>
 8    1  0.1150863E+005  0.1043930E+01  0.7957747E-01            NaN
         13   -1    0    0    0    0  0.00000000000E+00  0.00000000000E+00  0.74505805969E-08  0.10566000000E+00  0.10566000000E+00 0.  1.
     999900   -1    0    0    0    0 -0.00000000000E+00 -0.00000000000E+00 -0.74505805969E-08  0.93827000000E+00  0.93827000000E+00 0. -1.
     999902    2    1    2    0    0  0.18505389473E-02 -0.23218352879E-01  0.45813940656E-02  0.10201917276E+01  0.10199155139E+01 0.  0.
     999903    2    3    3    0    0  0.12507236378E+00  0.27128735032E-01  0.13025693596E-01  0.13014130568E+00  0.19698383255E-01 0.  0.
         14    1    1    2    0    0 -0.18505389473E-02  0.23218352879E-01 -0.45813940656E-02  0.23738272397E-01  0.00000000000E+00 0.  1.
     999901    1    3    3    0    0 -0.12322182484E+00 -0.50347087911E-01 -0.84442995301E-02  0.89005042193E+00  0.88000000000E+00 0.  1.
        -11    1    4    4    0    0  0.78583214209E-01  0.79383033496E-02  0.11532409101E-01  0.79822276315E-01  0.51100000000E-03 0.  1.
         11    1    4    4    0    0  0.46489149574E-01  0.19190431682E-01  0.14932844945E-02  0.50319029361E-01  0.51100000000E-03 0. -1.
</event>
<event>
 8    1  0.1150863E+005  0.1043930E+01  0.7957747E-01            NaN
         13   -1    0    0    0    0  0.00000000000E+00  0.00000000000E+00  0.74505805969E-08  0.10566000000E+00  0.10566000000E+00 0.  1.
     999900   -1    0    0    0    0 -0.00000000000E+00 -0.00000000000E+00 -0.74505805969E-08  0.93827000000E+00  0.93827000000E+00 0. -1.
     999902    2    1    2    0    0  0.12230988864E-01 -0.14680792369E-01 -0.14320660182E-01  0.10200510540E+01  0.10197715179E+01 0.  0.
     999903    2    3    3    0    0  0.31840232317E-01  0.80704217138E-01  0.92389129281E-01  0.12827204460E+00  0.19773597531E-01 0.  0.
         14    1    1    2    0    0 -0.12230988864E-01  0.14680792369E-01  0.14320660182E-01  0.23878945982E-01  0.00000000000E+00 0.  1.
     999901    1    3    3    0    0 -0.19609243452E-01 -0.95385009507E-01 -0.10670978946E+00  0.89177900942E+00  0.88000000000E+00 0. -1.
        -11    1    4    4    0    0  0.25496446668E-01  0.68905336160E-01  0.66411201196E-01  0.99038996911E-01  0.51100000000E-03 0.  1.
         11    1    4    4    0    0  0.63437856489E-02  0.11798880979E-01  0.25977928085E-01  0.29233047691E-01  0.51100000000E-03 0. -1.
</event>
<event>
 8    1  0.1150863E+005  0.1043930E+01  0.7957747E-01            NaN
         13   -1    0    0    0    0  0.00000000000E+00  0.00000000000E+00  0.74505805969E-08  0.10566000000E+00  0.10566000000E+00 0.  1.
     999900   -1    0    0    0    0 -0.00000000000E+00 -0.00000000000E+00 -0.74505805969E-08  0.93827000000E+00  0.93827000000E+00 0.  1.
     999902    2    1    2    0    0 -0.14742208769E-01 -0.16127669613E-01  0.75585459413E-02  0.10208093153E+01  0.10205474472E+01 0.  0.
     999903    2    3    3    0    0  0.56123515351E-01 -0.39886886861E-01  0.11000597642E+00  0.13171880958E+00  0.22532581558E-01 0.  0.
         14    1    1    2    0    0  0.14742208769E-01  0.16127669613E-01 -0.75585459413E-02  0.23120684750E-01  0.00000000000E+00 0. -1.
     999901    1    3    3    0    0 -0.70865724120E-01  0.23759217248E-01 -0.10244743047E+00  0.88909050567E+00  0.88000000000E+00 0.  1.
        -11    1    4    4    0    0  0.31482881461E-01 -0.13557062875E-01  0.37950215679E-01  0.51141429095E-01  0.51100000000E-03 0. -1.
         11    1    4    4    0    0  0.24640633890E-01 -0.26329823987E-01  0.72055760737E-01  0.80577380486E-01  0.51100000000E-03 0.  1.
</event>
<event>
 8    1  0.1150863E+005  0.1043930E+01  0.7957747E-01            NaN
         13   -1    0    0    0    0  0.00000000000E+00  0.00000000000E+00  0.74505805969E-08  0.10566000000E+00  0.10566000000E+00 0. -1.
     999900   -1    0    0    0    0 -0.00000000000E+00 -0.00000000000E+00 -0.74505805969E-08  0.93827000000E+00  0.93827000000E+00 0.  1.
     999902    2    1    2    0    0 -0.12262115291E-01  0.17832127224E-01  0.96078896875E-02  0.10202518291E+01  0.10199770287E+01 0.  0.
     999903    2    3    3    0    0 -0.10696540087E+00  0.76410152688E-01  0.65103167646E-02  0.13322889122E+00  0.20674738587E-01 0.  0.
         14    1    1    2    0    0  0.12262115291E-01 -0.17832127224E-01 -0.96078896875E-02  0.23678170896E-01  0.00000000000E+00 0. -1.
     999901    1    3    3    0    0  0.94703285578E-01 -0.58578025464E-01  0.30975729229E-02  0.88702293788E+00  0.88000000000E+00 0. -1.
        -11    1    4    4    0    0 -0.62582576999E-01  0.55876448304E-01  0.81678635011E-02  0.84295501269E-01  0.51100000000E-03 0. -1.
         11    1    4    4    0    0 -0.44382823870E-01  0.20533704383E-01 -0.16575467365E-02  0.48933389955E-01  0.51100000000E-03 0.  1.
</event>
<event>
 8    1  0.1150863E+005  0.1043930E+01  0.7957747E-01            NaN
         13   -1    0    0    0    0  0.00000000000E+00  0.00000000000E+00  0.74505805969E-08  0.10566000000E+00  0.10566000000E+00 0.  1.
     999900   -1    0    0    0    0 -0.00000000000E+00 -0.00000000000E+00 -0.74505805969E-08  0.93827000000E+00  0.93827000000E+00 0. -1.
     999902    2    1    2    0    0  0.12185090371E-01  0.20297762963E-01  0.94500838659E-02  0.10184392234E+01  0.10181201658E+01 0.  0.
     999903    2    3    3    0    0 -0.80118909296E-01 -0.84306874365E-01  0.46710686756E-01  0.12667102981E+00  0.18356820075E-01 0.  0.
         14    1    1    2    0    0 -0.12185090371E-01 -0.20297762963E-01 -0.94500838659E-02  0.25490776640E-01  0.00000000000E+00 0. -1.
     999901    1    3    3    0    0  0.92303999667E-01  0.10460463733E+00 -0.37260602890E-01  0.89176819355E+00  0.88000000000E+00 0. -1.
        -11    1    4    4    0    0 -0.21927741299E-01 -0.29305511782E-01  0.69057488143E-02  0.37250360360E-01  0.51100000000E-03 0. -1.
         11    1    4    4    0    0 -0.58191167997E-01 -0.55001362583E-01  0.39804937941E-01  0.89420669447E-01  0.51100000000E-03 0.  1.
</event>
<event>
 8    1  0.1150863E+005  0.1043930E+01  0.7957747E-01            NaN
         13   -1    0    0    0    0  0.00000000000E+00  0.00000000000E+00  0.74505805969E-08  0.10566000000E+00  0.10566000000E+00 0.  1.
     999900   -1    0    0    0    0 -0.00000000000E+00 -0.00000000000E+00 -0.74505805969E-08  0.93827000000E+00  0.93827000000E+00 0.  1.
     999902    2    1    2    0    0  0.15307378734E-01  0.10231900544E-01  0.14760760334E-01  0.10203315323E+01  0.10200586003E+01 0.  0.
     999903    2    3    3    0    0  0.10222059286E+00 -0.76594914454E-01  0.24119738596E-01  0.13174816926E+00  0.21447325874E-01 0.  0.
         14    1    1    2    0    0 -0.15307378734E-01 -0.10231900544E-01 -0.14760760334E-01  0.23598467706E-01  0.00000000000E+00 0. -1.
     999901    1    3    3    0    0 -0.86913214128E-01  0.86826814998E-01 -0.93589782611E-02  0.88858336304E+00  0.88000000000E+00 0. -1.
        -11    1    4    4    0    0  0.12646311795E-01 -0.19445627682E-01  0.59441499672E-02  0.23951110158E-01  0.51100000000E-03 0.  1.
         11    1    4    4    0    0  0.89574281067E-01 -0.57149286772E-01  0.18175588628E-01  0.10779705910E+00  0.51100000000E-03 0. -1.
</event>
<event>
 8    1  0.1150863E+005  0.1043930E+01  0.7957747E-01            NaN
         13   -1    0    0    0    0  0.00000000000E+00  0.00000000000E+00  0.74505805969E-08  0.10566000000E+00  0.10566000000E+00 0.  1.
     999900   -1    0    0    0    0 -0.00000000000E+00 -0.00000000000E+00 -0.74505805969E-08  0.93827000000E+00  0.93827000000E+00 0. -1.
     999902    2    1    2    0    0 -0.28826017271E-01 -0.56757228633E-03 -0.54764643451E-02  0.10145828865E+01  0.10141583606E+01 0.  0.
     999903    2    3    3    0    0  0.49745815204E-01 -0.61194039920E-01 -0.94275093393E-01  0.12456361818E+00  0.20222390735E-01 0.  0.
         14    1    1    2    0    0  0.28826017271E-01  0.56757228633E-03  0.54764643451E-02  0.29347113516E-01  0.00000000000E+00 0.  1.
     999901    1    3    3    0    0 -0.78571832475E-01  0.60626467634E-01  0.88798629048E-01  0.89001926831E+00  0.88000000000E+00 0.  1.
        -11    1    4    4    0    0  0.48034782419E-01 -0.53531070577E-01 -0.91120041003E-01  0.11608634214E+00  0.51100000000E-03 0. -1.
         11    1    4    4    0    0  0.17110327853E-02 -0.76629693435E-02 -0.31550523906E-02  0.84772760330E-02  0.51100000000E-03 0.  1.
</event>
<event>
 8    1  0.1150863E+005  0.1043930E+01  0.7957747E-01            NaN
         13   -1    0    0    0    0  0.00000000000E+00  0.00000000000E+00  0.74505805969E-08  0.10566000000E+00  0.10566000000E+00 0. -1.
     999900   -1    0    0    0    0 -0.00000000000E+00 -0.00000000000E+00 -0.74505805969E-08  0.93827000000E+00  0.93827000000E+00 0. -1.
     999902    2    1    2    0    0 -0.72152820240E-02 -0.14064176113E-01  0.13191810075E-01  0.10233415276E+01  0.10231343982E+01 0.  0.
     999903    2    3    3    0    0 -0.22797101538E-01  0.12047937322E+00  0.45830172333E-01  0.13238135872E+00  0.19734037378E-01 0.  0.
         14    1    1    2    0    0  0.72152820240E-02  0.14064176113E-01 -0.13191810075E-01  0.20588472441E-01  0.00000000000E+00 0.  1.
     999901    1    3    3    0    0  0.15581819514E-01 -0.13454354933E+00 -0.32638362258E-01  0.89096016884E+00  0.88000000000E+00 0.  1.
        -11    1    4    4    0    0 -0.71137406113E-02  0.67993643736E-01  0.33926563863E-01  0.76321777695E-01  0.51100000000E-03 0.  1.
         11    1    4    4    0    0 -0.15683360926E-01  0.52485729481E-01  0.11903608470E-01  0.56059581025E-01  0.51100000000E-03 0. -1.
</event>
<event>
 8    1  0.1150863E+005  0.1043930E+01  0.7957747E-01            NaN
         13   -1    0    0    0    0  0.00000000000E+00  0.00000000000E+00  0.74505805969E-08  0.10566000000E+00  0.10566000000E+00 0. -1.
     999900   -1    0    0    0    0 -0.00000000000E+00 -0.00000000000E+00 -0.74505805969E-08  0.93827000000E+00  0.93827000000E+00 0.  1.
     999902    2    1    2    0    0 -0.14407197268E-01 -0.15054042792E-01  0.11883617809E-01  0.10199422550E+01  0.10196601354E+01 0.  0.
     999903    2    3    3    0    0  0.78310051469E-01  0.56155375568E-01 -0.80882510051E-01  0.12737694986E+00  0.19925274343E-01 0.  0.
         14    1    1    2    0    0  0.14407197268E-01  0.15054042792E-01 -0.11883617809E-01  0.23987744990E-01  0.00000000000E+00 0.  1.
     999901    1    3    3    0    0 -0.92717248736E-01 -0.71209418360E-01  0.92766127860E-01  0.89256530515E+00  0.88000000000E+00 0. -1.
        -11    1    4    4    0    0  0.44904331957E-01  0.27231250263E-01 -0.32085389805E-01  0.61544076720E-01  0.51100000000E-03 0. -1.
         11    1    4    4    0    0  0.33405719511E-01  0.28924125305E-01 -0.48797120245E-01  0.65832873141E-01  0.51100000000E-03 0.  1.
</event>
<event>
 8    1  0.1150863E+005  0.1043930E+01  0.7957747E-01            NaN
         13   -1    0    0    0    0  0.00000000000E+00  0.00000000000E+00  0.74505805969E-08  0.10566000000E+00  0.10566000000E+00 0. -1.
     999900   -1    0    0    0    0 -0.00000000000E+00 -0.00000000000E+00 -0.74505805969E-08  0.93827000000E+00  0.93827000000E+00 0.  1.
     999902    2    1    2    0    0  0.41346454330E-02  0.16612833185E-01  0.16977296847E-01  0.10198196261E+01  0.10195345800E+01 0.  0.
     999903    2    3    3    0    0  0.60447480849E-01 -0.39645276823E-01  0.10784354695E+00  0.13156696739E+00  0.21307049850E-01 0.  0.
         14    1    1    2    0    0 -0.41346454330E-02 -0.16612833185E-01 -0.16977296847E-01  0.24110373857E-01  0.00000000000E+00 0.  1.
     999901    1    3    3    0    0 -0.56312835416E-01  0.56258110009E-01 -0.90866250105E-01  0.88825265875E+00  0.88000000000E+00 0.  1.
        -11    1    4    4    0    0  0.16527617361E-01 -0.29181795403E-02  0.15144165445E-01  0.22611607096E-01  0.51100000000E-03 0.  1.
         11    1    4    4    0    0  0.43919863488E-01 -0.36727097283E-01  0.92699381508E-01  0.10895536029E+00  0.51100000000E-03 0. -1.
</event>
<event>
 8    1  0.1150863E+005  0.1043930E+01  0.7957747E-01            NaN
         13   -1    0    0    0    0  0.00000000000E+00  0.00000000000E+00  0.74505805969E-08  0.10566000000E+00  0.10566000000E+00 0.  1.
     999900   -1    0    0    0    0 -0.00000000000E+00 -0.00000000000E+00 -0.74505805969E-08  0.93827000000E+00  0.93827000000E+00 0. -1.
     999902    2    1    2    0    0 -0.19511824483E-01  0.11799728148E-01 -0.60970946937E-02  0.10203266222E+01  0.10200535753E+01 0.  0.
     999903    2    3    3    0    0  0.52158823834E-02  0.12720498322E+00  0.27719496550E-01  0.13180346876E+00  0.19886445216E-01 0.  0.
         14    1    1    2    0    0  0.19511824483E-01 -0.11799728148E-01  0.60970946937E-02  0.23603377783E-01  0.00000000000E+00 0.  1.
     999901    1    3    3    0    0 -0.24727706867E-01 -0.11540525507E+00 -0.33816591243E-01  0.88852315346E+00  0.88000000000E+00 0. -1.
        -11    1    4    4    0    0  0.29075191996E-02  0.86987981448E-01  0.93895518458E-02  0.87543060200E-01  0.51100000000E-03 0. -1.
         11    1    4    4    0    0  0.23083631838E-02  0.40217001772E-01  0.18329944704E-01  0.44260408561E-01  0.51100000000E-03 0.  1.
</event>
<event>
 8    1  0.1150863E+005  0.1043930E+01  0.7957747E-01            NaN
         13   -1    0    0    0    0  0.00000000000E+00  0.00000000000E+00  0.74505805969E-08  0.10566000000E+00  0.10566000000E+00 0. -1.
     999900   -1    0    0    0    0 -0.00000000000E+00 -0.00000000000E+00 -0.74505805969E-08  0.93827000000E+00  0.93827000000E+00 0.  1.
     999902    2    1    2    0    0 -0.11162260363E-01 -0.12467996751E-01  0.17464235001E-01  0.10197422654E+01  0.10194553651E+01 0.  0.
     999903    2    3    3    0    0 -0.34631769024E-01 -0.49556831150E-01  0.11686459102E+00  0.13305921594E+00  0.19803620224E-01 0.  0.
         14    1    1    2    0    0  0.11162260363E-01  0.12467996751E-01 -0.17464235001E-01  0.24187734568E-01  0.00000000000E+00 0.  1.
     999901    1    3    3    0    0  0.23469508661E-01  0.37088834399E-01 -0.99400356018E-01  0.88668304949E+00  0.88000000000E+00 0.  1.
        -11    1    4    4    0    0 -0.75623193947E-02 -0.19068257268E-01  0.57403596656E-01  0.60960816431E-01  0.51100000000E-03 0.  1.
         11    1    4    4    0    0 -0.27069449629E-01 -0.30488573882E-01  0.59460994362E-01  0.72098399512E-01  0.51100000000E-03 0. -1.
</event>
<event>
 8    1  0.1150863E+005  0.1043930E+01  0.7957747E-01            NaN
         13   -1    0    0    0    0  0.00000000000E+00  0.00000000000E+00  0.74505805969E-08  0.10566000000E+00  0.10566000000E+00 0. -1.
     999900   -1    0    0    0    0 -0.00000000000E+00 -0.00000000000E+00 -0.74505805969E-08  0.93827000000E+00  0.93827000000E+00 0. -1.
     999902    2    1    2    0    0  0.20846303630E-01 -0.82333242866E-02  0.59823400079E-02  0.10207320605E+01  0.10204684194E+01 0.  0.
     999903    2    3    3    0    0  0.48447658300E-01 -0.12309687205E+00 -0.72993963437E-02  0.13273888831E+00  0.81434500186E-02 0.  0.
         14    1    1    2    0    0 -0.20846303630E-01  0.82333242866E-02 -0.59823400079E-02  0.23197939474E-01  0.00000000000E+00 0.  1.
     999901    1    3    3    0    0 -0.27601354670E-01  0.11486354777E+00  0.13281736352E-01  0.88799317222E+00  0.88000000000E+00 0. -1.
        -11    1    4    4    0    0  0.19080639479E-01 -0.40487153059E-01 -0.49232916078E-02  0.45030881482E-01  0.51100000000E-03 0.  1.
         11    1    4    4    0    0  0.29367018821E-01 -0.82609718994E-01 -0.23761047358E-02  0.87708006826E-01  0.51100000000E-03 0. -1.
</event>
<event>
 8    1  0.1150863E+005  0.1043930E+01  0.7957747E-01            NaN
         13   -1    0    0    0    0  0.00000000000E+00  0.00000000000E+00  0.74505805969E-08  0.10566000000E+00  0.10566000000E+00 0.  1.
     999900   -1    0    0    0    0 -0.00000000000E+00 -0.00000000000E+00 -0.74505805969E-08  0.93827000000E+00  0.93827000000E+00 0.  1.
     999902    2    1    2    0    0  0.31673386102E-02 -0.58398436468E-02  0.22633339963E-01  0.10203417850E+01  0.10200690929E+01 0.  0.
     999903    2    3    3    0    0 -0.79805294924E-01  0.68718149513E-01  0.76151113591E-01  0.13168690019E+00  0.21245668009E-01 0.  0.
         14    1    1    2    0    0 -0.31673386102E-02  0.58398436468E-02 -0.22633339963E-01  0.23588214972E-01  0.00000000000E+00 0. -1.
     999901    1    3    3    0    0  0.82972633535E-01 -0.74557993160E-01 -0.53517773628E-01  0.88865488484E+00  0.88000000000E+00 0.  1.
        -11    1    4    4    0    0 -0.69790031231E-01  0.63487232231E-01  0.59449594035E-01  0.11151588437E+00  0.51100000000E-03 0. -1.
         11    1    4    4    0    0 -0.10015263693E-01  0.52309172815E-02  0.16701519556E-01  0.20171015813E-01  0.51100000000E-03 0.  1.
</event>
<event>
 8    1  0.1150863E+005  0.1043930E+01  0.7957747E-01            NaN
         13   -1    0    0    0    0  0.00000000000E+00  0.00000000000E+00  0.74505805969E-08  0.10566000000E+00  0.10566000000E+00 0.  1.
     999900   -1    0    0    0    0 -0.00000000000E+00 -0.00000000000E+00 -0.74505805969E-08  0.93827000000E+00  0.93827000000E+00 0. -1.
     999902    2    1    2    0    0 -0.14072159270E-01 -0.91808138687E-02 -0.16522839995E-01  0.10203648297E+01  0.10200926764E+01 0.  0.
     999903    2    3    3    0    0 -0.13575802354E-01  0.11813266820E+00  0.45946794361E-01  0.12901112645E+00  0.19827585071E-01 0.  0.
         14    1    1    2    0    0  0.14072159270E-01  0.91808138687E-02  0.16522839995E-01  0.23565170301E-01  0.00000000000E+00 0.  1.
     999901    1    3    3    0    0 -0.49635691663E-03 -0.12731348207E+00 -0.62469634355E-01  0.89135370325E+00  0.88000000000E+00 0.  1.
        -11    1    4    4    0    0  0.42560922094E-03  0.70466375597E-01  0.32091034219E-01  0.77432466261E-01  0.51100000000E-03 0.  1.
         11    1    4    4    0    0 -0.14001411574E-01  0.47666292601E-01  0.13855760141E-01  0.51578660185E-01  0.51100000000E-03 0. -1.
</event>
<event>
 8    1  0.1150863E+005  0.1043930E+01  0.7957747E-01            NaN
         13   -1    0    0    0    0  0.00000000000E+00  0.00000000000E+00  0.74505805969E-08  0.10566000000E+00  0.10566000000E+00 0. -1.
     999900   -1    0    0    0    0 -0.00000000000E+00 -0.00000000000E+00 -0.74505805969E-08  0.93827000000E+00  0.93827000000E+00 0. -1.
     999902    2    1    2    0    0 -0.23555937219E-01  0.77076353294E-02 -0.68619886949E-04  0.10191450342E+01  0.10188436122E+01 0.  0.
     999903    2    3    3    0    0 -0.49293341279E-01 -0.89868638614E-02 -0.11901095314E+00  0.13061343718E+00  0.19638375435E-01 0.  0.
         14    1    1    2    0    0  0.23555937219E-01 -0.77076353294E-02  0.68619886949E-04  0.24784965793E-01  0.00000000000E+00 0. -1.
     999901    1    3    3    0    0  0.25737404060E-01  0.16694499191E-01  0.11894233325E+00  0.88853159702E+00  0.88000000000E+00 0.  1.
        -11    1    4    4    0    0 -0.96329455423E-02  0.52361915999E-02 -0.34087446943E-01  0.35810982985E-01  0.51100000000E-03 0.  1.
         11    1    4    4    0    0 -0.39660395737E-01 -0.14223055461E-01 -0.84923506194E-01  0.94802454198E-01  0.51100000000E-03 0. -1.
</event>
<event>
 8    1  0.1150863E+005  0.1043930E+01  0.7957747E-01            NaN
         13   -1    0    0    0    0  0.00000000000E+00  0.00000000000E+00  0.74505805969E-08  0.10566000000E+00  0.10566000000E+00 0.  1.
     999900   -1    0    0    0    0 -0.00000000000E+00 -0.00000000000E+00 -0.74505805969E-08  0.93827000000E+00  0.93827000000E+00 0.  1.
     999902    2    1    2    0    0 -0.15955892073E-01 -0.78742557354E-02 -0.15211381523E-01  0.10205210162E+01  0.10202525001E+01 0.  0.
     999903    2    3    3    0    0  0.70890254479E-01  0.10579304277E+00 -0.20600025590E-02  0.12887340267E+00  0.19659965117E-01 0.  0.
         14    1    1    2    0    0  0.15955892073E-01  0.78742557354E-02  0.15211381523E-01  0.23408983811E-01  0.00000000000E+00 0. -1.
     999901    1    3    3    0    0 -0.86846146551E-01 -0.11366729850E+00 -0.13151378964E-01  0.89164761352E+00  0.88000000000E+00 0.  1.
        -11    1    4    4    0    0  0.22695844643E-01  0.22330415516E-01  0.50095270533E-02  0.32235156327E-01  0.51100000000E-03 0.  1.
         11    1    4    4    0    0  0.48194409836E-01  0.83462627250E-01 -0.70695296123E-02  0.96638246346E-01  0.51100000000E-03 0. -1.
</event>
<event>
 8    1  0.1150863E+005  0.1043930E+01  0.7957747E-01            NaN
         13   -1    0    0    0    0  0.00000000000E+00  0.00000000000E+00  0.74505805969E-08  0.10566000000E+00  0.10566000000E+00 0.  1.
     999900   -1    0    0    0    0 -0.00000000000E+00 -0.00000000000E+00 -0.74505805969E-08  0.93827000000E+00  0.93827000000E+00 0. -1.
     999902    2    1    2    0    0 -0.61978190561E-02 -0.16525270150E-02 -0.23019891048E-01  0.10200331552E+01  0.10197531949E+01 0.  0.
     999903    2    3    3    0    0  0.54267067848E-01 -0.68751716971E-01 -0.97250703845E-01  0.13230092227E+00  0.19342217996E-01 0.  0.
         14    1    1    2    0    0  0.61978190561E-02  0.16525270150E-02  0.23019891048E-01  0.23896844781E-01  0.00000000000E+00 0.  1.
     999901    1    3    3    0    0 -0.60464886904E-01  0.67099189956E-01  0.74230812796E-01  0.88773223295E+00  0.88000000000E+00 0.  1.
        -11    1    4    4    0    0  0.42469117488E-01 -0.42986432874E-01 -0.56984153168E-01  0.83059702532E-01  0.51100000000E-03 0.  1.
         11    1    4    4    0    0  0.11797950360E-01 -0.25765284098E-01 -0.40266550677E-01  0.49241219743E-01  0.51100000000E-03 0. -1.
</event>
<event>
 8    1  0.1150863E+005  0.1043930E+01  0.7957747E-01            NaN
         13   -1    0    0    0    0  0.00000000000E+00  0.00000000000E+00  0.74505805969E-08  0.10566000000E+00  0.10566000000E+00 0. -1.
     999900   -1    0    0    0    0 -0.00000000000E+00 -0.00000000000E+00 -0.74505805969E-08  0.93827000000E+00  0.93827000000E+00 0. -1.
     999902    2    1    2    0    0 -0.13380667042E-01  0.19237135863E-01  0.24082122509E-02  0.10203734906E+01  0.10201015397E+01 0.  0.
     999903    2    3    3    0    0 -0.10047247880E+00 -0.18224719892E-01  0.81033437426E-01  0.13179580673E+00  0.19412812248E-01 0.  0.
         14    1    1    2    0    0  0.13380667042E-01 -0.19237135863E-01 -0.24082122509E-02  0.23556509354E-01  0.00000000000E+00 0. -1.
     999901    1    3    3    0    0  0.87091811762E-01  0.37461855755E-01 -0.78625225175E-01  0.88857768391E+00  0.88000000000E+00 0. -1.
        -11    1    4    4    0    0 -0.20339200513E-01 -0.10992708775E-01  0.13704849692E-01  0.26881345758E-01  0.51100000000E-03 0.  1.
         11    1    4    4    0    0 -0.80133278292E-01 -0.72320111176E-02  0.67328587734E-01  0.10491446098E+00  0.51100000000E-03 0. -1.
</event>
<event>
 8    1  0.1150863E+005  0.1043930E+01  0.7957747E-01            NaN
         13   -1    0    0    0    0  0.00000000000E+00  0.00000000000E+00  0.74505805969E-08  0.10566000000E+00  0.10566000000E+00 0.  1.
     999900   -1    0    0    0    0 -0.00000000000E+00 -0.00000000000E+00 -0.74505805969E-08  0.93827000000E+00  0.93827000000E+00 0.  1.
     999902    2    1    2    0    0  0.15311006886E-01  0.13954662304E-01 -0.10408641893E-01  0.10207459676E+01  0.10204826461E+01 0.  0.
     999903    2    3    3    0    0 -0.35853516270E-01 -0.10598405771E+00 -0.62301489177E-01  0.12962534020E+00  0.20078798542E-01 0.  0.
         14    1    1    2    0    0 -0.15311006886E-01 -0.13954662304E-01  0.10408641893E-01  0.23184032392E-01  0.00000000000E+00 0.  1.
     999901    1    3    3    0    0  0.51164523156E-01  0.11993872002E+00  0.51892847284E-01  0.89112062741E+00  0.88000000000E+00 0.  1.
        -11    1    4    4    0    0 -0.13889186837E-01 -0.57307633033E-01 -0.42412301996E-01  0.72637034606E-01  0.51100000000E-03 0. -1.
         11    1    4    4    0    0 -0.21964329433E-01 -0.48676424679E-01 -0.19889187181E-01  0.56988305596E-01  0.51100000000E-03 0.  1.
</event>
<event>
 8    1  0.1150863E+005  0.1043930E+01  0.7957747E-01            NaN
         13   -1    0    0    0    0  0.00000000000E+00  0.00000000000E+00  0.74505805969E-08  0.10566000000E+00  0.10566000000E+00 0.  1.
     999900   -1    0    0    0    0 -0.00000000000E+00 -0.00000000000E+00 -0.74505805969E-08  0.93827000000E+00  0.93827000000E+00 0.  1.
     999902    2    1    2    0    0  0.21130446800E-01 -0.26957008734E-03  0.10417757758E-01  0.10203694795E+01  0.10200974348E+01 0.  0.
     999903    2    3    3    0    0  0.12690928653E+00 -0.32975409396E-01  0.15515617424E-01  0.13341693114E+00  0.19131087198E-01 0.  0.
         14    1    1    2    0    0 -0.21130446800E-01  0.26957008734E-03 -0.10417757758E-01  0.23560520510E-01  0.00000000000E+00 0.  1.
     999901    1    3    3    0    0 -0.10577883973E+00  0.32705839309E-01 -0.50978596659E-02  0.88695254835E+00  0.88000000000E+00 0.  1.
        -11    1    4    4    0    0  0.99955651562E-01 -0.33856775646E-01  0.11960666259E-01  0.10621079133E+00  0.51100000000E-03 0. -1.
         11    1    4    4    0    0  0.26953634967E-01  0.88136624929E-03  0.35549511651E-02  0.27206139807E-01  0.51100000000E-03 0.  1.
</event>
<event>
 8    1  0.1150863E+005  0.1043930E+01  0.7957747E-01            NaN
         13   -1    0    0    0    0  0.00000000000E+00  0.00000000000E+00  0.74505805969E-08  0.10566000000E+00  0.10566000000E+00 0. -1.
     999900   -1    0    0    0    0 -0.00000000000E+00 -0.00000000000E+00 -0.74505805969E-08  0.93827000000E+00  0.93827000000E+00 0. -1.
     999902    2    1    2    0    0 -0.24570544100E-02  0.23959105034E-01  0.33540258881E-03  0.10198429013E+01  0.10195584117E+01 0.  0.
     999903    2    3    3    0    0 -0.10396066452E+00 -0.26145397096E-01 -0.70358270045E-01  0.12978052180E+00  0.20032376712E-01 0.  0.
         14    1    1    2    0    0  0.24570544100E-02 -0.23959105034E-01 -0.33540258881E-03  0.24087098732E-01  0.00000000000E+00 0.  1.
     999901    1    3    3    0    0  0.10150361011E+00  0.50104502130E-01  0.70693672633E-01  0.89006237947E+00  0.88000000000E+00 0.  1.
        -11    1    4    4    0    0 -0.52580773545E-01 -0.99426899261E-02 -0.23778318121E-01  0.58559921134E-01  0.51100000000E-03 0. -1.
         11    1    4    4    0    0 -0.51379890979E-01 -0.16202707170E-01 -0.46579951923E-01  0.71220600663E-01  0.51100000000E-03 0.  1.
</event>
<event>
 8    1  0.1150863E+005  0.1043930E+01  0.7957747E-01            NaN
         13   -1    0    0    0    0  0.00000000000E+00  0.00000000000E+00  0.74505805969E-08  0.10566000000E+00  0.10566000000E+00 0.  1.
     999900   -1    0    0    0    0 -0.00000000000E+00 -0.00000000000E+00 -0.74505805969E-08  0.93827000000E+00  0.93827000000E+00 0. -1.
     999902    2    1    2    0    0 -0.19901821119E-01 -0.74143211479E-03 -0.12874747631E-01  0.10202152086E+01  0.10199395475E+01 0.  0.
     999903    2    3    3    0    0 -0.42186245917E-01 -0.12197756348E+00 -0.15303625365E-01  0.13162042209E+00  0.20773281477E-01 0.  0.
         14    1    1    2    0    0  0.19901821119E-01  0.74143211479E-03  0.12874747631E-01  0.23714791418E-01  0.00000000000E+00 0.  1.
     999901    1    3    3    0    0  0.22284424798E-01  0.12123613137E+00  0.24288777346E-02  0.88859478649E+00  0.88000000000E+00 0. -1.
        -11    1    4    4    0    0 -0.31378438387E-01 -0.10844356731E+00 -0.17175275937E-01  0.11419222790E+00  0.51100000000E-03 0. -1.
         11    1    4    4    0    0 -0.10807807530E-01 -0.13533996169E-01  0.18716505711E-02  0.17428194191E-01  0.51100000000E-03 0.  1.
</event>
<event>
 7    1  0.1150863E+005  0.1043930E+01  0.7957747E-01            NaN
         13   -1    0    0    0    0  0.00000000000E+00  0.00000000000E+00  0.74505805969E-08  0.10566000000E+00  0.10566000000E+00 0. -1.
     999900   -1    0    0    0    0 -0.00000000000E+00 -0.00000000000E+00 -0.74505805969E-08  0.93827000000E+00  0.93827000000E+00 0.  1.
     999903    2    1    2    0    0 -0.21881518625E-01 -0.55605345218E-01 -0.71825665819E-01  0.95827125470E-01  0.21287471229E-01 0.  0.
         14    1    1    2    0    0 -0.29999581842E-01  0.15242421302E-01 -0.46876345540E-01  0.57703536192E-01  0.00000000000E+00 0.  1.
     999901    1    1    2    0    0  0.51881100467E-01  0.40362923916E-01  0.11870201136E+00  0.89039933834E+00  0.88000000000E+00 0. -1.
        -11    1    3    3    0    0 -0.69395447068E-02 -0.14360633077E-02 -0.62034542526E-02  0.94320477218E-02  0.51100000000E-03 0. -1.
         11    1    3    3    0    0 -0.14941973918E-01 -0.54169281910E-01 -0.65622211567E-01  0.86395077748E-01  0.51100000000E-03 0.  1.
</event>
<event>
 8    1  0.1150863E+005  0.1043930E+01  0.7957747E-01            NaN
         13   -1    0    0    0    0  0.00000000000E+00  0.00000000000E+00  0.74505805969E-08  0.10566000000E+00  0.10566000000E+00 0. -1.
     999900   -1    0    0    0    0 -0.00000000000E+00 -0.00000000000E+00 -0.74505805969E-08  0.93827000000E+00  0.93827000000E+00 0.  1.
     999902    2    1    2    0    0  0.13351309327E-01 -0.38382503765E-02 -0.19119571174E-01  0.10202963877E+01  0.10200226327E+01 0.  0.
     999903    2    3    3    0    0  0.12611317835E+00 -0.78534238189E-02  0.31282347678E-01  0.13166164042E+00  0.19748221745E-01 0.  0.
         14    1    1    2    0    0 -0.13351309327E-01  0.38382503765E-02  0.19119571174E-01  0.23633612263E-01  0.00000000000E+00 0. -1.
     999901    1    3    3    0    0 -0.11276186902E+00  0.40151734424E-02 -0.50401918853E-01  0.88863474732E+00  0.88000000000E+00 0.  1.
        -11    1    4    4    0    0  0.64284989481E-01  0.37644771626E-02  0.22094150153E-01  0.68081890050E-01  0.51100000000E-03 0.  1.
         11    1    4    4    0    0  0.61828188867E-01 -0.11617900982E-01  0.91881975256E-02  0.63579750365E-01  0.51100000000E-03 0. -1.
</event>
<event>
 8    1  0.1150863E+005  0.1043930E+01  0.7957747E-01            NaN
         13   -1    0    0    0    0  0.00000000000E+00  0.00000000000E+00  0.74505805969E-08  0.10566000000E+00  0.10566000000E+00 0. -1.
     999900   -1    0    0    0    0 -0.00000000000E+00 -0.00000000000E+00 -0.74505805969E-08  0.93827000000E+00  0.93827000000E+00 0.  1.
     999902    2    1    2    0    0 -0.45465078081E-02  0.11391202594E-01 -0.17982518945E-01  0.10221630246E+01  0.10219312343E+01 0.  0.
     999903    2    3    3    0    0  0.19896324821E-01 -0.86569707213E-01 -0.96898749648E-01  0.13288153747E+00  0.19441125686E-01 0.  0.
         14    1    1    2    0    0  0.45465078081E-02 -0.11391202594E-01  0.17982518945E-01  0.21766975384E-01  0.00000000000E+00 0. -1.
     999901    1    3    3    0    0 -0.24442832629E-01  0.97960909807E-01  0.78916230703E-01  0.88928148715E+00  0.88000000000E+00 0. -1.
        -11    1    4    4    0    0 -0.12330844509E-02 -0.14500587944E-01 -0.84052937582E-02  0.16813614488E-01  0.51100000000E-03 0. -1.
         11    1    4    4    0    0  0.21129409272E-01 -0.72069119269E-01 -0.88493455889E-01  0.11606792298E+00  0.51100000000E-03 0.  1.
</event>
<event>
 8    1  0.1150863E+005  0.1043930E+01  0.7957747E-01            NaN
         13   -1    0    0    0    0  0.00000000000E+00  0.00000000000E+00  0.74505805969E-08  0.10566000000E+00  0.10566000000E+00 0.  1.
     999900   -1    0    0    0    0 -0.00000000000E+00 -0.00000000000E+00 -0.74505805969E-08  0.93827000000E+00  0.93827000000E+00 0.  1.
     999902    2    1    2    0    0 -0.82679379663E-02  0.13164862620E-01  0.17259318309E-01  0.10207016450E+01  0.10204373041E+01 0.  0.
     999903    2    3    3    0    0 -0.11957101531E+00  0.54004552305E-01  0.24646488168E-02  0.13262780940E+00  0.19244270884E-01 0.  0.
         14    1    1    2    0    0  0.82679379663E-02 -0.13164862620E-01 -0.17259318309E-01  0.23228354968E-01  0.00000000000E+00 0. -1.
     999901    1    3    3    0    0  0.11130307734E+00 -0.40839689685E-01  0.14794669493E-01  0.88807383563E+00  0.88000000000E+00 0.  1.
        -11    1    4    4    0    0 -0.23668695451E-01  0.19306483127E-01  0.23686812496E-02  0.30640156771E-01  0.51100000000E-03 0. -1.
         11    1    4    4    0    0 -0.95902319859E-01  0.34698069178E-01  0.95967567193E-04  0.10198765263E+00  0.51100000000E-03 0.  1.
</event>
<event>
 8    1  0.1150863E+005  0.1043930E+01  0.7957747E-01            NaN
         13   -1    0    0    0    0  0.00000000000E+00  0.00000000000E+00  0.74505805969E-08  0.10566000000E+00  0.10566000000E+00 0.  1.
     999900   -1    0    0    0    0 -0.00000000000E+00 -0.00000000000E+00 -0.74505805969E-08  0.93827000000E+00  0.93827000000E+00 0. -1.
     999902    2    1    2    0    0 -0.18667956524E-01  0.10979328540E-01  0.96687498495E-02  0.10202124331E+01  0.10199367067E+01 0.  0.
     999903    2    3    3    0    0  0.10688700124E+00 -0.46969949819E-01 -0.47383749952E-01  0.12758868593E+00  0.20066035930E-01 0.  0.
         14    1    1    2    0    0  0.18667956524E-01 -0.10979328540E-01 -0.96687498495E-02  0.23717566899E-01  0.00000000000E+00 0. -1.
     999901    1    3    3    0    0 -0.12555495776E+00  0.57949278358E-01  0.57052499801E-01  0.89262374717E+00  0.88000000000E+00 0. -1.
        -11    1    4    4    0    0  0.31228785538E-01 -0.23289837711E-01 -0.19332509737E-01  0.43493225225E-01  0.51100000000E-03 0. -1.
         11    1    4    4    0    0  0.75658215701E-01 -0.23680112108E-01 -0.28051240215E-01  0.84095460704E-01  0.51100000000E-03 0.  1.
</event>
<event>
 8    1  0.1150863E+005  0.1043930E+01  0.7957747E-01            NaN
         13   -1    0    0    0    0  0.00000000000E+00  0.00000000000E+00  0.74505805969E-08  0.10566000000E+00  0.10566000000E+00 0. -1.
     999900   -1    0    0    0    0 -0.00000000000E+00 -0.00000000000E+00 -0.74505805969E-08  0.93827000000E+00  0.93827000000E+00 0. -1.
     999902    2    1    2    0    0 -0.28056752439E-02  0.98668960296E-02  0.21046123974E-01  0.10205170381E+01  0.10202484297E+01 0.  0.
     999903    2    3    3    0    0  0.98481522555E-01 -0.77465356467E-01 -0.24336550163E-01  0.12925635464E+00  0.20382487655E-01 0.  0.
         14    1    1    2    0    0  0.28056752439E-02 -0.98668960296E-02 -0.21046123974E-01  0.23412961905E-01  0.00000000000E+00 0.  1.
     999901    1    3    3    0    0 -0.10128719780E+00  0.87332252497E-01  0.45382674138E-01  0.89126068346E+00  0.88000000000E+00 0.  1.
        -11    1    4    4    0    0  0.56186581469E-01 -0.52942635482E-01 -0.22143036732E-01  0.80314567705E-01  0.51100000000E-03 0.  1.
         11    1    4    4    0    0  0.42294941086E-01 -0.24522720986E-01 -0.21935134317E-02  0.48941786933E-01  0.51100000000E-03 0. -1.
</event>
<event>
 8    1  0.1150863E+005  0.1043930E+01  0.7957747E-01            NaN
         13   -1    0    0    0    0  0.00000000000E+00  0.00000000000E+00  0.74505805969E-08  0.10566000000E+00  0.10566000000E+00 0. -1.
     999900   -1    0    0    0    0 -0.00000000000E+00 -0.00000000000E+00 -0.74505805969E-08  0.93827000000E+00  0.93827000000E+00 0.  1.
     999902    2    1    2    0    0 -0.60659302765E-02 -0.13189628739E-01 -0.21940907053E-01  0.10176209670E+01  0.10172808202E+01 0.  0.
     999903    2    3    3    0    0 -0.88793557735E-01  0.28808227995E-01  0.82893742211E-01  0.12655532181E+00  0.20752519948E-01 0.  0.
         14    1    1    2    0    0  0.60659302765E-02  0.13189628739E-01  0.21940907053E-01  0.26309033025E-01  0.00000000000E+00 0. -1.
     999901    1    3    3    0    0  0.82727627458E-01 -0.41997856734E-01 -0.10483464926E+00  0.89106564517E+00  0.88000000000E+00 0.  1.
        -11    1    4    4    0    0 -0.35424976898E-01  0.59254289437E-02  0.43357613311E-01  0.56304382151E-01  0.51100000000E-03 0.  1.
         11    1    4    4    0    0 -0.53368580837E-01  0.22882799051E-01  0.39536128900E-01  0.70250939654E-01  0.51100000000E-03 0. -1.
</event>
<event>
 8    1  0.1150863E+005  0.1043930E+01  0.7957747E-01            NaN
         13   -1    0    0    0    0  0.00000000000E+00  0.00000000000E+00  0.74505805969E-08  0.10566000000E+00  0.10566000000E+00 0. -1.
     999900   -1    0    0    0    0 -0.00000000000E+00 -0.00000000000E+00 -0.74505805969E-08  0.93827000000E+00  0.93827000000E+00 0. -1.
     999902    2    1    2    0    0 -0.15363592540E-01 -0.18622487284E-01 -0.27910580628E-02  0.10196271810E+01  0.10193375109E+01 0.  0.
     999903    2    3    3    0    0  0.86808722461E-01  0.83520867124E-01 -0.35387080829E-01  0.12725116856E+00  0.20715329333E-01 0.  0.
         14    1    1    2    0    0  0.15363592540E-01  0.18622487284E-01  0.27910580628E-02  0.24302819044E-01  0.00000000000E+00 0.  1.
     999901    1    3    3    0    0 -0.10217231500E+00 -0.10214335441E+00  0.32596022766E-01  0.89237601240E+00  0.88000000000E+00 0. -1.
        -11    1    4    4    0    0  0.49883485259E-01  0.42663606871E-01 -0.92482269816E-02  0.66289790135E-01  0.51100000000E-03 0.  1.
         11    1    4    4    0    0  0.36925237202E-01  0.40857260254E-01 -0.26138853848E-01  0.60961378424E-01  0.51100000000E-03 0. -1.
</event>
<event>
 8    1  0.1150863E+005  0.1043930E+01  0.7957747E-01            NaN
         13   -1    0    0    0    0  0.00000000000E+00  0.00000000000E+00  0.74505805969E-08  0.10566000000E+00  0.10566000000E+00 0. -1.
     999900   -1    0    0    0    0 -0.00000000000E+00 -0.00000000000E+00 -0.74505805969E-08  0.93827000000E+00  0.93827000000E+00 0.  1.
     999902    2    1    2    0    0  0.53295562386E-02 -0.60680495925E-02  0.22354941595E-01  0.10201609275E+01  0.10198839881E+01 0.  0.
     999903    2    3    3    0    0  0.96442558938E-01 -0.81665260480E-01  0.33563050928E-01  0.13216197517E+00  0.19233495526E-01 0.  0.
         14    1    1    2    0    0 -0.53295562386E-02  0.60680495925E-02 -0.22354941595E-01  0.23769072537E-01  0.00000000000E+00 0.  1.
     999901    1    3    3    0    0 -0.91113002699E-01  0.75597210888E-01 -0.11208109333E-01  0.88799895229E+00  0.88000000000E+00 0.  1.
        -11    1    4    4    0    0  0.32061227894E-01 -0.28910604693E-01  0.20904150671E-01  0.47968635942E-01  0.51100000000E-03 0.  1.
         11    1    4    4    0    0  0.64381331043E-01 -0.52754655787E-01  0.12658900257E-01  0.84193339231E-01  0.51100000000E-03 0. -1.
</event>
<event>
 8    1  0.1150863E+005  0.1043930E+01  0.7957747E-01            NaN
         13   -1    0    0    0    0  0.00000000000E+00  0.00000000000E+00  0.74505805969E-08  0.10566000000E+00  0.10566000000E+00 0.  1.
     999900   -1    0    0    0    0 -0.00000000000E+00 -0.00000000000E+00 -0.74505805969E-08  0.93827000000E+00  0.93827000000E+00 0. -1.
     999902    2    1    2    0    0  0.22234583078E-01  0.65418634739E-02  0.59795114948E-02  0.10199941019E+01  0.10197132149E+01 0.  0.
     999903    2    3    3    0    0  0.57470717236E-01  0.25353068835E-01 -0.11332764231E+00  0.13104548492E+00  0.19598550130E-01 0.  0.
         14    1    1    2    0    0 -0.22234583078E-01 -0.65418634739E-02 -0.59795114948E-02  0.23935898146E-01  0.00000000000E+00 0. -1.
     999901    1    3    3    0    0 -0.35236134158E-01 -0.18811205361E-01  0.11930715381E+00  0.88894861693E+00  0.88000000000E+00 0.  1.
        -11    1    4    4    0    0  0.35719635018E-01  0.12994981414E-01 -0.48954711017E-01  0.61980535005E-01  0.51100000000E-03 0. -1.
         11    1    4    4    0    0  0.21751082218E-01  0.12358087421E-01 -0.64372931295E-01  0.69064949916E-01  0.51100000000E-03 0.  1.
</event>
<event>
 8    1  0.1150863E+005  0.1043930E+01  0.7957747E-01            NaN
         13   -1    0    0    0    0  0.00000000000E+00  0.00000000000E+00  0.74505805969E-08  0.10566000000E+00  0.10566000000E+00 0. -1.
     999900   -1    0    0    0    0 -0.00000000000E+00 -0.00000000000E+00 -0.74505805969E-08  0.93827000000E+00  0.93827000000E+00 0.  1.
     999902    2    1    2    0    0 -0.10330389819E-01 -0.20785244052E-01  0.13630120128E-02  0.10206791694E+01  0.10204143108E+01 0.  0.
     999903    2    3    3    0    0  0.12735943281E-01  0.61945693041E-01  0.11146155588E+00  0.12966954368E+00  0.19774705607E-01 0.  0.
         14    1    1    2    0    0  0.10330389819E-01  0.20785244052E-01 -0.13630120128E-02  0.23250830649E-01  0.00000000000E+00 0.  1.
     999901    1    3    3    0    0 -0.23066333100E-01 -0.82730937093E-01 -0.11009854387E+00  0.89100962567E+00  0.88000000000E+00 0.  1.
        -11    1    4    4    0    0  0.76197760960E-02  0.10052021558E-01  0.12264747990E-01  0.17600832066E-01  0.51100000000E-03 0. -1.
         11    1    4    4    0    0  0.51161671848E-02  0.51893671483E-01  0.99196807889E-01  0.11206871161E+00  0.51100000000E-03 0.  1.
</event>
<event>
 8    1  0.1150863E+005  0.1043930E+01  0.7957747E-01            NaN
         13   -1    0    0    0    0  0.00000000000E+00  0.00000000000E+00  0.74505805969E-08  0.10566000000E+00  0.10566000000E+00 0.  1.
     999900   -1    0    0    0    0 -0.00000000000E+00 -0.00000000000E+00 -0.74505805969E-08  0.93827000000E+00  0.93827000000E+00 0.  1.
     999902    2    1    2    0    0  0.17527719678E-01  0.22719667332E-02 -0.22236191768E-01  0.10155252290E+01  0.10151279032E+01 0.  0.
     999903    2    3    3    0    0  0.17794547476E-01 -0.12258265861E+00 -0.18921397876E-01  0.12670593551E+00  0.18794166176E-01 0.  0.
         14    1    1    2    0    0 -0.17527719678E-01 -0.22719667332E-02  0.22236191768E-01  0.28404770978E-01  0.00000000000E+00 0.  1.
     999901    1    3    3    0    0 -0.26682779759E-03  0.12485462535E+00 -0.33147938928E-02  0.88881929352E+00  0.88000000000E+00 0.  1.
        -11    1    4    4    0    0  0.40580536719E-02 -0.34670381712E-01 -0.13924410703E-01  0.37585283052E-01  0.51100000000E-03 0.  1.
         11    1    4    4    0    0  0.13736493804E-01 -0.87912276902E-01 -0.49969871725E-02  0.89120652454E-01  0.51100000000E-03 0. -1.
</event>
<event>
 8    1  0.1150863E+005  0.1043930E+01  0.7957747E-01            NaN
         13   -1    0    0    0    0  0.00000000000E+00  0.00000000000E+00  0.74505805969E-08  0.10566000000E+00  0.10566000000E+00 0.  1.
     999900   -1    0    0    0    0 -0.00000000000E+00 -0.00000000000E+00 -0.74505805969E-08  0.93827000000E+00  0.93827000000E+00 0. -1.
     999902    2    1    2    0    0  0.81379579134E-02 -0.11668910124E-01  0.18576878877E-01  0.10205314904E+01  0.10202632173E+01 0.  0.
     999903    2    3    3    0    0  0.83014408757E-01 -0.47323521297E-01  0.91468723300E-01  0.13363185957E+00  0.18974688955E-01 0.  0.
         14    1    1    2    0    0 -0.81379579134E-02  0.11668910124E-01 -0.18576878877E-01  0.23398509596E-01  0.00000000000E+00 0. -1.
     999901    1    3    3    0    0 -0.74876450844E-01  0.35654611173E-01 -0.72891844423E-01  0.88689963083E+00  0.88000000000E+00 0.  1.
        -11    1    4    4    0    0  0.40661099251E-01 -0.20779019763E-01  0.31079807724E-01  0.55238647918E-01  0.51100000000E-03 0.  1.
         11    1    4    4    0    0  0.42353309506E-01 -0.26544501534E-01  0.60388915576E-01  0.78393211653E-01  0.51100000000E-03 0. -1.
</event>
<event>
 8    1  0.1150863E+005  0.1043930E+01  0.7957747E-01            NaN
         13   -1    0    0    0    0  0.00000000000E+00  0.00000000000E+00  0.74505805969E-08  0.10566000000E+00  0.10566000000E+00 0. -1.
     999900   -1    0    0    0    0 -0.00000000000E+00 -0.00000000000E+00 -0.74505805969E-08  0.93827000000E+00  0.93827000000E+00 0. -1.
     999902    2    1    2    0    0  0.49261530074E-02  0.19699860238E-01 -0.11335003390E-01  0.10206741668E+01  0.10204091929E+01 0.  0.
     999903    2    3    3    0    0  0.52335738074E-01  0.11950268139E+00 -0.21566264765E-01  0.13370576228E+00  0.19804210501E-01 0.  0.
         14    1    1    2    0    0 -0.49261530074E-02 -0.19699860238E-01  0.11335003390E-01  0.23255833219E-01  0.00000000000E+00 0. -1.
     999901    1    3    3    0    0 -0.47409585067E-01 -0.99802821149E-01  0.10231261375E-01  0.88696840450E+00  0.88000000000E+00 0.  1.
        -11    1    4    4    0    0  0.43551259774E-01  0.77666636635E-01 -0.17626567455E-01  0.90773210119E-01  0.51100000000E-03 0. -1.
         11    1    4    4    0    0  0.87844783007E-02  0.41836044753E-01 -0.39396973105E-02  0.42932552166E-01  0.51100000000E-03 0.  1.
</event>
<event>
 8    1  0.1150863E+005  0.1043930E+01  0.7957747E-01            NaN
         13   -1    0    0    0    0  0.00000000000E+00  0.00000000000E+00  0.74505805969E-08  0.10566000000E+00  0.10566000000E+00 0. -1.
     999900   -1    0    0    0    0 -0.00000000000E+00 -0.00000000000E+00 -0.74505805969E-08  0.93827000000E+00  0.93827000000E+00 0.  1.
     999902    2    1    2    0    0  0.29973967002E-02 -0.13191484704E-01 -0.13044412849E-01  0.10251375451E+01  0.10249652823E+01 0.  0.
     999903    2    3    3    0    0  0.50795545760E-01 -0.97574078755E-01  0.76474787022E-01  0.13529555214E+00  0.18857493620E-01 0.  0.
         14    1    1    2    0    0 -0.29973967002E-02  0.13191484704E-01  0.13044412849E-01  0.18792454929E-01  0.00000000000E+00 0.  1.
     999901    1    3    3    0    0 -0.47798149059E-01  0.84382594051E-01 -0.89519199872E-01  0.88984199293E+00  0.88000000000E+00 0.  1.
        -11    1    4    4    0    0  0.12888367786E-01 -0.42001353725E-01  0.24681144907E-01  0.50394878449E-01  0.51100000000E-03 0. -1.
         11    1    4    4    0    0  0.37907177974E-01 -0.55572725030E-01  0.51793642115E-01  0.84900673694E-01  0.51100000000E-03 0.  1.
</event>
<event>
 8    1  0.1150863E+005  0.1043930E+01  0.7957747E-01            NaN
         13   -1    0    0    0    0  0.00000000000E+00  0.00000000000E+00  0.74505805969E-08  0.10566000000E+00  0.10566000000E+00 0. -1.
     999900   -1    0    0    0    0 -0.00000000000E+00 -0.00000000000E+00 -0.74505805969E-08  0.93827000000E+00  0.93827000000E+00 0.  1.
     999902    2    1    2    0    0 -0.21583785403E-01  0.12437348211E-01  0.88069507711E-02  0.10175082324E+01  0.10171651258E+01 0.  0.
     999903    2    3    3    0    0  0.76381807373E-01 -0.93864952597E-01 -0.24293837912E-01  0.12509963832E+00  0.20369563650E-01 0.  0.
         14    1    1    2    0    0  0.21583785403E-01 -0.12437348211E-01 -0.88069507711E-02  0.26421767630E-01  0.00000000000E+00 0.  1.
     999901    1    3    3    0    0 -0.97965592776E-01  0.10630230081E+00  0.33100788683E-01  0.89240859405E+00  0.88000000000E+00 0.  1.
        -11    1    4    4    0    0  0.47140438591E-01 -0.70714002168E-01 -0.12029038497E-01  0.85835015823E-01  0.51100000000E-03 0.  1.
         11    1    4    4    0    0  0.29241368782E-01 -0.23150950429E-01 -0.12264799415E-01  0.39264622496E-01  0.51100000000E-03 0. -1.
</event>
<event>
 8    1  0.1150863E+005  0.1043930E+01  0.7957747E-01            NaN
         13   -1    0    0    0    0  0.00000000000E+00  0.00000000000E+00  0.74505805969E-08  0.10566000000E+00  0.10566000000E+00 0. -1.
     999900   -1    0    0    0    0 -0.00000000000E+00 -0.00000000000E+00 -0.74505805969E-08  0.93827000000E+00  0.93827000000E+00 0.  1.
     999902    2    1    2    0    0  0.16109920497E-01  0.15289807624E-01  0.60302685661E-02  0.10209153982E+01  0.10206559550E+01 0.  0.
     999903    2    3    3    0    0  0.31035127890E-01  0.94440442201E-01 -0.86487693562E-01  0.13240700880E+00  0.13012246379E-01 0.  0.
         14    1    1    2    0    0 -0.16109920497E-01 -0.15289807624E-01 -0.60302685661E-02  0.23014601769E-01  0.00000000000E+00 0. -1.
     999901    1    3    3    0    0 -0.14925207393E-01 -0.79150634577E-01  0.92517962128E-01  0.88850838943E+00  0.88000000000E+00 0.  1.
        -11    1    4    4    0    0  0.64753713625E-02  0.32011542630E-01 -0.34704507103E-01  0.47658506377E-01  0.51100000000E-03 0. -1.
         11    1    4    4    0    0  0.24559756528E-01  0.62428899572E-01 -0.51783186460E-01  0.84748502425E-01  0.51100000000E-03 0.  1.
</event>
<event>
 8    1  0.1150863E+005  0.1043930E+01  0.7957747E-01            NaN
         13   -1    0    0    0    0  0.00000000000E+00  0.00000000000E+00  0.74505805969E-08  0.10566000000E+00  0.10566000000E+00 0.  1.
     999900   -1    0    0    0    0 -0.00000000000E+00 -0.00000000000E+00 -0.74505805969E-08  0.93827000000E+00  0.93827000000E+00 0.  1.
     999902    2    1    2    0    0 -0.84195056708E-02  0.12972811066E-01  0.17528480178E-01  0.10205541680E+01  0.10202864208E+01 0.  0.
     999903    2    3    3    0    0 -0.10635319806E+00 -0.44315665041E-01  0.61074415969E-01  0.13220219605E+00  0.21736040364E-01 0.  0.
         14    1    1    2    0    0  0.84195056708E-02 -0.12972811066E-01 -0.17528480178E-01  0.23375831964E-01  0.00000000000E+00 0. -1.
     999901    1    3    3    0    0  0.97933692386E-01  0.57288476107E-01 -0.43545935791E-01  0.88835197198E+00  0.88000000000E+00 0.  1.
        -11    1    4    4    0    0 -0.48770372035E-01 -0.22693236619E-01  0.16598839954E-01  0.56296667623E-01  0.51100000000E-03 0. -1.
         11    1    4    4    0    0 -0.57582826022E-01 -0.21622428422E-01  0.44475576015E-01  0.75905528431E-01  0.51100000000E-03 0.  1.
</event>
<event>
 8    1  0.1150863E+005  0.1043930E+01  0.7957747E-01            NaN
         13   -1    0    0    0    0  0.00000000000E+00  0.00000000000E+00  0.74505805969E-08  0.10566000000E+00  0.10566000000E+00 0. -1.
     999900   -1    0    0    0    0 -0.00000000000E+00 -0.00000000000E+00 -0.74505805969E-08  0.93827000000E+00  0.93827000000E+00 0.  1.
     999902    2    1    2    0    0 -0.10863800948E-01 -0.21089912900E-01 -0.11232871649E-01  0.10176814952E+01  0.10173429322E+01 0.  0.
     999903    2    3    3    0    0 -0.32667069727E-01 -0.12496498526E+00  0.58858392771E-02  0.13113851068E+00  0.21892484864E-01 0.  0.
         14    1    1    2    0    0  0.10863800948E-01  0.21089912900E-01  0.11232871649E-01  0.26248504770E-01  0.00000000000E+00 0.  1.
     999901    1    3    3    0    0  0.21803268779E-01  0.10387507236E+00 -0.17118710926E-01  0.88654298455E+00  0.88000000000E+00 0.  1.
        -11    1    4    4    0    0 -0.74932913298E-02 -0.26941783410E-01 -0.77392297523E-02  0.29020094872E-01  0.51100000000E-03 0.  1.
         11    1    4    4    0    0 -0.25173778397E-01 -0.98023201853E-01  0.13625069029E-01  0.10211841581E+00  0.51100000000E-03 0. -1.
</event>
<event>
 8    1  0.1150863E+005  0.1043930E+01  0.7957747E-01            NaN
         13   -1    0    0    0    0  0.00000000000E+00  0.00000000000E+00  0.74505805969E-08  0.10566000000E+00  0.10566000000E+00 0. -1.
     999900   -1    0    0    0    0 -0.00000000000E+00 -0.00000000000E+00 -0.74505805969E-08  0.93827000000E+00  0.93827000000E+00 0. -1.
     999902    2    1    2    0    0 -0.60939181589E-04 -0.25030965109E-02  0.23703121237E-01  0.10200950013E+01  0.10198165053E+01 0.  0.
     999903    2    3    3    0    0  0.86590429523E-01  0.51088528611E-01  0.83425591532E-01  0.13220576530E+00  0.20263139326E-01 0.  0.
         14    1    1    2    0    0  0.60939181589E-04  0.25030965109E-02 -0.23703121237E-01  0.23834998680E-01  0.00000000000E+00 0.  1.
     999901    1    3    3    0    0 -0.86651368705E-01 -0.53591625122E-01 -0.59722470296E-01  0.88788923602E+00  0.88000000000E+00 0. -1.
        -11    1    4    4    0    0  0.64124182051E-01  0.46146353132E-01  0.70075879437E-01  0.10560438737E+00  0.51100000000E-03 0. -1.
         11    1    4    4    0    0  0.22466247472E-01  0.49421754793E-02  0.13349712095E-01  0.26601377934E-01  0.51100000000E-03 0.  1.
</event>
<event>
 8    1  0.1765967E+005  0.1043930E+01  0.7957747E-01            NaN
         13   -1    0    0    0    0  0.00000000000E+00  0.00000000000E+00  0.74505805969E-08  0.10566000000E+00  0.10566000000E+00 0. -1.
     999900   -1    0    0    0    0 -0.00000000000E+00 -0.00000000000E+00 -0.74505805969E-08  0.93827000000E+00  0.93827000000E+00 0. -1.
     999902    2    1    2    0    0 -0.16674841891E-01 -0.22116070748E-02 -0.14723305440E-01  0.10215756429E+01  0.10213310320E+01 0.  0.
     999903    2    3    3    0    0  0.11556071730E-01 -0.12886057100E+00 -0.16295014129E-01  0.13205924912E+00  0.20869313367E-01 0.  0.
         14    1    1    2    0    0  0.16674841891E-01  0.22116070748E-02  0.14723305440E-01  0.22354357093E-01  0.00000000000E+00 0.  1.
     999901    1    3    3    0    0 -0.28230913621E-01  0.12664896393E+00  0.15717086887E-02  0.88951639379E+00  0.88000000000E+00 0.  1.
        -11    1    4    4    0    0  0.88817066503E-02 -0.62853320954E-01  0.19937099253E-02  0.63511106652E-01  0.51100000000E-03 0.  1.
         11    1    4    4    0    0  0.26743650795E-02 -0.66007250047E-01 -0.18288724054E-01  0.68548142468E-01  0.51100000000E-03 0. -1.
</event>
<event>
 8    1  0.1150863E+005  0.1043930E+01  0.7957747E-01            NaN
         13   -1    0    0    0    0  0.00000000000E+00  0.00000000000E+00  0.74505805969E-08  0.10566000000E+00  0.10566000000E+00 0. -1.
     999900   -1    0    0    0    0 -0.00000000000E+00 -0.00000000000E+00 -0.74505805969E-08  0.93827000000E+00  0.93827000000E+00 0. -1.
     999902    2    1    2    0    0  0.12402627099E-03  0.18565826431E-01  0.95209686844E-02  0.10230648583E+01  0.10228520666E+01 0.  0.
     999903    2    3    3    0    0 -0.11283914048E+00 -0.46388684716E-03 -0.65749630145E-01  0.13245356818E+00  0.22091786824E-01 0.  0.
         14    1    1    2    0    0 -0.12402627099E-03 -0.18565826431E-01 -0.95209686844E-02  0.20865141703E-01  0.00000000000E+00 0. -1.
     999901    1    3    3    0    0  0.11296316675E+00  0.19029713278E-01  0.75270598830E-01  0.89061129011E+00  0.88000000000E+00 0.  1.
        -11    1    4    4    0    0 -0.34623954284E-01 -0.54305160577E-02 -0.10594625923E-01  0.36617153554E-01  0.51100000000E-03 0. -1.
         11    1    4    4    0    0 -0.78215186196E-01  0.49666292105E-02 -0.55155004222E-01  0.95836414630E-01  0.51100000000E-03 0.  1.
</event>
<event>
 8    1  0.1150863E+005  0.1043930E+01  0.7957747E-01            NaN
         13   -1    0    0    0    0  0.00000000000E+00  0.00000000000E+00  0.74505805969E-08  0.10566000000E+00  0.10566000000E+00 0. -1.
     999900   -1    0    0    0    0 -0.00000000000E+00 -0.00000000000E+00 -0.74505805969E-08  0.93827000000E+00  0.93827000000E+00 0.  1.
     999902    2    1    2    0    0 -0.18042823893E-03 -0.23212167810E-01  0.15116465300E-02  0.10206679630E+01  0.10204028461E+01 0.  0.
     999903    2    3    3    0    0  0.79404062634E-01  0.29918307853E-01 -0.96493841242E-01  0.13007175022E+00  0.20186344417E-01 0.  0.
         14    1    1    2    0    0  0.18042823893E-03  0.23212167810E-01 -0.15116465300E-02  0.23262036971E-01  0.00000000000E+00 0.  1.
     999901    1    3    3    0    0 -0.79584490873E-01 -0.53130475663E-01  0.98005487772E-01  0.89059621281E+00  0.88000000000E+00 0. -1.
        -11    1    4    4    0    0  0.59671721287E-01  0.12910867216E-01 -0.64569367210E-01  0.88864329832E-01  0.51100000000E-03 0. -1.
         11    1    4    4    0    0  0.19732341347E-01  0.17007440637E-01 -0.31924474032E-01  0.41207420391E-01  0.51100000000E-03 0.  1.
</event>
<event>
 8    1  0.1150863E+005  0.1043930E+01  0.7957747E-01            NaN
         13   -1    0    0    0    0  0.00000000000E+00  0.00000000000E+00  0.74505805969E-08  0.10566000000E+00  0.10566000000E+00 0. -1.
     999900   -1    0    0    0    0 -0.00000000000E+00 -0.00000000000E+00 -0.74505805969E-08  0.93827000000E+00  0.93827000000E+00 0. -1.
     999902    2    1    2    0    0  0.20445224240E-01 -0.87181820659E-02  0.11216867845E-01  0.10190335742E+01  0.10187294014E+01 0.  0.
     999903    2    3    3    0    0  0.50776536454E-01 -0.41868647200E-01 -0.10971938269E+00  0.12962673899E+00  0.20820860958E-01 0.  0.
         14    1    1    2    0    0 -0.20445224240E-01  0.87181820659E-02 -0.11216867845E-01  0.24896425788E-01  0.00000000000E+00 0.  1.
     999901    1    3    3    0    0 -0.30331312214E-01  0.33150465134E-01  0.12093625054E+00  0.88940683522E+00  0.88000000000E+00 0.  1.
        -11    1    4    4    0    0  0.47231971498E-01 -0.36658807695E-01 -0.83776602368E-01  0.10292476640E+00  0.51100000000E-03 0. -1.
         11    1    4    4    0    0  0.35445649562E-02 -0.52098395041E-02 -0.25942780325E-01  0.26701972593E-01  0.51100000000E-03 0.  1.
</event>
<event>
 8    1  0.1150863E+005  0.1043930E+01  0.7957747E-01            NaN
         13   -1    0    0    0    0  0.00000000000E+00  0.00000000000E+00  0.74505805969E-08  0.10566000000E+00  0.10566000000E+00 0.  1.
     999900   -1    0    0    0    0 -0.00000000000E+00 -0.00000000000E+00 -0.74505805969E-08  0.93827000000E+00  0.93827000000E+00 0.  1.
     999902    2    1    2    0    0  0.87815597503E-02  0.19430761584E-01 -0.42520236916E-02  0.10221871853E+01  0.10219559148E+01 0.  0.
     999903    2    3    3    0    0  0.12495109776E+00  0.44496482258E-01  0.53013516630E-02  0.13414725435E+00  0.19356336261E-01 0.  0.
         14    1    1    2    0    0 -0.87815597503E-02 -0.19430761584E-01  0.42520236916E-02  0.21742814741E-01  0.00000000000E+00 0. -1.
     999901    1    3    3    0    0 -0.11616953801E+00 -0.25065720674E-01 -0.95533753546E-02  0.88803993091E+00  0.88000000000E+00 0. -1.
        -11    1    4    4    0    0  0.70356004776E-01  0.23765579143E-01 -0.65657197262E-02  0.74552933923E-01  0.51100000000E-03 0.  1.
         11    1    4    4    0    0  0.54595092988E-01  0.20730903115E-01  0.11867071389E-01  0.59594320423E-01  0.51100000000E-03 0. -1.
</event>
<event>
 8    1  0.1150863E+005  0.1043930E+01  0.7957747E-01            NaN
         13   -1    0    0    0    0  0.00000000000E+00  0.00000000000E+00  0.74505805969E-08  0.10566000000E+00  0.10566000000E+00 0.  1.
     999900   -1    0    0    0    0 -0.00000000000E+00 -0.00000000000E+00 -0.74505805969E-08  0.93827000000E+00  0.93827000000E+00 0.  1.
     999902    2    1    2    0    0 -0.22035413480E-01 -0.32298068117E-02  0.71994701892E-02  0.10205243710E+01  0.10202559327E+01 0.  0.
     999903    2    3    3    0    0  0.90964760115E-01  0.60987302904E-01 -0.63420230035E-01  0.12817913594E+00  0.20340270785E-01 0.  0.
         14    1    1    2    0    0  0.22035413480E-01  0.32298068117E-02 -0.71994701892E-02  0.23405629030E-01  0.00000000000E+00 0.  1.
     999901    1    3    3    0    0 -0.11300017359E+00 -0.64217109716E-01  0.70619700224E-01  0.89234523503E+00  0.88000000000E+00 0. -1.
        -11    1    4    4    0    0  0.54799794707E-01  0.24553345750E-01 -0.33937525803E-01  0.68977540302E-01  0.51100000000E-03 0.  1.
         11    1    4    4    0    0  0.36164965408E-01  0.36433957154E-01 -0.29482704232E-01  0.59201595643E-01  0.51100000000E-03 0. -1.
</event>
<event>
 8    1  0.1150863E+005  0.1043930E+01  0.7957747E-01            NaN
         13   -1    0    0    0    0  0.00000000000E+00  0.00000000000E+00  0.74505805969E-08  0.10566000000E+00  0.10566000000E+00 0.  1.
     999900   -1    0    0    0    0 -0.00000000000E+00 -0.00000000000E+00 -0.74505805969E-08  0.93827000000E+00  0.93827000000E+00 0. -1.
     999902    2    1    2    0    0 -0.10376773905E-01 -0.45710304247E-02 -0.21133453278E-01  0.10199467850E+01  0.10196647731E+01 0.  0.
     999903    2    3    3    0    0 -0.12394675348E+00 -0.26032003284E-02  0.36694992996E-01  0.13076393436E+00  0.19573187471E-01 0.  0.
         14    1    1    2    0    0  0.10376773905E-01  0.45710304247E-02  0.21133453278E-01  0.23983215031E-01  0.00000000000E+00 0. -1.
     999901    1    3    3    0    0  0.11356997958E+00 -0.19678300963E-02 -0.57828446273E-01  0.88918285061E+00  0.88000000000E+00 0. -1.
        -11    1    4    4    0    0 -0.23242741170E-01 -0.65987726411E-02  0.12076751324E-01  0.27016251795E-01  0.51100000000E-03 0.  1.
         11    1    4    4    0    0 -0.10070401231E+00  0.39955723127E-02  0.24618241671E-01  0.10374768257E+00  0.51100000000E-03 0. -1.
</event>
<event>
 8    1  0.1150863E+005  0.1043930E+01  0.7957747E-01            NaN
         13   -1    0    0    0    0  0.00000000000E+00  0.00000000000E+00  0.74505805969E-08  0.10566000000E+00  0.10566000000E+00 0. -1.
     999900   -1    0    0    0    0 -0.00000000000E+00 -0.00000000000E+00 -0.74505805969E-08  0.93827000000E+00  0.93827000000E+00 0. -1.
     999902    2    1    2    0    0 -0.21650188299E-01  0.82944302480E-02 -0.36266847339E-02  0.10204634053E+01  0.10201935505E+01 0.  0.
     999903    2    3    3    0    0  0.61994873000E-01 -0.10262788078E+00  0.41670259147E-01  0.12841404088E+00  0.19439886976E-01 0.  0.
         14    1    1    2    0    0  0.21650188299E-01 -0.82944302480E-02  0.36266847339E-02  0.23466594740E-01  0.00000000000E+00 0.  1.
     999901    1    3    3    0    0 -0.83645061300E-01  0.11092231103E+00 -0.45296943881E-01  0.89204936438E+00  0.88000000000E+00 0. -1.
        -11    1    4    4    0    0  0.21492886228E-01 -0.40439555921E-01  0.25634302857E-01  0.52485049733E-01  0.51100000000E-03 0.  1.
         11    1    4    4    0    0  0.40501986772E-01 -0.62188324862E-01  0.16035956291E-01  0.75928991148E-01  0.51100000000E-03 0. -1.
</event>
<event>
 8    1  0.1150863E+005  0.1043930E+01  0.7957747E-01            NaN
         13   -1    0    0    0    0  0.00000000000E+00  0.00000000000E+00  0.74505805969E-08  0.10566000000E+00  0.10566000000E+00 0. -1.
     999900   -1    0    0    0    0 -0.00000000000E+00 -0.00000000000E+00 -0.74505805969E-08  0.93827000000E+00  0.93827000000E+00 0.  1.
     999902    2    1    2    0    0  0.20178601558E-01  0.84974622125E-02 -0.48808634206E-02  0.10214977542E+01  0.10212514167E+01 0.  0.
     999903    2    3    3    0    0 -0.82218394651E-01  0.73894732725E-01 -0.67086864666E-01  0.13097457401E+00  0.20818157540E-01 0.  0.
         14    1    1    2    0    0 -0.20178601558E-01 -0.84974622125E-02  0.48808634206E-02  0.22432245822E-01  0.00000000000E+00 0.  1.
     999901    1    3    3    0    0  0.10239699621E+00 -0.65397270513E-01  0.62206001245E-01  0.89052318017E+00  0.88000000000E+00 0. -1.
        -11    1    4    4    0    0 -0.24118409015E-01  0.25126002895E-01 -0.10642013395E-01  0.36421521728E-01  0.51100000000E-03 0. -1.
         11    1    4    4    0    0 -0.58099985637E-01  0.48768729830E-01 -0.56444851271E-01  0.94553052284E-01  0.51100000000E-03 0.  1.
</event>
<event>
 8    1  0.1150863E+005  0.1043930E+01  0.7957747E-01            NaN
         13   -1    0    0    0    0  0.00000000000E+00  0.00000000000E+00  0.74505805969E-08  0.10566000000E+00  0.10566000000E+00 0. -1.
     999900   -1    0    0    0    0 -0.00000000000E+00 -0.00000000000E+00 -0.74505805969E-08  0.93827000000E+00  0.93827000000E+00 0.  1.
     999902    2    1    2    0    0  0.53785184497E-02  0.83901903831E-02  0.21185985906E-01  0.10205169747E+01  0.10202483648E+01 0.  0.
     999903    2    3    3    0    0  0.52828549241E-02 -0.80787045611E-01 -0.97203962905E-01  0.12812201249E+00  0.20302324657E-01 0.  0.
         14    1    1    2    0    0 -0.53785184497E-02 -0.83901903831E-02 -0.21185985906E-01  0.23413025311E-01  0.00000000000E+00 0.  1.
     999901    1    3    3    0    0  0.95663525660E-04  0.89177235994E-01  0.11838994881E+00  0.89239496219E+00  0.88000000000E+00 0.  1.
        -11    1    4    4    0    0  0.86995845505E-02 -0.15238410418E-01 -0.24921273192E-01  0.30483157677E-01  0.51100000000E-03 0.  1.
         11    1    4    4    0    0 -0.34167296265E-02 -0.65548635193E-01 -0.72282689713E-01  0.97638854818E-01  0.51100000000E-03 0. -1.
</event>
<event>
 8    1  0.1150863E+005  0.1043930E+01  0.7957747E-01            NaN
         13   -1    0    0    0    0  0.00000000000E+00  0.00000000000E+00  0.74505805969E-08  0.10566000000E+00  0.10566000000E+00 0. -1.
     999900   -1    0    0    0    0 -0.00000000000E+00 -0.00000000000E+00 -0.74505805969E-08  0.93827000000E+00  0.93827000000E+00 0. -1.
     999902    2    1    2    0    0  0.87292689030E-02 -0.22017161169E-01 -0.17372637878E-02  0.10201818715E+01  0.10199054257E+01 0.  0.
     999903    2    3    3    0    0 -0.66651271299E-01  0.10559971310E+00  0.17286450423E-01  0.12758442913E+00  0.19628393093E-01 0.  0.
         14    1    1    2    0    0 -0.87292689030E-02  0.22017161169E-01  0.17372637878E-02  0.23748128495E-01  0.00000000000E+00 0. -1.
     999901    1    3    3    0    0  0.75380540202E-01 -0.12761687427E+00 -0.19023714211E-01  0.89259744238E+00  0.88000000000E+00 0.  1.
        -11    1    4    4    0    0 -0.25389072353E-01  0.25195818379E-01  0.12275849446E-02  0.35793886972E-01  0.51100000000E-03 0.  1.
         11    1    4    4    0    0 -0.41262198946E-01  0.80403894718E-01  0.16058865478E-01  0.91790542155E-01  0.51100000000E-03 0. -1.
</event>
<event>
 8    1  0.1150863E+005  0.1043930E+01  0.7957747E-01            NaN
         13   -1    0    0    0    0  0.00000000000E+00  0.00000000000E+00  0.74505805969E-08  0.10566000000E+00  0.10566000000E+00 0.  1.
     999900   -1    0    0    0    0 -0.00000000000E+00 -0.00000000000E+00 -0.74505805969E-08  0.93827000000E+00  0.93827000000E+00 0. -1.
     999902    2    1    2    0    0  0.84674832862E-02  0.15872020740E-01  0.15721820169E-01  0.10200386847E+01  0.10197588555E+01 0.  0.
     999903    2    3    3    0    0  0.17067683883E-01  0.10928955496E+00  0.70908673304E-01  0.13333332899E+00  0.22676507984E-01 0.  0.
         14    1    1    2    0    0 -0.84674832862E-02 -0.15872020740E-01 -0.15721820169E-01  0.23891315263E-01  0.00000000000E+00 0.  1.
     999901    1    3    3    0    0 -0.86002005965E-02 -0.93417534217E-01 -0.55186853135E-01  0.88670535575E+00  0.88000000000E+00 0. -1.
        -11    1    4    4    0    0  0.84712298996E-02  0.53286298094E-01  0.21252690990E-01  0.57992493444E-01  0.51100000000E-03 0.  1.
         11    1    4    4    0    0  0.85964539830E-02  0.56003256863E-01  0.49655982314E-01  0.75340835547E-01  0.51100000000E-03 0. -1.
</event>
<event>
 7    1  0.1150863E+005  0.1043930E+01  0.7957747E-01            NaN
         13   -1    0    0    0    0  0.00000000000E+00  0.00000000000E+00  0.74505805969E-08  0.10566000000E+00  0.10566000000E+00 0. -1.
     999900   -1    0    0    0    0 -0.00000000000E+00 -0.00000000000E+00 -0.74505805969E-08  0.93827000000E+00  0.93827000000E+00 0.  1.
     999903    2    1    2    0    0  0.18221003552E-01  0.68742048888E-01  0.35435783322E-01  0.81512401107E-01  0.18196223203E-01 0.  0.
         14    1    1    2    0    0  0.41813031149E-02 -0.28892253522E-01 -0.74858574100E-01  0.80349559586E-01  0.00000000000E+00 0.  1.
     999901    1    1    2    0    0 -0.22402306667E-01 -0.39849795366E-01  0.39422790778E-01  0.88206803931E+00  0.88000000000E+00 0.  1.
        -11    1    3    3    0    0  0.83326641103E-02  0.11769853960E-01  0.16101255050E-02  0.14519517160E-01  0.51100000000E-03 0.  1.
         11    1    3    3    0    0  0.98883394413E-02  0.56972194928E-01  0.33825657817E-01  0.66992883948E-01  0.51100000000E-03 0. -1.
</event>
<event>
 8    1  0.1150863E+005  0.1043930E+01  0.7957747E-01            NaN
         13   -1    0    0    0    0  0.00000000000E+00  0.00000000000E+00  0.74505805969E-08  0.10566000000E+00  0.10566000000E+00 0.  1.
     999900   -1    0    0    0    0 -0.00000000000E+00 -0.00000000000E+00 -0.74505805969E-08  0.93827000000E+00  0.93827000000E+00 0. -1.
     999902    2    1    2    0    0 -0.13529845312E-01  0.13406462830E-01 -0.14449251904E-01  0.10200224522E+01  0.10197422381E+01 0.  0.
     999903    2    3    3    0    0  0.33058280280E-01 -0.44880569164E-01 -0.11692431862E+00  0.13093923293E+00  0.19148656638E-01 0.  0.
         14    1    1    2    0    0  0.13529845312E-01 -0.13406462830E-01  0.14449251904E-01  0.23907547770E-01  0.00000000000E+00 0.  1.
     999901    1    3    3    0    0 -0.46588125592E-01  0.58287031994E-01  0.10247506672E+00  0.88908321930E+00  0.88000000000E+00 0.  1.
        -11    1    4    4    0    0  0.14609658619E-01 -0.25968486319E-01 -0.42052253318E-01  0.51540833684E-01  0.51100000000E-03 0.  1.
         11    1    4    4    0    0  0.18448621661E-01 -0.18912082845E-01 -0.74872065305E-01  0.79398399245E-01  0.51100000000E-03 0. -1.
</event>
<event>
 8    1  0.1150863E+005  0.1043930E+01  0.7957747E-01            NaN
         13   -1    0    0    0    0  0.00000000000E+00  0.00000000000E+00  0.74505805969E-08  0.10566000000E+00  0.10566000000E+00 0. -1.
     999900   -1    0    0    0    0 -0.00000000000E+00 -0.00000000000E+00 -0.74505805969E-08  0.93827000000E+00  0.93827000000E+00 0.  1.
     999902    2    1    2    0    0 -0.17547146955E-01  0.13451314557E-02  0.15305702924E-01  0.10206067008E+01  0.10203401694E+01 0.  0.
     999903    2    3    3    0    0 -0.38497964423E-01 -0.78350383936E-01  0.98203424654E-01  0.13287794479E+00  0.19792919709E-01 0.  0.
         14    1    1    2    0    0  0.17547146955E-01 -0.13451314557E-02 -0.15305702924E-01  0.23323299228E-01  0.00000000000E+00 0.  1.
     999901    1    3    3    0    0  0.20950817468E-01  0.79695515392E-01 -0.82897721730E-01  0.88772875598E+00  0.88000000000E+00 0. -1.
        -11    1    4    4    0    0 -0.14467724424E-01 -0.51361432224E-01  0.59543069019E-01  0.79955925105E-01  0.51100000000E-03 0. -1.
         11    1    4    4    0    0 -0.24030239999E-01 -0.26988951712E-01  0.38660355635E-01  0.52922019687E-01  0.51100000000E-03 0.  1.
</event>
<event>
 8    1  0.1150863E+005  0.1043930E+01  0.7957747E-01            NaN
         13   -1    0    0    0    0  0.00000000000E+00  0.00000000000E+00  0.74505805969E-08  0.10566000000E+00  0.10566000000E+00 0. -1.
     999900   -1    0    0    0    0 -0.00000000000E+00 -0.00000000000E+00 -0.74505805969E-08  0.93827000000E+00  0.93827000000E+00 0.  1.
     999902    2    1    2    0    0  0.21763861966E-01  0.92474488790E-02  0.88391663968E-03  0.10202664773E+01  0.10199920207E+01 0.  0.
     999903    2    3    3    0    0  0.73047721713E-01  0.10588830620E+00  0.27678521355E-01  0.13308699127E+00  0.19943511809E-01 0.  0.
         14    1    1    2    0    0 -0.21763861966E-01 -0.92474488790E-02 -0.88391663968E-03  0.23663522710E-01  0.00000000000E+00 0. -1.
     999901    1    3    3    0    0 -0.51283859747E-01 -0.96640857321E-01 -0.26794604715E-01  0.88717948602E+00  0.88000000000E+00 0. -1.
        -11    1    4    4    0    0  0.23487673483E-01  0.50662529061E-01  0.14805270651E-01  0.57773867938E-01  0.51100000000E-03 0.  1.
         11    1    4    4    0    0  0.49560048230E-01  0.55225777139E-01  0.12873250704E-01  0.75313123331E-01  0.51100000000E-03 0. -1.
</event>
<event>
 8    1  0.1150863E+005  0.1043930E+01  0.7957747E-01            NaN
         13   -1    0    0    0    0  0.00000000000E+00  0.00000000000E+00  0.74505805969E-08  0.10566000000E+00  0.10566000000E+00 0. -1.
     999900   -1    0    0    0    0 -0.00000000000E+00 -0.00000000000E+00 -0.74505805969E-08  0.93827000000E+00  0.93827000000E+00 0.  1.
     999902    2    1    2    0    0  0.23148119922E-01 -0.46086710609E-02  0.65217727969E-03  0.10203185485E+01  0.10200453126E+01 0.  0.
     999903    2    3    3    0    0 -0.10532857957E+00  0.50964297293E-01  0.47940503730E-01  0.12800089045E+00  0.19861187883E-01 0.  0.
         14    1    1    2    0    0 -0.23148119922E-01  0.46086710609E-02 -0.65217727969E-03  0.23611451460E-01  0.00000000000E+00 0. -1.
     999901    1    3    3    0    0  0.12847669949E+00 -0.55572968354E-01 -0.47288326451E-01  0.89231765809E+00  0.88000000000E+00 0.  1.
        -11    1    4    4    0    0 -0.74353477549E-01  0.42753054617E-01  0.27863774069E-01  0.90182672000E-01  0.51100000000E-03 0.  1.
         11    1    4    4    0    0 -0.30975102024E-01  0.82112426765E-02  0.20076729661E-01  0.37818218448E-01  0.51100000000E-03 0. -1.
</event>
<event>
 8    1  0.1150863E+005  0.1043930E+01  0.7957747E-01            NaN
         13   -1    0    0    0    0  0.00000000000E+00  0.00000000000E+00  0.74505805969E-08  0.10566000000E+00  0.10566000000E+00 0.  1.
     999900   -1    0    0    0    0 -0.00000000000E+00 -0.00000000000E+00 -0.74505805969E-08  0.93827000000E+00  0.93827000000E+00 0.  1.
     999902    2    1    2    0    0  0.81047981281E-02  0.11756705855E-01 -0.19514988413E-01  0.10197485472E+01  0.10194617977E+01 0.  0.
     999903    2    3    3    0    0 -0.98754642658E-01  0.78993712862E-01  0.21401571472E-01  0.12979690806E+00  0.19917930647E-01 0.  0.
         14    1    1    2    0    0 -0.81047981281E-02 -0.11756705855E-01  0.19514988413E-01  0.24181452769E-01  0.00000000000E+00 0.  1.
     999901    1    3    3    0    0  0.10685944079E+00 -0.67237007007E-01 -0.40916559885E-01  0.88995163917E+00  0.88000000000E+00 0.  1.
        -11    1    4    4    0    0 -0.53615796988E-01  0.55218197128E-01  0.14310796410E-01  0.78286416418E-01  0.51100000000E-03 0. -1.
         11    1    4    4    0    0 -0.45138845669E-01  0.23775515735E-01  0.70907750623E-02  0.51510491638E-01  0.51100000000E-03 0.  1.
</event>
<event>
 8    1  0.1150863E+005  0.1043930E+01  0.7957747E-01            NaN
         13   -1    0    0    0    0  0.00000000000E+00  0.00000000000E+00  0.74505805969E-08  0.10566000000E+00  0.10566000000E+00 0.  1.
     999900   -1    0    0    0    0 -0.00000000000E+00 -0.00000000000E+00 -0.74505805969E-08  0.93827000000E+00  0.93827000000E+00 0.  1.
     999902    2    1    2    0    0  0.20825840696E-01  0.36293334701E-02 -0.11104323939E-01  0.10200512707E+01  0.10197717397E+01 0.  0.
     999903    2    3    3    0    0 -0.89768614292E-01  0.71893632460E-01  0.53285557424E-01  0.12817840712E+00  0.19059247688E-01 0.  0.
         14    1    1    2    0    0 -0.20825840696E-01 -0.36293334701E-02  0.11104323939E-01  0.23878729285E-01  0.00000000000E+00 0.  1.
     999901    1    3    3    0    0  0.11059445499E+00 -0.68264298989E-01 -0.64389881363E-01  0.89187286359E+00  0.88000000000E+00 0.  1.
        -11    1    4    4    0    0 -0.61158230526E-01  0.47519654201E-01  0.45382558719E-01  0.89767947806E-01  0.51100000000E-03 0. -1.
         11    1    4    4    0    0 -0.28610383766E-01  0.24373978259E-01  0.79029987050E-02  0.38410459317E-01  0.51100000000E-03 0.  1.
</event>
<event>
 8    1  0.1150863E+005  0.1043930E+01  0.7957747E-01            NaN
         13   -1    0    0    0    0  0.00000000000E+00  0.00000000000E+00  0.74505805969E-08  0.10566000000E+00  0.10566000000E+00 0.  1.
     999900   -1    0    0    0    0 -0.00000000000E+00 -0.00000000000E+00 -0.74505805969E-08  0.93827000000E+00  0.93827000000E+00 0.  1.
     999902    2    1    2    0    0  0.15023737990E-01  0.11856906959E-01 -0.13982258043E-01  0.10202276270E+01  0.10199522579E+01 0.  0.
     999903    2    3    3    0    0 -0.89814767905E-02  0.84726389228E-01 -0.99630062795E-01  0.13274705919E+00  0.20890293300E-01 0.  0.
         14    1    1    2    0    0 -0.15023737990E-01 -0.11856906959E-01  0.13982258043E-01  0.23702372999E-01  0.00000000000E+00 0.  1.
     999901    1    3    3    0    0  0.24005214781E-01 -0.72869482269E-01  0.85647804752E-01  0.88748056781E+00  0.88000000000E+00 0. -1.
        -11    1    4    4    0    0 -0.15798553086E-01  0.62210606995E-01 -0.72173248425E-01  0.96586711361E-01  0.51100000000E-03 0. -1.
         11    1    4    4    0    0  0.68170762955E-02  0.22515782233E-01 -0.27456814370E-01  0.36160347829E-01  0.51100000000E-03 0.  1.
</event>
<event>
 8    1  0.1150863E+005  0.1043930E+01  0.7957747E-01            NaN
         13   -1    0    0    0    0  0.00000000000E+00  0.00000000000E+00  0.74505805969E-08  0.10566000000E+00  0.10566000000E+00 0.  1.
     999900   -1    0    0    0    0 -0.00000000000E+00 -0.00000000000E+00 -0.74505805969E-08  0.93827000000E+00  0.93827000000E+00 0. -1.
     999902    2    1    2    0    0 -0.52905021230E-02  0.16487378160E-01  0.20633884744E-01  0.10169934031E+01  0.10166366124E+01 0.  0.
     999903    2    3    3    0    0  0.37208506992E-01  0.12119724269E+00 -0.97147215506E-02  0.12924830491E+00  0.23184129921E-01 0.  0.
         14    1    1    2    0    0  0.52905021230E-02 -0.16487378160E-01 -0.20633884744E-01  0.26936596870E-01  0.00000000000E+00 0. -1.
     999901    1    3    3    0    0 -0.42499009115E-01 -0.10470986453E+00  0.30348606295E-01  0.88774509822E+00  0.88000000000E+00 0. -1.
        -11    1    4    4    0    0  0.23432299664E-01  0.39148866671E-01 -0.52587157325E-02  0.45930617689E-01  0.51100000000E-03 0.  1.
         11    1    4    4    0    0  0.13776207328E-01  0.82048376017E-01 -0.44560058181E-02  0.83317687223E-01  0.51100000000E-03 0. -1.
</event>
<event>
 8    1  0.1150863E+005  0.1043930E+01  0.7957747E-01            NaN
         13   -1    0    0    0    0  0.00000000000E+00  0.00000000000E+00  0.74505805969E-08  0.10566000000E+00  0.10566000000E+00 0.  1.
     999900   -1    0    0    0    0 -0.00000000000E+00 -0.00000000000E+00 -0.74505805969E-08  0.93827000000E+00  0.93827000000E+00 0. -1.
     999902    2    1    2    0    0  0.15709352038E-01  0.15889060659E-01  0.90381593597E-02  0.10198274210E+01  0.10195425613E+01 0.  0.
     999903    2    3    3    0    0  0.45267321248E-01  0.67835600207E-01 -0.10048659148E+00  0.13102610036E+00  0.20481330019E-01 0.  0.
         14    1    1    2    0    0 -0.15709352038E-01 -0.15889060659E-01 -0.90381593597E-02  0.24102579005E-01  0.00000000000E+00 0. -1.
     999901    1    3    3    0    0 -0.29557969209E-01 -0.51946539548E-01  0.10952475084E+00  0.88880132063E+00  0.88000000000E+00 0.  1.
        -11    1    4    4    0    0  0.84112913262E-02  0.30173967124E-01 -0.39855055750E-01  0.50694227518E-01  0.51100000000E-03 0. -1.
         11    1    4    4    0    0  0.36856029922E-01  0.37661633083E-01 -0.60631535732E-01  0.80331872842E-01  0.51100000000E-03 0.  1.
</event>
<event>
 8    1  0.1150863E+005  0.1043930E+01  0.7957747E-01            NaN
         13   -1    0    0    0    0  0.00000000000E+00  0.00000000000E+00  0.74505805969E-08  0.10566000000E+00  0.10566000000E+00 0. -1.
     999900   -1    0    0    0    0 -0.00000000000E+00 -0.00000000000E+00 -0.74505805969E-08  0.93827000000E+00  0.93827000000E+00 0.  1.
     999902    2    1    2    0    0 -0.48620120903E-02 -0.13309320164E-01  0.18426291103E-01  0.10206855304E+01  0.10204208184E+01 0.  0.
     999903    2    3    3    0    0  0.12349541680E+00  0.20256481720E-01  0.33046331328E-01  0.13062034276E+00  0.17554797229E-01 0.  0.
         14    1    1    2    0    0  0.48620120903E-02  0.13309320164E-01 -0.18426291103E-01  0.23244469635E-01  0.00000000000E+00 0.  1.
     999901    1    3    3    0    0 -0.12835742889E+00 -0.33565801884E-01 -0.14620040224E-01  0.89006518760E+00  0.88000000000E+00 0.  1.
        -11    1    4    4    0    0  0.55454470209E-01  0.59880850919E-02  0.23167936675E-01  0.60399253638E-01  0.51100000000E-03 0. -1.
         11    1    4    4    0    0  0.68040946593E-01  0.14268396628E-01  0.98783946528E-02  0.70221089123E-01  0.51100000000E-03 0.  1.
</event>
<event>
 7    1  0.1150863E+005  0.1043930E+01  0.7957747E-01            NaN
         13   -1    0    0    0    0  0.00000000000E+00  0.00000000000E+00  0.74505805969E-08  0.10566000000E+00  0.10566000000E+00 0.  1.
     999900   -1    0    0    0    0 -0.00000000000E+00 -0.00000000000E+00 -0.74505805969E-08  0.93827000000E+00  0.93827000000E+00 0. -1.
     999903    2    1    2    0    0  0.38514352385E-01 -0.87094571734E-01  0.59594956094E-01  0.11438992798E+00  0.21556369496E-01 0.  0.
         14    1    1    2    0    0 -0.26619367400E-01  0.16415640702E-01  0.28409325454E-01  0.42251079906E-01  0.00000000000E+00 0.  1.
     999901    1    1    2    0    0 -0.11894984985E-01  0.70678931032E-01 -0.88004281547E-01  0.88728899212E+00  0.88000000000E+00 0. -1.
        -11    1    3    3    0    0  0.24209873766E-01 -0.30611316209E-01  0.28621104080E-01  0.48400406895E-01  0.51100000000E-03 0. -1.
         11    1    3    3    0    0  0.14304478619E-01 -0.56483255525E-01  0.30973852014E-01  0.65989521083E-01  0.51100000000E-03 0.  1.
</event>
<event>
 8    1  0.1150863E+005  0.1043930E+01  0.7957747E-01            NaN
         13   -1    0    0    0    0  0.00000000000E+00  0.00000000000E+00  0.74505805969E-08  0.10566000000E+00  0.10566000000E+00 0.  1.
     999900   -1    0    0    0    0 -0.00000000000E+00 -0.00000000000E+00 -0.74505805969E-08  0.93827000000E+00  0.93827000000E+00 0.  1.
     999902    2    1    2    0    0 -0.82822288243E-02 -0.29442562828E-02  0.21647421073E-01  0.10205660363E+01  0.10202985640E+01 0.  0.
     999903    2    3    3    0    0 -0.68270525377E-01 -0.70417820558E-01  0.88210301102E-01  0.13344603622E+00  0.20180517190E-01 0.  0.
         14    1    1    2    0    0  0.82822288243E-02  0.29442562828E-02 -0.21647421073E-01  0.23363963672E-01  0.00000000000E+00 0.  1.
     999901    1    3    3    0    0  0.59988296553E-01  0.67473564275E-01 -0.66562880029E-01  0.88712000011E+00  0.88000000000E+00 0.  1.
        -11    1    4    4    0    0 -0.64336974744E-01 -0.57028799590E-01  0.72876680952E-01  0.11270670809E+00  0.51100000000E-03 0.  1.
         11    1    4    4    0    0 -0.39335506332E-02 -0.13389020968E-01  0.15333620150E-01  0.20739328122E-01  0.51100000000E-03 0. -1.
</event>
<event>
 8    1  0.1150863E+005  0.1043930E+01  0.7957747E-01            NaN
         13   -1    0    0    0    0  0.00000000000E+00  0.00000000000E+00  0.74505805969E-08  0.10566000000E+00  0.10566000000E+00 0. -1.
     999900   -1    0    0    0    0 -0.00000000000E+00 -0.00000000000E+00 -0.74505805969E-08  0.93827000000E+00  0.93827000000E+00 0. -1.
     999902    2    1    2    0    0  0.11038095600E-01  0.20538468853E-01  0.55012203346E-02  0.10199731287E+01  0.10196917434E+01 0.  0.
     999903    2    3    3    0    0 -0.53080601156E-01 -0.92309084185E-01 -0.68574376487E-01  0.12737413052E+00  0.13535389698E-01 0.  0.
         14    1    1    2    0    0 -0.11038095600E-01 -0.20538468853E-01 -0.55012203346E-02  0.23956871299E-01  0.00000000000E+00 0.  1.
     999901    1    3    3    0    0  0.64118696755E-01  0.11284755304E+00  0.74075596822E-01  0.89259899818E+00  0.88000000000E+00 0. -1.
        -11    1    4    4    0    0 -0.31707640264E-01 -0.52387601969E-01 -0.31594946995E-01  0.68908178671E-01  0.51100000000E-03 0. -1.
         11    1    4    4    0    0 -0.21372960892E-01 -0.39921482216E-01 -0.36979429492E-01  0.58465951854E-01  0.51100000000E-03 0.  1.
</event>
<event>
 8    1  0.1150863E+005  0.1043930E+01  0.7957747E-01            NaN
         13   -1    0    0    0    0  0.00000000000E+00  0.00000000000E+00  0.74505805969E-08  0.10566000000E+00  0.10566000000E+00 0.  1.
     999900   -1    0    0    0    0 -0.00000000000E+00 -0.00000000000E+00 -0.74505805969E-08  0.93827000000E+00  0.93827000000E+00 0. -1.
     999902    2    1    2    0    0  0.92829623749E-02 -0.21546629632E-01  0.72222473441E-02  0.10193822609E+01  0.10190866510E+01 0.  0.
     999903    2    3    3    0    0 -0.12677236084E+00 -0.79023885273E-02  0.13630438364E-01  0.12879914786E+00  0.16424141424E-01 0.  0.
         14    1    1    2    0    0 -0.92829623749E-02  0.21546629632E-01 -0.72222473441E-02  0.24547739114E-01  0.00000000000E+00 0. -1.
     999901    1    3    3    0    0  0.13605532322E+00 -0.13644241104E-01 -0.64081910198E-02  0.89058311302E+00  0.88000000000E+00 0. -1.
        -11    1    4    4    0    0 -0.52187154436E-02 -0.21340183328E-02 -0.22173922078E-02  0.60800472308E-02  0.51100000000E-03 0. -1.
         11    1    4    4    0    0 -0.12155364540E+00 -0.57683701945E-02  0.15847830572E-01  0.12271910063E+00  0.51100000000E-03 0.  1.
</event>
<event>
 8    1  0.1150863E+005  0.1043930E+01  0.7957747E-01            NaN
         13   -1    0    0    0    0  0.00000000000E+00  0.00000000000E+00  0.74505805969E-08  0.10566000000E+00  0.10566000000E+00 0. -1.
     999900   -1    0    0    0    0 -0.00000000000E+00 -0.00000000000E+00 -0.74505805969E-08  0.93827000000E+00  0.93827000000E+00 0. -1.
     999902    2    1    2    0    0 -0.63484530595E-02  0.21642708797E-01 -0.45559421409E-02  0.10209198651E+01  0.10206605237E+01 0.  0.
     999903    2    3    3    0    0  0.29893552183E-02  0.11725705404E+00 -0.61402705488E-01  0.13386808971E+00  0.19804550867E-01 0.  0.
         14    1    1    2    0    0  0.63484530595E-02 -0.21642708797E-01  0.45559421409E-02  0.23010134921E-01  0.00000000000E+00 0.  1.
     999901    1    3    3    0    0 -0.93378082778E-02 -0.95614345242E-01  0.56846763347E-01  0.88705177537E+00  0.88000000000E+00 0.  1.
        -11    1    4    4    0    0 -0.68910493674E-02  0.37758668178E-01 -0.14478906310E-01  0.41025643601E-01  0.51100000000E-03 0. -1.
         11    1    4    4    0    0  0.98804045857E-02  0.79498385861E-01 -0.46923799179E-01  0.92842446110E-01  0.51100000000E-03 0.  1.
</event>
<event>
 7    1  0.1150863E+005  0.1043930E+01  0.7957747E-01            NaN
         13   -1    0    0    0    0  0.00000000000E+00  0.00000000000E+00  0.74505805969E-08  0.10566000000E+00  0.10566000000E+00 0. -1.
     999900   -1    0    0    0    0 -0.00000000000E+00 -0.00000000000E+00 -0.74505805969E-08  0.93827000000E+00  0.93827000000E+00 0. -1.
     999903    2    1    2    0    0  0.27935717609E-01 -0.49020443911E-01 -0.51113227074E-01  0.78676875514E-01  0.19851461387E-01 0.  0.
         14    1    1    2    0    0 -0.69140242836E-01  0.74939987336E-02 -0.37254006234E-01  0.78894829850E-01  0.00000000000E+00 0.  1.
     999901    1    1    2    0    0  0.41204525228E-01  0.41526445177E-01  0.88367233308E-01  0.88635829464E+00  0.88000000000E+00 0.  1.
        -11    1    3    3    0    0  0.86733807496E-02 -0.15933242243E-01 -0.29702476047E-01  0.34807958089E-01  0.51100000000E-03 0. -1.
         11    1    3    3    0    0  0.19262336859E-01 -0.33087201668E-01 -0.21410751026E-01  0.43868917425E-01  0.51100000000E-03 0.  1.
</event>
<event>
 8    1  0.1150863E+005  0.1043930E+01  0.7957747E-01            NaN
         13   -1    0    0    0    0  0.00000000000E+00  0.00000000000E+00  0.74505805969E-08  0.10566000000E+00  0.10566000000E+00 0. -1.
     999900   -1    0    0    0    0 -0.00000000000E+00 -0.00000000000E+00 -0.74505805969E-08  0.93827000000E+00  0.93827000000E+00 0. -1.
     999902    2    1    2    0    0 -0.21302699810E-01  0.38459467882E-02 -0.52955920722E-02  0.10216445873E+01  0.10214014994E+01 0.  0.
     999903    2    3    3    0    0 -0.71161248010E-01 -0.32461076226E-01 -0.10666405175E+00  0.13368082709E+00  0.19382954036E-01 0.  0.
         14    1    1    2    0    0  0.21302699810E-01 -0.38459467882E-02  0.52955920722E-02  0.22285412747E-01  0.00000000000E+00 0.  1.
     999901    1    3    3    0    0  0.49858548200E-01  0.36307023014E-01  0.10136845968E+00  0.88796376016E+00  0.88000000000E+00 0.  1.
        -11    1    4    4    0    0 -0.10864819154E-01 -0.14041843019E-03 -0.24197799040E-01  0.26530333808E-01  0.51100000000E-03 0. -1.
         11    1    4    4    0    0 -0.60296428856E-01 -0.32320657796E-01 -0.82466252710E-01  0.10715049328E+00  0.51100000000E-03 0.  1.
</event>
<event>
 8    1  0.1150863E+005  0.1043930E+01  0.7957747E-01            NaN
         13   -1    0    0    0    0  0.00000000000E+00  0.00000000000E+00  0.74505805969E-08  0.10566000000E+00  0.10566000000E+00 0. -1.
     999900   -1    0    0    0    0 -0.00000000000E+00 -0.00000000000E+00 -0.74505805969E-08  0.93827000000E+00  0.93827000000E+00 0.  1.
     999902    2    1    2    0    0 -0.78397964709E-02 -0.14801745643E-01  0.16988676119E-01  0.10200727328E+01  0.10197937100E+01 0.  0.
     999903    2    3    3    0    0  0.28277353851E-01  0.78885185922E-01 -0.93980161446E-01  0.12743855654E+00  0.19642648701E-01 0.  0.
         14    1    1    2    0    0  0.78397964709E-02  0.14801745643E-01 -0.16988676119E-01  0.23857267217E-01  0.00000000000E+00 0.  1.
     999901    1    3    3    0    0 -0.36117150321E-01 -0.93686931564E-01  0.11096883757E+00  0.89263417625E+00  0.88000000000E+00 0. -1.
        -11    1    4    4    0    0  0.16178724930E-01  0.43886972098E-01 -0.37754658121E-01  0.60112334767E-01  0.51100000000E-03 0.  1.
         11    1    4    4    0    0  0.12098628921E-01  0.34998213824E-01 -0.56225503326E-01  0.67326221770E-01  0.51100000000E-03 0. -1.
</event>
<event>
 8    1  0.1150863E+005  0.1043930E+01  0.7957747E-01            NaN
         13   -1    0    0    0    0  0.00000000000E+00  0.00000000000E+00  0.74505805969E-08  0.10566000000E+00  0.10566000000E+00 0. -1.
     999900   -1    0    0    0    0 -0.00000000000E+00 -0.00000000000E+00 -0.74505805969E-08  0.93827000000E+00  0.93827000000E+00 0.  1.
     999902    2    1    2    0    0 -0.12039263524E-01 -0.14380914603E-01 -0.13343249148E-01  0.10209126833E+01  0.10206531781E+01 0.  0.
     999903    2    3    3    0    0 -0.10002920635E+00 -0.80665695180E-01 -0.25878490777E-01  0.13395550593E+00  0.27596825583E-01 0.  0.
         14    1    1    2    0    0  0.12039263524E-01  0.14380914603E-01  0.13343249148E-01  0.23017316717E-01  0.00000000000E+00 0. -1.
     999901    1    3    3    0    0  0.87989942826E-01  0.66284780576E-01  0.12535241629E-01  0.88695717735E+00  0.88000000000E+00 0. -1.
        -11    1    4    4    0    0 -0.92602792908E-01 -0.81998130894E-01 -0.22716506817E-01  0.12575878310E+00  0.51100000000E-03 0.  1.
         11    1    4    4    0    0 -0.74264134425E-02  0.13324357144E-02 -0.31619839601E-02  0.81967228278E-02  0.51100000000E-03 0. -1.
</event>
<event>
 8    1  0.1150863E+005  0.1043930E+01  0.7957747E-01            NaN
         13   -1    0    0    0    0  0.00000000000E+00  0.00000000000E+00  0.74505805969E-08  0.10566000000E+00  0.10566000000E+00 0.  1.
     999900   -1    0    0    0    0 -0.00000000000E+00 -0.00000000000E+00 -0.74505805969E-08  0.93827000000E+00  0.93827000000E+00 0.  1.
     999902    2    1    2    0    0 -0.20989931337E-01  0.20072563132E-02  0.99362654880E-02  0.10206204383E+01  0.10203542245E+01 0.  0.
     999903    2    3    3    0    0  0.12308396638E+00  0.26506777258E-01 -0.12662559950E-01  0.12828181341E+00  0.21062079819E-01 0.  0.
         14    1    1    2    0    0  0.20989931337E-01 -0.20072563132E-02 -0.99362654880E-02  0.23309561714E-01  0.00000000000E+00 0.  1.
     999901    1    3    3    0    0 -0.14407389772E+00 -0.24499520944E-01  0.22598825438E-01  0.89233862487E+00  0.88000000000E+00 0.  1.
        -11    1    4    4    0    0  0.71274059851E-01  0.12416716470E-01 -0.17296397344E-01  0.74388123633E-01  0.51100000000E-03 0. -1.
         11    1    4    4    0    0  0.51809906534E-01  0.14090060787E-01  0.46338373946E-02  0.53893689780E-01  0.51100000000E-03 0.  1.
</event>
<event>
 8    1  0.1150863E+005  0.1043930E+01  0.7957747E-01            NaN
         13   -1    0    0    0    0  0.00000000000E+00  0.00000000000E+00  0.74505805969E-08  0.10566000000E+00  0.10566000000E+00 0.  1.
     999900   -1    0    0    0    0 -0.00000000000E+00 -0.00000000000E+00 -0.74505805969E-08  0.93827000000E+00  0.93827000000E+00 0.  1.
     999902    2    1    2    0    0 -0.32845917231E-02 -0.21364225549E-01 -0.10266527800E-01  0.10200005146E+01  0.10197197799E+01 0.  0.
     999903    2    3    3    0    0 -0.41346920898E-01  0.10901863650E+00 -0.50605143853E-01  0.12866688712E+00  0.19991405260E-01 0.  0.
         14    1    1    2    0    0  0.32845917231E-02  0.21364225549E-01  0.10266527800E-01  0.23929485351E-01  0.00000000000E+00 0.  1.
     999901    1    3    3    0    0  0.38062329175E-01 -0.13038286205E+00  0.40338616053E-01  0.89133362753E+00  0.88000000000E+00 0. -1.
        -11    1    4    4    0    0 -0.17731928697E-01  0.73650667652E-01 -0.33224822362E-01  0.82722379577E-01  0.51100000000E-03 0. -1.
         11    1    4    4    0    0 -0.23614992201E-01  0.35367968849E-01 -0.17380321491E-01  0.45944507542E-01  0.51100000000E-03 0.  1.
</event>
<event>
 8    1  0.1150863E+005  0.1043930E+01  0.7957747E-01            NaN
         13   -1    0    0    0    0  0.00000000000E+00  0.00000000000E+00  0.74505805969E-08  0.10566000000E+00  0.10566000000E+00 0.  1.
     999900   -1    0    0    0    0 -0.00000000000E+00 -0.00000000000E+00 -0.74505805969E-08  0.93827000000E+00  0.93827000000E+00 0.  1.
     999902    2    1    2    0    0 -0.22283029877E-01 -0.17273425029E-02 -0.10467932245E-01  0.10192501552E+01  0.10189513159E+01 0.  0.
     999903    2    3    3    0    0  0.11559464309E+00  0.36401400919E-01  0.31239804390E-01  0.12672363513E+00  0.19893989564E-01 0.  0.
         14    1    1    2    0    0  0.22283029877E-01  0.17273425029E-02  0.10467932245E-01  0.24679844775E-01  0.00000000000E+00 0.  1.
     999901    1    3    3    0    0 -0.13787767297E+00 -0.38128743422E-01 -0.41707736636E-01  0.89252652010E+00  0.88000000000E+00 0.  1.
        -11    1    4    4    0    0  0.54977044439E-01  0.14376782809E-01  0.48427913425E-02  0.57034034121E-01  0.51100000000E-03 0.  1.
         11    1    4    4    0    0  0.60617598656E-01  0.22024618110E-01  0.26397013048E-01  0.69689601008E-01  0.51100000000E-03 0. -1.
</event>
<event>
 8    1  0.1150863E+005  0.1043930E+01  0.7957747E-01            NaN
         13   -1    0    0    0    0  0.00000000000E+00  0.00000000000E+00  0.74505805969E-08  0.10566000000E+00  0.10566000000E+00 0. -1.
     999900   -1    0    0    0    0 -0.00000000000E+00 -0.00000000000E+00 -0.74505805969E-08  0.93827000000E+00  0.93827000000E+00 0.  1.
     999902    2    1    2    0    0  0.36746325485E-02 -0.13624268003E-01 -0.19439087374E-01  0.10199091399E+01  0.10196262315E+01 0.  0.
     999903    2    3    3    0    0 -0.37829675458E-01  0.30603174841E-01 -0.12106546366E+00  0.13198651113E+00  0.19898592292E-01 0.  0.
         14    1    1    2    0    0 -0.36746325485E-02  0.13624268003E-01  0.19439087374E-01  0.24020860120E-01  0.00000000000E+00 0. -1.
     999901    1    3    3    0    0  0.41504308006E-01 -0.44227442844E-01  0.10162637628E+00  0.88792262875E+00  0.88000000000E+00 0. -1.
        -11    1    4    4    0    0 -0.28731614867E-01  0.24001067517E-01 -0.66898603885E-01  0.76663167542E-01  0.51100000000E-03 0.  1.
         11    1    4    4    0    0 -0.90980605910E-02  0.66021073241E-02 -0.54166859771E-01  0.55323343591E-01  0.51100000000E-03 0. -1.
</event>
<event>
 8    1  0.1150863E+005  0.1043930E+01  0.7957747E-01            NaN
         13   -1    0    0    0    0  0.00000000000E+00  0.00000000000E+00  0.74505805969E-08  0.10566000000E+00  0.10566000000E+00 0. -1.
     999900   -1    0    0    0    0 -0.00000000000E+00 -0.00000000000E+00 -0.74505805969E-08  0.93827000000E+00  0.93827000000E+00 0. -1.
     999902    2    1    2    0    0 -0.16866915529E-01 -0.63421294919E-02  0.13559814916E-01  0.10213781924E+01  0.10211291925E+01 0.  0.
     999903    2    3    3    0    0  0.88133834534E-01 -0.30457274878E-01 -0.87263475828E-01  0.12909346557E+00  0.18841185148E-01 0.  0.
         14    1    1    2    0    0  0.16866915529E-01  0.63421294919E-02 -0.13559814916E-01  0.22551807611E-01  0.00000000000E+00 0. -1.
     999901    1    3    3    0    0 -0.10500075006E+00  0.24115145387E-01  0.10082329074E+00  0.89228472681E+00  0.88000000000E+00 0.  1.
        -11    1    4    4    0    0  0.73920711683E-01 -0.25543929429E-01 -0.62497677969E-01  0.10011485813E+00  0.51100000000E-03 0.  1.
         11    1    4    4    0    0  0.14213122851E-01 -0.49133454492E-02 -0.24765797859E-01  0.28978607442E-01  0.51100000000E-03 0. -1.
</event>
<event>
 8    1  0.1150863E+005  0.1043930E+01  0.7957747E-01            NaN
         13   -1    0    0    0    0  0.00000000000E+00  0.00000000000E+00  0.74505805969E-08  0.10566000000E+00  0.10566000000E+00 0.  1.
     999900   -1    0    0    0    0 -0.00000000000E+00 -0.00000000000E+00 -0.74505805969E-08  0.93827000000E+00  0.93827000000E+00 0. -1.
     999902    2    1    2    0    0 -0.11264019748E-01  0.20035027677E-01 -0.13265058415E-02  0.10209074004E+01  0.10206477747E+01 0.  0.
     999903    2    3    3    0    0  0.75725893815E-01  0.10131690324E+00 -0.33392076492E-01  0.13231177291E+00  0.19795166144E-01 0.  0.
         14    1    1    2    0    0  0.11264019748E-01 -0.20035027677E-01  0.13265058415E-02  0.23022599607E-01  0.00000000000E+00 0. -1.
     999901    1    3    3    0    0 -0.86989913563E-01 -0.81281875562E-01  0.32065570650E-01  0.88859562748E+00  0.88000000000E+00 0.  1.
        -11    1    4    4    0    0  0.27014505450E-01  0.52107550533E-01 -0.12857807112E-01  0.60087974271E-01  0.51100000000E-03 0.  1.
         11    1    4    4    0    0  0.48711388365E-01  0.49209352706E-01 -0.20534269380E-01  0.72223798641E-01  0.51100000000E-03 0. -1.
</event>
<event>
 8    1  0.1150863E+005  0.1043930E+01  0.7957747E-01            NaN
         13   -1    0    0    0    0  0.00000000000E+00  0.00000000000E+00  0.74505805969E-08  0.10566000000E+00  0.10566000000E+00 0.  1.
     999900   -1    0    0    0    0 -0.00000000000E+00 -0.00000000000E+00 -0.74505805969E-08  0.93827000000E+00  0.93827000000E+00 0. -1.
     999902    2    1    2    0    0  0.17247295325E-01 -0.14984553265E-01 -0.53774462746E-02  0.10204582519E+01  0.10201882771E+01 0.  0.
     999903    2    3    3    0    0 -0.57965866473E-01  0.28536794146E-01  0.11029733425E+00  0.12864449202E+00  0.14474566896E-01 0.  0.
         14    1    1    2    0    0 -0.17247295325E-01  0.14984553265E-01  0.53774462746E-02  0.23471748145E-01  0.00000000000E+00 0. -1.
     999901    1    3    3    0    0  0.75213161797E-01 -0.43521347410E-01 -0.11567478053E+00  0.89181375984E+00  0.88000000000E+00 0. -1.
        -11    1    4    4    0    0 -0.38717523098E-01  0.21455979657E-01  0.62107381178E-01  0.76269217746E-01  0.51100000000E-03 0. -1.
         11    1    4    4    0    0 -0.19248343375E-01  0.70808144889E-02  0.48189953074E-01  0.52375274269E-01  0.51100000000E-03 0.  1.
</event>
<event>
 8    1  0.1150863E+005  0.1043930E+01  0.7957747E-01            NaN
         13   -1    0    0    0    0  0.00000000000E+00  0.00000000000E+00  0.74505805969E-08  0.10566000000E+00  0.10566000000E+00 0. -1.
     999900   -1    0    0    0    0 -0.00000000000E+00 -0.00000000000E+00 -0.74505805969E-08  0.93827000000E+00  0.93827000000E+00 0.  1.
     999902    2    1    2    0    0  0.25100769813E-01  0.12915834727E-02  0.41203679426E-02  0.10184605229E+01  0.10181420050E+01 0.  0.
     999903    2    3    3    0    0 -0.82077026020E-01  0.61141416972E-01 -0.72223446163E-01  0.12666600594E+00  0.18792014648E-01 0.  0.
         14    1    1    2    0    0 -0.25100769813E-01 -0.12915834727E-02 -0.41203679426E-02  0.25469477125E-01  0.00000000000E+00 0.  1.
     999901    1    3    3    0    0  0.10717779583E+00 -0.59849833500E-01  0.76343814106E-01  0.89179451694E+00  0.88000000000E+00 0. -1.
        -11    1    4    4    0    0 -0.29985960438E-01  0.18372490939E-01 -0.35227433009E-01  0.49778905212E-01  0.51100000000E-03 0.  1.
         11    1    4    4    0    0 -0.52091065581E-01  0.42768926033E-01 -0.36996013154E-01  0.76887100724E-01  0.51100000000E-03 0. -1.
</event>
<event>
 8    1  0.1150863E+005  0.1043930E+01  0.7957747E-01            NaN
         13   -1    0    0    0    0  0.00000000000E+00  0.00000000000E+00  0.74505805969E-08  0.10566000000E+00  0.10566000000E+00 0. -1.
     999900   -1    0    0    0    0 -0.00000000000E+00 -0.00000000000E+00 -0.74505805969E-08  0.93827000000E+00  0.93827000000E+00 0.  1.
     999902    2    1    2    0    0 -0.52180684180E-02  0.16235099271E-01 -0.14880446036E-01  0.10212974049E+01  0.10210465978E+01 0.  0.
     999903    2    3    3    0    0  0.43094056599E-01 -0.52947899396E-01  0.10743175598E+00  0.12883977371E+00  0.19938087458E-01 0.  0.
         14    1    1    2    0    0  0.52180684180E-02 -0.16235099271E-01  0.14880446036E-01  0.22632595092E-01  0.00000000000E+00 0. -1.
     999901    1    3    3    0    0 -0.48312125017E-01  0.69182998667E-01 -0.12231220202E+00  0.89245763120E+00  0.88000000000E+00 0.  1.
        -11    1    4    4    0    0  0.27658104417E-01 -0.18762324136E-01  0.46032218992E-01  0.56887800566E-01  0.51100000000E-03 0.  1.
         11    1    4    4    0    0  0.15435952182E-01 -0.34185575259E-01  0.61399536988E-01  0.71951973141E-01  0.51100000000E-03 0. -1.
</event>
<event>
 8    1  0.1150863E+005  0.1043930E+01  0.7957747E-01            NaN
         13   -1    0    0    0    0  0.00000000000E+00  0.00000000000E+00  0.74505805969E-08  0.10566000000E+00  0.10566000000E+00 0. -1.
     999900   -1    0    0    0    0 -0.00000000000E+00 -0.00000000000E+00 -0.74505805969E-08  0.93827000000E+00  0.93827000000E+00 0.  1.
     999902    2    1    2    0    0 -0.28809367211E-03  0.78115166928E-02  0.16415030964E-01  0.10257488000E+01  0.10255876582E+01 0.  0.
     999903    2    3    3    0    0 -0.10962839697E+00  0.29771419949E-02 -0.74898530486E-01  0.13427987762E+00  0.19850613811E-01 0.  0.
         14    1    1    2    0    0  0.28809367211E-03 -0.78115166928E-02 -0.16415030964E-01  0.18181199975E-01  0.00000000000E+00 0.  1.
     999901    1    3    3    0    0  0.10934030330E+00  0.48343746979E-02  0.91313561449E-01  0.89146892240E+00  0.88000000000E+00 0. -1.
        -11    1    4    4    0    0 -0.75062171135E-01 -0.30148329690E-02 -0.41428835033E-01  0.85790606983E-01  0.51100000000E-03 0.  1.
         11    1    4    4    0    0 -0.34566225836E-01  0.59919749639E-02 -0.33469695452E-01  0.48489270640E-01  0.51100000000E-03 0. -1.
</event>
<event>
 8    1  0.1150863E+005  0.1043930E+01  0.7957747E-01            NaN
         13   -1    0    0    0    0  0.00000000000E+00  0.00000000000E+00  0.74505805969E-08  0.10566000000E+00  0.10566000000E+00 0.  1.
     999900   -1    0    0    0    0 -0.00000000000E+00 -0.00000000000E+00 -0.74505805969E-08  0.93827000000E+00  0.93827000000E+00 0. -1.
     999902    2    1    2    0    0  0.10534811407E-01  0.19840762385E-01  0.67544069042E-02  0.10204723762E+01  0.10202027300E+01 0.  0.
     999903    2    3    3    0    0  0.33301932434E-02  0.23770018096E-01  0.12827204018E+00  0.13208401471E+00  0.20405065610E-01 0.  0.
         14    1    1    2    0    0 -0.10534811407E-01 -0.19840762385E-01 -0.67544069042E-02  0.23457623836E-01  0.00000000000E+00 0.  1.
     999901    1    3    3    0    0  0.72046181638E-02 -0.39292557105E-02 -0.12151763327E+00  0.88838836146E+00  0.88000000000E+00 0. -1.
        -11    1    4    4    0    0  0.83521182995E-03  0.22768048066E-02  0.67974894556E-01  0.68020061966E-01  0.51100000000E-03 0. -1.
         11    1    4    4    0    0  0.24949814134E-02  0.21493213289E-01  0.60297145623E-01  0.64063952742E-01  0.51100000000E-03 0.  1.
</event>
<event>
 8    1  0.1150863E+005  0.1043930E+01  0.7957747E-01            NaN
         13   -1    0    0    0    0  0.00000000000E+00  0.00000000000E+00  0.74505805969E-08  0.10566000000E+00  0.10566000000E+00 0.  1.
     999900   -1    0    0    0    0 -0.00000000000E+00 -0.00000000000E+00 -0.74505805969E-08  0.93827000000E+00  0.93827000000E+00 0. -1.
     999902    2    1    2    0    0 -0.17113941594E-01  0.14179823291E-01 -0.75266217708E-02  0.10204650384E+01  0.10201952216E+01 0.  0.
     999903    2    3    3    0    0 -0.27222662564E-01 -0.10452063171E+00 -0.69910844742E-01  0.13024946032E+00  0.20291867602E-01 0.  0.
         14    1    1    2    0    0  0.17113941594E-01 -0.14179823291E-01  0.75266217708E-02  0.23464961554E-01  0.00000000000E+00 0.  1.
     999901    1    3    3    0    0  0.10108720970E-01  0.11870045501E+00  0.62384222971E-01  0.89021557812E+00  0.88000000000E+00 0.  1.
        -11    1    4    4    0    0 -0.24844294470E-01 -0.56623329420E-01 -0.36581374569E-01  0.71846353343E-01  0.51100000000E-03 0.  1.
         11    1    4    4    0    0 -0.23783680939E-02 -0.47897302294E-01 -0.33329470174E-01  0.58403106980E-01  0.51100000000E-03 0. -1.
</event>
<event>
 8    1  0.1150863E+005  0.1043930E+01  0.7957747E-01            NaN
         13   -1    0    0    0    0  0.00000000000E+00  0.00000000000E+00  0.74505805969E-08  0.10566000000E+00  0.10566000000E+00 0. -1.
     999900   -1    0    0    0    0 -0.00000000000E+00 -0.00000000000E+00 -0.74505805969E-08  0.93827000000E+00  0.93827000000E+00 0.  1.
     999902    2    1    2    0    0 -0.31562583479E-02 -0.92511644057E-04  0.22837751178E-01  0.10208749918E+01  0.10206146263E+01 0.  0.
     999903    2    3    3    0    0 -0.10669211581E+00  0.68783143770E-01  0.30770829331E-01  0.13209691857E+00  0.19708463046E-01 0.  0.
         14    1    1    2    0    0  0.31562583479E-02  0.92511644057E-04 -0.22837751178E-01  0.23055008220E-01  0.00000000000E+00 0.  1.
     999901    1    3    3    0    0  0.10353585746E+00 -0.68875655414E-01 -0.79330781526E-02  0.88877807321E+00  0.88000000000E+00 0.  1.
        -11    1    4    4    0    0 -0.44401501770E-01  0.26512478021E-01  0.28174753877E-02  0.51793861980E-01  0.51100000000E-03 0.  1.
         11    1    4    4    0    0 -0.62290614038E-01  0.42270665748E-01  0.27953353943E-01  0.80303056590E-01  0.51100000000E-03 0. -1.
</event>
<event>
 8    1  0.1150863E+005  0.1043930E+01  0.7957747E-01            NaN
         13   -1    0    0    0    0  0.00000000000E+00  0.00000000000E+00  0.74505805969E-08  0.10566000000E+00  0.10566000000E+00 0. -1.
     999900   -1    0    0    0    0 -0.00000000000E+00 -0.00000000000E+00 -0.74505805969E-08  0.93827000000E+00  0.93827000000E+00 0. -1.
     999902    2    1    2    0    0 -0.91875906919E-02  0.16849100105E-01  0.15307785515E-01  0.10193814299E+01  0.10190857998E+01 0.  0.
     999903    2    3    3    0    0 -0.22530904705E-01  0.10163999011E+00 -0.76170175202E-01  0.13048562252E+00  0.19653825054E-01 0.  0.
         14    1    1    2    0    0  0.91875906919E-02 -0.16849100105E-01 -0.15307785515E-01  0.24548570110E-01  0.00000000000E+00 0.  1.
     999901    1    3    3    0    0  0.13343314013E-01 -0.84790890003E-01  0.91477960717E-01  0.88889580737E+00  0.88000000000E+00 0. -1.
        -11    1    4    4    0    0 -0.27916264573E-02  0.37180261236E-01 -0.17834181923E-01  0.41333813878E-01  0.51100000000E-03 0. -1.
         11    1    4    4    0    0 -0.19739278248E-01  0.64459728872E-01 -0.58335993280E-01  0.89151808646E-01  0.51100000000E-03 0.  1.
</event>
<event>
 7    1  0.1150863E+005  0.1043930E+01  0.7957747E-01            NaN
         13   -1    0    0    0    0  0.00000000000E+00  0.00000000000E+00  0.74505805969E-08  0.10566000000E+00  0.10566000000E+00 0.  1.
     999900   -1    0    0    0    0 -0.00000000000E+00 -0.00000000000E+00 -0.74505805969E-08  0.93827000000E+00  0.93827000000E+00 0. -1.
     999903    2    1    2    0    0  0.50851658258E-01  0.28532016982E-01 -0.10324698612E+00  0.11948775586E+00  0.14745050543E-01 0.  0.
         14    1    1    2    0    0  0.14711316202E-01 -0.16064174945E-01  0.32446069844E-01  0.39079764449E-01  0.00000000000E+00 0.  1.
     999901    1    1    2    0    0 -0.65562974461E-01 -0.12467842037E-01  0.70800916278E-01  0.88536247969E+00  0.88000000000E+00 0.  1.
        -11    1    3    3    0    0  0.45878504555E-01  0.21934222941E-01 -0.79845041947E-01  0.94664878180E-01  0.51100000000E-03 0. -1.
         11    1    3    3    0    0  0.49731537030E-02  0.65977940406E-02 -0.23401944175E-01  0.24822877676E-01  0.51100000000E-03 0.  1.
</event>
<event>
 8    1  0.1150863E+005  0.1043930E+01  0.7957747E-01            NaN
         13   -1    0    0    0    0  0.00000000000E+00  0.00000000000E+00  0.74505805969E-08  0.10566000000E+00  0.10566000000E+00 0.  1.
     999900   -1    0    0    0    0 -0.00000000000E+00 -0.00000000000E+00 -0.74505805969E-08  0.93827000000E+00  0.93827000000E+00 0.  1.
     999902    2    1    2    0    0 -0.20855052754E-02  0.22193062472E-01  0.38399770464E-02  0.10213108316E+01  0.10210603254E+01 0.  0.
     999903    2    3    3    0    0 -0.10291966016E-01  0.94843803190E-01  0.91792383196E-01  0.13390951212E+00  0.20115771280E-01 0.  0.
         14    1    1    2    0    0  0.20855052754E-02 -0.22193062472E-01 -0.38399770464E-02  0.22619168372E-01  0.00000000000E+00 0.  1.
     999901    1    3    3    0    0  0.82064607405E-02 -0.72650740718E-01 -0.87952406150E-01  0.88740131951E+00  0.88000000000E+00 0.  1.
        -11    1    4    4    0    0 -0.59805763074E-02  0.61089670660E-02  0.64839901401E-02  0.10741974712E-01  0.51100000000E-03 0.  1.
         11    1    4    4    0    0 -0.43113897084E-02  0.88734836124E-01  0.85308393056E-01  0.12316753740E+00  0.51100000000E-03 0. -1.
</event>
<event>
 8    1  0.1150863E+005  0.1043930E+01  0.7957747E-01            NaN
         13   -1    0    0    0    0  0.00000000000E+00  0.00000000000E+00  0.74505805969E-08  0.10566000000E+00  0.10566000000E+00 0.  1.
     999900   -1    0    0    0    0 -0.00000000000E+00 -0.00000000000E+00 -0.74505805969E-08  0.93827000000E+00  0.93827000000E+00 0. -1.
     999902    2    1    2    0    0  0.19636638448E-01  0.15217297664E-02 -0.12325174320E-01  0.10206959054E+01  0.10204314323E+01 0.  0.
     999903    2    3    3    0    0 -0.27984641183E-01  0.54851105426E-01  0.11175226184E+00  0.12912032319E+00  0.19791562009E-01 0.  0.
         14    1    1    2    0    0 -0.19636638448E-01 -0.15217297664E-02  0.12325174320E-01  0.23234094625E-01  0.00000000000E+00 0.  1.
     999901    1    3    3    0    0  0.47621279631E-01 -0.53329375659E-01 -0.12407743616E+00  0.89157558218E+00  0.88000000000E+00 0. -1.
        -11    1    4    4    0    0 -0.11562101640E-01  0.16634805398E-01  0.56037968293E-01  0.59589545697E-01  0.51100000000E-03 0. -1.
         11    1    4    4    0    0 -0.16422539542E-01  0.38216300028E-01  0.55714293545E-01  0.69530777495E-01  0.51100000000E-03 0.  1.
</event>
<event>
 8    1  0.1150863E+005  0.1043930E+01  0.7957747E-01            NaN
         13   -1    0    0    0    0  0.00000000000E+00  0.00000000000E+00  0.74505805969E-08  0.10566000000E+00  0.10566000000E+00 0. -1.
     999900   -1    0    0    0    0 -0.00000000000E+00 -0.00000000000E+00 -0.74505805969E-08  0.93827000000E+00  0.93827000000E+00 0.  1.
     999902    2    1    2    0    0  0.18475448805E-01  0.14962818249E-01  0.60298668259E-03  0.10201478274E+01  0.10198705791E+01 0.  0.
     999903    2    3    3    0    0 -0.33409592377E-01  0.12501376842E+00  0.12675374028E-01  0.13169467073E+00  0.20932702555E-01 0.  0.
         14    1    1    2    0    0 -0.18475448805E-01 -0.14962818249E-01 -0.60298668259E-03  0.23782172555E-01  0.00000000000E+00 0.  1.
     999901    1    3    3    0    0  0.51885041182E-01 -0.11005095017E+00 -0.12072387345E-01  0.88845315671E+00  0.88000000000E+00 0. -1.
        -11    1    4    4    0    0 -0.90183230204E-02  0.63015472337E-01 -0.10576361922E-02  0.63668356498E-01  0.51100000000E-03 0. -1.
         11    1    4    4    0    0 -0.24391269357E-01  0.61998296082E-01  0.13733010220E-01  0.68026314236E-01  0.51100000000E-03 0.  1.
</event>
<event>
 8    1  0.1150863E+005  0.1043930E+01  0.7957747E-01            NaN
         13   -1    0    0    0    0  0.00000000000E+00  0.00000000000E+00  0.74505805969E-08  0.10566000000E+00  0.10566000000E+00 0. -1.
     999900   -1    0    0    0    0 -0.00000000000E+00 -0.00000000000E+00 -0.74505805969E-08  0.93827000000E+00  0.93827000000E+00 0. -1.
     999902    2    1    2    0    0  0.13790721154E-01  0.19082289866E-01 -0.37620218485E-02  0.10200873788E+01  0.10198087026E+01 0.  0.
     999903    2    3    3    0    0 -0.56591669570E-01 -0.11176182354E+00 -0.14725526215E-01  0.12756619623E+00  0.19051798669E-01 0.  0.
         14    1    1    2    0    0 -0.13790721154E-01 -0.19082289866E-01  0.37620218485E-02  0.23842621183E-01  0.00000000000E+00 0.  1.
     999901    1    3    3    0    0  0.70382390724E-01  0.13084411341E+00  0.10963504366E-01  0.89252118259E+00  0.88000000000E+00 0.  1.
        -11    1    4    4    0    0 -0.35194106978E-01 -0.87517297001E-01 -0.95184030467E-02  0.94809090060E-01  0.51100000000E-03 0.  1.
         11    1    4    4    0    0 -0.21397562592E-01 -0.24244526540E-01 -0.52071231680E-02  0.32757106171E-01  0.51100000000E-03 0. -1.
</event>
<event>
 8    1  0.1150863E+005  0.1043930E+01  0.7957747E-01            NaN
         13   -1    0    0    0    0  0.00000000000E+00  0.00000000000E+00  0.74505805969E-08  0.10566000000E+00  0.10566000000E+00 0.  1.
     999900   -1    0    0    0    0 -0.00000000000E+00 -0.00000000000E+00 -0.74505805969E-08  0.93827000000E+00  0.93827000000E+00 0. -1.
     999902    2    1    2    0    0  0.71340212791E-02  0.21603613236E-01 -0.15464085741E-02  0.10211264533E+01  0.10208717999E+01 0.  0.
     999903    2    3    3    0    0  0.86554353298E-01  0.18369739271E-01 -0.96363263829E-01  0.13247113025E+00  0.20823504447E-01 0.  0.
         14    1    1    2    0    0 -0.71340212791E-02 -0.21603613236E-01  0.15464085741E-02  0.22803546740E-01  0.00000000000E+00 0. -1.
     999901    1    3    3    0    0 -0.79420332019E-01  0.32338739651E-02  0.94816855255E-01  0.88865532301E+00  0.88000000000E+00 0.  1.
        -11    1    4    4    0    0  0.58668185250E-01  0.19454612216E-01 -0.56065185096E-01  0.83450608134E-01  0.51100000000E-03 0.  1.
         11    1    4    4    0    0  0.27886168048E-01 -0.10848729456E-02 -0.40298078733E-01  0.49020522113E-01  0.51100000000E-03 0. -1.
</event>
<event>
 8    1  0.1150863E+005  0.1043930E+01  0.7957747E-01            NaN
         13   -1    0    0    0    0  0.00000000000E+00  0.00000000000E+00  0.74505805969E-08  0.10566000000E+00  0.10566000000E+00 0. -1.
     999900   -1    0    0    0    0 -0.00000000000E+00 -0.00000000000E+00 -0.74505805969E-08  0.93827000000E+00  0.93827000000E+00 0. -1.
     999902    2    1    2    0    0 -0.15125577915E-01  0.11941102747E-02  0.19285482246E-01  0.10193914827E+01  0.10190960976E+01 0.  0.
     999903    2    3    3    0    0 -0.62561078729E-01 -0.50032835651E-01 -0.98783319392E-01  0.12876554064E+00  0.20130748882E-01 0.  0.
         14    1    1    2    0    0  0.15125577915E-01 -0.11941102747E-02 -0.19285482246E-01  0.24538517316E-01  0.00000000000E+00 0.  1.
     999901    1    3    3    0    0  0.47435500814E-01  0.51226945926E-01  0.11806880164E+00  0.89062594205E+00  0.88000000000E+00 0.  1.
        -11    1    4    4    0    0 -0.53410600226E-01 -0.47470843033E-01 -0.77304482551E-01  0.10527306065E+00  0.51100000000E-03 0.  1.
         11    1    4    4    0    0 -0.91504785033E-02 -0.25619926182E-02 -0.21478836841E-01  0.23492479990E-01  0.51100000000E-03 0. -1.
</event>
<event>
 8    1  0.1150863E+005  0.1043930E+01  0.7957747E-01            NaN
         13   -1    0    0    0    0  0.00000000000E+00  0.00000000000E+00  0.74505805969E-08  0.10566000000E+00  0.10566000000E+00 0.  1.
     999900   -1    0    0    0    0 -0.00000000000E+00 -0.00000000000E+00 -0.74505805969E-08  0.93827000000E+00  0.93827000000E+00 0.  1.
     999902    2    1    2    0    0  0.87393011144E-02  0.17792299712E-01 -0.14597777774E-01  0.10193121928E+01  0.10190148723E+01 0.  0.
     999903    2    3    3    0    0 -0.65818202512E-01  0.85661124610E-01  0.69214005710E-01  0.12959908527E+00  0.18316120384E-01 0.  0.
         14    1    1    2    0    0 -0.87393011144E-02 -0.17792299712E-01  0.14597777774E-01  0.24617807151E-01  0.00000000000E+00 0. -1.
     999901    1    3    3    0    0  0.74557503626E-01 -0.67868824898E-01 -0.83811783484E-01  0.88971310758E+00  0.88000000000E+00 0.  1.
        -11    1    4    4    0    0 -0.22554609150E-01  0.16847415260E-01  0.15122199210E-01  0.31960723158E-01  0.51100000000E-03 0. -1.
         11    1    4    4    0    0 -0.43263593362E-01  0.68813709350E-01  0.54091806500E-01  0.97638362116E-01  0.51100000000E-03 0.  1.
</event>
<event>
 8    1  0.1150863E+005  0.1043930E+01  0.7957747E-01            NaN
         13   -1    0    0    0    0  0.00000000000E+00  0.00000000000E+00  0.74505805969E-08  0.10566000000E+00  0.10566000000E+00 0. -1.
     999900   -1    0    0    0    0 -0.00000000000E+00 -0.00000000000E+00 -0.74505805969E-08  0.93827000000E+00  0.93827000000E+00 0.  1.
     999902    2    1    2    0    0  0.62603500323E-02  0.14571486491E-01  0.16473526769E-01  0.10210630526E+01  0.10208069651E+01 0.  0.
     999903    2    3    3    0    0 -0.57049211325E-01 -0.14246301170E-01  0.11733806098E+00  0.13257432460E+00  0.18712599510E-01 0.  0.
         14    1    1    2    0    0 -0.62603500323E-02 -0.14571486491E-01 -0.16473526769E-01  0.22866947441E-01  0.00000000000E+00 0.  1.
     999901    1    3    3    0    0  0.63309561357E-01  0.28817787661E-01 -0.10086453421E+00  0.88848872796E+00  0.88000000000E+00 0.  1.
        -11    1    4    4    0    0 -0.20733603994E-01 -0.73001233172E-02  0.64005646569E-01  0.67676864945E-01  0.51100000000E-03 0. -1.
         11    1    4    4    0    0 -0.36315607330E-01 -0.69461778525E-02  0.53332414407E-01  0.64897459657E-01  0.51100000000E-03 0.  1.
</event>
<event>
 8    1  0.1150863E+005  0.1043930E+01  0.7957747E-01            NaN
         13   -1    0    0    0    0  0.00000000000E+00  0.00000000000E+00  0.74505805969E-08  0.10566000000E+00  0.10566000000E+00 0. -1.
     999900   -1    0    0    0    0 -0.00000000000E+00 -0.00000000000E+00 -0.74505805969E-08  0.93827000000E+00  0.93827000000E+00 0. -1.
     999902    2    1    2    0    0 -0.19560699233E-01 -0.41531508702E-02 -0.10771805950E-01  0.10212165366E+01  0.10209639138E+01 0.  0.
     999903    2    3    3    0    0  0.61935496979E-01 -0.79508697193E-01 -0.82021854843E-01  0.13138696986E+00  0.19424532478E-01 0.  0.
         14    1    1    2    0    0  0.19560699233E-01  0.41531508702E-02  0.10771805950E-01  0.22713463409E-01  0.00000000000E+00 0.  1.
     999901    1    3    3    0    0 -0.81496196212E-01  0.75355546323E-01  0.71250048893E-01  0.88982956673E+00  0.88000000000E+00 0.  1.
        -11    1    4    4    0    0  0.47045835833E-01 -0.70175745561E-01 -0.72846388932E-01  0.11155627923E+00  0.51100000000E-03 0.  1.
         11    1    4    4    0    0  0.14889661146E-01 -0.93329516322E-02 -0.91754659110E-02  0.19830690631E-01  0.51100000000E-03 0. -1.
</event>
<event>
 8    1  0.1150863E+005  0.1043930E+01  0.7957747E-01            NaN
         13   -1    0    0    0    0  0.00000000000E+00  0.00000000000E+00  0.74505805969E-08  0.10566000000E+00  0.10566000000E+00 0.  1.
     999900   -1    0    0    0    0 -0.00000000000E+00 -0.00000000000E+00 -0.74505805969E-08  0.93827000000E+00  0.93827000000E+00 0. -1.
     999902    2    1    2    0    0 -0.11016234714E-02  0.50175460530E-02 -0.22763836886E-01  0.10205937275E+01  0.10203268962E+01 0.  0.
     999903    2    3    3    0    0 -0.69209659093E-01 -0.90968111023E-01  0.56645056178E-01  0.12921405356E+00  0.20553226353E-01 0.  0.
         14    1    1    2    0    0  0.11016234714E-02 -0.50175460530E-02  0.22763836886E-01  0.23336272462E-01  0.00000000000E+00 0.  1.
     999901    1    3    3    0    0  0.68108035622E-01  0.95985657076E-01 -0.79408893063E-01  0.89137967398E+00  0.88000000000E+00 0. -1.
        -11    1    4    4    0    0 -0.16821066283E-01 -0.27301961555E-01  0.65386616702E-02  0.32731645132E-01  0.51100000000E-03 0.  1.
         11    1    4    4    0    0 -0.52388592810E-01 -0.63666149469E-01  0.50106394508E-01  0.96482408429E-01  0.51100000000E-03 0. -1.
</event>
<event>
 8    1  0.1150863E+005  0.1043930E+01  0.7957747E-01            NaN
         13   -1    0    0    0    0  0.00000000000E+00  0.00000000000E+00  0.74505805969E-08  0.10566000000E+00  0.10566000000E+00 0. -1.
     999900   -1    0    0    0    0 -0.00000000000E+00 -0.00000000000E+00 -0.74505805969E-08  0.93827000000E+00  0.93827000000E+00 0.  1.
     999902    2    1    2    0    0  0.21081539748E-01  0.96637497244E-02  0.14614673497E-03  0.10207386064E+01  0.10204751158E+01 0.  0.
     999903    2    3    3    0    0 -0.53596678810E-01  0.10281108239E+00 -0.58960916634E-01  0.13071225466E+00  0.12906633421E-01 0.  0.
         14    1    1    2    0    0 -0.21081539748E-01 -0.96637497244E-02 -0.14614673497E-03  0.23191393571E-01  0.00000000000E+00 0.  1.
     999901    1    3    3    0    0  0.74678218559E-01 -0.93147332661E-01  0.59107063369E-01  0.89002635177E+00  0.88000000000E+00 0. -1.
        -11    1    4    4    0    0 -0.22154088786E-01  0.46180046721E-01 -0.19174569828E-01  0.54693012480E-01  0.51100000000E-03 0.  1.
         11    1    4    4    0    0 -0.31442590025E-01  0.56631035665E-01 -0.39786346806E-01  0.76019242176E-01  0.51100000000E-03 0. -1.
</event>
<event>
 8    1  0.1150863E+005  0.1043930E+01  0.7957747E-01            NaN
         13   -1    0    0    0    0  0.00000000000E+00  0.00000000000E+00  0.74505805969E-08  0.10566000000E+00  0.10566000000E+00 0.  1.
     999900   -1    0    0    0    0 -0.00000000000E+00 -0.00000000000E+00 -0.74505805969E-08  0.93827000000E+00  0.93827000000E+00 0. -1.
     999902    2    1    2    0    0 -0.17261437104E-01  0.10588955717E-01  0.13058995898E-01  0.10198339304E+01  0.10195492264E+01 0.  0.
     999903    2    3    3    0    0  0.83015128926E-01  0.30916071786E-01 -0.90138141165E-01  0.12791564358E+00  0.19753790913E-01 0.  0.
         14    1    1    2    0    0  0.17261437104E-01 -0.10588955717E-01 -0.13058995898E-01  0.24096069554E-01  0.00000000000E+00 0. -1.
     999901    1    3    3    0    0 -0.10027656603E+00 -0.20327116068E-01  0.10319713706E+00  0.89191828686E+00  0.88000000000E+00 0.  1.
        -11    1    4    4    0    0  0.26134789234E-01  0.18996079174E-01 -0.27081220132E-01  0.42160785537E-01  0.51100000000E-03 0. -1.
         11    1    4    4    0    0  0.56880339692E-01  0.11919992611E-01 -0.63056921033E-01  0.85754858046E-01  0.51100000000E-03 0.  1.
</event>
<event>
 8    1  0.1217301E+005  0.1043930E+01  0.7957747E-01            NaN
         13   -1    0    0    0    0  0.00000000000E+00  0.00000000000E+00  0.74505805969E-08  0.10566000000E+00  0.10566000000E+00 0. -1.
     999900   -1    0    0    0    0 -0.00000000000E+00 -0.00000000000E+00 -0.74505805969E-08  0.93827000000E+00  0.93827000000E+00 0.  1.
     999902    2    1    2    0    0 -0.90061488481E-03 -0.23736784587E-01  0.19581910196E-02  0.10200955593E+01  0.10198170765E+01 0.  0.
     999903    2    3    3    0    0 -0.49000281728E-01 -0.11664266140E+00 -0.36106352361E-01  0.13308147300E+00  0.20011789218E-01 0.  0.
         14    1    1    2    0    0  0.90061488481E-03  0.23736784587E-01 -0.19581910196E-02  0.23834440664E-01  0.00000000000E+00 0.  1.
     999901    1    3    3    0    0  0.48099666843E-01  0.92905876810E-01  0.38064543381E-01  0.88701408634E+00  0.88000000000E+00 0.  1.
        -11    1    4    4    0    0 -0.29069990013E-01 -0.45865309914E-01 -0.11208536418E-01  0.55448925891E-01  0.51100000000E-03 0. -1.
         11    1    4    4    0    0 -0.19930291715E-01 -0.70777351483E-01 -0.24897815943E-01  0.77632547108E-01  0.51100000000E-03 0.  1.
</event>
<event>
 8    1  0.1150863E+005  0.1043930E+01  0.7957747E-01            NaN
         13   -1    0    0    0    0  0.00000000000E+00  0.00000000000E+00  0.74505805969E-08  0.10566000000E+00  0.10566000000E+00 0.  1.
     999900   -1    0    0    0    0 -0.00000000000E+00 -0.00000000000E+00 -0.74505805969E-08  0.93827000000E+00  0.93827000000E+00 0. -1.
     999902    2    1    2    0    0  0.96317003949E-02 -0.24611958893E-01 -0.22875568352E-02  0.10174016927E+01  0.10170557768E+01 0.  0.
     999903    2    3    3    0    0 -0.47868833532E-02 -0.10984469865E+00  0.68864000422E-01  0.13030809019E+00  0.12213752073E-01 0.  0.
         14    1    1    2    0    0 -0.96317003949E-02  0.24611958893E-01  0.22875568352E-02  0.26528307321E-01  0.00000000000E+00 0.  1.
     999901    1    3    3    0    0  0.14418583748E-01  0.85232739759E-01 -0.71151557257E-01  0.88709360249E+00  0.88000000000E+00 0. -1.
        -11    1    4    4    0    0  0.40566033972E-02 -0.29608316715E-01  0.17756128565E-01  0.34765639250E-01  0.51100000000E-03 0.  1.
         11    1    4    4    0    0 -0.88434867504E-02 -0.80236381937E-01  0.51107871857E-01  0.95542450936E-01  0.51100000000E-03 0. -1.
</event>
<event>
 8    1  0.1150863E+005  0.1043930E+01  0.7957747E-01            NaN
         13   -1    0    0    0    0  0.00000000000E+00  0.00000000000E+00  0.74505805969E-08  0.10566000000E+00  0.10566000000E+00 0. -1.
     999900   -1    0    0    0    0 -0.00000000000E+00 -0.00000000000E+00 -0.74505805969E-08  0.93827000000E+00  0.93827000000E+00 0.  1.
     999902    2    1    2    0    0 -0.45074760515E-02 -0.91963425651E-02  0.21243340972E-01  0.10203467519E+01  0.10200741760E+01 0.  0.
     999903    2    3    3    0    0 -0.10264637982E-01  0.99930146700E-02 -0.12560987786E+00  0.12795264374E+00  0.19718379446E-01 0.  0.
         14    1    1    2    0    0  0.45074760515E-02  0.91963425651E-02 -0.21243340972E-01  0.23583248134E-01  0.00000000000E+00 0.  1.
     999901    1    3    3    0    0  0.57571619310E-02 -0.19189357235E-01  0.14685321883E+00  0.89239410813E+00  0.88000000000E+00 0. -1.
        -11    1    4    4    0    0 -0.16207392300E-01  0.73955346091E-02 -0.88475890917E-01  0.90253076911E-01  0.51100000000E-03 0.  1.
         11    1    4    4    0    0  0.59427543173E-02  0.25974800609E-02 -0.37133986942E-01  0.37699566824E-01  0.51100000000E-03 0. -1.
</event>
<event>
 7    1  0.1150863E+005  0.1043930E+01  0.7957747E-01            NaN
         13   -1    0    0    0    0  0.00000000000E+00  0.00000000000E+00  0.74505805969E-08  0.10566000000E+00  0.10566000000E+00 0.  1.
     999900   -1    0    0    0    0 -0.00000000000E+00 -0.00000000000E+00 -0.74505805969E-08  0.93827000000E+00  0.93827000000E+00 0.  1.
     999902    2    1    2    0    0  0.10608246524E-01 -0.14919133710E-01  0.15199209484E-01  0.10201364838E+01  0.10198589678E+01 0.  0.
         14    1    1    2    0    0 -0.10608246524E-01  0.14919133710E-01 -0.15199209484E-01  0.23793516215E-01  0.00000000000E+00 0. -1.
     999901    1    3    3    0    0  0.38846439129E-01  0.11350917005E+00  0.44733642980E-02  0.88815166976E+00  0.88000000000E+00 0.  1.
        -11    1    3    3    0    0 -0.21458717256E-01 -0.90687305332E-01  0.82109188375E-02  0.93553964127E-01  0.51100000000E-03 0.  1.
         11    1    3    3    0    0 -0.67794753487E-02 -0.37740998423E-01  0.25149263482E-02  0.38430849893E-01  0.51100000000E-03 0. -1.
</event>
<event>
 8    1  0.1150863E+005  0.1043930E+01  0.7957747E-01            NaN
         13   -1    0    0    0    0  0.00000000000E+00  0.00000000000E+00  0.74505805969E-08  0.10566000000E+00  0.10566000000E+00 0. -1.
     999900   -1    0    0    0    0 -0.00000000000E+00 -0.00000000000E+00 -0.74505805969E-08  0.93827000000E+00  0.93827000000E+00 0.  1.
     999902    2    1    2    0    0 -0.24585896667E-01  0.10733484511E-01  0.24624273882E-02  0.10169904834E+01  0.10166336143E+01 0.  0.
     999903    2    3    3    0    0  0.10711294485E+00  0.56604576277E-02 -0.59870772132E-01  0.12499510887E+00  0.23109395293E-01 0.  0.
         14    1    1    2    0    0  0.24585896667E-01 -0.10733484511E-01 -0.24624273882E-02  0.26939516575E-01  0.00000000000E+00 0. -1.
     999901    1    3    3    0    0 -0.13169884152E+00  0.50730268828E-02  0.62333199520E-01  0.89199537455E+00  0.88000000000E+00 0.  1.
        -11    1    4    4    0    0  0.60190918530E-01  0.66867503267E-02 -0.21154857479E-01  0.64151760843E-01  0.51100000000E-03 0. -1.
         11    1    4    4    0    0  0.46922026324E-01 -0.10262926990E-02 -0.38715914653E-01  0.60843348030E-01  0.51100000000E-03 0.  1.
</event>
<event>
 8    1  0.1150863E+005  0.1043930E+01  0.7957747E-01            NaN
         13   -1    0    0    0    0  0.00000000000E+00  0.00000000000E+00  0.74505805969E-08  0.10566000000E+00  0.10566000000E+00 0.  1.
     999900   -1    0    0    0    0 -0.00000000000E+00 -0.00000000000E+00 -0.74505805969E-08  0.93827000000E+00  0.93827000000E+00 0. -1.
     999902    2    1    2    0    0  0.17645210979E-01 -0.10782035407E-01  0.11317040587E-01  0.10203571095E+01  0.10200847758E+01 0.  0.
     999903    2    3    3    0    0 -0.71974186894E-01  0.10387620706E+00  0.11892535761E-01  0.12840504790E+00  0.19387468802E-01 0.  0.
         14    1    1    2    0    0 -0.17645210979E-01  0.10782035407E-01 -0.11317040587E-01  0.23572890481E-01  0.00000000000E+00 0.  1.
     999901    1    3    3    0    0  0.89619397873E-01 -0.11465824246E+00 -0.57549517438E-03  0.89195206162E+00  0.88000000000E+00 0.  1.
        -11    1    4    4    0    0 -0.48420508724E-01  0.53565152296E-01  0.43197174151E-02  0.72337350554E-01  0.51100000000E-03 0. -1.
         11    1    4    4    0    0 -0.23553678170E-01  0.50311054760E-01  0.75728183463E-02  0.56067697341E-01  0.51100000000E-03 0.  1.
</event>
<event>
 8    1  0.1150863E+005  0.1043930E+01  0.7957747E-01            NaN
         13   -1    0    0    0    0  0.00000000000E+00  0.00000000000E+00  0.74505805969E-08  0.10566000000E+00  0.10566000000E+00 0.  1.
     999900   -1    0    0    0    0 -0.00000000000E+00 -0.00000000000E+00 -0.74505805969E-08  0.93827000000E+00  0.93827000000E+00 0.  1.
     999902    2    1    2    0    0 -0.77702719461E-02  0.11390912532E-01  0.20312800994E-01  0.10193792383E+01  0.10190835548E+01 0.  0.
     999903    2    3    3    0    0  0.71666410568E-01  0.69291123035E-01  0.83461669609E-01  0.13165720947E+00  0.20746960679E-01 0.  0.
         14    1    1    2    0    0  0.77702719461E-02 -0.11390912532E-01 -0.20312800994E-01  0.24550761672E-01  0.00000000000E+00 0. -1.
     999901    1    3    3    0    0 -0.79436682515E-01 -0.57900210503E-01 -0.63148868615E-01  0.88772202885E+00  0.88000000000E+00 0.  1.
        -11    1    4    4    0    0  0.52638011819E-01  0.56486416923E-01  0.73651243076E-01  0.10670633680E+00  0.51100000000E-03 0.  1.
         11    1    4    4    0    0  0.19028398749E-01  0.12804706112E-01  0.98104265329E-02  0.24950872677E-01  0.51100000000E-03 0. -1.
</event>
<event>
 8    1  0.1150863E+005  0.1043930E+01  0.7957747E-01            NaN
         13   -1    0    0    0    0  0.00000000000E+00  0.00000000000E+00  0.74505805969E-08  0.10566000000E+00  0.10566000000E+00 0. -1.
     999900   -1    0    0    0    0 -0.00000000000E+00 -0.00000000000E+00 -0.74505805969E-08  0.93827000000E+00  0.93827000000E+00 0. -1.
     999902    2    1    2    0    0 -0.80146733447E-03 -0.11333959780E-01  0.19794499877E-01  0.10211062575E+01  0.10208511478E+01 0.  0.
     999903    2    3    3    0    0 -0.85438158180E-01  0.58962489319E-01 -0.74262255715E-01  0.12928136808E+00  0.20555668079E-01 0.  0.
         14    1    1    2    0    0  0.80146733447E-03  0.11333959780E-01 -0.19794499877E-01  0.22823742453E-01  0.00000000000E+00 0.  1.
     999901    1    3    3    0    0  0.84636690845E-01 -0.70296449099E-01  0.94056755591E-01  0.89182488946E+00  0.88000000000E+00 0.  1.
        -11    1    4    4    0    0 -0.33427433728E-01  0.30540600143E-01 -0.22380003635E-01  0.50509872960E-01  0.51100000000E-03 0. -1.
         11    1    4    4    0    0 -0.52010724452E-01  0.28421889176E-01 -0.51882252080E-01  0.78771495125E-01  0.51100000000E-03 0.  1.
</event>
<event>
 8    1  0.1150863E+005  0.1043930E+01  0.7957747E-01            NaN
         13   -1    0    0    0    0  0.00000000000E+00  0.00000000000E+00  0.74505805969E-08  0.10566000000E+00  0.10566000000E+00 0. -1.
     999900   -1    0    0    0    0 -0.00000000000E+00 -0.00000000000E+00 -0.74505805969E-08  0.93827000000E+00  0.93827000000E+00 0.  1.
     999902    2    1    2    0    0 -0.15823491779E-01 -0.11569005703E-01 -0.12961293178E-01  0.10204306403E+01  0.10201600226E+01 0.  0.
     999903    2    3    3    0    0  0.93936035959E-01 -0.80632284846E-01  0.32002409609E-01  0.12979119304E+00  0.22272300284E-01 0.  0.
         14    1    1    2    0    0  0.15823491779E-01  0.11569005703E-01  0.12961293178E-01  0.23499359691E-01  0.00000000000E+00 0. -1.
     999901    1    3    3    0    0 -0.10975952774E+00  0.69063279142E-01 -0.44963702787E-01  0.89063944726E+00  0.88000000000E+00 0.  1.
        -11    1    4    4    0    0  0.91441869746E-02 -0.85242219495E-02  0.10700002079E-01  0.16462979097E-01  0.51100000000E-03 0.  1.
         11    1    4    4    0    0  0.84791848984E-01 -0.72108062896E-01  0.21302407530E-01  0.11332821395E+00  0.51100000000E-03 0. -1.
</event>
<event>
 8    1  0.1150863E+005  0.1043930E+01  0.7957747E-01            NaN
         13   -1    0    0    0    0  0.00000000000E+00  0.00000000000E+00  0.74505805969E-08  0.10566000000E+00  0.10566000000E+00 0.  1.
     999900   -1    0    0    0    0 -0.00000000000E+00 -0.00000000000E+00 -0.74505805969E-08  0.93827000000E+00  0.93827000000E+00 0.  1.
     999902    2    1    2    0    0  0.14840393526E-01  0.29001246116E-02 -0.20045721029E-01  0.10188206604E+01  0.10185111974E+01 0.  0.
     999903    2    3    3    0    0  0.76466156357E-01  0.10248391514E+00 -0.20889941661E-01  0.13106203405E+00  0.19769703481E-01 0.  0.
         14    1    1    2    0    0 -0.14840393526E-01 -0.29001246116E-02  0.20045721029E-01  0.25109339584E-01  0.00000000000E+00 0.  1.
     999901    1    3    3    0    0 -0.61625762831E-01 -0.99583790530E-01  0.84422063200E-03  0.88775862637E+00  0.88000000000E+00 0. -1.
        -11    1    4    4    0    0  0.32853435908E-01  0.31676625469E-01 -0.13380995851E-01  0.47561213431E-01  0.51100000000E-03 0.  1.
         11    1    4    4    0    0  0.43612720450E-01  0.70807289672E-01 -0.75089458096E-02  0.83500820618E-01  0.51100000000E-03 0. -1.
</event>
<event>
 8    1  0.1150863E+005  0.1043930E+01  0.7957747E-01            NaN
         13   -1    0    0    0    0  0.00000000000E+00  0.00000000000E+00  0.74505805969E-08  0.10566000000E+00  0.10566000000E+00 0. -1.
     999900   -1    0    0    0    0 -0.00000000000E+00 -0.00000000000E+00 -0.74505805969E-08  0.93827000000E+00  0.93827000000E+00 0.  1.
     999902    2    1    2    0    0  0.20885419489E-01 -0.23258328636E-02  0.11833923025E-01  0.10198125379E+01  0.10195273220E+01 0.  0.
     999903    2    3    3    0    0 -0.46932615725E-01  0.15688698391E-01 -0.11617172469E+00  0.12778717103E+00  0.19618506216E-01 0.  0.
         14    1    1    2    0    0 -0.20885419489E-01  0.23258328636E-02 -0.11833923025E-01  0.24117462136E-01  0.00000000000E+00 0.  1.
     999901    1    3    3    0    0  0.67818035214E-01 -0.18014531254E-01  0.12800564771E+00  0.89202536684E+00  0.88000000000E+00 0. -1.
        -11    1    4    4    0    0 -0.33449483097E-01  0.29235798334E-02 -0.86399516783E-01  0.92696023970E-01  0.51100000000E-03 0.  1.
         11    1    4    4    0    0 -0.13483132628E-01  0.12765118557E-01 -0.29772207904E-01  0.35091147056E-01  0.51100000000E-03 0. -1.
</event>
<event>
 8    1  0.1150863E+005  0.1043930E+01  0.7957747E-01            NaN
         13   -1    0    0    0    0  0.00000000000E+00  0.00000000000E+00  0.74505805969E-08  0.10566000000E+00  0.10566000000E+00 0. -1.
     999900   -1    0    0    0    0 -0.00000000000E+00 -0.00000000000E+00 -0.74505805969E-08  0.93827000000E+00  0.93827000000E+00 0. -1.
     999902    2    1    2    0    0  0.75972305346E-03  0.14237455242E-01 -0.19874291395E-01  0.10194704463E+01  0.10191769822E+01 0.  0.
     999903    2    3    3    0    0 -0.52543768011E-01 -0.10418265378E+00  0.47177510620E-01  0.12741633997E+00  0.19857826611E-01 0.  0.
         14    1    1    2    0    0 -0.75972305346E-03 -0.14237455242E-01  0.19874291395E-01  0.24459553744E-01  0.00000000000E+00 0. -1.
     999901    1    3    3    0    0  0.53303491065E-01  0.11842010903E+00 -0.67051802015E-01  0.89205410628E+00  0.88000000000E+00 0. -1.
        -11    1    4    4    0    0 -0.22419782223E-01 -0.46449774714E-01  0.31487685729E-01  0.60431479210E-01  0.51100000000E-03 0.  1.
         11    1    4    4    0    0 -0.30123985788E-01 -0.57732879070E-01  0.15689824891E-01  0.66984860764E-01  0.51100000000E-03 0. -1.
</event>
<event>
 8    1  0.1150863E+005  0.1043930E+01  0.7957747E-01            NaN
         13   -1    0    0    0    0  0.00000000000E+00  0.00000000000E+00  0.74505805969E-08  0.10566000000E+00  0.10566000000E+00 0. -1.
     999900   -1    0    0    0    0 -0.00000000000E+00 -0.00000000000E+00 -0.74505805969E-08  0.93827000000E+00  0.93827000000E+00 0. -1.
     999902    2    1    2    0    0  0.16954503812E-01  0.89877705392E-02 -0.12992946817E-01  0.10207556201E+01  0.10204925203E+01 0.  0.
     999903    2    3    3    0    0  0.21466880669E-01 -0.29138908525E-01  0.12287943543E+00  0.12950071294E+00  0.19004632156E-01 0.  0.
         14    1    1    2    0    0 -0.16954503812E-01 -0.89877705392E-02  0.12992946817E-01  0.23174379943E-01  0.00000000000E+00 0. -1.
     999901    1    3    3    0    0 -0.45123768574E-02  0.38126679065E-01 -0.13587238225E+00  0.89125490712E+00  0.88000000000E+00 0. -1.
        -11    1    4    4    0    0 -0.69781416983E-03 -0.97617113991E-02  0.48986845030E-01  0.49957482533E-01  0.51100000000E-03 0.  1.
         11    1    4    4    0    0  0.22164694839E-01 -0.19377197126E-01  0.73892590405E-01  0.79543230407E-01  0.51100000000E-03 0. -1.
</event>
<event>
 8    1  0.1150863E+005  0.1043930E+01  0.7957747E-01            NaN
         13   -1    0    0    0    0  0.00000000000E+00  0.00000000000E+00  0.74505805969E-08  0.10566000000E+00  0.10566000000E+00 0.  1.
     999900   -1    0    0    0    0 -0.00000000000E+00 -0.00000000000E+00 -0.74505805969E-08  0.93827000000E+00  0.93827000000E+00 0. -1.
     999902    2    1    2    0    0  0.41240479586E-02 -0.12145459068E-01  0.21231190104E-01  0.10191250936E+01  0.10188231805E+01 0.  0.
     999903    2    3    3    0    0  0.25091693782E-01 -0.11488861677E+00 -0.51246001741E-01  0.12994078091E+00  0.20723573267E-01 0.  0.
         14    1    1    2    0    0 -0.41240479586E-02  0.12145459068E-01 -0.21231190104E-01  0.24804906385E-01  0.00000000000E+00 0. -1.
     999901    1    3    3    0    0 -0.20967645824E-01  0.10274315770E+00  0.72477191845E-01  0.88918431271E+00  0.88000000000E+00 0.  1.
        -11    1    4    4    0    0  0.11680152832E-01 -0.43382701476E-01 -0.90418311483E-02  0.45831218498E-01  0.51100000000E-03 0.  1.
         11    1    4    4    0    0  0.13411540951E-01 -0.71505915292E-01 -0.42204170593E-01  0.84109562410E-01  0.51100000000E-03 0. -1.
</event>
<event>
 8    1  0.1150863E+005  0.1043930E+01  0.7957747E-01            NaN
         13   -1    0    0    0    0  0.00000000000E+00  0.00000000000E+00  0.74505805969E-08  0.10566000000E+00  0.10566000000E+00 0. -1.
     999900   -1    0    0    0    0 -0.00000000000E+00 -0.00000000000E+00 -0.74505805969E-08  0.93827000000E+00  0.93827000000E+00 0. -1.
     999902    2    1    2    0    0 -0.11592348443E-01 -0.37733739070E-02 -0.19914410558E-01  0.10205803824E+01  0.10203132423E+01 0.  0.
     999903    2    3    3    0    0 -0.37042958581E-01  0.46468464455E-01  0.11261480274E+00  0.12887641347E+00  0.19888116611E-01 0.  0.
         14    1    1    2    0    0  0.11592348443E-01  0.37733739070E-02  0.19914410558E-01  0.23349617576E-01  0.00000000000E+00 0. -1.
     999901    1    3    3    0    0  0.25450610138E-01 -0.50241838362E-01 -0.13252921330E+00  0.89170396896E+00  0.88000000000E+00 0. -1.
        -11    1    4    4    0    0 -0.11342663835E-01  0.28965132013E-01  0.64080210798E-01  0.71233204563E-01  0.51100000000E-03 0. -1.
         11    1    4    4    0    0 -0.25700294746E-01  0.17503332442E-01  0.48534591943E-01  0.57643208903E-01  0.51100000000E-03 0.  1.
</event>
<event>
 8    1  0.1150863E+005  0.1043930E+01  0.7957747E-01            NaN
         13   -1    0    0    0    0  0.00000000000E+00  0.00000000000E+00  0.74505805969E-08  0.10566000000E+00  0.10566000000E+00 0. -1.
     999900   -1    0    0    0    0 -0.00000000000E+00 -0.00000000000E+00 -0.74505805969E-08  0.93827000000E+00  0.93827000000E+00 0. -1.
     999902    2    1    2    0    0  0.16425142694E-01  0.16905221277E-01 -0.47202654889E-02  0.10198914325E+01  0.10196081019E+01 0.  0.
     999903    2    3    3    0    0  0.69561162370E-01 -0.10492172608E+00 -0.24219203813E-01  0.12969738051E+00  0.19685445466E-01 0.  0.
         14    1    1    2    0    0 -0.16425142694E-01 -0.16905221277E-01  0.47202654889E-02  0.24038567454E-01  0.00000000000E+00 0.  1.
     999901    1    3    3    0    0 -0.53136019676E-01  0.12182694736E+00  0.19498938324E-01  0.89019405204E+00  0.88000000000E+00 0.  1.
        -11    1    4    4    0    0  0.50879967952E-01 -0.60253501932E-01 -0.12133520817E-01  0.79791848470E-01  0.51100000000E-03 0.  1.
         11    1    4    4    0    0  0.18681194418E-01 -0.44668224148E-01 -0.12085682996E-01  0.49905532038E-01  0.51100000000E-03 0. -1.
</event>
<event>
 8    1  0.1150863E+005  0.1043930E+01  0.7957747E-01            NaN
         13   -1    0    0    0    0  0.00000000000E+00  0.00000000000E+00  0.74505805969E-08  0.10566000000E+00  0.10566000000E+00 0. -1.
     999900   -1    0    0    0    0 -0.00000000000E+00 -0.00000000000E+00 -0.74505805969E-08  0.93827000000E+00  0.93827000000E+00 0.  1.
     999902    2    1    2    0    0 -0.76748013654E-03 -0.35348289895E-02 -0.22995336344E-01  0.10206519087E+01  0.10203864215E+01 0.  0.
     999903    2    3    3    0    0  0.83584947814E-01  0.24412575701E-01  0.93042720697E-01  0.12859741471E+00  0.17260644334E-01 0.  0.
         14    1    1    2    0    0  0.76748013654E-03  0.35348289895E-02  0.22995336344E-01  0.23278091316E-01  0.00000000000E+00 0. -1.
     999901    1    3    3    0    0 -0.84352427951E-01 -0.27947404690E-01 -0.11603805704E+00  0.89205449397E+00  0.88000000000E+00 0. -1.
        -11    1    4    4    0    0  0.63513319492E-01  0.12179334195E-01  0.61406595822E-01  0.89181326889E-01  0.51100000000E-03 0. -1.
         11    1    4    4    0    0  0.20071628323E-01  0.12233241506E-01  0.31636124876E-01  0.39416087825E-01  0.51100000000E-03 0.  1.
</event>
<event>
 8    1  0.1150863E+005  0.1043930E+01  0.7957747E-01            NaN
         13   -1    0    0    0    0  0.00000000000E+00  0.00000000000E+00  0.74505805969E-08  0.10566000000E+00  0.10566000000E+00 0.  1.
     999900   -1    0    0    0    0 -0.00000000000E+00 -0.00000000000E+00 -0.74505805969E-08  0.93827000000E+00  0.93827000000E+00 0.  1.
     999902    2    1    2    0    0 -0.23595467782E-01 -0.12169555529E-03  0.71654329010E-02  0.10192702283E+01  0.10189718809E+01 0.  0.
     999903    2    3    3    0    0 -0.44225047697E-01  0.12111277689E+00  0.93141307007E-02  0.13071635053E+00  0.19386894910E-01 0.  0.
         14    1    1    2    0    0  0.23595467782E-01  0.12169555529E-03 -0.71654329010E-02  0.24659771660E-01  0.00000000000E+00 0. -1.
     999901    1    3    3    0    0  0.20629579914E-01 -0.12123447245E+00 -0.21486977997E-02  0.88855387781E+00  0.88000000000E+00 0.  1.
        -11    1    4    4    0    0 -0.19818292279E-01  0.78050870952E-01  0.10440468452E-01  0.81203249121E-01  0.51100000000E-03 0. -1.
         11    1    4    4    0    0 -0.24406755417E-01  0.43061905938E-01 -0.11263377512E-02  0.49513101405E-01  0.51100000000E-03 0.  1.
</event>
<event>
 8    1  0.1150863E+005  0.1043930E+01  0.7957747E-01            NaN
         13   -1    0    0    0    0  0.00000000000E+00  0.00000000000E+00  0.74505805969E-08  0.10566000000E+00  0.10566000000E+00 0. -1.
     999900   -1    0    0    0    0 -0.00000000000E+00 -0.00000000000E+00 -0.74505805969E-08  0.93827000000E+00  0.93827000000E+00 0. -1.
     999902    2    1    2    0    0 -0.15606023623E-01 -0.89175664095E-02 -0.14060140329E-01  0.10211098661E+01  0.10208548380E+01 0.  0.
     999903    2    3    3    0    0 -0.97391889671E-01 -0.15008937562E-01 -0.88889088750E-01  0.13413444132E+00  0.19502047809E-01 0.  0.
         14    1    1    2    0    0  0.15606023623E-01  0.89175664095E-02  0.14060140329E-01  0.22820133875E-01  0.00000000000E+00 0. -1.
     999901    1    3    3    0    0  0.81785866048E-01  0.60913711528E-02  0.74828948422E-01  0.88697542481E+00  0.88000000000E+00 0. -1.
        -11    1    4    4    0    0 -0.19139504517E-01  0.40271891209E-03 -0.86973350154E-02  0.21033011506E-01  0.51100000000E-03 0. -1.
         11    1    4    4    0    0 -0.78252385155E-01 -0.15411656474E-01 -0.80191753735E-01  0.11310142981E+00  0.51100000000E-03 0.  1.
</event>
<event>
 8    1  0.1150863E+005  0.1043930E+01  0.7957747E-01            NaN
         13   -1    0    0    0    0  0.00000000000E+00  0.00000000000E+00  0.74505805969E-08  0.10566000000E+00  0.10566000000E+00 0.  1.
     999900   -1    0    0    0    0 -0.00000000000E+00 -0.00000000000E+00 -0.74505805969E-08  0.93827000000E+00  0.93827000000E+00 0.  1.
     999902    2    1    2    0    0  0.18732915188E-01 -0.13182549354E-01  0.20025783573E-02  0.10209362609E+01  0.10206772931E+01 0.  0.
     999903    2    3    3    0    0 -0.23860643477E-01 -0.12411164853E+00 -0.33668157680E-01  0.13223390480E+00  0.19473806255E-01 0.  0.
         14    1    1    2    0    0 -0.18732915188E-01  0.13182549354E-01 -0.20025783573E-02  0.22993739126E-01  0.00000000000E+00 0. -1.
     999901    1    3    3    0    0  0.42593558665E-01  0.11092909917E+00  0.35670736037E-01  0.88870235607E+00  0.88000000000E+00 0.  1.
        -11    1    4    4    0    0 -0.10172873493E-01 -0.96661278293E-01 -0.25316038839E-01  0.10043930018E+00  0.51100000000E-03 0. -1.
         11    1    4    4    0    0 -0.13687769983E-01 -0.27450370233E-01 -0.83521188406E-02  0.31794604623E-01  0.51100000000E-03 0.  1.
</event>
<event>
 8    1  0.1150863E+005  0.1043930E+01  0.7957747E-01            NaN
         13   -1    0    0    0    0  0.00000000000E+00  0.00000000000E+00  0.74505805969E-08  0.10566000000E+00  0.10566000000E+00 0.  1.
     999900   -1    0    0    0    0 -0.00000000000E+00 -0.00000000000E+00 -0.74505805969E-08  0.93827000000E+00  0.93827000000E+00 0.  1.
     999902    2    1    2    0    0 -0.22022808278E-01 -0.81189218984E-02 -0.77337458372E-02  0.10192170115E+01  0.10189173591E+01 0.  0.
     999903    2    3    3    0    0 -0.90038744637E-01  0.68152898326E-01  0.62322573637E-01  0.13053740326E+00  0.20102670931E-01 0.  0.
         14    1    1    2    0    0  0.22022808278E-01  0.81189218984E-02  0.77337458372E-02  0.24712988527E-01  0.00000000000E+00 0.  1.
     999901    1    3    3    0    0  0.68015936359E-01 -0.76271820224E-01 -0.70056319474E-01  0.88867960822E+00  0.88000000000E+00 0.  1.
        -11    1    4    4    0    0 -0.27115536889E-01  0.18374738813E-01  0.28666436825E-01  0.43530553506E-01  0.51100000000E-03 0.  1.
         11    1    4    4    0    0 -0.62923207748E-01  0.49778159513E-01  0.33656136811E-01  0.87006849752E-01  0.51100000000E-03 0. -1.
</event>
<event>
 8    1  0.1150863E+005  0.1043930E+01  0.7957747E-01            NaN
         13   -1    0    0    0    0  0.00000000000E+00  0.00000000000E+00  0.74505805969E-08  0.10566000000E+00  0.10566000000E+00 0.  1.
     999900   -1    0    0    0    0 -0.00000000000E+00 -0.00000000000E+00 -0.74505805969E-08  0.93827000000E+00  0.93827000000E+00 0.  1.
     999902    2    1    2    0    0 -0.65105807356E-02 -0.22029005124E-01 -0.51754326752E-02  0.10203832416E+01  0.10201115184E+01 0.  0.
     999903    2    3    3    0    0 -0.12902847652E+00  0.59300486283E-02 -0.13369554561E-01  0.13141783894E+00  0.20208665779E-01 0.  0.
         14    1    1    2    0    0  0.65105807356E-02  0.22029005124E-01  0.51754326752E-02  0.23546758411E-01  0.00000000000E+00 0.  1.
     999901    1    3    3    0    0  0.12251789578E+00 -0.27959053752E-01  0.81941218862E-02  0.88896540265E+00  0.88000000000E+00 0.  1.
        -11    1    4    4    0    0 -0.10352620069E+00 -0.32031206157E-02 -0.12284066569E-01  0.10430289365E+00  0.51100000000E-03 0. -1.
         11    1    4    4    0    0 -0.25502275830E-01  0.91331692440E-02 -0.10854879920E-02  0.27114945291E-01  0.51100000000E-03 0.  1.
</event>
<event>
 8    1  0.1150863E+005  0.1043930E+01  0.7957747E-01            NaN
         13   -1    0    0    0    0  0.00000000000E+00  0.00000000000E+00  0.74505805969E-08  0.10566000000E+00  0.10566000000E+00 0. -1.
     999900   -1    0    0    0    0 -0.00000000000E+00 -0.00000000000E+00 -0.74505805969E-08  0.93827000000E+00  0.93827000000E+00 0. -1.
     999902    2    1    2    0    0 -0.11770025489E-01  0.20396046086E-01  0.36804283957E-02  0.10200956183E+01  0.10198171369E+01 0.  0.
     999903    2    3    3    0    0 -0.76866543320E-01 -0.82039763987E-01  0.61908819987E-01  0.12985902203E+00  0.19790787093E-01 0.  0.
         14    1    1    2    0    0  0.11770025489E-01 -0.20396046086E-01 -0.36804283957E-02  0.23834381660E-01  0.00000000000E+00 0.  1.
     999901    1    3    3    0    0  0.65096517832E-01  0.10243581007E+00 -0.58228391591E-01  0.89023659631E+00  0.88000000000E+00 0. -1.
        -11    1    4    4    0    0 -0.38268177583E-01 -0.54783509093E-01  0.34025746903E-01  0.74991325214E-01  0.51100000000E-03 0. -1.
         11    1    4    4    0    0 -0.38598365737E-01 -0.27256254894E-01  0.27883073084E-01  0.54867696817E-01  0.51100000000E-03 0.  1.
</event>
<event>
 8    1  0.1150863E+005  0.1043930E+01  0.7957747E-01            NaN
         13   -1    0    0    0    0  0.00000000000E+00  0.00000000000E+00  0.74505805969E-08  0.10566000000E+00  0.10566000000E+00 0.  1.
     999900   -1    0    0    0    0 -0.00000000000E+00 -0.00000000000E+00 -0.74505805969E-08  0.93827000000E+00  0.93827000000E+00 0. -1.
     999902    2    1    2    0    0 -0.15840632479E-01 -0.16817264641E-01  0.32326839015E-02  0.10206019852E+01  0.10203353449E+01 0.  0.
     999903    2    3    3    0    0  0.49861451787E-01  0.11321580637E+00 -0.25743631964E-01  0.12815311258E+00  0.21365918932E-01 0.  0.
         14    1    1    2    0    0  0.15840632479E-01  0.16817264641E-01 -0.32326839015E-02  0.23328014758E-01  0.00000000000E+00 0.  1.
     999901    1    3    3    0    0 -0.65702084266E-01 -0.13003307101E+00  0.28976315865E-01  0.89244887266E+00  0.88000000000E+00 0.  1.
        -11    1    4    4    0    0  0.44529888152E-01  0.79705254964E-01 -0.14784223844E-01  0.92491475301E-01  0.51100000000E-03 0. -1.
         11    1    4    4    0    0  0.53315636353E-02  0.33510551403E-01 -0.10959408120E-01  0.35661637280E-01  0.51100000000E-03 0.  1.
</event>
<event>
 8    1  0.1150863E+005  0.1043930E+01  0.7957747E-01            NaN
         13   -1    0    0    0    0  0.00000000000E+00  0.00000000000E+00  0.74505805969E-08  0.10566000000E+00  0.10566000000E+00 0. -1.
     999900   -1    0    0    0    0 -0.00000000000E+00 -0.00000000000E+00 -0.74505805969E-08  0.93827000000E+00  0.93827000000E+00 0.  1.
     999902    2    1    2    0    0 -0.17603911807E-01  0.16875973892E-01 -0.27271539621E-01  0.10073453983E+01  0.10066808424E+01 0.  0.
     999903    2    3    3    0    0 -0.94901278860E-01 -0.13504822054E-01 -0.73195771077E-01  0.12224262987E+00  0.19925027105E-01 0.  0.
         14    1    1    2    0    0  0.17603911807E-01 -0.16875973892E-01  0.27271539621E-01  0.36584601665E-01  0.00000000000E+00 0.  1.
     999901    1    3    3    0    0  0.77297367053E-01  0.30380795946E-01  0.45924231456E-01  0.88510276847E+00  0.88000000000E+00 0. -1.
        -11    1    4    4    0    0 -0.80577134453E-01 -0.18579536815E-01 -0.62395059916E-01  0.10359188389E+00  0.51100000000E-03 0.  1.
         11    1    4    4    0    0 -0.14324144407E-01  0.50747147614E-02 -0.10800711161E-01  0.18650745976E-01  0.51100000000E-03 0. -1.
</event>
<event>
 8    1  0.1150863E+005  0.1043930E+01  0.7957747E-01            NaN
         13   -1    0    0    0    0  0.00000000000E+00  0.00000000000E+00  0.74505805969E-08  0.10566000000E+00  0.10566000000E+00 0.  1.
     999900   -1    0    0    0    0 -0.00000000000E+00 -0.00000000000E+00 -0.74505805969E-08  0.93827000000E+00  0.93827000000E+00 0. -1.
     999902    2    1    2    0    0  0.29852976888E-02  0.22086773146E-01 -0.11062340707E-01  0.10190480199E+01  0.10187442044E+01 0.  0.
     999903    2    3    3    0    0  0.10874388772E-01 -0.12295321213E+00  0.24325117960E-01  0.12643886284E+00  0.12622597507E-01 0.  0.
         14    1    1    2    0    0 -0.29852976888E-02 -0.22086773146E-01  0.11062340707E-01  0.24881980070E-01  0.00000000000E+00 0.  1.
     999901    1    3    3    0    0 -0.78890910836E-02  0.14503998528E+00 -0.35387458667E-01  0.89260915709E+00  0.88000000000E+00 0. -1.
        -11    1    4    4    0    0  0.82750602451E-02 -0.50230315183E-01  0.14993223357E-01  0.53071829185E-01  0.51100000000E-03 0.  1.
         11    1    4    4    0    0  0.25993285273E-02 -0.72722896950E-01  0.93318946035E-02  0.73367033656E-01  0.51100000000E-03 0. -1.
</event>
<event>
 8    1  0.1150863E+005  0.1043930E+01  0.7957747E-01            NaN
         13   -1    0    0    0    0  0.00000000000E+00  0.00000000000E+00  0.74505805969E-08  0.10566000000E+00  0.10566000000E+00 0.  1.
     999900   -1    0    0    0    0 -0.00000000000E+00 -0.00000000000E+00 -0.74505805969E-08  0.93827000000E+00  0.93827000000E+00 0. -1.
     999902    2    1    2    0    0 -0.10469106258E-01 -0.23074777853E-01 -0.69895754755E-03  0.10185817042E+01  0.10182662481E+01 0.  0.
     999903    2    3    3    0    0 -0.47328705057E-01  0.11451814645E+00  0.18487368646E-01  0.12692114212E+00  0.20317020684E-01 0.  0.
         14    1    1    2    0    0  0.10469106258E-01  0.23074777853E-01  0.69895754755E-03  0.25348295810E-01  0.00000000000E+00 0.  1.
     999901    1    3    3    0    0  0.36859598800E-01 -0.13759292430E+00 -0.19186326193E-01  0.89166056207E+00  0.88000000000E+00 0.  1.
        -11    1    4    4    0    0 -0.18449243552E-01  0.61893454494E-01  0.17882319261E-02  0.64611401403E-01  0.51100000000E-03 0.  1.
         11    1    4    4    0    0 -0.28879461505E-01  0.52624691952E-01  0.16699136720E-01  0.62309740716E-01  0.51100000000E-03 0. -1.
</event>
<event>
 8    1  0.1150863E+005  0.1043930E+01  0.7957747E-01            NaN
         13   -1    0    0    0    0  0.00000000000E+00  0.00000000000E+00  0.74505805969E-08  0.10566000000E+00  0.10566000000E+00 0. -1.
     999900   -1    0    0    0    0 -0.00000000000E+00 -0.00000000000E+00 -0.74505805969E-08  0.93827000000E+00  0.93827000000E+00 0. -1.
     999902    2    1    2    0    0 -0.47936945425E-02  0.22787193867E-01 -0.36728324989E-02  0.10203561711E+01  0.10200838154E+01 0.  0.
     999903    2    3    3    0    0 -0.71250009560E-01  0.81522519893E-01 -0.76600583101E-01  0.13289646093E+00  0.84459980504E-02 0.  0.
         14    1    1    2    0    0  0.47936945425E-02 -0.22787193867E-01  0.36728324989E-02  0.23573828926E-01  0.00000000000E+00 0.  1.
     999901    1    3    3    0    0  0.66456315018E-01 -0.58735326026E-01  0.72927750602E-01  0.88745971015E+00  0.88000000000E+00 0.  1.
        -11    1    4    4    0    0 -0.34818801474E-01  0.45999149423E-01 -0.39436194795E-01  0.69883798298E-01  0.51100000000E-03 0.  1.
         11    1    4    4    0    0 -0.36431208087E-01  0.35523370470E-01 -0.37164388306E-01  0.63012662627E-01  0.51100000000E-03 0. -1.
</event>
<event>
 8    1  0.1150863E+005  0.1043930E+01  0.7957747E-01            NaN
         13   -1    0    0    0    0  0.00000000000E+00  0.00000000000E+00  0.74505805969E-08  0.10566000000E+00  0.10566000000E+00 0.  1.
     999900   -1    0    0    0    0 -0.00000000000E+00 -0.00000000000E+00 -0.74505805969E-08  0.93827000000E+00  0.93827000000E+00 0. -1.
     999902    2    1    2    0    0  0.14958296801E-01 -0.68831137401E-02 -0.15143404352E-01  0.10215592469E+01  0.10213142731E+01 0.  0.
     999903    2    3    3    0    0 -0.32951832129E-01  0.10799451245E+00 -0.64944916220E-01  0.13140620388E+00  0.17352530538E-01 0.  0.
         14    1    1    2    0    0 -0.14958296801E-01  0.68831137401E-02  0.15143404352E-01  0.22370753079E-01  0.00000000000E+00 0.  1.
     999901    1    3    3    0    0  0.47910128930E-01 -0.11487762619E+00  0.49801511868E-01  0.89015304304E+00  0.88000000000E+00 0.  1.
        -11    1    4    4    0    0 -0.10247922006E-01  0.50865154697E-01 -0.37824195092E-01  0.64212263028E-01  0.51100000000E-03 0. -1.
         11    1    4    4    0    0 -0.22703910123E-01  0.57129357748E-01 -0.27120721128E-01  0.67193940851E-01  0.51100000000E-03 0.  1.
</event>
<event>
 8    1  0.1150863E+005  0.1043930E+01  0.7957747E-01            NaN
         13   -1    0    0    0    0  0.00000000000E+00  0.00000000000E+00  0.74505805969E-08  0.10566000000E+00  0.10566000000E+00 0. -1.
     999900   -1    0    0    0    0 -0.00000000000E+00 -0.00000000000E+00 -0.74505805969E-08  0.93827000000E+00  0.93827000000E+00 0.  1.
     999902    2    1    2    0    0  0.16240225309E-02 -0.17929409099E-01 -0.15982447875E-01  0.10198563671E+01  0.10195721994E+01 0.  0.
     999903    2    3    3    0    0 -0.71644065707E-01 -0.90527387127E-01  0.58299309744E-01  0.13072394803E+00  0.19022647049E-01 0.  0.
         14    1    1    2    0    0 -0.16240225309E-02  0.17929409099E-01  0.15982447875E-01  0.24073632877E-01  0.00000000000E+00 0. -1.
     999901    1    3    3    0    0  0.73268088237E-01  0.72597978028E-01 -0.74281757619E-01  0.88913241909E+00  0.88000000000E+00 0.  1.
        -11    1    4    4    0    0 -0.16485062670E-01 -0.32555804813E-01  0.12820645458E-01  0.38681620820E-01  0.51100000000E-03 0. -1.
         11    1    4    4    0    0 -0.55159003037E-01 -0.57971582314E-01  0.45478664286E-01  0.92042327210E-01  0.51100000000E-03 0.  1.
</event>
<event>
 7    1  0.1150863E+005  0.1043930E+01  0.7957747E-01            NaN
         13   -1    0    0    0    0  0.00000000000E+00  0.00000000000E+00  0.74505805969E-08  0.10566000000E+00  0.10566000000E+00 0. -1.
     999900   -1    0    0    0    0 -0.00000000000E+00 -0.00000000000E+00 -0.74505805969E-08  0.93827000000E+00  0.93827000000E+00 0.  1.
     999903    2    1    2    0    0  0.59874307290E-01 -0.63741116151E-01 -0.11419804627E+00  0.14522450424E+00  0.20027488620E-01 0.  0.
         14    1    1    2    0    0  0.43828388507E-02  0.34015930136E-02 -0.34163741601E-02  0.65154987394E-02  0.00000000000E+00 0. -1.
     999901    1    1    2    0    0 -0.64257146141E-01  0.60339523138E-01  0.11761442043E+00  0.89218999702E+00  0.88000000000E+00 0.  1.
        -11    1    3    3    0    0  0.15301332349E-01 -0.10717602059E-01 -0.13728044917E-01  0.23188749509E-01  0.51100000000E-03 0.  1.
         11    1    3    3    0    0  0.44572974941E-01 -0.53023514092E-01 -0.10047000135E+00  0.12203575474E+00  0.51100000000E-03 0. -1.
</event>
<event>
 8    1  0.1150863E+005  0.1043930E+01  0.7957747E-01            NaN
         13   -1    0    0    0    0  0.00000000000E+00  0.00000000000E+00  0.74505805969E-08  0.10566000000E+00  0.10566000000E+00 0. -1.
     999900   -1    0    0    0    0 -0.00000000000E+00 -0.00000000000E+00 -0.74505805969E-08  0.93827000000E+00  0.93827000000E+00 0. -1.
     999902    2    1    2    0    0 -0.48209224527E-02 -0.23547677287E-01 -0.51619473027E-02  0.10193458568E+01  0.10190493588E+01 0.  0.
     999903    2    3    3    0    0 -0.47354795015E-02  0.12388651480E+00 -0.18640533022E-01  0.12697904845E+00  0.20147356165E-01 0.  0.
         14    1    1    2    0    0  0.48209224527E-02  0.23547677287E-01  0.51619473027E-02  0.24584143240E-01  0.00000000000E+00 0.  1.
     999901    1    3    3    0    0 -0.85442951267E-04 -0.14743419208E+00  0.13478585719E-01  0.89236680831E+00  0.88000000000E+00 0. -1.
        -11    1    4    4    0    0 -0.11953537868E-01  0.62091559558E-01 -0.12522393871E-01  0.64461773984E-01  0.51100000000E-03 0.  1.
         11    1    4    4    0    0  0.72180583665E-02  0.61794955237E-01 -0.61181391513E-02  0.62517274469E-01  0.51100000000E-03 0. -1.
</event>
<event>
 8    1  0.1576565E+005  0.1043930E+01  0.7957747E-01            NaN
         13   -1    0    0    0    0  0.00000000000E+00  0.00000000000E+00  0.74505805969E-08  0.10566000000E+00  0.10566000000E+00 0. -1.
     999900   -1    0    0    0    0 -0.00000000000E+00 -0.00000000000E+00 -0.74505805969E-08  0.93827000000E+00  0.93827000000E+00 0.  1.
     999902    2    1    2    0    0  0.18700944088E-01  0.13650323444E-01  0.10277063812E-02  0.10207543054E+01  0.10204911754E+01 0.  0.
     999903    2    3    3    0    0 -0.12112276851E+00 -0.36969348694E-01  0.10885143638E-01  0.12822408693E+00  0.16895926235E-01 0.  0.
         14    1    1    2    0    0 -0.18700944088E-01 -0.13650323444E-01 -0.10277063812E-02  0.23175694602E-01  0.00000000000E+00 0. -1.
     999901    1    3    3    0    0  0.13982371259E+00  0.50619672138E-01 -0.98574372572E-02  0.89253021847E+00  0.88000000000E+00 0. -1.
        -11    1    4    4    0    0 -0.39224865615E-01 -0.91940096986E-02  0.10912728711E-01  0.41742887607E-01  0.51100000000E-03 0. -1.
         11    1    4    4    0    0 -0.81897902891E-01 -0.27775338995E-01 -0.27585072311E-04  0.86481199322E-01  0.51100000000E-03 0.  1.
</event>
<event>
 8    1  0.1150863E+005  0.1043930E+01  0.7957747E-01            NaN
         13   -1    0    0    0    0  0.00000000000E+00  0.00000000000E+00  0.74505805969E-08  0.10566000000E+00  0.10566000000E+00 0. -1.
     999900   -1    0    0    0    0 -0.00000000000E+00 -0.00000000000E+00 -0.74505805969E-08  0.93827000000E+00  0.93827000000E+00 0.  1.
     999902    2    1    2    0    0  0.11357810459E-01  0.20375505306E-01  0.90820317114E-02  0.10188971341E+01  0.10185895766E+01 0.  0.
     999903    2    3    3    0    0  0.71127460467E-01  0.14797155124E-01 -0.10529292977E+00  0.12946745118E+00  0.19928583076E-01 0.  0.
         14    1    1    2    0    0 -0.11357810459E-01 -0.20375505306E-01 -0.90820317114E-02  0.25032865894E-01  0.00000000000E+00 0.  1.
     999901    1    3    3    0    0 -0.59769650008E-01  0.55783501820E-02  0.11437496148E+00  0.88942968292E+00  0.88000000000E+00 0. -1.
        -11    1    4    4    0    0  0.45296719767E-01  0.16545938527E-01 -0.56954840068E-01  0.74630260830E-01  0.51100000000E-03 0.  1.
         11    1    4    4    0    0  0.25830740700E-01 -0.17487834032E-02 -0.48338089703E-01  0.54837190351E-01  0.51100000000E-03 0. -1.
</event>
<event>
 8    1  0.1150863E+005  0.1043930E+01  0.7957747E-01            NaN
         13   -1    0    0    0    0  0.00000000000E+00  0.00000000000E+00  0.74505805969E-08  0.10566000000E+00  0.10566000000E+00 0.  1.
     999900   -1    0    0    0    0 -0.00000000000E+00 -0.00000000000E+00 -0.74505805969E-08  0.93827000000E+00  0.93827000000E+00 0.  1.
     999902    2    1    2    0    0 -0.72358747800E-02 -0.19409734845E-01  0.12171268032E-01  0.10199042751E+01  0.10196212507E+01 0.  0.
     999903    2    3    3    0    0 -0.41109104618E-01  0.11962069009E+00 -0.59816924160E-02  0.12816082281E+00  0.19757223453E-01 0.  0.
         14    1    1    2    0    0  0.72358747800E-02  0.19409734845E-01 -0.12171268032E-01  0.24025724882E-01  0.00000000000E+00 0.  1.
     999901    1    3    3    0    0  0.33873229838E-01 -0.13903042494E+00  0.18152960448E-01  0.89174345231E+00  0.88000000000E+00 0.  1.
        -11    1    4    4    0    0 -0.78785092537E-02  0.34235249469E-01 -0.97383955831E-02  0.36458478901E-01  0.51100000000E-03 0. -1.
         11    1    4    4    0    0 -0.33230595364E-01  0.85385440625E-01  0.37567031671E-02  0.91702343911E-01  0.51100000000E-03 0.  1.
</event>
<event>
 8    1  0.1150863E+005  0.1043930E+01  0.7957747E-01            NaN
         13   -1    0    0    0    0  0.00000000000E+00  0.00000000000E+00  0.74505805969E-08  0.10566000000E+00  0.10566000000E+00 0. -1.
     999900   -1    0    0    0    0 -0.00000000000E+00 -0.00000000000E+00 -0.74505805969E-08  0.93827000000E+00  0.93827000000E+00 0. -1.
     999902    2    1    2    0    0  0.13386976277E-01 -0.73522283822E-02  0.17771041924E-01  0.10204976222E+01  0.10202285630E+01 0.  0.
     999903    2    3    3    0    0  0.46260265303E-01  0.78575775784E-01 -0.89401983188E-01  0.12923428723E+00  0.19865087789E-01 0.  0.
         14    1    1    2    0    0 -0.13386976277E-01  0.73522283822E-02 -0.17771041924E-01  0.23432377751E-01  0.00000000000E+00 0.  1.
     999901    1    3    3    0    0 -0.32873289026E-01 -0.85928004166E-01  0.10717302511E+00  0.89126333502E+00  0.88000000000E+00 0.  1.
        -11    1    4    4    0    0  0.17335579127E-01  0.25483054015E-01 -0.43534558239E-01  0.53342546130E-01  0.51100000000E-03 0.  1.
         11    1    4    4    0    0  0.28924686176E-01  0.53092721769E-01 -0.45867424949E-01  0.75891741103E-01  0.51100000000E-03 0. -1.
</event>
<event>
 8    1  0.1150863E+005  0.1043930E+01  0.7957747E-01            NaN
         13   -1    0    0    0    0  0.00000000000E+00  0.00000000000E+00  0.74505805969E-08  0.10566000000E+00  0.10566000000E+00 0.  1.
     999900   -1    0    0    0    0 -0.00000000000E+00 -0.00000000000E+00 -0.74505805969E-08  0.93827000000E+00  0.93827000000E+00 0. -1.
     999902    2    1    2    0    0 -0.11646782992E-01 -0.15899143225E-01  0.12826132575E-01  0.10204153240E+01  0.10201443494E+01 0.  0.
     999903    2    3    3    0    0  0.42980993252E-01 -0.75767804649E-01 -0.94764990140E-01  0.13016575214E+00  0.19354422525E-01 0.  0.
         14    1    1    2    0    0  0.11646782992E-01  0.15899143225E-01 -0.12826132575E-01  0.23514675975E-01  0.00000000000E+00 0. -1.
     999901    1    3    3    0    0 -0.54627776244E-01  0.59868661424E-01  0.10759112271E+00  0.89024957189E+00  0.88000000000E+00 0.  1.
        -11    1    4    4    0    0  0.16544700281E-01 -0.43953346488E-01 -0.59524420379E-01  0.75822434129E-01  0.51100000000E-03 0. -1.
         11    1    4    4    0    0  0.26436292971E-01 -0.31814458161E-01 -0.35240569761E-01  0.54343318009E-01  0.51100000000E-03 0.  1.
</event>
<event>
 8    1  0.1150863E+005  0.1043930E+01  0.7957747E-01            NaN
         13   -1    0    0    0    0  0.00000000000E+00  0.00000000000E+00  0.74505805969E-08  0.10566000000E+00  0.10566000000E+00 0. -1.
     999900   -1    0    0    0    0 -0.00000000000E+00 -0.00000000000E+00 -0.74505805969E-08  0.93827000000E+00  0.93827000000E+00 0.  1.
     999902    2    1    2    0    0  0.11578396046E-01 -0.13820447934E-01 -0.12666065977E-01  0.10218960883E+01  0.10216585154E+01 0.  0.
     999903    2    3    3    0    0  0.49440505478E-01  0.11683643714E+00 -0.25019014324E-01  0.13135841014E+00  0.23107665608E-01 0.  0.
         14    1    1    2    0    0 -0.11578396046E-01  0.13820447934E-01  0.12666065977E-01  0.22033911669E-01  0.00000000000E+00 0. -1.
     999901    1    3    3    0    0 -0.37862109432E-01 -0.13065688508E+00  0.12352948346E-01  0.89053767819E+00  0.88000000000E+00 0.  1.
        -11    1    4    4    0    0  0.30313325969E-01  0.45179909078E-01 -0.15559257507E-01  0.56590401401E-01  0.51100000000E-03 0. -1.
         11    1    4    4    0    0  0.19127179510E-01  0.71656528066E-01 -0.94597568168E-02  0.74768008737E-01  0.51100000000E-03 0.  1.
</event>
<event>
 8    1  0.1150863E+005  0.1043930E+01  0.7957747E-01            NaN
         13   -1    0    0    0    0  0.00000000000E+00  0.00000000000E+00  0.74505805969E-08  0.10566000000E+00  0.10566000000E+00 0.  1.
     999900   -1    0    0    0    0 -0.00000000000E+00 -0.00000000000E+00 -0.74505805969E-08  0.93827000000E+00  0.93827000000E+00 0.  1.
     999902    2    1    2    0    0  0.42979856990E-02 -0.20244897196E-01 -0.67967867488E-02  0.10221464086E+01  0.10219142605E+01 0.  0.
     999903    2    3    3    0    0 -0.54210307783E-01 -0.10235938147E+00 -0.65678342848E-01  0.13443415423E+00  0.18512067934E-01 0.  0.
         14    1    1    2    0    0 -0.42979856990E-02  0.20244897196E-01  0.67967867488E-02  0.21783591385E-01  0.00000000000E+00 0.  1.
     999901    1    3    3    0    0  0.58508293482E-01  0.82114484277E-01  0.58881556099E-01  0.88771225438E+00  0.88000000000E+00 0. -1.
        -11    1    4    4    0    0 -0.27983904061E-01 -0.38026339338E-01 -0.19935262795E-01  0.51252094530E-01  0.51100000000E-03 0.  1.
         11    1    4    4    0    0 -0.26226403722E-01 -0.64333042135E-01 -0.45743080052E-01  0.83182059701E-01  0.51100000000E-03 0. -1.
</event>
